Generated by trjconv : CNT in water t= 519.00000
33518
    1C        C    1   2.841   2.766   4.747
    1C        C    2   2.895   2.717   4.868
    1C        C    3   2.836   2.767   4.985
    1C        C    4   2.847   2.771   4.259
    1C        C    5   2.897   2.722   4.382
    1C        C    6   2.840   2.764   4.504
    1C        C    7   3.010   2.636   4.624
    1C        C    8   2.893   2.715   4.626
    1C        C    9   3.076   2.605   4.745
    1C        C   10   3.010   2.636   4.866
    1C        C   11   3.185   2.499   4.976
    1C        C   12   3.062   2.566   4.976
    1C        C   13   2.847   2.766   3.772
    1C        C   14   2.899   2.718   3.894
    1C        C   15   2.850   2.774   4.014
    1C        C   16   3.019   2.647   4.139
    1C        C   17   2.903   2.728   4.137
    1C        C   18   3.081   2.611   4.261
    1C        C   19   3.016   2.645   4.381
    1C        C   20   3.211   2.562   4.504
    1C        C   21   3.077   2.607   4.503
    1C        C   22   3.280   2.539   4.626
    1C        C   23   3.209   2.554   4.747
    1C        C   24   3.416   2.487   4.863
    1C        C   25   3.274   2.506   4.864
    1C        C   26   3.494   2.479   4.979
    1C        C   27   2.849   2.768   3.282
    1C        C   28   2.901   2.721   3.404
    1C        C   29   2.851   2.766   3.528
    1C        C   30   3.017   2.636   3.652
    1C        C   31   2.903   2.719   3.651
    1C        C   32   3.079   2.600   3.774
    1C        C   33   3.016   2.638   3.895
    1C        C   34   3.210   2.553   4.016
    1C        C   35   3.081   2.609   4.017
    1C        C   36   3.278   2.537   4.138
    1C        C   37   3.210   2.554   4.260
    1C        C   38   3.416   2.509   4.382
    1C        C   39   3.277   2.534   4.383
    1C        C   40   3.489   2.500   4.503
    1C        C   41   3.418   2.508   4.624
    1C        C   42   3.634   2.483   4.745
    1C        C   43   3.492   2.486   4.743
    1C        C   44   3.707   2.485   4.866
    1C        C   45   3.633   2.478   4.984
    1C        C   46   2.836   2.751   2.792
    1C        C   47   2.894   2.712   2.914
    1C        C   48   2.842   2.759   3.037
    1C        C   49   3.017   2.640   3.163
    1C        C   50   2.898   2.716   3.160
    1C        C   51   3.081   2.610   3.286
    1C        C   52   3.016   2.639   3.408
    1C        C   53   3.208   2.546   3.527
    1C        C   54   3.078   2.601   3.530
    1C        C   55   3.275   2.525   3.650
    1C        C   56   3.211   2.549   3.773
    1C        C   57   3.419   2.504   3.894
    1C        C   58   3.280   2.530   3.895
    1C        C   59   3.488   2.497   4.017
    1C        C   60   3.416   2.504   4.138
    1C        C   61   3.628   2.497   4.258
    1C        C   62   3.487   2.496   4.260
    1C        C   63   3.700   2.498   4.379
    1C        C   64   3.630   2.499   4.502
    1C        C   65   3.840   2.535   4.620
    1C        C   66   3.703   2.498   4.623
    1C        C   67   3.908   2.559   4.741
    1C        C   68   3.842   2.523   4.861
    1C        C   69   4.052   2.584   4.980
    1C        C   70   3.927   2.522   4.973
    1C        C   71   2.823   2.734   2.306
    1C        C   72   2.883   2.693   2.427
    1C        C   73   2.831   2.741   2.549
    1C        C   74   3.009   2.625   2.671
    1C        C   75   2.887   2.697   2.671
    1C        C   76   3.071   2.595   2.794
    1C        C   77   3.010   2.630   2.917
    1C        C   78   3.203   2.546   3.039
    1C        C   79   3.071   2.598   3.040
    1C        C   80   3.272   2.527   3.160
    1C        C   81   3.211   2.554   3.284
    1C        C   82   3.416   2.499   3.402
    1C        C   83   3.277   2.527   3.406
    1C        C   84   3.484   2.498   3.526
    1C        C   85   3.415   2.504   3.649
    1C        C   86   3.629   2.495   3.769
    1C        C   87   3.487   2.494   3.770
    1C        C   88   3.697   2.506   3.892
    1C        C   89   3.629   2.497   4.016
    1C        C   90   3.838   2.543   4.136
    1C        C   91   3.701   2.508   4.138
    1C        C   92   3.901   2.570   4.259
    1C        C   93   3.836   2.536   4.380
    1C        C   94   4.032   2.628   4.500
    1C        C   95   3.908   2.560   4.499
    1C        C   96   4.094   2.668   4.620
    1C        C   97   4.035   2.623   4.741
    1C        C   98   4.186   2.765   4.862
    1C        C   99   4.103   2.649   4.863
    1C        C  100   4.216   2.839   4.977
    1C        C  101   2.819   2.728   2.068
    1C        C  102   2.989   2.591   2.189
    1C        C  103   2.874   2.676   2.186
    1C        C  104   3.060   2.570   2.310
    1C        C  105   3.003   2.619   2.430
    1C        C  106   3.202   2.537   2.551
    1C        C  107   3.070   2.587   2.550
    1C        C  108   3.269   2.517   2.674
    1C        C  109   3.200   2.538   2.796
    1C        C  110   3.410   2.497   2.916
    1C        C  111   3.271   2.522   2.918
    1C        C  112   3.482   2.493   3.038
    1C        C  113   3.411   2.499   3.159
    1C        C  114   3.626   2.498   3.279
    1C        C  115   3.485   2.489   3.279
    1C        C  116   3.694   2.509   3.403
    1C        C  117   3.625   2.502   3.526
    1C        C  118   3.835   2.542   3.647
    1C        C  119   3.698   2.506   3.647
    1C        C  120   3.900   2.569   3.769
    1C        C  121   3.833   2.542   3.891
    1C        C  122   4.022   2.642   4.012
    1C        C  123   3.900   2.571   4.012
    1C        C  124   4.086   2.673   4.134
    1C        C  125   4.030   2.629   4.256
    1C        C  126   4.198   2.759   4.375
    1C        C  127   4.090   2.668   4.377
    1C        C  128   4.240   2.818   4.497
    1C        C  129   4.193   2.769   4.620
    1C        C  130   4.331   2.930   4.740
    1C        C  131   4.242   2.819   4.742
    1C        C  132   4.354   3.002   4.859
    1C        C  133   4.284   2.960   4.973
    1C        C  134   3.173   2.466   2.082
    1C        C  135   3.041   2.512   2.081
    1C        C  136   3.260   2.480   2.191
    1C        C  137   3.192   2.516   2.309
    1C        C  138   3.405   2.479   2.430
    1C        C  139   3.266   2.505   2.429
    1C        C  140   3.479   2.478   2.550
    1C        C  141   3.408   2.492   2.671
    1C        C  142   3.620   2.496   2.790
    1C        C  143   3.479   2.491   2.793
    1C        C  144   3.692   2.504   2.912
    1C        C  145   3.623   2.495   3.035
    1C        C  146   3.833   2.538   3.157
    1C        C  147   3.696   2.504   3.156
    1C        C  148   3.901   2.558   3.279
    1C        C  149   3.832   2.540   3.400
    1C        C  150   4.026   2.624   3.522
    1C        C  151   3.899   2.563   3.522
    1C        C  152   4.085   2.667   3.644
    1C        C  153   4.024   2.636   3.768
    1C        C  154   4.196   2.761   3.886
    1C        C  155   4.085   2.673   3.890
    1C        C  156   4.244   2.810   4.010
    1C        C  157   4.198   2.759   4.133
    1C        C  158   4.339   2.919   4.254
    1C        C  159   4.252   2.808   4.254
    1C        C  160   4.375   2.982   4.375
    1C        C  161   4.328   2.929   4.497
    1C        C  162   4.437   3.112   4.616
    1C        C  163   4.374   2.985   4.618
    1C        C  164   4.464   3.183   4.734
    1C        C  165   4.430   3.121   4.857
    1C        C  166   4.508   3.321   4.971
    1C        C  167   4.480   3.185   4.971
    1C        C  168   3.474   2.435   2.074
    1C        C  169   3.399   2.455   2.191
    1C        C  170   3.617   2.459   2.308
    1C        C  171   3.475   2.459   2.310
    1C        C  172   3.692   2.477   2.427
    1C        C  173   3.620   2.482   2.548
    1C        C  174   3.828   2.539   2.666
    1C        C  175   3.691   2.505   2.669
    1C        C  176   3.895   2.560   2.789
    1C        C  177   3.829   2.538   2.912
    1C        C  178   4.025   2.622   3.031
    1C        C  179   3.898   2.561   3.033
    1C        C  180   4.085   2.659   3.153
    1C        C  181   4.028   2.621   3.277
    1C        C  182   4.195   2.751   3.398
    1C        C  183   4.085   2.662   3.399
    1C        C  184   4.245   2.803   3.520
    1C        C  185   4.196   2.754   3.643
    1C        C  186   4.337   2.916   3.763
    1C        C  187   4.248   2.807   3.763
    1C        C  188   4.373   2.976   3.886
    1C        C  189   4.332   2.920   4.009
    1C        C  190   4.438   3.105   4.130
    1C        C  191   4.375   2.979   4.131
    1C        C  192   4.463   3.173   4.251
    1C        C  193   4.441   3.107   4.374
    1C        C  194   4.500   3.315   4.490
    1C        C  195   4.465   3.178   4.494
    1C        C  196   4.518   3.388   4.609
    1C        C  197   4.504   3.320   4.731
    1C        C  198   4.550   3.534   4.851
    1C        C  199   4.526   3.393   4.851
    1C        C  200   4.583   3.618   4.962
    1C        C  201   3.614   2.421   2.072
    1C        C  202   3.828   2.503   2.183
    1C        C  203   3.691   2.460   2.186
    1C        C  204   3.896   2.541   2.301
    1C        C  205   3.828   2.516   2.423
    1C        C  206   4.019   2.618   2.543
    1C        C  207   3.893   2.553   2.542
    1C        C  208   4.080   2.658   2.664
    1C        C  209   4.022   2.622   2.787
    1C        C  210   4.196   2.745   2.907
    1C        C  211   4.085   2.657   2.908
    1C        C  212   4.248   2.795   3.028
    1C        C  213   4.195   2.748   3.150
    1C        C  214   4.326   2.911   3.272
    1C        C  215   4.243   2.797   3.274
    1C        C  216   4.365   2.973   3.394
    1C        C  217   4.327   2.917   3.518
    1C        C  218   4.432   3.102   3.638
    1C        C  219   4.374   2.973   3.639
    1C        C  220   4.455   3.170   3.760
    1C        C  221   4.433   3.104   3.884
    1C        C  222   4.500   3.305   4.004
    1C        C  223   4.465   3.168   4.006
    1C        C  224   4.514   3.377   4.124
    1C        C  225   4.498   3.310   4.248
    1C        C  226   4.514   3.526   4.365
    1C        C  227   4.509   3.385   4.368
    1C        C  228   4.520   3.597   4.486
    1C        C  229   4.531   3.529   4.609
    1C        C  230   4.495   3.742   4.728
    1C        C  231   4.531   3.604   4.729
    1C        C  232   4.496   3.820   4.846
    1C        C  233   4.545   3.753   4.958
    1C        C  234   4.013   2.613   2.064
    1C        C  235   3.896   2.538   2.065
    1C        C  236   4.080   2.651   2.180
    1C        C  237   4.020   2.611   2.302
    1C        C  238   4.196   2.738   2.419
    1C        C  239   4.083   2.651   2.421
    1C        C  240   4.249   2.787   2.541
    1C        C  241   4.193   2.743   2.662
    1C        C  242   4.333   2.904   2.782
    1C        C  243   4.246   2.793   2.784
    1C        C  244   4.372   2.963   2.904
    1C        C  245   4.333   2.908   3.028
    1C        C  246   4.429   3.096   3.147
    1C        C  247   4.368   2.969   3.150
    1C        C  248   4.451   3.162   3.270
    1C        C  249   4.427   3.099   3.394
    1C        C  250   4.488   3.305   3.515
    1C        C  251   4.455   3.167   3.515
    1C        C  252   4.497   3.374   3.638
    1C        C  253   4.493   3.306   3.761
    1C        C  254   4.515   3.517   3.877
    1C        C  255   4.511   3.376   3.882
    1C        C  256   4.514   3.589   3.998
    1C        C  257   4.518   3.518   4.120
    1C        C  258   4.497   3.732   4.242
    1C        C  259   4.517   3.593   4.240
    1C        C  260   4.478   3.804   4.362
    1C        C  261   4.491   3.736   4.485
    1C        C  262   4.428   3.942   4.604
    1C        C  263   4.472   3.807   4.605
    1C        C  264   4.409   4.014   4.724
    1C        C  265   4.440   3.950   4.845
    1C        C  266   4.319   4.131   4.960
    1C        C  267   4.385   4.008   4.960
    1C        C  268   4.258   2.777   2.061
    1C        C  269   4.195   2.734   2.179
    1C        C  270   4.344   2.891   2.297
    1C        C  271   4.253   2.782   2.298
    1C        C  272   4.380   2.956   2.417
    1C        C  273   4.335   2.899   2.538
    1C        C  274   4.441   3.086   2.657
    1C        C  275   4.375   2.961   2.659
    1C        C  276   4.463   3.153   2.779
    1C        C  277   4.436   3.090   2.902
    1C        C  278   4.494   3.295   3.022
    1C        C  279   4.460   3.158   3.023
    1C        C  280   4.507   3.365   3.144
    1C        C  281   4.492   3.297   3.267
    1C        C  282   4.514   3.508   3.389
    1C        C  283   4.506   3.367   3.390
    1C        C  284   4.512   3.581   3.509
    1C        C  285   4.513   3.515   3.634
    1C        C  286   4.497   3.728   3.753
    1C        C  287   4.514   3.588   3.755
    1C        C  288   4.478   3.797   3.875
    1C        C  289   4.493   3.729   3.998
    1C        C  290   4.423   3.930   4.118
    1C        C  291   4.479   3.800   4.119
    1C        C  292   4.395   3.997   4.239
    1C        C  293   4.430   3.937   4.362
    1C        C  294   4.328   4.128   4.479
    1C        C  295   4.396   4.005   4.482
    1C        C  296   4.285   4.187   4.600
    1C        C  297   4.329   4.132   4.722
    1C        C  298   4.201   4.313   4.839
    1C        C  299   4.284   4.196   4.841
    1C        C  300   4.168   4.401   4.947
    1C        C  301   4.351   2.880   2.063
    1C        C  302   4.472   3.069   2.174
    1C        C  303   4.398   2.946   2.177
    1C        C  304   4.486   3.143   2.294
    1C        C  305   4.450   3.079   2.415
    1C        C  306   4.512   3.285   2.533
    1C        C  307   4.474   3.149   2.535
    1C        C  308   4.510   3.357   2.654
    1C        C  309   4.497   3.290   2.778
    1C        C  310   4.522   3.503   2.898
    1C        C  311   4.512   3.362   2.899
    1C        C  312   4.516   3.574   3.020
    1C        C  313   4.517   3.506   3.143
    1C        C  314   4.485   3.716   3.266
    1C        C  315   4.510   3.577   3.265
    1C        C  316   4.474   3.788   3.387
    1C        C  317   4.494   3.721   3.510
    1C        C  318   4.438   3.929   3.629
    1C        C  319   4.482   3.795   3.630
    1C        C  320   4.401   3.994   3.749
    1C        C  321   4.428   3.929   3.872
    1C        C  322   4.323   4.113   3.993
    1C        C  323   4.397   3.993   3.994
    1C        C  324   4.282   4.175   4.114
    1C        C  325   4.327   4.121   4.236
    1C        C  326   4.187   4.284   4.353
    1C        C  327   4.288   4.185   4.356
    1C        C  328   4.134   4.336   4.473
    1C        C  329   4.191   4.292   4.595
    1C        C  330   4.026   4.431   4.712
    1C        C  331   4.141   4.348   4.715
    1C        C  332   3.970   4.487   4.829
    1C        C  333   4.056   4.485   4.940
    1C        C  334   4.548   3.268   2.057
    1C        C  335   4.534   3.129   2.059
    1C        C  336   4.531   3.350   2.169
    1C        C  337   4.514   3.282   2.292
    1C        C  338   4.523   3.499   2.410
    1C        C  339   4.522   3.357   2.412
    1C        C  340   4.524   3.570   2.532
    1C        C  341   4.518   3.498   2.653
    1C        C  342   4.494   3.711   2.774
    1C        C  343   4.515   3.571   2.775
    1C        C  344   4.484   3.783   2.895
    1C        C  345   4.497   3.715   3.018
    1C        C  346   4.427   3.914   3.138
    1C        C  347   4.474   3.780   3.141
    1C        C  348   4.397   3.980   3.259
    1C        C  349   4.428   3.922   3.384
    1C        C  350   4.324   4.105   3.502
    1C        C  351   4.404   3.989   3.505
    1C        C  352   4.279   4.165   3.623
    1C        C  353   4.323   4.111   3.746
    1C        C  354   4.177   4.262   3.866
    1C        C  355   4.278   4.163   3.869
    1C        C  356   4.120   4.309   3.987
    1C        C  357   4.177   4.269   4.110
    1C        C  358   4.007   4.395   4.230
    1C        C  359   4.128   4.323   4.231
    1C        C  360   3.949   4.441   4.351
    1C        C  361   4.016   4.414   4.472
    1C        C  362   3.827   4.517   4.591
    1C        C  363   3.956   4.459   4.592
    1C        C  364   3.761   4.546   4.712
    1C        C  365   3.839   4.539   4.829
    1C        C  366   3.631   4.595   4.945
    1C        C  367   3.767   4.565   4.947
    1C        C  368   4.512   3.568   2.052
    1C        C  369   4.521   3.491   2.169
    1C        C  370   4.509   3.709   2.287
    1C        C  371   4.519   3.568   2.287
    1C        C  372   4.493   3.781   2.408
    1C        C  373   4.500   3.709   2.529
    1C        C  374   4.426   3.909   2.647
    1C        C  375   4.482   3.779   2.651
    1C        C  376   4.399   3.975   2.769
    1C        C  377   4.434   3.915   2.892
    1C        C  378   4.325   4.096   3.011
    1C        C  379   4.398   3.976   3.014
    1C        C  380   4.279   4.153   3.132
    1C        C  381   4.319   4.098   3.256
    1C        C  382   4.178   4.254   3.376
    1C        C  383   4.279   4.155   3.378
    1C        C  384   4.120   4.302   3.496
    1C        C  385   4.172   4.257   3.619
    1C        C  386   4.003   4.380   3.740
    1C        C  387   4.122   4.304   3.743
    1C        C  388   3.941   4.418   3.861
    1C        C  389   4.004   4.390   3.984
    1C        C  390   3.812   4.476   4.106
    1C        C  391   3.943   4.421   4.107
    1C        C  392   3.747   4.503   4.228
    1C        C  393   3.818   4.493   4.350
    1C        C  394   3.614   4.552   4.474
    1C        C  395   3.753   4.525   4.471
    1C        C  396   3.544   4.562   4.596
    1C        C  397   3.620   4.557   4.714
    1C        C  398   3.409   4.546   4.839
    1C        C  399   3.548   4.571   4.835
    1C        C  400   3.338   4.515   4.955
    1C        C  401   4.502   3.707   2.052
    1C        C  402   4.456   3.919   2.165
    1C        C  403   4.501   3.785   2.168
    1C        C  404   4.415   3.980   2.286
    1C        C  405   4.448   3.915   2.407
    1C        C  406   4.328   4.096   2.525
    1C        C  407   4.406   3.978   2.526
    1C        C  408   4.280   4.153   2.646
    1C        C  409   4.319   4.092   2.767
    1C        C  410   4.173   4.245   2.889
    1C        C  411   4.278   4.150   2.889
    1C        C  412   4.122   4.294   3.011
    1C        C  413   4.177   4.251   3.133
    1C        C  414   3.998   4.368   3.252
    1C        C  415   4.118   4.294   3.254
    1C        C  416   3.938   4.406   3.374
    1C        C  417   4.001   4.378   3.498
    1C        C  418   3.806   4.464   3.617
    1C        C  419   3.939   4.416   3.619
    1C        C  420   3.741   4.490   3.740
    1C        C  421   3.812   4.475   3.861
    1C        C  422   3.607   4.529   3.986
    1C        C  423   3.744   4.496   3.984
    1C        C  424   3.537   4.540   4.108
    1C        C  425   3.609   4.535   4.230
    1C        C  426   3.400   4.548   4.357
    1C        C  427   3.541   4.551   4.353
    1C        C  428   3.330   4.550   4.480
    1C        C  429   3.402   4.559   4.600
    1C        C  430   3.190   4.526   4.722
    1C        C  431   3.330   4.548   4.721
    1C        C  432   3.121   4.499   4.844
    1C        C  433   3.200   4.496   4.959
    1C        C  434   4.386   4.127   2.054
    1C        C  435   4.445   4.000   2.051
    1C        C  436   4.299   4.161   2.163
    1C        C  437   4.334   4.097   2.285
    1C        C  438   4.179   4.248   2.399
    1C        C  439   4.281   4.151   2.404
    1C        C  440   4.124   4.293   2.522
    1C        C  441   4.179   4.251   2.645
    1C        C  442   4.000   4.367   2.762
    1C        C  443   4.119   4.292   2.767
    1C        C  444   3.938   4.399   2.885
    1C        C  445   3.999   4.364   3.008
    1C        C  446   3.807   4.457   3.128
    1C        C  447   3.936   4.399   3.129
    1C        C  448   3.742   4.486   3.250
    1C        C  449   3.808   4.462   3.373
    1C        C  450   3.604   4.524   3.497
    1C        C  451   3.740   4.486   3.494
    1C        C  452   3.535   4.540   3.619
    1C        C  453   3.605   4.529   3.741
    1C        C  454   3.395   4.546   3.864
    1C        C  455   3.536   4.540   3.864
    1C        C  456   3.327   4.541   3.988
    1C        C  457   3.396   4.546   4.111
    1C        C  458   3.192   4.507   4.237
    1C        C  459   3.330   4.538   4.235
    1C        C  460   3.127   4.484   4.360
    1C        C  461   3.193   4.513   4.482
    1C        C  462   2.994   4.437   4.602
    1C        C  463   3.121   4.500   4.602
    1C        C  464   2.930   4.400   4.723
    1C        C  465   2.989   4.444   4.845
    1C        C  466   2.796   4.345   4.957
    1C        C  467   2.903   4.437   4.959
    1C        C  468   4.123   4.289   2.039
    1C        C  469   4.188   4.251   2.157
    1C        C  470   4.001   4.362   2.275
    1C        C  471   4.127   4.295   2.277
    1C        C  472   3.938   4.399   2.396
    1C        C  473   4.003   4.365   2.517
    1C        C  474   3.809   4.454   2.642
    1C        C  475   3.937   4.396   2.638
    1C        C  476   3.743   4.482   2.764
    1C        C  477   3.812   4.463   2.886
    1C        C  478   3.602   4.513   3.007
    1C        C  479   3.740   4.484   3.006
    1C        C  480   3.532   4.523   3.129
    1C        C  481   3.605   4.520   3.250
    1C        C  482   3.395   4.523   3.375
    1C        C  483   3.536   4.526   3.373
    1C        C  484   3.324   4.524   3.498
    1C        C  485   3.394   4.538   3.620
    1C        C  486   3.186   4.511   3.746
    1C        C  487   3.324   4.541   3.742
    1C        C  488   3.123   4.482   3.869
    1C        C  489   3.191   4.501   3.991
    1C        C  490   3.003   4.412   4.116
    1C        C  491   3.127   4.479   4.115
    1C        C  492   2.944   4.379   4.240
    1C        C  493   3.000   4.423   4.362
    1C        C  494   2.823   4.305   4.483
    1C        C  495   2.932   4.394   4.483
    1C        C  496   2.769   4.259   4.606
    1C        C  497   2.815   4.317   4.726
    1C        C  498   2.666   4.162   4.848
    1C        C  499   2.752   4.274   4.845
    1C        C  500   2.588   4.122   4.957
    1C        C  501   4.003   4.360   2.038
    1C        C  502   3.810   4.462   2.150
    1C        C  503   3.936   4.398   2.155
    1C        C  504   3.744   4.481   2.274
    1C        C  505   3.808   4.454   2.397
    1C        C  506   3.604   4.504   2.519
    1C        C  507   3.742   4.475   2.520
    1C        C  508   3.533   4.508   2.641
    1C        C  509   3.605   4.510   2.762
    1C        C  510   3.392   4.524   2.886
    1C        C  511   3.533   4.521   2.884
    1C        C  512   3.319   4.525   3.007
    1C        C  513   3.391   4.530   3.128
    1C        C  514   3.186   4.497   3.255
    1C        C  515   3.324   4.528   3.253
    1C        C  516   3.119   4.473   3.377
    1C        C  517   3.185   4.501   3.499
    1C        C  518   2.995   4.420   3.626
    1C        C  519   3.119   4.487   3.624
    1C        C  520   2.937   4.380   3.749
    1C        C  521   3.000   4.413   3.871
    1C        C  522   2.833   4.283   3.995
    1C        C  523   2.944   4.371   3.994
    1C        C  524   2.787   4.236   4.120
    1C        C  525   2.832   4.292   4.241
    1C        C  526   2.696   4.132   4.365
    1C        C  527   2.775   4.249   4.363
    1C        C  528   2.657   4.076   4.488
    1C        C  529   2.687   4.145   4.608
    1C        C  530   2.586   3.958   4.730
    1C        C  531   2.644   4.088   4.730
    1C        C  532   2.546   3.899   4.853
    1C        C  533   2.524   3.997   4.955
    1C        C  534   3.614   4.559   2.039
    1C        C  535   3.747   4.514   2.037
    1C        C  536   3.533   4.535   2.155
    1C        C  537   3.605   4.509   2.275
    1C        C  538   3.392   4.510   2.398
    1C        C  539   3.533   4.509   2.397
    1C        C  540   3.321   4.506   2.520
    1C        C  541   3.392   4.508   2.643
    1C        C  542   3.181   4.488   2.763
    1C        C  543   3.320   4.512   2.765
    1C        C  544   3.116   4.467   2.887
    1C        C  545   3.181   4.494   3.010
    1C        C  546   2.994   4.405   3.136
    1C        C  547   3.117   4.475   3.134
    1C        C  548   2.935   4.369   3.259
    1C        C  549   2.993   4.410   3.381
    1C        C  550   2.827   4.285   3.505
    1C        C  551   2.934   4.377   3.506
    1C        C  552   2.778   4.236   3.628
    1C        C  553   2.830   4.288   3.749
    1C        C  554   2.695   4.125   3.875
    1C        C  555   2.781   4.238   3.872
    1C        C  556   2.658   4.067   3.998
    1C        C  557   2.702   4.124   4.120
    1C        C  558   2.605   3.939   4.245
    1C        C  559   2.660   4.069   4.243
    1C        C  560   2.572   3.878   4.368
    1C        C  561   2.594   3.949   4.488
    1C        C  562   2.535   3.747   4.613
    1C        C  563   2.567   3.885   4.611
    1C        C  564   2.521   3.679   4.736
    1C        C  565   2.521   3.758   4.854
    1C        C  566   2.532   3.546   4.972
    1C        C  567   2.527   3.685   4.974
    1C        C  568   3.325   4.474   2.040
    1C        C  569   3.392   4.517   2.155
    1C        C  570   3.181   4.473   2.277
    1C        C  571   3.319   4.505   2.276
    1C        C  572   3.113   4.457   2.400
    1C        C  573   3.182   4.482   2.520
    1C        C  574   2.985   4.405   2.646
    1C        C  575   3.112   4.466   2.642
    1C        C  576   2.930   4.363   2.769
    1C        C  577   2.992   4.401   2.890
    1C        C  578   2.824   4.278   3.019
    1C        C  579   2.936   4.363   3.014
    1C        C  580   2.776   4.224   3.140
    1C        C  581   2.830   4.275   3.261
    1C        C  582   2.701   4.111   3.385
    1C        C  583   2.782   4.226   3.384
    1C        C  584   2.666   4.054   3.510
    1C        C  585   2.700   4.119   3.631
    1C        C  586   2.594   3.937   3.755
    1C        C  587   2.660   4.062   3.754
    1C        C  588   2.572   3.871   3.878
    1C        C  589   2.600   3.938   3.999
    1C        C  590   2.540   3.738   4.128
    1C        C  591   2.580   3.873   4.123
    1C        C  592   2.525   3.667   4.249
    1C        C  593   2.536   3.741   4.369
    1C        C  594   2.512   3.533   4.495
    1C        C  595   2.524   3.674   4.493
    1C        C  596   2.517   3.461   4.617
    1C        C  597   2.514   3.537   4.736
    1C        C  598   2.538   3.325   4.863
    1C        C  599   2.528   3.466   4.857
    1C        C  600   2.534   3.249   4.980
    1C        C  601   3.195   4.428   2.041
    1C        C  602   2.979   4.395   2.158
    1C        C  603   3.116   4.435   2.156
    1C        C  604   2.922   4.359   2.283
    1C        C  605   2.985   4.398   2.404
    1C        C  606   2.814   4.273   2.527
    1C        C  607   2.924   4.362   2.526
    1C        C  608   2.767   4.224   2.651
    1C        C  609   2.821   4.273   2.772
    1C        C  610   2.686   4.115   2.895
    1C        C  611   2.774   4.226   2.897
    1C        C  612   2.653   4.052   3.017
    1C        C  613   2.691   4.111   3.140
    1C        C  614   2.592   3.928   3.265
    1C        C  615   2.656   4.054   3.264
    1C        C  616   2.570   3.864   3.389
    1C        C  617   2.599   3.930   3.511
    1C        C  618   2.532   3.732   3.637
    1C        C  619   2.566   3.869   3.634
    1C        C  620   2.522   3.664   3.761
    1C        C  621   2.535   3.735   3.882
    1C        C  622   2.512   3.526   4.008
    1C        C  623   2.528   3.667   4.006
    1C        C  624   2.510   3.455   4.129
    1C        C  625   2.512   3.527   4.251
    1C        C  626   2.534   3.319   4.379
    1C        C  627   2.516   3.459   4.375
    1C        C  628   2.550   3.248   4.500
    1C        C  629   2.536   3.321   4.620
    1C        C  630   2.592   3.117   4.742
    1C        C  631   2.551   3.253   4.742
    1C        C  632   2.615   3.047   4.864
    1C        C  633   2.563   3.112   4.980
    1C        C  634   2.778   4.307   2.055
    1C        C  635   2.886   4.395   2.049
    1C        C  636   2.744   4.231   2.168
    1C        C  637   2.809   4.274   2.286
    1C        C  638   2.677   4.108   2.410
    1C        C  639   2.759   4.222   2.407
    1C        C  640   2.639   4.050   2.533
    1C        C  641   2.681   4.112   2.653
    1C        C  642   2.591   3.922   2.777
    1C        C  643   2.643   4.053   2.776
    1C        C  644   2.571   3.854   2.900
    1C        C  645   2.592   3.925   3.020
    1C        C  646   2.533   3.723   3.148
    1C        C  647   2.568   3.860   3.143
    1C        C  648   2.519   3.656   3.271
    1C        C  649   2.534   3.728   3.392
    1C        C  650   2.516   3.520   3.518
    1C        C  651   2.519   3.661   3.515
    1C        C  652   2.516   3.451   3.642
    1C        C  653   2.513   3.523   3.764
    1C        C  654   2.535   3.313   3.888
    1C        C  655   2.517   3.453   3.887
    1C        C  656   2.549   3.245   4.011
    1C        C  657   2.530   3.315   4.133
    1C        C  658   2.608   3.121   4.258
    1C        C  659   2.550   3.250   4.257
    1C        C  660   2.638   3.056   4.379
    1C        C  661   2.603   3.117   4.502
    1C        C  662   2.702   2.929   4.623
    1C        C  663   2.625   3.048   4.623
    1C        C  664   2.748   2.873   4.744
    1C        C  665   2.689   2.924   4.863
    1C        C  666   2.738   2.866   4.980
    1C        C  667   2.681   4.022   2.053
    1C        C  668   2.685   4.103   2.167
    1C        C  669   2.593   3.910   2.292
    1C        C  670   2.650   4.039   2.289
    1C        C  671   2.559   3.848   2.415
    1C        C  672   2.589   3.918   2.533
    1C        C  673   2.526   3.718   2.659
    1C        C  674   2.564   3.853   2.657
    1C        C  675   2.520   3.647   2.781
    1C        C  676   2.536   3.717   2.902
    1C        C  677   2.506   3.512   3.033
    1C        C  678   2.524   3.652   3.027
    1C        C  679   2.504   3.441   3.155
    1C        C  680   2.505   3.515   3.275
    1C        C  681   2.531   3.305   3.400
    1C        C  682   2.512   3.445   3.398
    1C        C  683   2.557   3.240   3.523
    1C        C  684   2.540   3.312   3.643
    1C        C  685   2.604   3.112   3.769
    1C        C  686   2.555   3.245   3.766
    1C        C  687   2.634   3.050   3.893
    1C        C  688   2.600   3.114   4.014
    1C        C  689   2.711   2.934   4.138
    1C        C  690   2.635   3.053   4.137
    1C        C  691   2.753   2.877   4.260
    1C        C  692   2.713   2.936   4.382
    1C        C  693   2.750   2.873   4.502
    1C        C  694   2.625   3.894   2.057
    1C        C  695   2.522   3.704   2.176
    1C        C  696   2.577   3.834   2.174
    1C        C  697   2.507   3.637   2.299
    1C        C  698   2.521   3.712   2.418
    1C        C  699   2.484   3.504   2.543
    1C        C  700   2.502   3.644   2.541
    1C        C  701   2.498   3.434   2.665
    1C        C  702   2.504   3.507   2.786
    1C        C  703   2.527   3.301   2.909
    1C        C  704   2.503   3.440   2.911
    1C        C  705   2.543   3.232   3.031
    1C        C  706   2.530   3.302   3.153
    1C        C  707   2.597   3.106   3.279
    1C        C  708   2.546   3.237   3.277
    1C        C  709   2.636   3.045   3.400
    1C        C  710   2.611   3.109   3.523
    1C        C  711   2.711   2.928   3.649
    1C        C  712   2.634   3.047   3.648
    1C        C  713   2.759   2.876   3.771
    1C        C  714   2.715   2.934   3.893
    1C        C  715   2.753   2.876   4.016
    1C        C  716   2.459   3.496   2.062
    1C        C  717   2.495   3.631   2.059
    1C        C  718   2.470   3.419   2.183
    1C        C  719   2.483   3.497   2.301
    1C        C  720   2.512   3.289   2.426
    1C        C  721   2.484   3.427   2.424
    1C        C  722   2.533   3.221   2.548
    1C        C  723   2.519   3.295   2.668
    1C        C  724   2.595   3.096   2.791
    1C        C  725   2.541   3.227   2.790
    1C        C  726   2.625   3.033   2.914
    1C        C  727   2.592   3.099   3.034
    1C        C  728   2.708   2.924   3.158
    1C        C  729   2.627   3.040   3.157
    1C        C  730   2.753   2.871   3.281
    1C        C  731   2.715   2.928   3.405
    1C        C  732   2.755   2.870   3.528
    1C        C  733   2.484   3.195   2.072
    1C        C  734   2.490   3.278   2.185
    1C        C  735   2.582   3.084   2.307
    1C        C  736   2.525   3.214   2.307
    1C        C  737   2.614   3.020   2.428
    1C        C  738   2.585   3.089   2.548
    1C        C  739   2.697   2.909   2.669
    1C        C  740   2.623   3.029   2.670
    1C        C  741   2.743   2.857   2.792
    1C        C  742   2.701   2.915   2.914
    1C        C  743   2.748   2.864   3.037
    1C        C  744   2.545   3.070   2.073
    1C        C  745   2.682   2.896   2.183
    1C        C  746   2.606   3.015   2.186
    1C        C  747   2.728   2.840   2.305
    1C        C  748   2.689   2.900   2.427
    1C        C  749   2.738   2.847   2.548
    1C        C  750   2.738   2.841   2.067
    1C        C  751   3.651   2.317   1.974
    1C        O  752   3.662   2.193   1.994
    1C        O  753   3.651   2.333   1.835
    1C        C  754   4.633   3.056   1.978
    1C        O  755   4.622   2.979   1.879
    1C        O  756   4.772   3.062   2.000
    1C        C  757   4.467   4.224   1.976
    1C        O  758   4.553   4.298   2.030
    1C        O  759   4.446   4.232   1.838
    1C        C  760   3.569   4.659   1.939
    1C        O  761   3.604   4.780   1.943
    1C        O  762   3.502   4.634   1.818
    1C        C  763   2.897   4.488   1.934
    1C        O  764   2.936   4.446   1.822
    1C        O  765   2.850   4.620   1.931
    1C        C  766   2.365   3.463   1.953
    1C        O  767   2.392   3.478   1.831
    1C        O  768   2.245   3.391   1.968
    1C        C  769   4.711   3.588   5.030
    1C        O  770   4.718   3.536   5.145
    1C        O  771   4.829   3.557   4.962
    1C        C  772   4.277   4.441   5.038
    1C        O  773   4.269   4.432   5.164
    1C        O  774   4.364   4.547   5.009
    1C        C  775   4.141   2.545   5.092
    1C        O  776   4.179   2.425   5.092
    1C        O  777   4.125   2.591   5.223
    1C        C  778   2.891   4.561   5.038
    1C        O  779   2.795   4.639   5.013
    1C        O  780   2.899   4.537   5.175
    1C        C  781   2.469   3.037   5.066
    1C        O  782   2.358   2.992   5.025
    1C        O  783   2.487   3.041   5.204
    1C        C  784   2.415   3.979   5.053
    1C        O  785   2.314   4.053   5.039
    1C        O  786   2.431   3.964   5.191
    1C        C  787   2.951   2.440   1.989
    1C        O  788   2.947   2.446   1.863
    1C        O  789   2.886   2.334   2.052
    1C        C  790   3.184   2.384   5.069
    1C        O  791   3.196   2.262   5.041
    1C        O  792   3.172   2.398   5.208
    1C        H  793   4.267   3.030   5.052
    1C        H  794   4.179   2.808   5.072
    1C        H  795   4.533   3.122   5.039
    1C        H  796   4.525   3.363   5.068
    1C        H  797   4.560   3.803   5.052
    1C        H  798   4.414   3.970   5.056
    1C        H  799   4.248   4.139   5.039
    1C        H  800   4.045   4.561   5.014
    1C        H  801   3.821   4.614   5.025
    1C        H  802   3.601   4.667   5.018
    1C        H  803   3.394   4.482   5.040
    1C        H  804   3.165   4.436   5.041
    1C        H  805   3.901   2.466   5.060
    1C        H  806   3.676   2.459   5.080
    1C        H  807   3.018   2.586   5.071
    1C        H  808   3.446   2.489   5.075
    1C        H  809   2.865   2.729   5.081
    1C        H  810   2.735   2.927   5.068
    1C        H  811   2.505   3.298   5.071
    1C        H  812   2.586   3.507   5.056
    1C        H  813   2.567   3.729   5.063
    1C        H  814   2.537   4.202   5.006
    1C        H  815   2.770   4.306   5.053
    1C        H  816   2.701   2.873   1.972
    1C        H  817   2.857   2.690   1.976
    1C        H  818   3.198   2.385   2.016
    1C        H  819   3.426   2.421   1.980
    1C        H  820   3.874   2.487   1.974
    1C        H  821   4.028   2.670   1.974
    1C        H  822   4.272   2.699   1.990
    1C        H  823   4.377   2.916   1.965
    1C        H  824   4.628   3.297   1.992
    1C        H  825   4.561   3.526   1.967
    1C        H  826   4.472   3.750   1.959
    1C        H  827   3.810   4.564   1.967
    1C        H  828   3.992   4.422   1.952
    1C        H  829   4.148   4.239   1.947
    1C        H  830   4.440   3.959   1.953
    1C        H  831   2.602   3.851   1.961
    1C        H  832   2.688   4.065   1.956
    1C        H  833   2.713   4.305   1.969
    1C        H  834   3.386   4.423   1.968
    1C        H  835   3.167   4.350   1.973
    1C        H  836   2.546   3.013   1.983
    1C        H  837   2.407   3.214   2.000
    1C        H  838   2.479   3.680   1.965
    2V3OU   H29  839   2.804   3.548   5.735
    2V3OU   C27  840   2.775   3.501   5.833
    2V3OU   H27  841   2.717   3.563   5.906
    2V3OU   H28  842   2.725   3.403   5.813
    2V3OU   O11  843   2.907   3.477   5.882
    2V3OU   C15  844   2.918   3.396   5.993
    2V3OU   C13  845   3.050   3.372   6.037
    2V3OU   C14  846   3.073   3.262   6.121
    2V3OU   C16  847   2.969   3.183   6.168
    2V3OU    H6  848   2.994   3.095   6.229
    2V3OU   C12  849   3.213   3.228   6.157
    2V3OU    O2  850   3.238   3.124   6.221
    2V3OU   C10  851   3.324   3.305   6.100
    2V3OU    C8  852   3.456   3.261   6.111
    2V3OU   O10  853   3.490   3.148   6.178
    2V3OU   H26  854   3.407   3.111   6.214
    2V3OU    C6  855   3.564   3.345   6.069
    2V3OU    C5  856   3.537   3.465   6.003
    2V3OU    C4  857   3.704   3.293   6.073
    2V3OU    H4  858   3.724   3.230   6.164
    2V3OU    H5  859   3.715   3.223   5.985
    2V3OU    C2  860   3.817   3.396   6.069
    2V3OU    O6  861   3.800   3.472   6.189
    2V3OU   H21  862   3.765   3.556   6.154
    2V3OU    C3  863   3.784   3.496   5.958
    2V3OU    H2  864   3.864   3.574   5.950
    2V3OU    H3  865   3.781   3.436   5.863
    2V3OU   C25  866   3.949   3.319   6.060
    2V3OU    O7  867   3.999   3.294   5.951
    2V3OU   C26  868   4.030   3.288   6.184
    2V3OU   H22  869   4.065   3.384   6.230
    2V3OU   H23  870   4.118   3.224   6.159
    2V3OU    O8  871   3.964   3.208   6.280
    2V3OU   H24  872   3.928   3.267   6.348
    2V3OU    C1  873   3.648   3.561   5.975
    2V3OU    H1  874   3.626   3.621   5.882
    2V3OU    O3  875   3.656   3.655   6.083
    2V3OU   C19  876   3.620   3.793   6.073
    2V3OU    H9  877   3.517   3.809   6.030
    2V3OU    O4  878   3.712   3.845   5.980
    2V3OU   C20  879   3.840   3.873   6.037
    2V3OU   H10  880   3.891   3.774   6.057
    2V3OU   C24  881   3.609   3.858   6.212
    2V3OU   H16  882   3.550   3.788   6.277
    2V3OU   H17  883   3.556   3.956   6.206
    2V3OU   C23  884   3.749   3.878   6.269
    2V3OU   H15  885   3.788   3.773   6.290
    2V3OU    N1  886   3.740   3.959   6.389
    2V3OU   H19  887   3.808   3.921   6.451
    2V3OU   H20  888   3.653   3.934   6.432
    2V3OU   C21  889   3.846   3.949   6.170
    2V3OU   H11  890   3.946   3.923   6.217
    2V3OU    O5  891   3.826   4.089   6.173
    2V3OU   H18  892   3.787   4.107   6.260
    2V3OU   C22  893   3.912   3.948   5.926
    2V3OU   H12  894   3.866   4.049   5.909
    2V3OU   H13  895   3.911   3.890   5.830
    2V3OU   H14  896   4.021   3.956   5.952
    2V3OU   C11  897   3.154   3.470   6.005
    2V3OU    O1  898   3.137   3.579   5.946
    2V3OU    C9  899   3.292   3.425   6.032
    2V3OU    C7  900   3.400   3.499   5.984
    2V3OU    O9  901   3.384   3.622   5.924
    2V3OU   H25  902   3.288   3.636   5.924
    2V3OU   C17  903   2.815   3.310   6.035
    2V3OU    H7  904   2.710   3.338   6.020
    2V3OU   C18  905   2.839   3.206   6.125
    2V3OU    H8  906   2.751   3.149   6.160
    3SOL     OW  907   3.638   3.171   3.946
    3SOL    HW1  908   3.684   3.085   3.928
    3SOL    HW2  909   3.698   3.231   3.999
    4SOL     OW  910   6.784   5.934   0.923
    4SOL    HW1  911   6.863   5.993   0.910
    4SOL    HW2  912   6.800   5.872   1.000
    5SOL     OW  913   4.743   2.367   0.565
    5SOL    HW1  914   4.836   2.385   0.530
    5SOL    HW2  915   4.718   2.437   0.631
    6SOL     OW  916   4.717   1.504   2.045
    6SOL    HW1  917   4.683   1.468   2.132
    6SOL    HW2  918   4.805   1.462   2.024
    7SOL     OW  919   2.026   3.406   4.418
    7SOL    HW1  920   2.078   3.418   4.503
    7SOL    HW2  921   2.043   3.315   4.382
    8SOL     OW  922   0.943   2.020   5.287
    8SOL    HW1  923   1.032   2.056   5.315
    8SOL    HW2  924   0.916   2.061   5.200
    9SOL     OW  925   0.237   1.441   5.678
    9SOL    HW1  926   0.336   1.441   5.672
    9SOL    HW2  927   0.209   1.470   5.770
   10SOL     OW  928   5.210   4.862   1.973
   10SOL    HW1  929   5.238   4.888   1.881
   10SOL    HW2  930   5.183   4.944   2.024
   11SOL     OW  931   2.471   2.533   1.230
   11SOL    HW1  932   2.397   2.532   1.297
   11SOL    HW2  933   2.483   2.441   1.192
   12SOL     OW  934   4.870   5.173   2.324
   12SOL    HW1  935   4.914   5.224   2.399
   12SOL    HW2  936   4.847   5.081   2.355
   13SOL     OW  937   5.612   6.155   1.372
   13SOL    HW1  938   5.697   6.155   1.319
   13SOL    HW2  939   5.633   6.166   1.469
   14SOL     OW  940   4.622   6.856   6.875
   14SOL    HW1  941   4.564   6.860   6.794
   14SOL    HW2  942   4.681   6.936   6.879
   15SOL     OW  943   0.864   6.031   6.296
   15SOL    HW1  944   0.873   6.058   6.392
   15SOL    HW2  945   0.796   5.958   6.288
   16SOL     OW  946   2.200   5.311   4.938
   16SOL    HW1  947   2.255   5.329   4.856
   16SOL    HW2  948   2.203   5.213   4.958
   17SOL     OW  949   6.676   0.949   4.999
   17SOL    HW1  950   6.678   0.876   5.068
   17SOL    HW2  951   6.649   1.034   5.042
   18SOL     OW  952   2.755   1.063   5.857
   18SOL    HW1  953   2.764   1.159   5.885
   18SOL    HW2  954   2.803   1.050   5.770
   19SOL     OW  955   3.323   6.564   2.316
   19SOL    HW1  956   3.370   6.652   2.324
   19SOL    HW2  957   3.390   6.491   2.310
   20SOL     OW  958   6.683   1.940   5.599
   20SOL    HW1  959   6.687   1.972   5.504
   20SOL    HW2  960   6.775   1.943   5.639
   21SOL     OW  961   2.117   3.807   2.456
   21SOL    HW1  962   2.126   3.725   2.513
   21SOL    HW2  963   2.101   3.780   2.361
   22SOL     OW  964   0.721   1.172   0.037
   22SOL    HW1  965   0.812   1.153   0.073
   22SOL    HW2  966   0.727   1.195   6.962
   23SOL     OW  967   6.193   4.745   0.503
   23SOL    HW1  968   6.252   4.715   0.579
   23SOL    HW2  969   6.217   4.694   0.421
   24SOL     OW  970   5.396   1.509   0.163
   24SOL    HW1  971   5.321   1.560   0.206
   24SOL    HW2  972   5.363   1.466   0.079
   25SOL     OW  973   1.156   0.790   4.284
   25SOL    HW1  974   1.183   0.780   4.380
   25SOL    HW2  975   1.230   0.832   4.232
   26SOL     OW  976   1.617   1.830   6.015
   26SOL    HW1  977   1.667   1.840   6.102
   26SOL    HW2  978   1.669   1.770   5.954
   27SOL     OW  979   0.714   7.003   2.573
   27SOL    HW1  980   0.656   0.034   2.512
   27SOL    HW2  981   0.726   0.030   2.659
   28SOL     OW  982   1.611   0.523   5.995
   28SOL    HW1  983   1.694   0.551   6.043
   28SOL    HW2  984   1.560   0.604   5.966
   29SOL     OW  985   5.850   0.405   1.302
   29SOL    HW1  986   5.781   0.347   1.345
   29SOL    HW2  987   5.850   0.389   1.204
   30SOL     OW  988   4.964   0.436   5.187
   30SOL    HW1  989   4.918   0.422   5.275
   30SOL    HW2  990   5.000   0.348   5.155
   31SOL     OW  991   0.118   4.770   4.189
   31SOL    HW1  992   0.036   4.769   4.247
   31SOL    HW2  993   0.174   4.689   4.210
   32SOL     OW  994   2.708   0.725   0.566
   32SOL    HW1  995   2.632   0.663   0.586
   32SOL    HW2  996   2.753   0.751   0.652
   33SOL     OW  997   2.119   5.038   5.584
   33SOL    HW1  998   2.178   5.095   5.642
   33SOL    HW2  999   2.052   5.095   5.537
   34SOL     OW 1000   2.300   5.787   5.612
   34SOL    HW1 1001   2.383   5.801   5.558
   34SOL    HW2 1002   2.219   5.805   5.556
   35SOL     OW 1003   1.212   3.075   5.684
   35SOL    HW1 1004   1.192   3.019   5.604
   35SOL    HW2 1005   1.127   3.096   5.732
   36SOL     OW 1006   5.964   0.780   3.690
   36SOL    HW1 1007   5.946   0.805   3.785
   36SOL    HW2 1008   6.047   0.827   3.659
   37SOL     OW 1009   2.337   6.024   4.230
   37SOL    HW1 1010   2.381   5.981   4.309
   37SOL    HW2 1011   2.331   5.957   4.155
   38SOL     OW 1012   1.513   4.356   2.554
   38SOL    HW1 1013   1.532   4.389   2.461
   38SOL    HW2 1014   1.425   4.392   2.585
   39SOL     OW 1015   6.843   4.842   1.186
   39SOL    HW1 1016   6.845   4.882   1.095
   39SOL    HW2 1017   6.924   4.870   1.237
   40SOL     OW 1018   4.340   1.350   0.285
   40SOL    HW1 1019   4.273   1.378   0.355
   40SOL    HW2 1020   4.294   1.297   0.214
   41SOL     OW 1021   4.988   3.683   1.646
   41SOL    HW1 1022   4.938   3.686   1.732
   41SOL    HW2 1023   5.003   3.588   1.619
   42SOL     OW 1024   2.629   4.795   6.537
   42SOL    HW1 1025   2.627   4.886   6.496
   42SOL    HW2 1026   2.677   4.732   6.475
   43SOL     OW 1027   5.541   0.027   4.585
   43SOL    HW1 1028   5.480   0.012   4.508
   43SOL    HW2 1029   5.613   6.980   4.585
   44SOL     OW 1030   0.021   1.107   6.518
   44SOL    HW1 1031   7.022   1.011   6.534
   44SOL    HW2 1032   0.052   1.149   6.603
   45SOL     OW 1033   2.043   4.891   6.056
   45SOL    HW1 1034   2.122   4.868   5.999
   45SOL    HW2 1035   1.997   4.807   6.085
   46SOL     OW 1036   1.580   4.364   4.720
   46SOL    HW1 1037   1.499   4.323   4.763
   46SOL    HW2 1038   1.661   4.311   4.745
   47SOL     OW 1039   5.726   3.560   0.346
   47SOL    HW1 1040   5.760   3.622   0.416
   47SOL    HW2 1041   5.647   3.602   0.300
   48SOL     OW 1042   6.590   3.937   0.635
   48SOL    HW1 1043   6.514   3.892   0.682
   48SOL    HW2 1044   6.558   3.975   0.549
   49SOL     OW 1045   2.980   2.956   6.463
   49SOL    HW1 1046   2.923   3.037   6.448
   49SOL    HW2 1047   3.055   2.980   6.525
   50SOL     OW 1048   5.237   1.994   6.591
   50SOL    HW1 1049   5.154   2.050   6.595
   50SOL    HW2 1050   5.314   2.045   6.629
   51SOL     OW 1051   0.781   6.105   1.962
   51SOL    HW1 1052   0.716   6.137   1.892
   51SOL    HW2 1053   0.849   6.046   1.919
   52SOL     OW 1054   5.686   2.251   2.081
   52SOL    HW1 1055   5.601   2.301   2.100
   52SOL    HW2 1056   5.667   2.178   2.016
   53SOL     OW 1057   3.582   0.769   0.987
   53SOL    HW1 1058   3.669   0.811   0.963
   53SOL    HW2 1059   3.507   0.825   0.952
   54SOL     OW 1060   6.417   0.446   6.278
   54SOL    HW1 1061   6.475   0.365   6.273
   54SOL    HW2 1062   6.474   0.526   6.296
   55SOL     OW 1063   1.680   3.742   6.096
   55SOL    HW1 1064   1.604   3.786   6.143
   55SOL    HW2 1065   1.723   3.675   6.157
   56SOL     OW 1066   1.108   2.457   6.724
   56SOL    HW1 1067   1.168   2.515   6.667
   56SOL    HW2 1068   1.145   2.364   6.727
   57SOL     OW 1069   4.040   6.294   0.541
   57SOL    HW1 1070   4.121   6.335   0.499
   57SOL    HW2 1071   4.045   6.195   0.533
   58SOL     OW 1072   1.595   1.060   6.769
   58SOL    HW1 1073   1.600   0.961   6.754
   58SOL    HW2 1074   1.674   1.104   6.727
   59SOL     OW 1075   4.097   2.730   6.087
   59SOL    HW1 1076   4.059   2.822   6.080
   59SOL    HW2 1077   4.033   2.665   6.046
   60SOL     OW 1078   6.510   2.827   2.627
   60SOL    HW1 1079   6.545   2.920   2.614
   60SOL    HW2 1080   6.586   2.765   2.645
   61SOL     OW 1081   1.300   5.847   3.271
   61SOL    HW1 1082   1.325   5.943   3.285
   61SOL    HW2 1083   1.347   5.812   3.190
   62SOL     OW 1084   6.044   2.423   3.005
   62SOL    HW1 1085   5.963   2.477   3.026
   62SOL    HW2 1086   6.018   2.328   2.987
   63SOL     OW 1087   3.779   6.659   5.892
   63SOL    HW1 1088   3.791   6.689   5.797
   63SOL    HW2 1089   3.740   6.567   5.893
   64SOL     OW 1090   1.253   1.907   5.779
   64SOL    HW1 1091   1.201   1.845   5.719
   64SOL    HW2 1092   1.259   1.867   5.870
   65SOL     OW 1093   0.704   5.120   4.805
   65SOL    HW1 1094   0.664   5.200   4.848
   65SOL    HW2 1095   0.631   5.058   4.775
   66SOL     OW 1096   4.486   1.727   1.507
   66SOL    HW1 1097   4.443   1.639   1.523
   66SOL    HW2 1098   4.451   1.767   1.422
   67SOL     OW 1099   0.089   3.699   1.432
   67SOL    HW1 1100   0.027   3.729   1.359
   67SOL    HW2 1101   0.050   3.619   1.478
   68SOL     OW 1102   0.431   1.111   6.805
   68SOL    HW1 1103   0.461   1.035   6.863
   68SOL    HW2 1104   0.488   1.191   6.824
   69SOL     OW 1105   1.573   5.501   6.765
   69SOL    HW1 1106   1.646   5.568   6.754
   69SOL    HW2 1107   1.611   5.416   6.802
   70SOL     OW 1108   4.498   4.810   3.770
   70SOL    HW1 1109   4.473   4.906   3.786
   70SOL    HW2 1110   4.556   4.778   3.845
   71SOL     OW 1111   4.955   1.395   5.239
   71SOL    HW1 1112   4.921   1.304   5.218
   71SOL    HW2 1113   5.046   1.388   5.281
   72SOL     OW 1114   6.964   0.513   2.989
   72SOL    HW1 1115   6.878   0.530   2.939
   72SOL    HW2 1116   0.003   0.591   2.976
   73SOL     OW 1117   2.703   0.857   1.360
   73SOL    HW1 1118   2.762   0.796   1.306
   73SOL    HW2 1119   2.626   0.887   1.304
   74SOL     OW 1120   2.972   1.940   0.088
   74SOL    HW1 1121   2.964   1.930   0.187
   74SOL    HW2 1122   2.979   1.850   0.046
   75SOL     OW 1123   2.231   3.221   0.277
   75SOL    HW1 1124   2.288   3.267   0.345
   75SOL    HW2 1125   2.283   3.211   0.192
   76SOL     OW 1126   3.997   4.818   5.746
   76SOL    HW1 1127   3.926   4.882   5.716
   76SOL    HW2 1128   4.004   4.820   5.845
   77SOL     OW 1129   0.892   5.760   4.788
   77SOL    HW1 1130   0.919   5.766   4.884
   77SOL    HW2 1131   0.966   5.717   4.736
   78SOL     OW 1132   4.942   1.931   1.553
   78SOL    HW1 1133   4.897   1.983   1.627
   78SOL    HW2 1134   5.021   1.982   1.520
   79SOL     OW 1135   1.509   4.179   3.902
   79SOL    HW1 1136   1.593   4.157   3.853
   79SOL    HW2 1137   1.528   4.190   3.999
   80SOL     OW 1138   3.524   2.100   5.165
   80SOL    HW1 1139   3.453   2.109   5.095
   80SOL    HW2 1140   3.614   2.091   5.121
   81SOL     OW 1141   3.220   5.184   2.376
   81SOL    HW1 1142   3.290   5.249   2.347
   81SOL    HW2 1143   3.242   5.151   2.468
   82SOL     OW 1144   2.911   0.126   2.120
   82SOL    HW1 1145   2.931   0.127   2.023
   82SOL    HW2 1146   2.954   0.204   2.164
   83SOL     OW 1147   5.293   1.222   4.322
   83SOL    HW1 1148   5.195   1.222   4.338
   83SOL    HW2 1149   5.328   1.129   4.327
   84SOL     OW 1150   5.861   3.016   3.110
   84SOL    HW1 1151   5.954   2.999   3.077
   84SOL    HW2 1152   5.865   3.055   3.202
   85SOL     OW 1153   2.468   6.106   2.907
   85SOL    HW1 1154   2.519   6.191   2.893
   85SOL    HW2 1155   2.436   6.072   2.818
   86SOL     OW 1156   5.057   0.719   0.966
   86SOL    HW1 1157   5.057   0.809   1.010
   86SOL    HW2 1158   5.003   0.655   1.019
   87SOL     OW 1159   2.826   3.501   6.480
   87SOL    HW1 1160   2.828   3.569   6.407
   87SOL    HW2 1161   2.743   3.515   6.536
   88SOL     OW 1162   2.209   3.025   1.404
   88SOL    HW1 1163   2.245   3.079   1.480
   88SOL    HW2 1164   2.133   3.073   1.361
   89SOL     OW 1165   3.283   3.411   4.812
   89SOL    HW1 1166   3.372   3.430   4.769
   89SOL    HW2 1167   3.271   3.473   4.890
   90SOL     OW 1168   5.956   3.842   2.379
   90SOL    HW1 1169   5.936   3.889   2.465
   90SOL    HW2 1170   5.893   3.874   2.308
   91SOL     OW 1171   4.564   6.003   0.388
   91SOL    HW1 1172   4.649   5.950   0.381
   91SOL    HW2 1173   4.584   6.093   0.426
   92SOL     OW 1174   5.983   4.919   6.970
   92SOL    HW1 1175   6.043   4.957   6.900
   92SOL    HW2 1176   5.996   4.969   0.033
   93SOL     OW 1177   2.876   3.806   1.618
   93SOL    HW1 1178   2.931   3.732   1.657
   93SOL    HW2 1179   2.784   3.803   1.656
   94SOL     OW 1180   3.474   1.617   4.253
   94SOL    HW1 1181   3.467   1.701   4.199
   94SOL    HW2 1182   3.458   1.638   4.350
   95SOL     OW 1183   0.871   6.763   4.518
   95SOL    HW1 1184   0.861   6.861   4.501
   95SOL    HW2 1185   0.872   6.747   4.617
   96SOL     OW 1186   0.275   5.431   6.638
   96SOL    HW1 1187   0.210   5.443   6.713
   96SOL    HW2 1188   0.368   5.426   6.674
   97SOL     OW 1189   3.019   4.318   5.806
   97SOL    HW1 1190   2.946   4.296   5.742
   97SOL    HW2 1191   3.048   4.413   5.793
   98SOL     OW 1192   0.094   1.936   4.777
   98SOL    HW1 1193   0.119   1.840   4.782
   98SOL    HW2 1194   0.148   1.982   4.707
   99SOL     OW 1195   4.061   4.394   5.305
   99SOL    HW1 1196   4.136   4.408   5.241
   99SOL    HW2 1197   4.010   4.312   5.280
  100SOL     OW 1198   0.952   0.781   5.219
  100SOL    HW1 1199   0.892   0.771   5.139
  100SOL    HW2 1200   0.915   0.727   5.295
  101SOL     OW 1201   5.154   3.533   2.621
  101SOL    HW1 1202   5.163   3.452   2.680
  101SOL    HW2 1203   5.206   3.518   2.537
  102SOL     OW 1204   3.621   0.567   6.809
  102SOL    HW1 1205   3.641   0.587   6.905
  102SOL    HW2 1206   3.530   0.528   6.801
  103SOL     OW 1207   1.148   1.364   2.004
  103SOL    HW1 1208   1.062   1.316   2.020
  103SOL    HW2 1209   1.184   1.341   1.914
  104SOL     OW 1210   6.256   4.635   2.236
  104SOL    HW1 1211   6.236   4.580   2.155
  104SOL    HW2 1212   6.185   4.704   2.248
  105SOL     OW 1213   0.525   0.268   4.898
  105SOL    HW1 1214   0.520   0.321   4.814
  105SOL    HW2 1215   0.434   0.265   4.940
  106SOL     OW 1216   4.485   3.069   1.686
  106SOL    HW1 1217   4.530   3.073   1.597
  106SOL    HW2 1218   4.550   3.038   1.755
  107SOL     OW 1219   5.350   6.764   1.360
  107SOL    HW1 1220   5.382   6.857   1.380
  107SOL    HW2 1221   5.428   6.708   1.332
  108SOL     OW 1222   3.566   1.829   5.011
  108SOL    HW1 1223   3.523   1.750   5.054
  108SOL    HW2 1224   3.643   1.859   5.067
  109SOL     OW 1225   1.883   0.965   5.457
  109SOL    HW1 1226   1.784   0.957   5.474
  109SOL    HW2 1227   1.933   0.927   5.535
  110SOL     OW 1228   4.063   4.196   5.793
  110SOL    HW1 1229   3.964   4.210   5.786
  110SOL    HW2 1230   4.086   4.172   5.887
  111SOL     OW 1231   5.620   3.295   1.206
  111SOL    HW1 1232   5.638   3.201   1.232
  111SOL    HW2 1233   5.636   3.356   1.284
  112SOL     OW 1234   4.957   6.677   5.638
  112SOL    HW1 1235   5.026   6.672   5.566
  112SOL    HW2 1236   4.885   6.611   5.619
  113SOL     OW 1237   0.142   4.567   2.668
  113SOL    HW1 1238   0.188   4.539   2.752
  113SOL    HW2 1239   0.048   4.533   2.669
  114SOL     OW 1240   0.143   2.088   1.821
  114SOL    HW1 1241   0.101   2.022   1.758
  114SOL    HW2 1242   0.186   2.161   1.770
  115SOL     OW 1243   4.343   0.198   2.704
  115SOL    HW1 1244   4.399   0.116   2.705
  115SOL    HW2 1245   4.389   0.271   2.755
  116SOL     OW 1246   6.850   5.339   0.812
  116SOL    HW1 1247   6.794   5.272   0.861
  116SOL    HW2 1248   6.946   5.323   0.832
  117SOL     OW 1249   3.157   2.356   0.109
  117SOL    HW1 1250   3.196   2.266   0.090
  117SOL    HW2 1251   3.122   2.359   0.202
  118SOL     OW 1252   0.055   1.872   2.177
  118SOL    HW1 1253   0.004   1.865   2.263
  118SOL    HW2 1254   0.048   1.965   2.142
  119SOL     OW 1255   6.368   6.926   5.391
  119SOL    HW1 1256   6.392   6.883   5.304
  119SOL    HW2 1257   6.402   7.020   5.393
  120SOL     OW 1258   4.540   1.187   4.519
  120SOL    HW1 1259   4.572   1.093   4.504
  120SOL    HW2 1260   4.589   1.228   4.596
  121SOL     OW 1261   0.237   5.701   6.500
  121SOL    HW1 1262   0.287   5.711   6.414
  121SOL    HW2 1263   0.236   5.605   6.528
  122SOL     OW 1264   6.604   4.907   6.104
  122SOL    HW1 1265   6.606   5.004   6.077
  122SOL    HW2 1266   6.651   4.853   6.035
  123SOL     OW 1267   0.532   2.419   1.942
  123SOL    HW1 1268   0.512   2.331   1.899
  123SOL    HW2 1269   0.502   2.417   2.038
  124SOL     OW 1270   1.579   3.800   0.751
  124SOL    HW1 1271   1.504   3.768   0.808
  124SOL    HW2 1272   1.622   3.722   0.706
  125SOL     OW 1273   4.440   2.484   0.869
  125SOL    HW1 1274   4.432   2.481   0.769
  125SOL    HW2 1275   4.351   2.507   0.908
  126SOL     OW 1276   3.619   2.868   4.102
  126SOL    HW1 1277   3.630   2.888   4.005
  126SOL    HW2 1278   3.701   2.895   4.152
  127SOL     OW 1279   0.335   4.819   5.612
  127SOL    HW1 1280   0.384   4.748   5.662
  127SOL    HW2 1281   0.382   4.907   5.623
  128SOL     OW 1282   4.572   3.817   5.882
  128SOL    HW1 1283   4.547   3.817   5.979
  128SOL    HW2 1284   4.560   3.910   5.845
  129SOL     OW 1285   0.511   5.448   2.537
  129SOL    HW1 1286   0.466   5.491   2.615
  129SOL    HW2 1287   0.610   5.444   2.554
  130SOL     OW 1288   6.107   3.375   4.504
  130SOL    HW1 1289   6.185   3.318   4.530
  130SOL    HW2 1290   6.140   3.460   4.464
  131SOL     OW 1291   0.479   3.205   3.233
  131SOL    HW1 1292   0.522   3.255   3.309
  131SOL    HW2 1293   0.412   3.141   3.269
  132SOL     OW 1294   4.753   2.362   1.214
  132SOL    HW1 1295   4.852   2.353   1.226
  132SOL    HW2 1296   4.719   2.439   1.267
  133SOL     OW 1297   4.497   5.082   6.219
  133SOL    HW1 1298   4.482   5.039   6.130
  133SOL    HW2 1299   4.410   5.095   6.265
  134SOL     OW 1300   5.742   2.165   1.138
  134SOL    HW1 1301   5.686   2.086   1.164
  134SOL    HW2 1302   5.839   2.140   1.144
  135SOL     OW 1303   4.716   4.689   3.909
  135SOL    HW1 1304   4.737   4.650   3.820
  135SOL    HW2 1305   4.801   4.722   3.952
  136SOL     OW 1306   3.843   0.011   6.269
  136SOL    HW1 1307   3.923   0.032   6.213
  136SOL    HW2 1308   3.861   6.952   6.324
  137SOL     OW 1309   2.275   4.063   6.101
  137SOL    HW1 1310   2.244   3.973   6.130
  137SOL    HW2 1311   2.203   4.130   6.115
  138SOL     OW 1312   0.949   5.505   6.668
  138SOL    HW1 1313   0.883   5.468   6.602
  138SOL    HW2 1314   1.039   5.465   6.651
  139SOL     OW 1315   0.447   0.240   1.530
  139SOL    HW1 1316   0.460   0.313   1.596
  139SOL    HW2 1317   0.355   0.245   1.491
  140SOL     OW 1318   4.074   1.081   1.479
  140SOL    HW1 1319   4.128   1.060   1.397
  140SOL    HW2 1320   4.035   0.997   1.516
  141SOL     OW 1321   0.286   1.837   6.874
  141SOL    HW1 1322   0.189   1.813   6.871
  141SOL    HW2 1323   0.334   1.793   6.797
  142SOL     OW 1324   2.146   4.160   0.511
  142SOL    HW1 1325   2.194   4.154   0.598
  142SOL    HW2 1326   2.055   4.119   0.519
  143SOL     OW 1327   4.944   6.077   1.563
  143SOL    HW1 1328   4.978   5.987   1.590
  143SOL    HW2 1329   4.864   6.102   1.618
  144SOL     OW 1330   3.575   5.225   2.941
  144SOL    HW1 1331   3.555   5.303   2.881
  144SOL    HW2 1332   3.669   5.195   2.927
  145SOL     OW 1333   6.933   5.483   4.086
  145SOL    HW1 1334   6.880   5.400   4.069
  145SOL    HW2 1335   0.007   5.466   4.062
  146SOL     OW 1336   6.604   0.660   6.230
  146SOL    HW1 1337   6.703   0.653   6.215
  146SOL    HW2 1338   6.583   0.749   6.271
  147SOL     OW 1339   6.092   1.433   5.345
  147SOL    HW1 1340   6.101   1.527   5.310
  147SOL    HW2 1341   6.106   1.434   5.444
  148SOL     OW 1342   2.086   6.470   1.889
  148SOL    HW1 1343   2.067   6.510   1.799
  148SOL    HW2 1344   2.157   6.523   1.934
  149SOL     OW 1345   1.563   3.195   4.807
  149SOL    HW1 1346   1.471   3.229   4.827
  149SOL    HW2 1347   1.568   3.097   4.824
  150SOL     OW 1348   4.161   1.797   5.470
  150SOL    HW1 1349   4.103   1.716   5.456
  150SOL    HW2 1350   4.104   1.875   5.493
  151SOL     OW 1351   6.354   2.996   1.024
  151SOL    HW1 1352   6.408   2.993   1.109
  151SOL    HW2 1353   6.319   3.089   1.010
  152SOL     OW 1354   0.467   2.786   1.075
  152SOL    HW1 1355   0.545   2.850   1.072
  152SOL    HW2 1356   0.417   2.799   1.161
  153SOL     OW 1357   2.224   1.951   3.790
  153SOL    HW1 1358   2.168   2.014   3.736
  153SOL    HW2 1359   2.233   1.864   3.741
  154SOL     OW 1360   6.748   1.680   2.869
  154SOL    HW1 1361   6.818   1.680   2.940
  154SOL    HW2 1362   6.783   1.728   2.788
  155SOL     OW 1363   6.282   4.419   3.977
  155SOL    HW1 1364   6.205   4.476   4.005
  155SOL    HW2 1365   6.355   4.426   4.045
  156SOL     OW 1366   5.079   1.662   0.830
  156SOL    HW1 1367   5.132   1.587   0.870
  156SOL    HW2 1368   5.038   1.631   0.744
  157SOL     OW 1369   5.062   0.125   1.240
  157SOL    HW1 1370   5.074   0.223   1.253
  157SOL    HW2 1371   5.023   0.107   1.150
  158SOL     OW 1372   0.545   3.029   4.780
  158SOL    HW1 1373   0.530   2.943   4.732
  158SOL    HW2 1374   0.459   3.059   4.822
  159SOL     OW 1375   6.130   5.319   0.363
  159SOL    HW1 1376   6.094   5.407   0.334
  159SOL    HW2 1377   6.228   5.328   0.384
  160SOL     OW 1378   5.194   1.027   0.769
  160SOL    HW1 1379   5.157   1.070   0.687
  160SOL    HW2 1380   5.121   1.019   0.838
  161SOL     OW 1381   6.749   6.219   0.739
  161SOL    HW1 1382   6.711   6.134   0.702
  161SOL    HW2 1383   6.840   6.202   0.776
  162SOL     OW 1384   4.387   6.924   5.860
  162SOL    HW1 1385   4.396   6.836   5.907
  162SOL    HW2 1386   4.291   6.939   5.837
  163SOL     OW 1387   0.583   2.972   2.965
  163SOL    HW1 1388   0.615   2.905   3.031
  163SOL    HW2 1389   0.658   3.035   2.943
  164SOL     OW 1390   2.030   2.264   3.076
  164SOL    HW1 1391   1.932   2.253   3.093
  164SOL    HW2 1392   2.055   2.361   3.085
  165SOL     OW 1393   0.136   6.688   3.642
  165SOL    HW1 1394   0.075   6.695   3.563
  165SOL    HW2 1395   0.091   6.723   3.723
  166SOL     OW 1396   0.261   4.563   4.309
  166SOL    HW1 1397   0.313   4.477   4.309
  166SOL    HW2 1398   0.202   4.566   4.390
  167SOL     OW 1399   1.639   0.972   4.704
  167SOL    HW1 1400   1.726   0.995   4.659
  167SOL    HW2 1401   1.598   1.055   4.741
  168SOL     OW 1402   3.273   3.849   2.454
  168SOL    HW1 1403   3.270   3.928   2.393
  168SOL    HW2 1404   3.349   3.789   2.427
  169SOL     OW 1405   5.416   2.589   0.432
  169SOL    HW1 1406   5.400   2.514   0.496
  169SOL    HW2 1407   5.344   2.657   0.443
  170SOL     OW 1408   6.272   5.271   1.620
  170SOL    HW1 1409   6.311   5.357   1.587
  170SOL    HW2 1410   6.300   5.196   1.561
  171SOL     OW 1411   3.353   3.123   1.226
  171SOL    HW1 1412   3.268   3.072   1.223
  171SOL    HW2 1413   3.388   3.124   1.320
  172SOL     OW 1414   1.405   0.797   6.656
  172SOL    HW1 1415   1.315   0.841   6.663
  172SOL    HW2 1416   1.449   0.826   6.571
  173SOL     OW 1417   5.435   1.453   4.534
  173SOL    HW1 1418   5.427   1.388   4.609
  173SOL    HW2 1419   5.346   1.496   4.518
  174SOL     OW 1420   5.586   4.093   4.426
  174SOL    HW1 1421   5.656   4.137   4.370
  174SOL    HW2 1422   5.497   4.136   4.408
  175SOL     OW 1423   0.667   6.361   2.755
  175SOL    HW1 1424   0.672   6.410   2.668
  175SOL    HW2 1425   0.581   6.311   2.761
  176SOL     OW 1426   6.548   4.063   1.675
  176SOL    HW1 1427   6.540   4.117   1.591
  176SOL    HW2 1428   6.462   4.069   1.727
  177SOL     OW 1429   6.441   1.852   3.812
  177SOL    HW1 1430   6.436   1.913   3.891
  177SOL    HW2 1431   6.515   1.882   3.752
  178SOL     OW 1432   2.162   5.458   4.180
  178SOL    HW1 1433   2.101   5.411   4.244
  178SOL    HW2 1434   2.191   5.395   4.108
  179SOL     OW 1435   3.376   4.262   1.492
  179SOL    HW1 1436   3.355   4.238   1.586
  179SOL    HW2 1437   3.295   4.247   1.435
  180SOL     OW 1438   4.617   1.251   6.602
  180SOL    HW1 1439   4.670   1.173   6.636
  180SOL    HW2 1440   4.524   1.220   6.580
  181SOL     OW 1441   3.202   1.135   6.205
  181SOL    HW1 1442   3.116   1.185   6.204
  181SOL    HW2 1443   3.191   1.047   6.159
  182SOL     OW 1444   2.712   3.137   5.625
  182SOL    HW1 1445   2.625   3.181   5.649
  182SOL    HW2 1446   2.700   3.084   5.541
  183SOL     OW 1447   3.158   0.633   3.038
  183SOL    HW1 1448   3.059   0.640   3.030
  183SOL    HW2 1449   3.201   0.659   2.951
  184SOL     OW 1450   5.466   5.566   3.445
  184SOL    HW1 1451   5.509   5.656   3.449
  184SOL    HW2 1452   5.520   5.505   3.387
  185SOL     OW 1453   0.472   6.945   5.108
  185SOL    HW1 1454   0.565   6.910   5.103
  185SOL    HW2 1455   0.434   6.926   5.198
  186SOL     OW 1456   3.089   6.015   5.158
  186SOL    HW1 1457   3.075   6.113   5.150
  186SOL    HW2 1458   3.112   5.977   5.068
  187SOL     OW 1459   4.110   5.681   1.059
  187SOL    HW1 1460   4.074   5.590   1.081
  187SOL    HW2 1461   4.210   5.678   1.059
  188SOL     OW 1462   1.145   3.442   3.139
  188SOL    HW1 1463   1.056   3.438   3.092
  188SOL    HW2 1464   1.188   3.531   3.122
  189SOL     OW 1465   5.768   4.657   5.527
  189SOL    HW1 1466   5.835   4.672   5.455
  189SOL    HW2 1467   5.809   4.604   5.601
  190SOL     OW 1468   6.429   6.603   0.659
  190SOL    HW1 1469   6.398   6.685   0.706
  190SOL    HW2 1470   6.476   6.543   0.724
  191SOL     OW 1471   2.046   1.870   4.880
  191SOL    HW1 1472   2.044   1.961   4.922
  191SOL    HW2 1473   1.952   1.843   4.856
  192SOL     OW 1474   6.824   5.784   1.624
  192SOL    HW1 1475   6.874   5.786   1.711
  192SOL    HW2 1476   6.859   5.710   1.567
  193SOL     OW 1477   2.159   0.333   1.486
  193SOL    HW1 1478   2.194   0.354   1.578
  193SOL    HW2 1479   2.232   0.295   1.430
  194SOL     OW 1480   3.902   6.134   2.988
  194SOL    HW1 1481   3.835   6.185   3.043
  194SOL    HW2 1482   3.892   6.159   2.892
  195SOL     OW 1483   3.465   0.075   0.860
  195SOL    HW1 1484   3.466   0.092   0.761
  195SOL    HW2 1485   3.541   0.015   0.884
  196SOL     OW 1486   3.915   2.671   0.961
  196SOL    HW1 1487   3.955   2.755   0.925
  196SOL    HW2 1488   3.815   2.679   0.962
  197SOL     OW 1489   2.073   6.059   6.991
  197SOL    HW1 1490   1.985   6.106   6.995
  197SOL    HW2 1491   2.147   6.127   6.994
  198SOL     OW 1492   4.443   6.927   6.673
  198SOL    HW1 1493   4.536   6.960   6.661
  198SOL    HW2 1494   4.410   6.888   6.587
  199SOL     OW 1495   1.162   0.871   3.072
  199SOL    HW1 1496   1.080   0.831   3.032
  199SOL    HW2 1497   1.136   0.944   3.136
  200SOL     OW 1498   1.170   3.611   3.696
  200SOL    HW1 1499   1.134   3.695   3.738
  200SOL    HW2 1500   1.261   3.628   3.660
  201SOL     OW 1501   4.380   1.562   6.346
  201SOL    HW1 1502   4.435   1.543   6.427
  201SOL    HW2 1503   4.364   1.477   6.296
  202SOL     OW 1504   3.878   0.912   2.454
  202SOL    HW1 1505   3.959   0.968   2.470
  202SOL    HW2 1506   3.822   0.954   2.382
  203SOL     OW 1507   5.894   3.129   0.189
  203SOL    HW1 1508   5.962   3.143   0.261
  203SOL    HW2 1509   5.812   3.182   0.209
  204SOL     OW 1510   2.045   6.951   1.118
  204SOL    HW1 1511   2.053   6.927   1.021
  204SOL    HW2 1512   1.975   7.021   1.129
  205SOL     OW 1513   6.132   0.330   1.428
  205SOL    HW1 1514   6.140   0.317   1.527
  205SOL    HW2 1515   6.036   0.345   1.404
  206SOL     OW 1516   6.952   6.162   1.481
  206SOL    HW1 1517   6.960   6.225   1.559
  206SOL    HW2 1518   7.006   6.080   1.500
  207SOL     OW 1519   5.406   1.649   5.487
  207SOL    HW1 1520   5.428   1.731   5.434
  207SOL    HW2 1521   5.381   1.574   5.425
  208SOL     OW 1522   4.062   4.416   6.614
  208SOL    HW1 1523   3.983   4.397   6.672
  208SOL    HW2 1524   4.133   4.461   6.669
  209SOL     OW 1525   6.878   5.558   4.351
  209SOL    HW1 1526   6.912   5.496   4.421
  209SOL    HW2 1527   6.919   5.534   4.263
  210SOL     OW 1528   4.140   1.981   0.492
  210SOL    HW1 1529   4.151   1.974   0.592
  210SOL    HW2 1530   4.179   1.900   0.449
  211SOL     OW 1531   0.867   2.644   1.709
  211SOL    HW1 1532   0.879   2.731   1.756
  211SOL    HW2 1533   0.944   2.584   1.730
  212SOL     OW 1534   0.136   5.218   4.389
  212SOL    HW1 1535   0.203   5.292   4.383
  212SOL    HW2 1536   0.059   5.238   4.328
  213SOL     OW 1537   3.666   2.050   6.541
  213SOL    HW1 1538   3.685   1.956   6.514
  213SOL    HW2 1539   3.570   2.071   6.521
  214SOL     OW 1540   1.884   6.845   3.455
  214SOL    HW1 1541   1.966   6.831   3.510
  214SOL    HW2 1542   1.812   6.883   3.513
  215SOL     OW 1543   3.915   3.868   2.750
  215SOL    HW1 1544   3.893   3.965   2.746
  215SOL    HW2 1545   3.957   3.846   2.838
  216SOL     OW 1546   1.791   0.126   5.848
  216SOL    HW1 1547   1.839   0.182   5.916
  216SOL    HW2 1548   1.694   0.149   5.849
  217SOL     OW 1549   6.676   2.554   4.686
  217SOL    HW1 1550   6.648   2.597   4.773
  217SOL    HW2 1551   6.659   2.618   4.611
  218SOL     OW 1552   2.111   3.858   5.427
  218SOL    HW1 1553   2.094   3.923   5.502
  218SOL    HW2 1554   2.029   3.802   5.413
  219SOL     OW 1555   3.141   5.367   0.218
  219SOL    HW1 1556   3.109   5.441   0.276
  219SOL    HW2 1557   3.101   5.280   0.249
  220SOL     OW 1558   1.353   4.593   0.719
  220SOL    HW1 1559   1.351   4.494   0.712
  220SOL    HW2 1560   1.412   4.630   0.648
  221SOL     OW 1561   6.172   2.809   4.074
  221SOL    HW1 1562   6.105   2.734   4.070
  221SOL    HW2 1563   6.129   2.894   4.044
  222SOL     OW 1564   1.455   6.089   4.373
  222SOL    HW1 1565   1.398   6.086   4.291
  222SOL    HW2 1566   1.538   6.141   4.354
  223SOL     OW 1567   6.264   4.847   2.760
  223SOL    HW1 1568   6.337   4.876   2.698
  223SOL    HW2 1569   6.296   4.769   2.814
  224SOL     OW 1570   3.964   2.133   2.242
  224SOL    HW1 1571   3.913   2.104   2.161
  224SOL    HW2 1572   4.056   2.161   2.216
  225SOL     OW 1573   6.063   6.913   1.464
  225SOL    HW1 1574   6.119   6.991   1.438
  225SOL    HW2 1575   6.118   6.830   1.464
  226SOL     OW 1576   6.929   5.465   1.964
  226SOL    HW1 1577   6.845   5.436   2.010
  226SOL    HW2 1578   6.997   5.491   2.033
  227SOL     OW 1579   0.987   2.987   3.009
  227SOL    HW1 1580   0.911   3.028   2.958
  227SOL    HW2 1581   0.962   2.980   3.106
  228SOL     OW 1582   3.891   6.197   2.726
  228SOL    HW1 1583   3.876   6.135   2.648
  228SOL    HW2 1584   3.860   6.289   2.702
  229SOL     OW 1585   6.224   5.159   3.429
  229SOL    HW1 1586   6.201   5.098   3.353
  229SOL    HW2 1587   6.176   5.130   3.511
  230SOL     OW 1588   0.906   4.119   6.196
  230SOL    HW1 1589   0.881   4.151   6.105
  230SOL    HW2 1590   0.823   4.101   6.249
  231SOL     OW 1591   0.802   2.028   6.576
  231SOL    HW1 1592   0.886   1.974   6.576
  231SOL    HW2 1593   0.817   2.113   6.526
  232SOL     OW 1594   1.108   4.200   6.869
  232SOL    HW1 1595   1.096   4.254   6.786
  232SOL    HW2 1596   1.205   4.195   6.892
  233SOL     OW 1597   3.065   0.095   6.570
  233SOL    HW1 1598   3.147   0.143   6.537
  233SOL    HW2 1599   3.045   0.018   6.510
  234SOL     OW 1600   2.815   5.281   5.832
  234SOL    HW1 1601   2.803   5.373   5.870
  234SOL    HW2 1602   2.798   5.284   5.733
  235SOL     OW 1603   3.206   3.423   5.425
  235SOL    HW1 1604   3.132   3.364   5.459
  235SOL    HW2 1605   3.201   3.428   5.325
  236SOL     OW 1606   0.100   2.727   5.947
  236SOL    HW1 1607   0.139   2.635   5.948
  236SOL    HW2 1608   0.000   2.721   5.950
  237SOL     OW 1609   6.712   6.542   1.742
  237SOL    HW1 1610   6.790   6.600   1.722
  237SOL    HW2 1611   6.667   6.516   1.657
  238SOL     OW 1612   6.875   1.581   2.421
  238SOL    HW1 1613   6.823   1.504   2.459
  238SOL    HW2 1614   6.875   1.657   2.486
  239SOL     OW 1615   6.976   5.285   1.393
  239SOL    HW1 1616   6.993   5.253   1.487
  239SOL    HW2 1617   6.967   5.206   1.333
  240SOL     OW 1618   6.712   2.735   5.274
  240SOL    HW1 1619   6.798   2.684   5.262
  240SOL    HW2 1620   6.733   2.829   5.300
  241SOL     OW 1621   6.005   1.729   4.147
  241SOL    HW1 1622   6.018   1.719   4.246
  241SOL    HW2 1623   5.909   1.713   4.124
  242SOL     OW 1624   2.720   2.109   4.071
  242SOL    HW1 1625   2.630   2.153   4.069
  242SOL    HW2 1626   2.782   2.163   4.128
  243SOL     OW 1627   4.472   1.546   6.621
  243SOL    HW1 1628   4.548   1.510   6.675
  243SOL    HW2 1629   4.426   1.619   6.672
  244SOL     OW 1630   0.141   0.935   5.854
  244SOL    HW1 1631   0.108   1.029   5.860
  244SOL    HW2 1632   0.063   0.872   5.855
  245SOL     OW 1633   5.023   2.220   3.733
  245SOL    HW1 1634   5.020   2.134   3.784
  245SOL    HW2 1635   5.028   2.297   3.796
  246SOL     OW 1636   5.080   2.906   3.430
  246SOL    HW1 1637   5.107   2.976   3.496
  246SOL    HW2 1638   5.113   2.931   3.339
  247SOL     OW 1639   2.880   0.744   3.076
  247SOL    HW1 1640   2.921   0.831   3.048
  247SOL    HW2 1641   2.924   0.712   3.161
  248SOL     OW 1642   6.719   1.229   1.901
  248SOL    HW1 1643   6.661   1.147   1.899
  248SOL    HW2 1644   6.774   1.229   1.984
  249SOL     OW 1645   2.111   6.167   5.118
  249SOL    HW1 1646   2.050   6.088   5.113
  249SOL    HW2 1647   2.060   6.246   5.152
  250SOL     OW 1648   4.746   2.830   6.772
  250SOL    HW1 1649   4.802   2.890   6.829
  250SOL    HW2 1650   4.781   2.736   6.777
  251SOL     OW 1651   2.212   2.280   0.411
  251SOL    HW1 1652   2.189   2.183   0.422
  251SOL    HW2 1653   2.306   2.288   0.377
  252SOL     OW 1654   0.281   1.502   0.286
  252SOL    HW1 1655   0.314   1.436   0.218
  252SOL    HW2 1656   0.316   1.477   0.376
  253SOL     OW 1657   1.609   4.242   5.917
  253SOL    HW1 1658   1.562   4.210   5.834
  253SOL    HW2 1659   1.546   4.237   5.994
  254SOL     OW 1660   4.804   3.816   6.185
  254SOL    HW1 1661   4.807   3.893   6.121
  254SOL    HW2 1662   4.709   3.792   6.203
  255SOL     OW 1663   3.589   1.599   2.353
  255SOL    HW1 1664   3.606   1.578   2.257
  255SOL    HW2 1665   3.544   1.687   2.361
  256SOL     OW 1666   6.286   5.504   2.011
  256SOL    HW1 1667   6.238   5.571   1.953
  256SOL    HW2 1668   6.222   5.466   2.078
  257SOL     OW 1669   2.465   5.734   6.792
  257SOL    HW1 1670   2.429   5.794   6.864
  257SOL    HW2 1671   2.550   5.772   6.756
  258SOL     OW 1672   4.673   4.742   4.291
  258SOL    HW1 1673   4.598   4.676   4.294
  258SOL    HW2 1674   4.759   4.694   4.269
  259SOL     OW 1675   1.073   2.204   2.530
  259SOL    HW1 1676   0.990   2.246   2.567
  259SOL    HW2 1677   1.095   2.246   2.442
  260SOL     OW 1678   6.948   6.574   5.607
  260SOL    HW1 1679   6.907   6.616   5.526
  260SOL    HW2 1680   6.983   6.483   5.582
  261SOL     OW 1681   0.668   1.181   3.588
  261SOL    HW1 1682   0.646   1.194   3.684
  261SOL    HW2 1683   0.755   1.226   3.567
  262SOL     OW 1684   1.548   4.895   2.661
  262SOL    HW1 1685   1.588   4.984   2.637
  262SOL    HW2 1686   1.451   4.895   2.636
  263SOL     OW 1687   0.222   3.589   4.744
  263SOL    HW1 1688   0.157   3.515   4.763
  263SOL    HW2 1689   0.314   3.561   4.771
  264SOL     OW 1690   3.181   4.320   6.970
  264SOL    HW1 1691   3.210   4.344   6.877
  264SOL    HW2 1692   3.249   4.260   7.012
  265SOL     OW 1693   5.021   5.502   4.351
  265SOL    HW1 1694   5.013   5.577   4.285
  265SOL    HW2 1695   5.048   5.418   4.304
  266SOL     OW 1696   4.004   2.724   6.552
  266SOL    HW1 1697   3.974   2.813   6.587
  266SOL    HW2 1698   4.072   2.685   6.614
  267SOL     OW 1699   2.630   1.763   5.827
  267SOL    HW1 1700   2.616   1.707   5.909
  267SOL    HW2 1701   2.606   1.711   5.746
  268SOL     OW 1702   2.873   4.758   3.876
  268SOL    HW1 1703   2.790   4.702   3.876
  268SOL    HW2 1704   2.899   4.779   3.782
  269SOL     OW 1705   1.826   1.468   4.831
  269SOL    HW1 1706   1.880   1.451   4.749
  269SOL    HW2 1707   1.875   1.434   4.911
  270SOL     OW 1708   5.046   6.611   4.924
  270SOL    HW1 1709   4.978   6.544   4.892
  270SOL    HW2 1710   5.071   6.670   4.847
  271SOL     OW 1711   1.751   1.851   0.463
  271SOL    HW1 1712   1.832   1.795   0.442
  271SOL    HW2 1713   1.680   1.793   0.502
  272SOL     OW 1714   4.718   5.973   0.956
  272SOL    HW1 1715   4.743   5.901   1.020
  272SOL    HW2 1716   4.725   6.062   1.001
  273SOL     OW 1717   2.231   6.618   4.269
  273SOL    HW1 1718   2.277   6.534   4.299
  273SOL    HW2 1719   2.160   6.596   4.203
  274SOL     OW 1720   5.519   2.297   1.168
  274SOL    HW1 1721   5.616   2.277   1.155
  274SOL    HW2 1722   5.465   2.220   1.135
  275SOL     OW 1723   5.780   5.884   6.012
  275SOL    HW1 1724   5.691   5.838   6.007
  275SOL    HW2 1725   5.829   5.853   6.094
  276SOL     OW 1726   0.215   6.624   4.649
  276SOL    HW1 1727   0.185   6.692   4.582
  276SOL    HW2 1728   0.193   6.532   4.615
  277SOL     OW 1729   4.388   2.809   5.745
  277SOL    HW1 1730   4.473   2.827   5.794
  277SOL    HW2 1731   4.347   2.725   5.779
  278SOL     OW 1732   5.726   4.116   2.943
  278SOL    HW1 1733   5.824   4.106   2.929
  278SOL    HW2 1734   5.680   4.029   2.927
  279SOL     OW 1735   6.716   3.534   3.629
  279SOL    HW1 1736   6.758   3.444   3.643
  279SOL    HW2 1737   6.780   3.593   3.579
  280SOL     OW 1738   4.454   1.454   3.777
  280SOL    HW1 1739   4.360   1.490   3.774
  280SOL    HW2 1740   4.475   1.409   3.690
  281SOL     OW 1741   5.260   6.310   5.287
  281SOL    HW1 1742   5.262   6.399   5.242
  281SOL    HW2 1743   5.295   6.241   5.224
  282SOL     OW 1744   1.321   2.818   0.350
  282SOL    HW1 1745   1.410   2.773   0.351
  282SOL    HW2 1746   1.249   2.752   0.373
  283SOL     OW 1747   6.295   4.197   4.164
  283SOL    HW1 1748   6.393   4.188   4.185
  283SOL    HW2 1749   6.285   4.240   4.074
  284SOL     OW 1750   4.882   6.351   2.429
  284SOL    HW1 1751   4.933   6.416   2.373
  284SOL    HW2 1752   4.849   6.396   2.511
  285SOL     OW 1753   4.008   6.529   5.666
  285SOL    HW1 1754   4.000   6.620   5.707
  285SOL    HW2 1755   3.971   6.460   5.730
  286SOL     OW 1756   2.744   4.764   5.260
  286SOL    HW1 1757   2.778   4.690   5.201
  286SOL    HW2 1758   2.662   4.733   5.308
  287SOL     OW 1759   3.598   6.313   6.936
  287SOL    HW1 1760   3.629   6.339   0.005
  287SOL    HW2 1761   3.646   6.368   6.868
  288SOL     OW 1762   4.945   1.687   0.273
  288SOL    HW1 1763   4.859   1.739   0.277
  288SOL    HW2 1764   4.943   1.627   0.193
  289SOL     OW 1765   5.547   4.477   4.445
  289SOL    HW1 1766   5.626   4.450   4.500
  289SOL    HW2 1767   5.491   4.397   4.426
  290SOL     OW 1768   3.389   0.501   5.766
  290SOL    HW1 1769   3.480   0.488   5.729
  290SOL    HW2 1770   3.359   0.417   5.811
  291SOL     OW 1771   4.155   0.772   5.364
  291SOL    HW1 1772   4.195   0.862   5.383
  291SOL    HW2 1773   4.228   0.704   5.357
  292SOL     OW 1774   3.536   0.387   3.887
  292SOL    HW1 1775   3.580   0.373   3.975
  292SOL    HW2 1776   3.531   0.300   3.838
  293SOL     OW 1777   5.211   6.801   2.894
  293SOL    HW1 1778   5.140   6.869   2.909
  293SOL    HW2 1779   5.296   6.832   2.936
  294SOL     OW 1780   6.696   1.264   6.977
  294SOL    HW1 1781   6.726   1.293   6.886
  294SOL    HW2 1782   6.697   1.343   0.017
  295SOL     OW 1783   1.053   0.941   4.707
  295SOL    HW1 1784   0.965   0.921   4.751
  295SOL    HW2 1785   1.039   0.960   4.610
  296SOL     OW 1786   0.942   2.194   1.789
  296SOL    HW1 1787   1.030   2.149   1.774
  296SOL    HW2 1788   0.869   2.126   1.790
  297SOL     OW 1789   5.594   3.128   3.175
  297SOL    HW1 1790   5.577   3.029   3.175
  297SOL    HW2 1791   5.641   3.154   3.091
  298SOL     OW 1792   4.324   1.055   5.635
  298SOL    HW1 1793   4.253   0.999   5.680
  298SOL    HW2 1794   4.300   1.067   5.539
  299SOL     OW 1795   0.321   1.456   6.707
  299SOL    HW1 1796   0.277   1.434   6.620
  299SOL    HW2 1797   0.381   1.534   6.695
  300SOL     OW 1798   5.060   6.755   3.530
  300SOL    HW1 1799   5.064   6.855   3.540
  300SOL    HW2 1800   4.973   6.729   3.490
  301SOL     OW 1801   6.650   5.342   6.236
  301SOL    HW1 1802   6.680   5.254   6.273
  301SOL    HW2 1803   6.730   5.398   6.214
  302SOL     OW 1804   0.459   6.778   2.807
  302SOL    HW1 1805   0.494   6.768   2.900
  302SOL    HW2 1806   0.530   6.818   2.749
  303SOL     OW 1807   5.761   6.235   2.848
  303SOL    HW1 1808   5.790   6.255   2.754
  303SOL    HW2 1809   5.706   6.151   2.848
  304SOL     OW 1810   2.172   6.711   4.600
  304SOL    HW1 1811   2.233   6.633   4.606
  304SOL    HW2 1812   2.101   6.693   4.532
  305SOL     OW 1813   0.574   2.207   1.604
  305SOL    HW1 1814   0.604   2.300   1.627
  305SOL    HW2 1815   0.573   2.196   1.505
  306SOL     OW 1816   0.959   6.663   2.863
  306SOL    HW1 1817   0.898   6.611   2.923
  306SOL    HW2 1818   1.018   6.600   2.813
  307SOL     OW 1819   3.595   3.818   3.450
  307SOL    HW1 1820   3.610   3.902   3.503
  307SOL    HW2 1821   3.497   3.800   3.444
  308SOL     OW 1822   6.744   1.787   2.249
  308SOL    HW1 1823   6.649   1.760   2.265
  308SOL    HW2 1824   6.805   1.728   2.301
  309SOL     OW 1825   1.848   5.488   6.994
  309SOL    HW1 1826   1.758   5.488   0.015
  309SOL    HW2 1827   1.913   5.535   0.032
  310SOL     OW 1828   5.624   6.517   4.972
  310SOL    HW1 1829   5.647   6.496   4.877
  310SOL    HW2 1830   5.708   6.516   5.027
  311SOL     OW 1831   1.363   5.755   1.526
  311SOL    HW1 1832   1.309   5.707   1.595
  311SOL    HW2 1833   1.310   5.764   1.442
  312SOL     OW 1834   3.411   0.620   4.199
  312SOL    HW1 1835   3.500   0.575   4.192
  312SOL    HW2 1836   3.356   0.597   4.119
  313SOL     OW 1837   3.256   3.136   2.726
  313SOL    HW1 1838   3.303   3.104   2.644
  313SOL    HW2 1839   3.310   3.111   2.807
  314SOL     OW 1840   2.434   5.390   6.469
  314SOL    HW1 1841   2.420   5.402   6.371
  314SOL    HW2 1842   2.532   5.384   6.488
  315SOL     OW 1843   5.371   0.521   4.658
  315SOL    HW1 1844   5.274   0.497   4.656
  315SOL    HW2 1845   5.425   0.438   4.671
  316SOL     OW 1846   3.526   0.848   6.960
  316SOL    HW1 1847   3.505   0.828   6.864
  316SOL    HW2 1848   3.545   0.946   6.970
  317SOL     OW 1849   0.370   2.301   1.264
  317SOL    HW1 1850   0.399   2.384   1.311
  317SOL    HW2 1851   0.271   2.291   1.272
  318SOL     OW 1852   1.129   0.268   4.633
  318SOL    HW1 1853   1.140   0.366   4.648
  318SOL    HW2 1854   1.103   0.252   4.537
  319SOL     OW 1855   0.350   0.637   3.783
  319SOL    HW1 1856   0.330   0.661   3.878
  319SOL    HW2 1857   0.285   0.683   3.722
  320SOL     OW 1858   5.456   1.865   6.979
  320SOL    HW1 1859   5.535   1.804   6.967
  320SOL    HW2 1860   5.486   1.948   0.004
  321SOL     OW 1861   4.386   2.986   1.006
  321SOL    HW1 1862   4.453   2.915   1.027
  321SOL    HW2 1863   4.342   2.966   0.918
  322SOL     OW 1864   3.394   2.952   6.410
  322SOL    HW1 1865   3.402   2.858   6.444
  322SOL    HW2 1866   3.300   2.970   6.382
  323SOL     OW 1867   1.469   3.681   2.258
  323SOL    HW1 1868   1.419   3.742   2.319
  323SOL    HW2 1869   1.527   3.620   2.312
  324SOL     OW 1870   0.875   0.080   3.303
  324SOL    HW1 1871   0.911   0.173   3.316
  324SOL    HW2 1872   0.927   0.033   3.232
  325SOL     OW 1873   6.863   3.905   0.631
  325SOL    HW1 1874   6.766   3.912   0.652
  325SOL    HW2 1875   6.892   3.809   0.633
  326SOL     OW 1876   0.374   6.225   0.169
  326SOL    HW1 1877   0.279   6.231   0.201
  326SOL    HW2 1878   0.431   6.288   0.221
  327SOL     OW 1879   3.996   5.666   5.891
  327SOL    HW1 1880   3.988   5.659   5.792
  327SOL    HW2 1881   4.011   5.761   5.917
  328SOL     OW 1882   1.345   4.702   3.299
  328SOL    HW1 1883   1.260   4.749   3.276
  328SOL    HW2 1884   1.372   4.724   3.393
  329SOL     OW 1885   3.299   3.514   1.913
  329SOL    HW1 1886   3.224   3.499   1.848
  329SOL    HW2 1887   3.378   3.458   1.887
  330SOL     OW 1888   3.107   3.737   0.357
  330SOL    HW1 1889   3.151   3.654   0.322
  330SOL    HW2 1890   3.074   3.792   0.281
  331SOL     OW 1891   5.651   5.591   4.963
  331SOL    HW1 1892   5.571   5.623   5.014
  331SOL    HW2 1893   5.641   5.493   4.944
  332SOL     OW 1894   5.375   2.011   2.842
  332SOL    HW1 1895   5.334   2.086   2.790
  332SOL    HW2 1896   5.472   2.031   2.856
  333SOL     OW 1897   3.115   0.038   4.316
  333SOL    HW1 1898   3.165   7.005   4.383
  333SOL    HW2 1899   3.179   0.100   4.270
  334SOL     OW 1900   3.599   3.866   3.146
  334SOL    HW1 1901   3.620   3.850   3.242
  334SOL    HW2 1902   3.500   3.876   3.134
  335SOL     OW 1903   3.644   1.382   1.009
  335SOL    HW1 1904   3.584   1.462   0.999
  335SOL    HW2 1905   3.589   1.303   1.036
  336SOL     OW 1906   4.126   1.856   4.557
  336SOL    HW1 1907   4.145   1.781   4.494
  336SOL    HW2 1908   4.173   1.839   4.644
  337SOL     OW 1909   0.030   1.131   5.274
  337SOL    HW1 1910   0.098   1.123   5.347
  337SOL    HW2 1911   6.995   1.212   5.290
  338SOL     OW 1912   4.321   1.526   1.571
  338SOL    HW1 1913   4.323   1.470   1.654
  338SOL    HW2 1914   4.239   1.502   1.518
  339SOL     OW 1915   4.155   5.107   5.911
  339SOL    HW1 1916   4.141   5.094   5.813
  339SOL    HW2 1917   4.253   5.100   5.932
  340SOL     OW 1918   6.220   2.629   4.338
  340SOL    HW1 1919   6.210   2.678   4.251
  340SOL    HW2 1920   6.238   2.533   4.320
  341SOL     OW 1921   0.298   6.971   2.863
  341SOL    HW1 1922   0.347   6.890   2.832
  341SOL    HW2 1923   0.338   0.030   2.819
  342SOL     OW 1924   5.078   1.909   2.499
  342SOL    HW1 1925   5.018   1.982   2.465
  342SOL    HW2 1926   5.034   1.820   2.484
  343SOL     OW 1927   6.478   6.885   1.579
  343SOL    HW1 1928   6.456   6.974   1.617
  343SOL    HW2 1929   6.394   6.835   1.557
  344SOL     OW 1930   0.158   2.831   1.109
  344SOL    HW1 1931   0.216   2.752   1.091
  344SOL    HW2 1932   0.128   2.872   1.023
  345SOL     OW 1933   6.481   2.335   4.662
  345SOL    HW1 1934   6.387   2.353   4.634
  345SOL    HW2 1935   6.533   2.421   4.658
  346SOL     OW 1936   2.685   6.219   3.186
  346SOL    HW1 1937   2.614   6.268   3.237
  346SOL    HW2 1938   2.698   6.261   3.097
  347SOL     OW 1939   2.355   4.517   0.716
  347SOL    HW1 1940   2.315   4.472   0.796
  347SOL    HW2 1941   2.452   4.535   0.734
  348SOL     OW 1942   3.996   5.322   2.097
  348SOL    HW1 1943   3.993   5.229   2.060
  348SOL    HW2 1944   3.921   5.334   2.162
  349SOL     OW 1945   5.382   4.130   0.509
  349SOL    HW1 1946   5.338   4.215   0.537
  349SOL    HW2 1947   5.355   4.107   0.415
  350SOL     OW 1948   2.916   2.040   6.775
  350SOL    HW1 1949   2.842   1.972   6.775
  350SOL    HW2 1950   2.952   2.048   6.868
  351SOL     OW 1951   3.467   4.162   0.782
  351SOL    HW1 1952   3.387   4.212   0.815
  351SOL    HW2 1953   3.442   4.067   0.764
  352SOL     OW 1954   4.321   0.374   2.424
  352SOL    HW1 1955   4.301   0.342   2.516
  352SOL    HW2 1956   4.411   0.342   2.395
  353SOL     OW 1957   1.721   0.249   0.750
  353SOL    HW1 1958   1.767   0.208   0.830
  353SOL    HW2 1959   1.782   0.315   0.707
  354SOL     OW 1960   0.846   2.741   0.350
  354SOL    HW1 1961   0.875   2.738   0.255
  354SOL    HW2 1962   0.923   2.716   0.409
  355SOL     OW 1963   1.125   2.744   2.565
  355SOL    HW1 1964   1.186   2.737   2.487
  355SOL    HW2 1965   1.175   2.723   2.649
  356SOL     OW 1966   2.872   0.094   5.498
  356SOL    HW1 1967   2.902   0.115   5.405
  356SOL    HW2 1968   2.827   0.175   5.537
  357SOL     OW 1969   6.225   0.001   4.455
  357SOL    HW1 1970   6.314   7.005   4.496
  357SOL    HW2 1971   6.207   0.099   4.456
  358SOL     OW 1972   3.372   6.148   6.121
  358SOL    HW1 1973   3.330   6.106   6.040
  358SOL    HW2 1974   3.468   6.166   6.103
  359SOL     OW 1975   1.372   1.453   2.156
  359SOL    HW1 1976   1.299   1.402   2.111
  359SOL    HW2 1977   1.331   1.524   2.214
  360SOL     OW 1978   2.036   4.441   3.826
  360SOL    HW1 1979   2.037   4.473   3.731
  360SOL    HW2 1980   1.985   4.356   3.833
  361SOL     OW 1981   6.988   1.437   2.197
  361SOL    HW1 1982   6.958   1.479   2.283
  361SOL    HW2 1983   0.058   1.469   2.175
  362SOL     OW 1984   3.380   3.697   1.550
  362SOL    HW1 1985   3.420   3.758   1.619
  362SOL    HW2 1986   3.421   3.606   1.558
  363SOL     OW 1987   4.840   5.750   1.850
  363SOL    HW1 1988   4.827   5.806   1.932
  363SOL    HW2 1989   4.842   5.653   1.876
  364SOL     OW 1990   0.957   6.787   0.078
  364SOL    HW1 1991   0.942   6.886   0.085
  364SOL    HW2 1992   1.019   6.758   0.151
  365SOL     OW 1993   5.438   1.396   3.774
  365SOL    HW1 1994   5.480   1.446   3.850
  365SOL    HW2 1995   5.380   1.459   3.723
  366SOL     OW 1996   5.812   1.909   6.799
  366SOL    HW1 1997   5.866   1.905   6.715
  366SOL    HW2 1998   5.733   1.848   6.792
  367SOL     OW 1999   5.811   1.492   6.578
  367SOL    HW1 2000   5.773   1.401   6.560
  367SOL    HW2 2001   5.781   1.555   6.506
  368SOL     OW 2002   0.869   1.647   5.800
  368SOL    HW1 2003   0.879   1.571   5.735
  368SOL    HW2 2004   0.797   1.708   5.768
  369SOL     OW 2005   6.230   4.033   0.906
  369SOL    HW1 2006   6.227   4.122   0.860
  369SOL    HW2 2007   6.285   4.040   0.989
  370SOL     OW 2008   2.024   2.626   3.656
  370SOL    HW1 2009   1.936   2.653   3.618
  370SOL    HW2 2010   2.068   2.706   3.698
  371SOL     OW 2011   0.881   5.100   6.935
  371SOL    HW1 2012   0.875   5.004   6.909
  371SOL    HW2 2013   0.807   5.123   6.998
  372SOL     OW 2014   2.700   5.851   5.884
  372SOL    HW1 2015   2.610   5.813   5.907
  372SOL    HW2 2016   2.720   5.833   5.788
  373SOL     OW 2017   6.588   4.677   3.394
  373SOL    HW1 2018   6.512   4.740   3.407
  373SOL    HW2 2019   6.552   4.589   3.361
  374SOL     OW 2020   2.920   1.492   2.662
  374SOL    HW1 2021   2.906   1.394   2.666
  374SOL    HW2 2022   3.018   1.512   2.673
  375SOL     OW 2023   1.033   5.842   4.331
  375SOL    HW1 2024   1.030   5.923   4.389
  375SOL    HW2 2025   0.951   5.786   4.347
  376SOL     OW 2026   4.007   0.725   3.603
  376SOL    HW1 2027   4.025   0.764   3.513
  376SOL    HW2 2028   3.993   0.798   3.669
  377SOL     OW 2029   1.798   2.242   6.909
  377SOL    HW1 2030   1.803   2.320   6.971
  377SOL    HW2 2031   1.864   2.173   6.937
  378SOL     OW 2032   4.295   1.709   2.991
  378SOL    HW1 2033   4.395   1.703   2.994
  378SOL    HW2 2034   4.265   1.799   3.022
  379SOL     OW 2035   4.472   1.731   5.972
  379SOL    HW1 2036   4.447   1.800   6.041
  379SOL    HW2 2037   4.484   1.776   5.884
  380SOL     OW 2038   4.248   2.384   0.323
  380SOL    HW1 2039   4.338   2.417   0.294
  380SOL    HW2 2040   4.260   2.318   0.397
  381SOL     OW 2041   2.040   3.643   2.873
  381SOL    HW1 2042   2.066   3.663   2.779
  381SOL    HW2 2043   1.943   3.616   2.876
  382SOL     OW 2044   5.985   0.803   6.279
  382SOL    HW1 2045   6.071   0.806   6.227
  382SOL    HW2 2046   5.911   0.773   6.219
  383SOL     OW 2047   4.953   2.707   0.314
  383SOL    HW1 2048   4.932   2.732   0.408
  383SOL    HW2 2049   4.951   2.607   0.305
  384SOL     OW 2050   6.446   3.813   5.149
  384SOL    HW1 2051   6.384   3.761   5.207
  384SOL    HW2 2052   6.530   3.761   5.135
  385SOL     OW 2053   4.638   3.227   0.228
  385SOL    HW1 2054   4.711   3.174   0.270
  385SOL    HW2 2055   4.674   3.316   0.199
  386SOL     OW 2056   4.073   6.487   4.411
  386SOL    HW1 2057   4.163   6.447   4.428
  386SOL    HW2 2058   4.040   6.458   4.321
  387SOL     OW 2059   2.690   5.955   4.162
  387SOL    HW1 2060   2.625   5.999   4.224
  387SOL    HW2 2061   2.669   5.982   4.068
  388SOL     OW 2062   0.859   4.530   6.807
  388SOL    HW1 2063   0.891   4.488   6.891
  388SOL    HW2 2064   0.819   4.620   6.827
  389SOL     OW 2065   3.183   3.175   1.861
  389SOL    HW1 2066   3.237   3.094   1.837
  389SOL    HW2 2067   3.098   3.147   1.905
  390SOL     OW 2068   2.579   1.122   4.281
  390SOL    HW1 2069   2.529   1.143   4.365
  390SOL    HW2 2070   2.576   1.023   4.265
  391SOL     OW 2071   1.459   2.736   6.750
  391SOL    HW1 2072   1.528   2.711   6.818
  391SOL    HW2 2073   1.373   2.757   6.796
  392SOL     OW 2074   3.302   5.632   3.774
  392SOL    HW1 2075   3.289   5.560   3.705
  392SOL    HW2 2076   3.247   5.611   3.855
  393SOL     OW 2077   6.259   3.884   4.921
  393SOL    HW1 2078   6.167   3.914   4.944
  393SOL    HW2 2079   6.312   3.872   5.005
  394SOL     OW 2080   2.089   1.163   6.461
  394SOL    HW1 2081   2.041   1.076   6.473
  394SOL    HW2 2082   2.104   1.206   6.550
  395SOL     OW 2083   6.221   3.518   1.022
  395SOL    HW1 2084   6.315   3.545   1.045
  395SOL    HW2 2085   6.157   3.563   1.084
  396SOL     OW 2086   3.461   3.023   5.029
  396SOL    HW1 2087   3.476   3.106   5.082
  396SOL    HW2 2088   3.461   2.943   5.090
  397SOL     OW 2089   4.005   2.121   6.892
  397SOL    HW1 2090   4.001   2.137   6.793
  397SOL    HW2 2091   3.922   2.154   6.935
  398SOL     OW 2092   0.932   4.688   3.150
  398SOL    HW1 2093   0.971   4.669   3.240
  398SOL    HW2 2094   0.914   4.786   3.141
  399SOL     OW 2095   5.124   4.730   2.908
  399SOL    HW1 2096   5.201   4.710   2.847
  399SOL    HW2 2097   5.153   4.722   3.003
  400SOL     OW 2098   1.699   4.752   4.528
  400SOL    HW1 2099   1.615   4.795   4.563
  400SOL    HW2 2100   1.777   4.784   4.581
  401SOL     OW 2101   5.639   1.377   6.818
  401SOL    HW1 2102   5.721   1.345   6.772
  401SOL    HW2 2103   5.559   1.331   6.780
  402SOL     OW 2104   6.348   4.624   1.427
  402SOL    HW1 2105   6.299   4.682   1.362
  402SOL    HW2 2106   6.371   4.677   1.508
  403SOL     OW 2107   5.203   3.787   0.301
  403SOL    HW1 2108   5.250   3.871   0.273
  403SOL    HW2 2109   5.140   3.807   0.376
  404SOL     OW 2110   0.270   6.897   4.923
  404SOL    HW1 2111   0.317   6.847   4.850
  404SOL    HW2 2112   0.337   6.924   4.992
  405SOL     OW 2113   1.181   2.526   0.809
  405SOL    HW1 2114   1.142   2.618   0.799
  405SOL    HW2 2115   1.237   2.505   0.729
  406SOL     OW 2116   1.226   3.258   2.651
  406SOL    HW1 2117   1.170   3.260   2.734
  406SOL    HW2 2118   1.317   3.294   2.672
  407SOL     OW 2119   2.819   1.481   3.496
  407SOL    HW1 2120   2.736   1.432   3.525
  407SOL    HW2 2121   2.848   1.543   3.569
  408SOL     OW 2122   2.062   0.584   3.194
  408SOL    HW1 2123   2.032   0.541   3.108
  408SOL    HW2 2124   2.099   0.675   3.174
  409SOL     OW 2125   6.096   3.029   3.943
  409SOL    HW1 2126   6.090   3.118   3.988
  409SOL    HW2 2127   6.149   3.037   3.858
  410SOL     OW 2128   3.257   0.868   6.448
  410SOL    HW1 2129   3.313   0.894   6.370
  410SOL    HW2 2130   3.163   0.853   6.418
  411SOL     OW 2131   0.074   3.738   5.173
  411SOL    HW1 2132   0.017   3.667   5.216
  411SOL    HW2 2133   0.157   3.752   5.227
  412SOL     OW 2134   4.225   0.595   2.158
  412SOL    HW1 2135   4.249   0.507   2.199
  412SOL    HW2 2136   4.213   0.584   2.060
  413SOL     OW 2137   2.829   0.480   1.836
  413SOL    HW1 2138   2.923   0.485   1.867
  413SOL    HW2 2139   2.767   0.493   1.914
  414SOL     OW 2140   4.391   3.786   0.133
  414SOL    HW1 2141   4.323   3.713   0.130
  414SOL    HW2 2142   4.367   3.857   0.066
  415SOL     OW 2143   3.447   6.661   1.860
  415SOL    HW1 2144   3.456   6.620   1.769
  415SOL    HW2 2145   3.385   6.604   1.915
  416SOL     OW 2146   3.562   5.772   5.871
  416SOL    HW1 2147   3.647   5.825   5.879
  416SOL    HW2 2148   3.574   5.684   5.916
  417SOL     OW 2149   4.394   5.652   0.984
  417SOL    HW1 2150   4.334   5.575   1.005
  417SOL    HW2 2151   4.399   5.664   0.885
  418SOL     OW 2152   5.867   4.698   0.641
  418SOL    HW1 2153   5.808   4.649   0.576
  418SOL    HW2 2154   5.813   4.768   0.688
  419SOL     OW 2155   6.324   6.654   1.124
  419SOL    HW1 2156   6.245   6.715   1.118
  419SOL    HW2 2157   6.319   6.586   1.050
  420SOL     OW 2158   4.476   4.150   0.043
  420SOL    HW1 2159   4.448   4.123   0.135
  420SOL    HW2 2160   4.397   4.183   7.014
  421SOL     OW 2161   1.247   5.623   6.573
  421SOL    HW1 2162   1.173   5.680   6.536
  421SOL    HW2 2163   1.243   5.626   6.673
  422SOL     OW 2164   5.797   3.097   6.254
  422SOL    HW1 2165   5.804   3.194   6.230
  422SOL    HW2 2166   5.802   3.086   6.353
  423SOL     OW 2167   0.934   3.210   5.661
  423SOL    HW1 2168   0.980   3.250   5.582
  423SOL    HW2 2169   0.842   3.181   5.634
  424SOL     OW 2170   2.511   4.107   0.079
  424SOL    HW1 2171   2.429   4.148   0.118
  424SOL    HW2 2172   2.519   4.012   0.109
  425SOL     OW 2173   3.152   0.537   1.003
  425SOL    HW1 2174   3.109   0.623   0.975
  425SOL    HW2 2175   3.081   0.473   1.034
  426SOL     OW 2176   5.902   4.017   5.212
  426SOL    HW1 2177   5.894   4.027   5.311
  426SOL    HW2 2178   5.842   4.084   5.167
  427SOL     OW 2179   4.427   3.517   1.018
  427SOL    HW1 2180   4.423   3.418   1.011
  427SOL    HW2 2181   4.389   3.547   1.106
  428SOL     OW 2182   3.622   1.330   5.291
  428SOL    HW1 2183   3.594   1.234   5.297
  428SOL    HW2 2184   3.655   1.360   5.381
  429SOL     OW 2185   2.574   5.188   0.175
  429SOL    HW1 2186   2.567   5.124   0.251
  429SOL    HW2 2187   2.583   5.281   0.211
  430SOL     OW 2188   1.855   6.664   4.782
  430SOL    HW1 2189   1.897   6.708   4.702
  430SOL    HW2 2190   1.924   6.609   4.830
  431SOL     OW 2191   3.414   1.827   6.779
  431SOL    HW1 2192   3.470   1.771   6.840
  431SOL    HW2 2193   3.424   1.794   6.685
  432SOL     OW 2194   0.188   1.877   1.165
  432SOL    HW1 2195   0.262   1.813   1.184
  432SOL    HW2 2196   0.182   1.893   1.066
  433SOL     OW 2197   2.871   5.880   4.645
  433SOL    HW1 2198   2.855   5.959   4.586
  433SOL    HW2 2199   2.820   5.892   4.730
  434SOL     OW 2200   6.850   3.652   1.292
  434SOL    HW1 2201   6.759   3.673   1.326
  434SOL    HW2 2202   6.853   3.556   1.263
  435SOL     OW 2203   3.743   4.055   0.592
  435SOL    HW1 2204   3.692   4.020   0.514
  435SOL    HW2 2205   3.746   3.986   0.664
  436SOL     OW 2206   2.639   1.205   0.255
  436SOL    HW1 2207   2.620   1.138   0.326
  436SOL    HW2 2208   2.590   1.181   0.172
  437SOL     OW 2209   6.740   6.552   6.039
  437SOL    HW1 2210   6.778   6.521   5.952
  437SOL    HW2 2211   6.690   6.637   6.025
  438SOL     OW 2212   2.095   2.823   2.069
  438SOL    HW1 2213   2.018   2.771   2.031
  438SOL    HW2 2214   2.156   2.761   2.117
  439SOL     OW 2215   6.011   4.885   2.651
  439SOL    HW1 2216   5.942   4.859   2.718
  439SOL    HW2 2217   6.102   4.875   2.692
  440SOL     OW 2218   0.645   3.059   3.607
  440SOL    HW1 2219   0.721   3.094   3.662
  440SOL    HW2 2220   0.649   2.959   3.604
  441SOL     OW 2221   1.111   0.722   3.959
  441SOL    HW1 2222   1.158   0.744   3.874
  441SOL    HW2 2223   1.056   0.800   3.988
  442SOL     OW 2224   0.158   4.551   0.155
  442SOL    HW1 2225   0.223   4.487   0.196
  442SOL    HW2 2226   0.173   4.555   0.057
  443SOL     OW 2227   0.821   4.272   5.925
  443SOL    HW1 2228   0.816   4.206   5.850
  443SOL    HW2 2229   0.905   4.326   5.916
  444SOL     OW 2230   4.608   3.012   6.010
  444SOL    HW1 2231   4.645   2.920   6.011
  444SOL    HW2 2232   4.682   3.078   6.023
  445SOL     OW 2233   1.560   4.334   3.314
  445SOL    HW1 2234   1.631   4.401   3.336
  445SOL    HW2 2235   1.585   4.245   3.350
  446SOL     OW 2236   4.478   4.864   4.112
  446SOL    HW1 2237   4.414   4.804   4.064
  446SOL    HW2 2238   4.523   4.813   4.185
  447SOL     OW 2239   7.007   5.989   0.482
  447SOL    HW1 2240   7.020   6.075   0.530
  447SOL    HW2 2241   0.040   5.918   0.525
  448SOL     OW 2242   4.560   0.547   5.522
  448SOL    HW1 2243   4.500   0.626   5.509
  448SOL    HW2 2244   4.541   0.505   5.611
  449SOL     OW 2245   6.141   0.591   4.644
  449SOL    HW1 2246   6.088   0.637   4.573
  449SOL    HW2 2247   6.090   0.512   4.678
  450SOL     OW 2248   6.908   6.367   3.572
  450SOL    HW1 2249   6.924   6.466   3.564
  450SOL    HW2 2250   6.983   6.318   3.528
  451SOL     OW 2251   0.138   2.265   3.445
  451SOL    HW1 2252   0.135   2.195   3.516
  451SOL    HW2 2253   0.091   2.347   3.478
  452SOL     OW 2254   0.087   4.601   6.437
  452SOL    HW1 2255   0.113   4.680   6.382
  452SOL    HW2 2256   0.165   4.571   6.492
  453SOL     OW 2257   2.694   0.759   5.797
  453SOL    HW1 2258   2.757   0.716   5.862
  453SOL    HW2 2259   2.735   0.844   5.763
  454SOL     OW 2260   1.026   6.390   0.241
  454SOL    HW1 2261   1.014   6.291   0.236
  454SOL    HW2 2262   0.995   6.432   0.155
  455SOL     OW 2263   5.228   1.113   5.810
  455SOL    HW1 2264   5.297   1.162   5.756
  455SOL    HW2 2265   5.154   1.083   5.749
  456SOL     OW 2266   4.657   5.915   6.519
  456SOL    HW1 2267   4.557   5.921   6.515
  456SOL    HW2 2268   4.685   5.884   6.610
  457SOL     OW 2269   1.581   5.201   2.268
  457SOL    HW1 2270   1.575   5.126   2.201
  457SOL    HW2 2271   1.490   5.218   2.306
  458SOL     OW 2272   6.195   6.258   6.785
  458SOL    HW1 2273   6.157   6.252   6.693
  458SOL    HW2 2274   6.252   6.340   6.792
  459SOL     OW 2275   2.306   0.528   2.661
  459SOL    HW1 2276   2.212   0.494   2.667
  459SOL    HW2 2277   2.362   0.481   2.730
  460SOL     OW 2278   6.592   1.816   3.230
  460SOL    HW1 2279   6.649   1.896   3.207
  460SOL    HW2 2280   6.559   1.774   3.146
  461SOL     OW 2281   4.639   5.980   5.717
  461SOL    HW1 2282   4.609   6.036   5.794
  461SOL    HW2 2283   4.670   5.891   5.750
  462SOL     OW 2284   3.091   3.464   6.999
  462SOL    HW1 2285   3.027   3.513   6.940
  462SOL    HW2 2286   3.116   3.377   6.956
  463SOL     OW 2287   6.386   5.498   1.484
  463SOL    HW1 2288   6.405   5.589   1.521
  463SOL    HW2 2289   6.355   5.506   1.389
  464SOL     OW 2290   1.594   1.022   5.836
  464SOL    HW1 2291   1.558   1.106   5.797
  464SOL    HW2 2292   1.541   0.944   5.803
  465SOL     OW 2293   6.583   2.701   4.460
  465SOL    HW1 2294   6.503   2.760   4.450
  465SOL    HW2 2295   6.666   2.753   4.441
  466SOL     OW 2296   1.889   0.273   3.355
  466SOL    HW1 2297   1.915   0.183   3.390
  466SOL    HW2 2298   1.960   0.340   3.380
  467SOL     OW 2299   2.136   0.661   4.989
  467SOL    HW1 2300   2.232   0.687   5.000
  467SOL    HW2 2301   2.124   0.615   4.902
  468SOL     OW 2302   3.251   4.300   0.848
  468SOL    HW1 2303   3.180   4.229   0.852
  468SOL    HW2 2304   3.243   4.358   0.929
  469SOL     OW 2305   2.293   4.952   0.222
  469SOL    HW1 2306   2.290   5.022   0.151
  469SOL    HW2 2307   2.246   4.869   0.189
  470SOL     OW 2308   3.679   1.267   2.509
  470SOL    HW1 2309   3.695   1.341   2.444
  470SOL    HW2 2310   3.758   1.206   2.511
  471SOL     OW 2311   2.805   2.125   4.838
  471SOL    HW1 2312   2.904   2.111   4.837
  471SOL    HW2 2313   2.763   2.071   4.764
  472SOL     OW 2314   3.616   3.920   5.648
  472SOL    HW1 2315   3.573   4.011   5.646
  472SOL    HW2 2316   3.667   3.910   5.733
  473SOL     OW 2317   1.025   4.260   2.719
  473SOL    HW1 2318   1.051   4.311   2.802
  473SOL    HW2 2319   1.040   4.163   2.734
  474SOL     OW 2320   4.113   4.955   4.899
  474SOL    HW1 2321   4.167   5.038   4.891
  474SOL    HW2 2322   4.016   4.976   4.888
  475SOL     OW 2323   0.459   6.590   6.135
  475SOL    HW1 2324   0.363   6.569   6.117
  475SOL    HW2 2325   0.503   6.512   6.180
  476SOL     OW 2326   6.885   4.583   2.386
  476SOL    HW1 2327   6.971   4.595   2.335
  476SOL    HW2 2328   6.809   4.620   2.333
  477SOL     OW 2329   1.279   5.127   4.455
  477SOL    HW1 2330   1.367   5.102   4.414
  477SOL    HW2 2331   1.205   5.090   4.398
  478SOL     OW 2332   1.980   4.748   3.272
  478SOL    HW1 2333   2.027   4.726   3.186
  478SOL    HW2 2334   1.883   4.765   3.253
  479SOL     OW 2335   3.754   1.884   1.106
  479SOL    HW1 2336   3.750   1.803   1.047
  479SOL    HW2 2337   3.842   1.886   1.153
  480SOL     OW 2338   1.635   0.128   2.668
  480SOL    HW1 2339   1.542   0.115   2.702
  480SOL    HW2 2340   1.692   0.164   2.742
  481SOL     OW 2341   3.539   6.920   1.618
  481SOL    HW1 2342   3.550   6.951   1.523
  481SOL    HW2 2343   3.458   6.862   1.625
  482SOL     OW 2344   5.539   4.604   1.783
  482SOL    HW1 2345   5.440   4.601   1.766
  482SOL    HW2 2346   5.556   4.641   1.874
  483SOL     OW 2347   5.738   1.686   1.177
  483SOL    HW1 2348   5.643   1.658   1.190
  483SOL    HW2 2349   5.768   1.664   1.084
  484SOL     OW 2350   6.643   2.371   5.112
  484SOL    HW1 2351   6.578   2.426   5.164
  484SOL    HW2 2352   6.709   2.330   5.175
  485SOL     OW 2353   3.784   5.251   2.295
  485SOL    HW1 2354   3.689   5.222   2.285
  485SOL    HW2 2355   3.817   5.228   2.387
  486SOL     OW 2356   0.689   0.252   0.645
  486SOL    HW1 2357   0.680   0.300   0.558
  486SOL    HW2 2358   0.763   0.293   0.699
  487SOL     OW 2359   6.273   2.888   6.507
  487SOL    HW1 2360   6.173   2.878   6.510
  487SOL    HW2 2361   6.309   2.887   6.600
  488SOL     OW 2362   0.332   2.380   2.713
  488SOL    HW1 2363   0.320   2.477   2.695
  488SOL    HW2 2364   0.289   2.327   2.640
  489SOL     OW 2365   3.329   6.080   6.466
  489SOL    HW1 2366   3.340   5.993   6.418
  489SOL    HW2 2367   3.417   6.126   6.474
  490SOL     OW 2368   5.326   6.449   4.386
  490SOL    HW1 2369   5.419   6.412   4.393
  490SOL    HW2 2370   5.262   6.375   4.366
  491SOL     OW 2371   0.038   2.715   3.130
  491SOL    HW1 2372   0.052   2.749   3.223
  491SOL    HW2 2373   7.022   2.623   3.133
  492SOL     OW 2374   2.100   0.671   5.402
  492SOL    HW1 2375   2.033   0.704   5.335
  492SOL    HW2 2376   2.187   0.717   5.387
  493SOL     OW 2377   6.721   4.120   4.401
  493SOL    HW1 2378   6.680   4.096   4.489
  493SOL    HW2 2379   6.750   4.036   4.355
  494SOL     OW 2380   6.507   0.586   0.897
  494SOL    HW1 2381   6.412   0.572   0.928
  494SOL    HW2 2382   6.522   0.534   0.813
  495SOL     OW 2383   4.655   4.770   1.595
  495SOL    HW1 2384   4.599   4.722   1.663
  495SOL    HW2 2385   4.677   4.708   1.520
  496SOL     OW 2386   5.871   2.924   3.834
  496SOL    HW1 2387   5.875   2.843   3.777
  496SOL    HW2 2388   5.964   2.956   3.853
  497SOL     OW 2389   4.484   0.862   4.323
  497SOL    HW1 2390   4.553   0.914   4.373
  497SOL    HW2 2391   4.417   0.924   4.284
  498SOL     OW 2392   1.621   3.244   2.571
  498SOL    HW1 2393   1.568   3.182   2.513
  498SOL    HW2 2394   1.692   3.289   2.517
  499SOL     OW 2395   3.280   1.507   5.107
  499SOL    HW1 2396   3.224   1.537   5.029
  499SOL    HW2 2397   3.220   1.484   5.184
  500SOL     OW 2398   0.838   4.202   2.350
  500SOL    HW1 2399   0.790   4.114   2.354
  500SOL    HW2 2400   0.936   4.186   2.363
  501SOL     OW 2401   0.380   4.519   6.002
  501SOL    HW1 2402   0.468   4.471   5.999
  501SOL    HW2 2403   0.314   4.471   5.945
  502SOL     OW 2404   3.182   5.276   6.811
  502SOL    HW1 2405   3.228   5.234   6.889
  502SOL    HW2 2406   3.187   5.215   6.732
  503SOL     OW 2407   5.483   5.339   4.876
  503SOL    HW1 2408   5.509   5.334   4.972
  503SOL    HW2 2409   5.460   5.248   4.843
  504SOL     OW 2410   1.960   6.128   4.171
  504SOL    HW1 2411   2.015   6.045   4.167
  504SOL    HW2 2412   1.914   6.142   4.083
  505SOL     OW 2413   4.013   6.801   5.752
  505SOL    HW1 2414   3.954   6.842   5.682
  505SOL    HW2 2415   4.056   6.874   5.806
  506SOL     OW 2416   2.094   4.195   6.529
  506SOL    HW1 2417   2.062   4.287   6.552
  506SOL    HW2 2418   2.164   4.167   6.595
  507SOL     OW 2419   3.354   1.453   4.061
  507SOL    HW1 2420   3.347   1.510   4.143
  507SOL    HW2 2421   3.429   1.487   4.004
  508SOL     OW 2422   6.490   3.908   3.905
  508SOL    HW1 2423   6.431   3.988   3.911
  508SOL    HW2 2424   6.547   3.903   3.988
  509SOL     OW 2425   4.530   2.294   1.929
  509SOL    HW1 2426   4.581   2.376   1.953
  509SOL    HW2 2427   4.495   2.251   2.013
  510SOL     OW 2428   0.582   3.835   3.959
  510SOL    HW1 2429   0.640   3.836   3.877
  510SOL    HW2 2430   0.634   3.868   4.037
  511SOL     OW 2431   0.066   6.703   0.656
  511SOL    HW1 2432   0.040   6.774   0.591
  511SOL    HW2 2433   0.165   6.688   0.650
  512SOL     OW 2434   0.428   3.807   6.906
  512SOL    HW1 2435   0.453   3.863   6.827
  512SOL    HW2 2436   0.511   3.774   6.951
  513SOL     OW 2437   6.478   5.728   4.465
  513SOL    HW1 2438   6.424   5.800   4.509
  513SOL    HW2 2439   6.572   5.759   4.453
  514SOL     OW 2440   5.665   2.039   3.530
  514SOL    HW1 2441   5.699   2.110   3.592
  514SOL    HW2 2442   5.720   2.039   3.446
  515SOL     OW 2443   1.803   6.112   7.006
  515SOL    HW1 2444   1.829   6.050   0.058
  515SOL    HW2 2445   1.721   6.078   6.961
  516SOL     OW 2446   2.043   4.859   2.154
  516SOL    HW1 2447   2.002   4.783   2.103
  516SOL    HW2 2448   2.020   4.851   2.251
  517SOL     OW 2449   5.071   0.761   0.613
  517SOL    HW1 2450   4.993   0.739   0.671
  517SOL    HW2 2451   5.144   0.695   0.629
  518SOL     OW 2452   2.287   2.590   0.747
  518SOL    HW1 2453   2.350   2.517   0.721
  518SOL    HW2 2454   2.301   2.614   0.843
  519SOL     OW 2455   0.811   6.406   0.651
  519SOL    HW1 2456   0.810   6.442   0.745
  519SOL    HW2 2457   0.820   6.307   0.653
  520SOL     OW 2458   5.640   4.792   5.056
  520SOL    HW1 2459   5.673   4.874   5.009
  520SOL    HW2 2460   5.565   4.751   5.003
  521SOL     OW 2461   6.683   1.410   0.827
  521SOL    HW1 2462   6.596   1.382   0.867
  521SOL    HW2 2463   6.756   1.395   0.894
  522SOL     OW 2464   4.132   3.343   4.726
  522SOL    HW1 2465   4.169   3.339   4.819
  522SOL    HW2 2466   4.045   3.294   4.723
  523SOL     OW 2467   6.854   6.723   5.401
  523SOL    HW1 2468   6.770   6.721   5.347
  523SOL    HW2 2469   6.890   6.817   5.404
  524SOL     OW 2470   2.864   0.994   5.616
  524SOL    HW1 2471   2.961   0.997   5.593
  524SOL    HW2 2472   2.811   0.965   5.536
  525SOL     OW 2473   2.323   3.634   6.839
  525SOL    HW1 2474   2.283   3.561   6.783
  525SOL    HW2 2475   2.310   3.612   6.936
  526SOL     OW 2476   3.638   5.755   4.811
  526SOL    HW1 2477   3.694   5.834   4.789
  526SOL    HW2 2478   3.606   5.712   4.726
  527SOL     OW 2479   0.544   1.987   5.986
  527SOL    HW1 2480   0.576   1.918   6.051
  527SOL    HW2 2481   0.462   2.032   6.022
  528SOL     OW 2482   2.585   0.202   5.300
  528SOL    HW1 2483   2.674   0.161   5.279
  528SOL    HW2 2484   2.513   0.133   5.288
  529SOL     OW 2485   0.256   4.957   4.069
  529SOL    HW1 2486   0.202   4.884   4.112
  529SOL    HW2 2487   0.250   4.948   3.970
  530SOL     OW 2488   1.960   2.899   5.997
  530SOL    HW1 2489   1.919   2.809   6.006
  530SOL    HW2 2490   2.024   2.900   5.920
  531SOL     OW 2491   6.874   0.418   0.963
  531SOL    HW1 2492   6.927   0.358   1.023
  531SOL    HW2 2493   6.854   0.370   0.878
  532SOL     OW 2494   1.567   0.747   5.446
  532SOL    HW1 2495   1.614   0.739   5.534
  532SOL    HW2 2496   1.468   0.744   5.460
  533SOL     OW 2497   5.624   6.740   4.175
  533SOL    HW1 2498   5.668   6.650   4.173
  533SOL    HW2 2499   5.551   6.740   4.243
  534SOL     OW 2500   3.998   5.908   1.479
  534SOL    HW1 2501   3.902   5.928   1.499
  534SOL    HW2 2502   4.006   5.872   1.386
  535SOL     OW 2503   0.278   3.367   3.134
  535SOL    HW1 2504   0.293   3.273   3.163
  535SOL    HW2 2505   0.355   3.424   3.163
  536SOL     OW 2506   0.747   5.697   0.638
  536SOL    HW1 2507   0.722   5.601   0.652
  536SOL    HW2 2508   0.691   5.755   0.697
  537SOL     OW 2509   2.489   0.553   2.436
  537SOL    HW1 2510   2.576   0.588   2.471
  537SOL    HW2 2511   2.424   0.544   2.511
  538SOL     OW 2512   1.278   5.427   3.700
  538SOL    HW1 2513   1.372   5.395   3.694
  538SOL    HW2 2514   1.246   5.454   3.609
  539SOL     OW 2515   1.669   4.736   1.807
  539SOL    HW1 2516   1.727   4.815   1.785
  539SOL    HW2 2517   1.723   4.652   1.799
  540SOL     OW 2518   1.412   1.812   2.142
  540SOL    HW1 2519   1.350   1.875   2.096
  540SOL    HW2 2520   1.360   1.750   2.200
  541SOL     OW 2521   3.249   5.603   5.455
  541SOL    HW1 2522   3.296   5.526   5.411
  541SOL    HW2 2523   3.151   5.597   5.438
  542SOL     OW 2524   6.221   5.249   7.000
  542SOL    HW1 2525   6.151   5.206   0.035
  542SOL    HW2 2526   6.220   5.348   7.014
  543SOL     OW 2527   6.934   6.225   0.096
  543SOL    HW1 2528   6.954   6.201   0.001
  543SOL    HW2 2529   6.835   6.228   0.110
  544SOL     OW 2530   0.769   5.436   0.615
  544SOL    HW1 2531   0.828   5.439   0.535
  544SOL    HW2 2532   0.747   5.340   0.636
  545SOL     OW 2533   3.649   2.138   3.419
  545SOL    HW1 2534   3.549   2.129   3.422
  545SOL    HW2 2535   3.682   2.169   3.508
  546SOL     OW 2536   0.765   3.970   0.544
  546SOL    HW1 2537   0.772   3.905   0.469
  546SOL    HW2 2538   0.674   3.963   0.586
  547SOL     OW 2539   2.729   3.234   0.198
  547SOL    HW1 2540   2.668   3.157   0.215
  547SOL    HW2 2541   2.776   3.221   0.111
  548SOL     OW 2542   3.316   2.908   4.113
  548SOL    HW1 2543   3.409   2.885   4.140
  548SOL    HW2 2544   3.253   2.890   4.188
  549SOL     OW 2545   6.717   3.227   1.543
  549SOL    HW1 2546   6.639   3.210   1.603
  549SOL    HW2 2547   6.798   3.244   1.599
  550SOL     OW 2548   0.023   3.863   1.743
  550SOL    HW1 2549   6.988   3.812   1.679
  550SOL    HW2 2550   7.009   3.854   1.836
  551SOL     OW 2551   6.687   1.666   6.724
  551SOL    HW1 2552   6.718   1.711   6.807
  551SOL    HW2 2553   6.594   1.633   6.736
  552SOL     OW 2554   4.911   5.753   0.824
  552SOL    HW1 2555   4.831   5.811   0.832
  552SOL    HW2 2556   4.882   5.658   0.809
  553SOL     OW 2557   1.358   1.723   1.832
  553SOL    HW1 2558   1.402   1.638   1.860
  553SOL    HW2 2559   1.330   1.775   1.914
  554SOL     OW 2560   5.377   6.161   5.086
  554SOL    HW1 2561   5.397   6.207   4.999
  554SOL    HW2 2562   5.380   6.062   5.071
  555SOL     OW 2563   1.642   4.287   4.365
  555SOL    HW1 2564   1.615   4.380   4.391
  555SOL    HW2 2565   1.601   4.221   4.427
  556SOL     OW 2566   5.594   3.461   3.028
  556SOL    HW1 2567   5.520   3.523   3.002
  556SOL    HW2 2568   5.591   3.380   2.971
  557SOL     OW 2569   0.146   6.142   6.012
  557SOL    HW1 2570   0.207   6.164   6.088
  557SOL    HW2 2571   0.108   6.050   6.026
  558SOL     OW 2572   4.251   4.161   5.370
  558SOL    HW1 2573   4.188   4.161   5.291
  558SOL    HW2 2574   4.205   4.118   5.448
  559SOL     OW 2575   6.429   5.916   6.583
  559SOL    HW1 2576   6.363   5.842   6.587
  559SOL    HW2 2577   6.394   5.995   6.633
  560SOL     OW 2578   4.218   6.893   6.832
  560SOL    HW1 2579   4.209   6.807   6.882
  560SOL    HW2 2580   4.309   6.898   6.790
  561SOL     OW 2581   5.667   6.701   1.011
  561SOL    HW1 2582   5.627   6.790   0.990
  561SOL    HW2 2583   5.646   6.637   0.937
  562SOL     OW 2584   6.634   1.324   5.904
  562SOL    HW1 2585   6.688   1.402   5.936
  562SOL    HW2 2586   6.694   1.245   5.889
  563SOL     OW 2587   3.223   6.002   4.783
  563SOL    HW1 2588   3.287   5.969   4.853
  563SOL    HW2 2589   3.169   5.926   4.748
  564SOL     OW 2590   0.482   1.700   6.675
  564SOL    HW1 2591   0.558   1.755   6.709
  564SOL    HW2 2592   0.483   1.700   6.575
  565SOL     OW 2593   4.787   4.019   5.171
  565SOL    HW1 2594   4.842   4.038   5.089
  565SOL    HW2 2595   4.722   4.094   5.185
  566SOL     OW 2596   5.398   4.920   3.006
  566SOL    HW1 2597   5.306   4.960   3.007
  566SOL    HW2 2598   5.459   4.977   2.952
  567SOL     OW 2599   4.075   3.440   5.007
  567SOL    HW1 2600   3.990   3.405   5.047
  567SOL    HW2 2601   4.055   3.492   4.924
  568SOL     OW 2602   2.041   1.884   6.665
  568SOL    HW1 2603   2.096   1.966   6.648
  568SOL    HW2 2604   2.046   1.823   6.586
  569SOL     OW 2605   2.542   3.845   0.440
  569SOL    HW1 2606   2.507   3.771   0.498
  569SOL    HW2 2607   2.641   3.853   0.452
  570SOL     OW 2608   0.089   6.410   0.967
  570SOL    HW1 2609   0.072   6.396   1.065
  570SOL    HW2 2610   0.033   6.486   0.934
  571SOL     OW 2611   4.251   5.445   3.019
  571SOL    HW1 2612   4.293   5.479   3.104
  571SOL    HW2 2613   4.160   5.411   3.039
  572SOL     OW 2614   1.664   4.172   4.953
  572SOL    HW1 2615   1.640   4.078   4.927
  572SOL    HW2 2616   1.753   4.173   4.998
  573SOL     OW 2617   3.882   2.328   6.026
  573SOL    HW1 2618   3.888   2.294   6.119
  573SOL    HW2 2619   3.802   2.289   5.981
  574SOL     OW 2620   2.865   1.580   4.557
  574SOL    HW1 2621   2.925   1.598   4.479
  574SOL    HW2 2622   2.770   1.586   4.527
  575SOL     OW 2623   5.044   2.407   6.929
  575SOL    HW1 2624   5.084   2.462   6.856
  575SOL    HW2 2625   5.107   2.333   6.953
  576SOL     OW 2626   0.602   1.982   2.393
  576SOL    HW1 2627   0.609   1.890   2.433
  576SOL    HW2 2628   0.513   1.992   2.350
  577SOL     OW 2629   3.408   2.017   3.840
  577SOL    HW1 2630   3.432   1.966   3.923
  577SOL    HW2 2631   3.315   2.053   3.849
  578SOL     OW 2632   0.380   3.303   4.427
  578SOL    HW1 2633   0.383   3.214   4.381
  578SOL    HW2 2634   0.441   3.367   4.380
  579SOL     OW 2635   3.956   3.400   0.196
  579SOL    HW1 2636   3.972   3.447   0.109
  579SOL    HW2 2637   3.984   3.461   0.271
  580SOL     OW 2638   0.104   6.161   0.276
  580SOL    HW1 2639   0.072   6.095   0.343
  580SOL    HW2 2640   0.027   6.192   0.220
  581SOL     OW 2641   3.954   3.542   2.926
  581SOL    HW1 2642   4.019   3.618   2.934
  581SOL    HW2 2643   3.872   3.563   2.978
  582SOL     OW 2644   6.075   3.713   2.901
  582SOL    HW1 2645   6.063   3.777   2.825
  582SOL    HW2 2646   6.006   3.731   2.970
  583SOL     OW 2647   2.267   5.416   6.916
  583SOL    HW1 2648   2.225   5.378   6.834
  583SOL    HW2 2649   2.238   5.511   6.928
  584SOL     OW 2650   0.940   5.248   4.636
  584SOL    HW1 2651   0.853   5.197   4.635
  584SOL    HW2 2652   0.994   5.222   4.556
  585SOL     OW 2653   0.091   1.444   5.911
  585SOL    HW1 2654   0.133   1.438   6.001
  585SOL    HW2 2655   0.054   1.354   5.885
  586SOL     OW 2656   2.113   6.003   0.228
  586SOL    HW1 2657   2.198   6.052   0.245
  586SOL    HW2 2658   2.094   6.001   0.130
  587SOL     OW 2659   1.143   3.679   5.353
  587SOL    HW1 2660   1.166   3.582   5.339
  587SOL    HW2 2661   1.227   3.731   5.367
  588SOL     OW 2662   2.545   0.143   1.254
  588SOL    HW1 2663   2.607   0.221   1.254
  588SOL    HW2 2664   2.506   0.131   1.345
  589SOL     OW 2665   4.365   5.455   2.600
  589SOL    HW1 2666   4.406   5.398   2.671
  589SOL    HW2 2667   4.414   5.542   2.596
  590SOL     OW 2668   6.658   2.019   1.489
  590SOL    HW1 2669   6.702   2.051   1.405
  590SOL    HW2 2670   6.703   2.061   1.568
  591SOL     OW 2671   3.660   6.721   2.996
  591SOL    HW1 2672   3.694   6.734   2.904
  591SOL    HW2 2673   3.578   6.663   2.994
  592SOL     OW 2674   5.407   1.216   6.934
  592SOL    HW1 2675   5.373   1.151   6.866
  592SOL    HW2 2676   5.372   1.191   0.002
  593SOL     OW 2677   5.945   1.650   3.740
  593SOL    HW1 2678   5.985   1.672   3.651
  593SOL    HW2 2679   5.859   1.602   3.727
  594SOL     OW 2680   5.205   3.254   1.798
  594SOL    HW1 2681   5.168   3.166   1.769
  594SOL    HW2 2682   5.171   3.276   1.890
  595SOL     OW 2683   3.799   6.875   4.308
  595SOL    HW1 2684   3.889   6.838   4.285
  595SOL    HW2 2685   3.771   6.941   4.237
  596SOL     OW 2686   1.095   4.421   2.397
  596SOL    HW1 2687   1.008   4.431   2.446
  596SOL    HW2 2688   1.124   4.326   2.400
  597SOL     OW 2689   3.812   1.893   5.704
  597SOL    HW1 2690   3.850   1.933   5.621
  597SOL    HW2 2691   3.788   1.966   5.768
  598SOL     OW 2692   3.382   3.904   0.855
  598SOL    HW1 2693   3.309   3.849   0.895
  598SOL    HW2 2694   3.454   3.919   0.923
  599SOL     OW 2695   6.876   6.526   2.915
  599SOL    HW1 2696   6.969   6.547   2.943
  599SOL    HW2 2697   6.877   6.465   2.836
  600SOL     OW 2698   2.472   0.838   0.884
  600SOL    HW1 2699   2.481   0.938   0.882
  600SOL    HW2 2700   2.479   0.806   0.978
  601SOL     OW 2701   3.195   4.966   3.747
  601SOL    HW1 2702   3.226   5.034   3.681
  601SOL    HW2 2703   3.156   4.888   3.699
  602SOL     OW 2704   0.651   0.494   1.352
  602SOL    HW1 2705   0.661   0.580   1.302
  602SOL    HW2 2706   0.622   0.512   1.446
  603SOL     OW 2707   4.068   2.272   3.198
  603SOL    HW1 2708   4.030   2.344   3.139
  603SOL    HW2 2709   4.109   2.201   3.141
  604SOL     OW 2710   0.706   4.173   5.546
  604SOL    HW1 2711   0.746   4.251   5.497
  604SOL    HW2 2712   0.637   4.206   5.610
  605SOL     OW 2713   5.966   0.351   4.683
  605SOL    HW1 2714   5.914   0.359   4.768
  605SOL    HW2 2715   5.919   0.401   4.610
  606SOL     OW 2716   3.764   0.190   3.187
  606SOL    HW1 2717   3.715   0.108   3.157
  606SOL    HW2 2718   3.840   0.164   3.246
  607SOL     OW 2719   5.005   0.962   3.479
  607SOL    HW1 2720   5.009   0.887   3.412
  607SOL    HW2 2721   4.912   0.998   3.483
  608SOL     OW 2722   4.453   1.965   1.651
  608SOL    HW1 2723   4.457   1.872   1.613
  608SOL    HW2 2724   4.361   2.001   1.641
  609SOL     OW 2725   3.104   3.730   4.129
  609SOL    HW1 2726   3.041   3.739   4.206
  609SOL    HW2 2727   3.118   3.633   4.108
  610SOL     OW 2728   5.459   1.956   4.505
  610SOL    HW1 2729   5.529   2.012   4.461
  610SOL    HW2 2730   5.451   1.868   4.457
  611SOL     OW 2731   6.515   0.165   0.655
  611SOL    HW1 2732   6.559   0.085   0.698
  611SOL    HW2 2733   6.522   0.158   0.556
  612SOL     OW 2734   3.111   5.865   5.695
  612SOL    HW1 2735   3.072   5.860   5.603
  612SOL    HW2 2736   3.126   5.773   5.730
  613SOL     OW 2737   3.368   2.433   6.993
  613SOL    HW1 2738   3.281   2.405   0.009
  613SOL    HW2 2739   3.443   2.394   0.024
  614SOL     OW 2740   5.171   4.139   0.929
  614SOL    HW1 2741   5.086   4.112   0.975
  614SOL    HW2 2742   5.220   4.205   0.985
  615SOL     OW 2743   5.955   6.451   1.291
  615SOL    HW1 2744   5.877   6.451   1.353
  615SOL    HW2 2745   6.039   6.430   1.342
  616SOL     OW 2746   5.985   0.482   5.000
  616SOL    HW1 2747   6.059   0.417   5.019
  616SOL    HW2 2748   6.010   0.540   4.923
  617SOL     OW 2749   6.832   5.440   5.908
  617SOL    HW1 2750   6.912   5.473   5.858
  617SOL    HW2 2751   6.855   5.425   6.004
  618SOL     OW 2752   5.865   3.991   0.164
  618SOL    HW1 2753   5.902   4.082   0.145
  618SOL    HW2 2754   5.914   3.949   0.240
  619SOL     OW 2755   2.578   6.990   6.398
  619SOL    HW1 2756   2.573   0.029   6.319
  619SOL    HW2 2757   2.664   7.005   6.447
  620SOL     OW 2758   5.495   1.536   2.103
  620SOL    HW1 2759   5.456   1.555   2.013
  620SOL    HW2 2760   5.595   1.542   2.097
  621SOL     OW 2761   2.961   0.606   6.616
  621SOL    HW1 2762   3.052   0.643   6.634
  621SOL    HW2 2763   2.937   0.540   6.687
  622SOL     OW 2764   0.748   2.514   5.064
  622SOL    HW1 2765   0.842   2.539   5.042
  622SOL    HW2 2766   0.691   2.596   5.067
  623SOL     OW 2767   5.883   0.351   3.929
  623SOL    HW1 2768   5.879   0.439   3.977
  623SOL    HW2 2769   5.894   0.277   3.995
  624SOL     OW 2770   7.007   0.339   6.506
  624SOL    HW1 2771   0.035   0.417   6.543
  624SOL    HW2 2772   7.010   0.342   6.406
  625SOL     OW 2773   3.271   1.708   0.869
  625SOL    HW1 2774   3.252   1.704   0.967
  625SOL    HW2 2775   3.370   1.717   0.855
  626SOL     OW 2776   6.704   6.169   3.959
  626SOL    HW1 2777   6.775   6.187   3.891
  626SOL    HW2 2778   6.719   6.078   3.999
  627SOL     OW 2779   6.374   6.841   0.099
  627SOL    HW1 2780   6.407   6.766   0.156
  627SOL    HW2 2781   6.447   6.871   0.037
  628SOL     OW 2782   4.443   4.385   6.310
  628SOL    HW1 2783   4.360   4.403   6.363
  628SOL    HW2 2784   4.468   4.468   6.260
  629SOL     OW 2785   1.600   6.736   0.037
  629SOL    HW1 2786   1.600   6.808   6.990
  629SOL    HW2 2787   1.694   6.715   0.064
  630SOL     OW 2788   6.040   1.526   1.104
  630SOL    HW1 2789   6.086   1.615   1.104
  630SOL    HW2 2790   5.965   1.527   1.039
  631SOL     OW 2791   1.525   2.345   4.030
  631SOL    HW1 2792   1.529   2.251   4.063
  631SOL    HW2 2793   1.598   2.399   4.074
  632SOL     OW 2794   3.076   4.214   0.260
  632SOL    HW1 2795   3.114   4.163   0.338
  632SOL    HW2 2796   3.039   4.150   0.193
  633SOL     OW 2797   1.410   5.560   1.030
  633SOL    HW1 2798   1.329   5.508   1.002
  633SOL    HW2 2799   1.431   5.540   1.126
  634SOL     OW 2800   3.110   3.485   4.604
  634SOL    HW1 2801   3.142   3.454   4.694
  634SOL    HW2 2802   3.123   3.411   4.538
  635SOL     OW 2803   6.089   0.183   6.508
  635SOL    HW1 2804   6.167   0.239   6.481
  635SOL    HW2 2805   6.026   0.238   6.565
  636SOL     OW 2806   2.834   0.589   5.605
  636SOL    HW1 2807   2.785   0.648   5.669
  636SOL    HW2 2808   2.854   0.640   5.521
  637SOL     OW 2809   0.001   1.052   2.676
  637SOL    HW1 2810   7.014   1.151   2.663
  637SOL    HW2 2811   6.980   1.004   2.599
  638SOL     OW 2812   6.756   2.914   4.895
  638SOL    HW1 2813   6.704   2.973   4.957
  638SOL    HW2 2814   6.721   2.821   4.901
  639SOL     OW 2815   5.692   4.303   2.161
  639SOL    HW1 2816   5.742   4.344   2.238
  639SOL    HW2 2817   5.606   4.352   2.148
  640SOL     OW 2818   0.473   2.440   2.226
  640SOL    HW1 2819   0.444   2.535   2.209
  640SOL    HW2 2820   0.483   2.425   2.324
  641SOL     OW 2821   2.163   4.952   3.993
  641SOL    HW1 2822   2.159   4.991   4.085
  641SOL    HW2 2823   2.250   4.906   3.979
  642SOL     OW 2824   0.882   4.512   4.565
  642SOL    HW1 2825   0.864   4.593   4.509
  642SOL    HW2 2826   0.840   4.525   4.655
  643SOL     OW 2827   4.131   5.009   0.711
  643SOL    HW1 2828   4.193   4.964   0.775
  643SOL    HW2 2829   4.083   5.083   0.759
  644SOL     OW 2830   0.162   6.755   5.293
  644SOL    HW1 2831   0.098   6.830   5.309
  644SOL    HW2 2832   0.247   6.773   5.343
  645SOL     OW 2833   4.078   5.484   2.608
  645SOL    HW1 2834   4.164   5.501   2.657
  645SOL    HW2 2835   4.099   5.450   2.516
  646SOL     OW 2836   3.796   2.023   4.507
  646SOL    HW1 2837   3.787   1.933   4.550
  646SOL    HW2 2838   3.891   2.055   4.515
  647SOL     OW 2839   3.491   2.456   5.994
  647SOL    HW1 2840   3.525   2.520   5.925
  647SOL    HW2 2841   3.475   2.505   6.080
  648SOL     OW 2842   6.013   1.029   2.909
  648SOL    HW1 2843   6.069   1.112   2.903
  648SOL    HW2 2844   6.067   0.950   2.881
  649SOL     OW 2845   2.189   5.038   0.504
  649SOL    HW1 2846   2.182   5.135   0.482
  649SOL    HW2 2847   2.219   4.987   0.423
  650SOL     OW 2848   6.845   3.366   1.179
  650SOL    HW1 2849   6.903   3.368   1.098
  650SOL    HW2 2850   6.901   3.349   1.260
  651SOL     OW 2851   0.960   0.600   4.216
  651SOL    HW1 2852   0.946   0.538   4.139
  651SOL    HW2 2853   1.037   0.661   4.197
  652SOL     OW 2854   4.237   6.021   1.239
  652SOL    HW1 2855   4.211   6.082   1.314
  652SOL    HW2 2856   4.336   6.011   1.236
  653SOL     OW 2857   1.837   0.080   2.494
  653SOL    HW1 2858   1.858   7.004   2.499
  653SOL    HW2 2859   1.770   0.103   2.564
  654SOL     OW 2860   1.080   0.127   6.124
  654SOL    HW1 2861   1.154   0.064   6.099
  654SOL    HW2 2862   1.035   0.095   6.207
  655SOL     OW 2863   0.449   3.980   1.578
  655SOL    HW1 2864   0.377   4.026   1.630
  655SOL    HW2 2865   0.526   4.042   1.567
  656SOL     OW 2866   3.144   6.145   0.439
  656SOL    HW1 2867   3.076   6.209   0.476
  656SOL    HW2 2868   3.111   6.109   0.351
  657SOL     OW 2869   3.875   3.683   3.329
  657SOL    HW1 2870   3.948   3.723   3.385
  657SOL    HW2 2871   3.790   3.682   3.382
  658SOL     OW 2872   1.297   1.650   4.496
  658SOL    HW1 2873   1.336   1.723   4.552
  658SOL    HW2 2874   1.214   1.616   4.540
  659SOL     OW 2875   1.822   5.422   6.338
  659SOL    HW1 2876   1.844   5.490   6.268
  659SOL    HW2 2877   1.723   5.406   6.338
  660SOL     OW 2878   4.606   4.785   3.116
  660SOL    HW1 2879   4.653   4.696   3.116
  660SOL    HW2 2880   4.667   4.854   3.155
  661SOL     OW 2881   4.399   5.144   4.220
  661SOL    HW1 2882   4.418   5.053   4.183
  661SOL    HW2 2883   4.471   5.171   4.284
  662SOL     OW 2884   4.760   3.465   0.173
  662SOL    HW1 2885   4.828   3.505   0.233
  662SOL    HW2 2886   4.732   3.533   0.104
  663SOL     OW 2887   6.856   4.377   6.805
  663SOL    HW1 2888   6.884   4.365   6.901
  663SOL    HW2 2889   6.895   4.462   6.769
  664SOL     OW 2890   1.794   6.897   6.384
  664SOL    HW1 2891   1.814   6.926   6.290
  664SOL    HW2 2892   1.761   6.803   6.383
  665SOL     OW 2893   3.687   4.944   2.446
  665SOL    HW1 2894   3.641   4.896   2.372
  665SOL    HW2 2895   3.621   5.002   2.495
  666SOL     OW 2896   3.036   0.943   0.174
  666SOL    HW1 2897   3.021   1.037   0.143
  666SOL    HW2 2898   2.998   0.931   0.265
  667SOL     OW 2899   0.942   3.474   2.223
  667SOL    HW1 2900   0.934   3.461   2.124
  667SOL    HW2 2901   1.035   3.503   2.246
  668SOL     OW 2902   5.307   6.830   0.181
  668SOL    HW1 2903   5.211   6.859   0.172
  668SOL    HW2 2904   5.339   6.850   0.274
  669SOL     OW 2905   1.779   5.761   2.511
  669SOL    HW1 2906   1.829   5.700   2.449
  669SOL    HW2 2907   1.794   5.730   2.606
  670SOL     OW 2908   3.216   3.386   3.285
  670SOL    HW1 2909   3.158   3.433   3.352
  670SOL    HW2 2910   3.247   3.451   3.216
  671SOL     OW 2911   1.826   0.224   6.681
  671SOL    HW1 2912   1.809   0.241   6.583
  671SOL    HW2 2913   1.805   0.307   6.733
  672SOL     OW 2914   1.292   1.978   2.812
  672SOL    HW1 2915   1.228   2.052   2.831
  672SOL    HW2 2916   1.384   2.015   2.796
  673SOL     OW 2917   4.847   0.156   0.266
  673SOL    HW1 2918   4.867   0.071   0.314
  673SOL    HW2 2919   4.915   0.225   0.290
  674SOL     OW 2920   6.929   1.606   4.296
  674SOL    HW1 2921   6.844   1.619   4.246
  674SOL    HW2 2922   7.004   1.596   4.230
  675SOL     OW 2923   5.721   0.390   4.235
  675SOL    HW1 2924   5.730   0.471   4.176
  675SOL    HW2 2925   5.786   0.320   4.207
  676SOL     OW 2926   2.217   4.560   4.003
  676SOL    HW1 2927   2.185   4.510   4.083
  676SOL    HW2 2928   2.158   4.540   3.925
  677SOL     OW 2929   5.389   0.179   0.626
  677SOL    HW1 2930   5.332   0.205   0.704
  677SOL    HW2 2931   5.464   0.121   0.657
  678SOL     OW 2932   2.444   1.470   5.766
  678SOL    HW1 2933   2.478   1.479   5.859
  678SOL    HW2 2934   2.519   1.443   5.705
  679SOL     OW 2935   6.639   0.674   2.118
  679SOL    HW1 2936   6.609   0.766   2.145
  679SOL    HW2 2937   6.562   0.611   2.121
  680SOL     OW 2938   5.755   4.227   5.123
  680SOL    HW1 2939   5.750   4.327   5.130
  680SOL    HW2 2940   5.668   4.187   5.153
  681SOL     OW 2941   1.529   6.978   2.042
  681SOL    HW1 2942   1.590   7.007   1.968
  681SOL    HW2 2943   1.511   6.880   2.034
  682SOL     OW 2944   0.496   6.612   6.537
  682SOL    HW1 2945   0.445   6.692   6.569
  682SOL    HW2 2946   0.590   6.640   6.515
  683SOL     OW 2947   5.558   2.253   0.202
  683SOL    HW1 2948   5.587   2.327   0.262
  683SOL    HW2 2949   5.509   2.184   0.256
  684SOL     OW 2950   0.252   5.982   6.333
  684SOL    HW1 2951   0.306   5.986   6.417
  684SOL    HW2 2952   0.263   6.067   6.282
  685SOL     OW 2953   5.835   1.313   6.202
  685SOL    HW1 2954   5.819   1.312   6.104
  685SOL    HW2 2955   5.869   1.223   6.231
  686SOL     OW 2956   5.354   4.677   3.396
  686SOL    HW1 2957   5.390   4.766   3.423
  686SOL    HW2 2958   5.367   4.612   3.472
  687SOL     OW 2959   6.058   2.347   5.220
  687SOL    HW1 2960   6.107   2.271   5.261
  687SOL    HW2 2961   6.065   2.342   5.120
  688SOL     OW 2962   0.269   3.222   4.678
  688SOL    HW1 2963   0.175   3.192   4.660
  688SOL    HW2 2964   0.313   3.249   4.593
  689SOL     OW 2965   6.008   4.160   4.800
  689SOL    HW1 2966   5.933   4.209   4.843
  689SOL    HW2 2967   6.042   4.089   4.862
  690SOL     OW 2968   0.614   2.947   3.883
  690SOL    HW1 2969   0.624   2.908   3.975
  690SOL    HW2 2970   0.626   2.875   3.815
  691SOL     OW 2971   6.815   3.159   6.897
  691SOL    HW1 2972   6.755   3.106   6.958
  691SOL    HW2 2973   6.799   3.256   6.911
  692SOL     OW 2974   2.481   0.146   3.181
  692SOL    HW1 2975   2.575   0.122   3.206
  692SOL    HW2 2976   2.417   0.088   3.233
  693SOL     OW 2977   6.612   1.463   2.539
  693SOL    HW1 2978   6.593   1.538   2.603
  693SOL    HW2 2979   6.583   1.376   2.580
  694SOL     OW 2980   1.474   0.618   2.251
  694SOL    HW1 2981   1.568   0.586   2.266
  694SOL    HW2 2982   1.460   0.703   2.301
  695SOL     OW 2983   4.581   5.551   6.486
  695SOL    HW1 2984   4.627   5.463   6.473
  695SOL    HW2 2985   4.607   5.613   6.412
  696SOL     OW 2986   4.821   5.992   2.613
  696SOL    HW1 2987   4.890   6.003   2.685
  696SOL    HW2 2988   4.849   6.045   2.533
  697SOL     OW 2989   1.442   3.823   3.572
  697SOL    HW1 2990   1.449   3.732   3.613
  697SOL    HW2 2991   1.451   3.892   3.644
  698SOL     OW 2992   4.559   6.402   3.824
  698SOL    HW1 2993   4.541   6.406   3.726
  698SOL    HW2 2994   4.477   6.370   3.871
  699SOL     OW 2995   0.974   4.407   7.009
  699SOL    HW1 2996   1.052   4.354   6.976
  699SOL    HW2 2997   0.906   4.346   0.026
  700SOL     OW 2998   2.235   1.213   4.061
  700SOL    HW1 2999   2.251   1.196   4.158
  700SOL    HW2 3000   2.322   1.230   4.015
  701SOL     OW 3001   1.009   4.680   5.943
  701SOL    HW1 3002   0.961   4.713   5.861
  701SOL    HW2 3003   1.018   4.581   5.938
  702SOL     OW 3004   5.386   5.878   4.660
  702SOL    HW1 3005   5.313   5.925   4.709
  702SOL    HW2 3006   5.448   5.946   4.621
  703SOL     OW 3007   4.205   3.855   6.924
  703SOL    HW1 3008   4.192   3.758   6.902
  703SOL    HW2 3009   4.263   3.898   6.855
  704SOL     OW 3010   2.783   0.306   1.509
  704SOL    HW1 3011   2.737   0.355   1.584
  704SOL    HW2 3012   2.744   0.335   1.422
  705SOL     OW 3013   6.943   1.938   3.684
  705SOL    HW1 3014   6.943   1.911   3.588
  705SOL    HW2 3015   6.849   1.939   3.718
  706SOL     OW 3016   4.795   2.181   4.026
  706SOL    HW1 3017   4.893   2.201   4.016
  706SOL    HW2 3018   4.782   2.121   4.105
  707SOL     OW 3019   4.672   2.128   1.716
  707SOL    HW1 3020   4.597   2.075   1.677
  707SOL    HW2 3021   4.655   2.143   1.813
  708SOL     OW 3022   4.052   0.562   1.880
  708SOL    HW1 3023   4.142   0.519   1.883
  708SOL    HW2 3024   4.043   0.614   1.795
  709SOL     OW 3025   0.437   5.190   6.942
  709SOL    HW1 3026   0.482   5.249   6.875
  709SOL    HW2 3027   0.340   5.214   6.950
  710SOL     OW 3028   3.197   3.308   2.455
  710SOL    HW1 3029   3.228   3.336   2.364
  710SOL    HW2 3030   3.105   3.271   2.450
  711SOL     OW 3031   1.693   0.316   4.480
  711SOL    HW1 3032   1.652   0.403   4.455
  711SOL    HW2 3033   1.677   0.298   4.578
  712SOL     OW 3034   1.062   4.100   1.559
  712SOL    HW1 3035   1.122   4.097   1.480
  712SOL    HW2 3036   1.092   4.172   1.622
  713SOL     OW 3037   3.892   3.966   3.197
  713SOL    HW1 3038   3.849   4.053   3.173
  713SOL    HW2 3039   3.921   3.969   3.293
  714SOL     OW 3040   4.747   4.880   5.564
  714SOL    HW1 3041   4.658   4.835   5.568
  714SOL    HW2 3042   4.752   4.951   5.634
  715SOL     OW 3043   4.267   0.934   6.596
  715SOL    HW1 3044   4.334   0.907   6.666
  715SOL    HW2 3045   4.288   1.026   6.564
  716SOL     OW 3046   6.844   5.020   2.171
  716SOL    HW1 3047   6.751   5.030   2.206
  716SOL    HW2 3048   6.843   5.014   2.071
  717SOL     OW 3049   5.373   3.200   0.377
  717SOL    HW1 3050   5.329   3.283   0.411
  717SOL    HW2 3051   5.398   3.142   0.453
  718SOL     OW 3052   3.208   3.712   6.869
  718SOL    HW1 3053   3.285   3.662   6.831
  718SOL    HW2 3054   3.124   3.658   6.858
  719SOL     OW 3055   5.344   4.999   7.018
  719SOL    HW1 3056   5.420   5.047   0.040
  719SOL    HW2 3057   5.379   4.940   6.945
  720SOL     OW 3058   2.310   0.535   6.495
  720SOL    HW1 3059   2.285   0.455   6.442
  720SOL    HW2 3060   2.387   0.582   6.450
  721SOL     OW 3061   1.492   6.410   5.517
  721SOL    HW1 3062   1.521   6.483   5.579
  721SOL    HW2 3063   1.492   6.445   5.423
  722SOL     OW 3064   4.559   6.585   6.180
  722SOL    HW1 3065   4.538   6.527   6.259
  722SOL    HW2 3066   4.651   6.563   6.147
  723SOL     OW 3067   1.906   3.271   1.874
  723SOL    HW1 3068   1.910   3.171   1.866
  723SOL    HW2 3069   1.813   3.302   1.853
  724SOL     OW 3070   6.809   0.787   4.696
  724SOL    HW1 3071   6.838   0.712   4.756
  724SOL    HW2 3072   6.777   0.864   4.751
  725SOL     OW 3073   2.580   4.609   0.819
  725SOL    HW1 3074   2.634   4.694   0.822
  725SOL    HW2 3075   2.608   4.549   0.893
  726SOL     OW 3076   4.306   6.984   6.228
  726SOL    HW1 3077   4.341   6.916   6.293
  726SOL    HW2 3078   4.269   6.937   6.148
  727SOL     OW 3079   2.631   4.602   3.801
  727SOL    HW1 3080   2.573   4.540   3.854
  727SOL    HW2 3081   2.606   4.597   3.704
  728SOL     OW 3082   0.000   2.970   5.206
  728SOL    HW1 3083   0.086   3.017   5.225
  728SOL    HW2 3084   0.007   2.875   5.236
  729SOL     OW 3085   2.852   0.669   0.345
  729SOL    HW1 3086   2.796   0.617   0.281
  729SOL    HW2 3087   2.805   0.677   0.433
  730SOL     OW 3088   5.986   0.379   5.328
  730SOL    HW1 3089   5.924   0.397   5.251
  730SOL    HW2 3090   5.947   0.309   5.387
  731SOL     OW 3091   6.244   3.363   3.799
  731SOL    HW1 3092   6.160   3.407   3.768
  731SOL    HW2 3093   6.234   3.335   3.895
  732SOL     OW 3094   6.478   2.727   2.371
  732SOL    HW1 3095   6.559   2.730   2.312
  732SOL    HW2 3096   6.506   2.735   2.467
  733SOL     OW 3097   4.278   4.703   3.921
  733SOL    HW1 3098   4.321   4.623   3.963
  733SOL    HW2 3099   4.320   4.719   3.831
  734SOL     OW 3100   0.051   4.626   0.735
  734SOL    HW1 3101   0.062   4.534   0.699
  734SOL    HW2 3102   6.985   4.634   0.781
  735SOL     OW 3103   2.154   4.860   6.481
  735SOL    HW1 3104   2.229   4.909   6.435
  735SOL    HW2 3105   2.189   4.776   6.521
  736SOL     OW 3106   6.005   0.877   3.171
  736SOL    HW1 3107   6.041   0.813   3.102
  736SOL    HW2 3108   5.976   0.962   3.126
  737SOL     OW 3109   5.799   4.094   0.643
  737SOL    HW1 3110   5.740   4.162   0.601
  737SOL    HW2 3111   5.744   4.017   0.674
  738SOL     OW 3112   1.165   4.390   2.938
  738SOL    HW1 3113   1.095   4.453   2.904
  738SOL    HW2 3114   1.253   4.411   2.894
  739SOL     OW 3115   4.467   6.149   6.678
  739SOL    HW1 3116   4.565   6.160   6.669
  739SOL    HW2 3117   4.437   6.070   6.624
  740SOL     OW 3118   5.438   0.335   0.978
  740SOL    HW1 3119   5.509   0.370   0.916
  740SOL    HW2 3120   5.479   0.271   1.042
  741SOL     OW 3121   2.758   0.552   3.753
  741SOL    HW1 3122   2.732   0.606   3.672
  741SOL    HW2 3123   2.852   0.574   3.779
  742SOL     OW 3124   2.020   0.311   2.911
  742SOL    HW1 3125   1.987   0.222   2.879
  742SOL    HW2 3126   1.969   0.338   2.993
  743SOL     OW 3127   2.015   3.540   3.918
  743SOL    HW1 3128   1.950   3.580   3.983
  743SOL    HW2 3129   2.065   3.467   3.964
  744SOL     OW 3130   0.462   6.556   1.286
  744SOL    HW1 3131   0.461   6.618   1.207
  744SOL    HW2 3132   0.431   6.465   1.258
  745SOL     OW 3133   1.732   6.469   3.037
  745SOL    HW1 3134   1.789   6.390   3.061
  745SOL    HW2 3135   1.724   6.530   3.115
  746SOL     OW 3136   3.094   0.834   4.684
  746SOL    HW1 3137   3.041   0.854   4.602
  746SOL    HW2 3138   3.144   0.916   4.712
  747SOL     OW 3139   5.866   5.085   2.234
  747SOL    HW1 3140   5.793   5.056   2.173
  747SOL    HW2 3141   5.879   5.017   2.306
  748SOL     OW 3142   3.924   3.052   1.837
  748SOL    HW1 3143   3.938   3.063   1.936
  748SOL    HW2 3144   3.994   2.991   1.800
  749SOL     OW 3145   6.974   1.445   5.284
  749SOL    HW1 3146   6.978   1.545   5.287
  749SOL    HW2 3147   6.967   1.414   5.190
  750SOL     OW 3148   2.731   4.282   0.902
  750SOL    HW1 3149   2.652   4.251   0.848
  750SOL    HW2 3150   2.805   4.308   0.839
  751SOL     OW 3151   4.626   1.068   0.514
  751SOL    HW1 3152   4.693   0.996   0.495
  751SOL    HW2 3153   4.640   1.144   0.450
  752SOL     OW 3154   5.233   1.200   1.441
  752SOL    HW1 3155   5.167   1.274   1.455
  752SOL    HW2 3156   5.290   1.190   1.522
  753SOL     OW 3157   2.146   1.870   3.008
  753SOL    HW1 3158   2.129   1.874   3.107
  753SOL    HW2 3159   2.204   1.947   2.981
  754SOL     OW 3160   4.870   5.623   6.657
  754SOL    HW1 3161   4.919   5.538   6.673
  754SOL    HW2 3162   4.890   5.657   6.565
  755SOL     OW 3163   0.482   6.210   2.615
  755SOL    HW1 3164   0.383   6.219   2.620
  755SOL    HW2 3165   0.514   6.247   2.527
  756SOL     OW 3166   4.239   0.353   3.501
  756SOL    HW1 3167   4.169   0.405   3.452
  756SOL    HW2 3168   4.294   0.301   3.435
  757SOL     OW 3169   6.898   0.931   4.492
  757SOL    HW1 3170   6.980   0.897   4.447
  757SOL    HW2 3171   6.883   0.881   4.577
  758SOL     OW 3172   4.362   2.327   1.692
  758SOL    HW1 3173   4.423   2.337   1.613
  758SOL    HW2 3174   4.417   2.321   1.775
  759SOL     OW 3175   1.410   1.319   0.266
  759SOL    HW1 3176   1.310   1.319   0.264
  759SOL    HW2 3177   1.443   1.225   0.253
  760SOL     OW 3178   4.342   1.334   6.101
  760SOL    HW1 3179   4.306   1.242   6.085
  760SOL    HW2 3180   4.354   1.381   6.013
  761SOL     OW 3181   5.823   2.823   6.753
  761SOL    HW1 3182   5.816   2.897   6.819
  761SOL    HW2 3183   5.732   2.784   6.737
  762SOL     OW 3184   2.205   5.284   3.952
  762SOL    HW1 3185   2.128   5.243   4.001
  762SOL    HW2 3186   2.224   5.232   3.869
  763SOL     OW 3187   5.769   4.773   6.311
  763SOL    HW1 3188   5.734   4.701   6.372
  763SOL    HW2 3189   5.796   4.853   6.365
  764SOL     OW 3190   4.440   1.236   2.684
  764SOL    HW1 3191   4.502   1.187   2.623
  764SOL    HW2 3192   4.381   1.296   2.631
  765SOL     OW 3193   0.329   0.042   3.523
  765SOL    HW1 3194   0.268   0.028   3.445
  765SOL    HW2 3195   0.371   0.132   3.516
  766SOL     OW 3196   0.479   6.389   0.334
  766SOL    HW1 3197   0.387   6.406   0.368
  766SOL    HW2 3198   0.542   6.381   0.412
  767SOL     OW 3199   6.200   6.835   1.927
  767SOL    HW1 3200   6.162   6.928   1.921
  767SOL    HW2 3201   6.296   6.840   1.954
  768SOL     OW 3202   3.582   6.581   3.377
  768SOL    HW1 3203   3.515   6.555   3.306
  768SOL    HW2 3204   3.650   6.509   3.386
  769SOL     OW 3205   3.435   0.867   6.684
  769SOL    HW1 3206   3.367   0.872   6.610
  769SOL    HW2 3207   3.518   0.915   6.656
  770SOL     OW 3208   3.746   4.964   3.836
  770SOL    HW1 3209   3.819   4.920   3.784
  770SOL    HW2 3210   3.658   4.926   3.808
  771SOL     OW 3211   0.435   5.920   3.443
  771SOL    HW1 3212   0.464   5.987   3.375
  771SOL    HW2 3213   0.444   5.828   3.406
  772SOL     OW 3214   6.835   4.579   5.247
  772SOL    HW1 3215   6.795   4.612   5.162
  772SOL    HW2 3216   6.873   4.656   5.298
  773SOL     OW 3217   0.273   4.051   2.004
  773SOL    HW1 3218   0.191   4.103   1.977
  773SOL    HW2 3219   0.273   3.964   1.955
  774SOL     OW 3220   1.560   0.761   1.771
  774SOL    HW1 3221   1.528   0.815   1.849
  774SOL    HW2 3222   1.641   0.708   1.798
  775SOL     OW 3223   1.219   2.063   4.210
  775SOL    HW1 3224   1.250   2.148   4.252
  775SOL    HW2 3225   1.130   2.038   4.248
  776SOL     OW 3226   2.219   0.808   6.123
  776SOL    HW1 3227   2.181   0.797   6.215
  776SOL    HW2 3228   2.206   0.902   6.093
  777SOL     OW 3229   4.726   0.211   0.723
  777SOL    HW1 3230   4.825   0.210   0.718
  777SOL    HW2 3231   4.691   0.293   0.678
  778SOL     OW 3232   4.400   6.808   3.795
  778SOL    HW1 3233   4.428   6.775   3.885
  778SOL    HW2 3234   4.312   6.766   3.771
  779SOL     OW 3235   0.771   1.102   2.278
  779SOL    HW1 3236   0.865   1.124   2.253
  779SOL    HW2 3237   0.768   1.011   2.321
  780SOL     OW 3238   5.118   3.504   5.016
  780SOL    HW1 3239   5.217   3.505   5.029
  780SOL    HW2 3240   5.097   3.472   4.923
  781SOL     OW 3241   0.767   1.446   6.151
  781SOL    HW1 3242   0.841   1.513   6.149
  781SOL    HW2 3243   0.761   1.400   6.062
  782SOL     OW 3244   0.605   3.703   0.881
  782SOL    HW1 3245   0.581   3.777   0.818
  782SOL    HW2 3246   0.522   3.664   0.921
  783SOL     OW 3247   2.736   4.294   0.547
  783SOL    HW1 3248   2.660   4.233   0.524
  783SOL    HW2 3249   2.740   4.368   0.480
  784SOL     OW 3250   5.395   6.879   3.971
  784SOL    HW1 3251   5.435   6.821   4.041
  784SOL    HW2 3252   5.372   6.968   4.010
  785SOL     OW 3253   6.744   2.144   3.783
  785SOL    HW1 3254   6.711   2.237   3.771
  785SOL    HW2 3255   6.827   2.144   3.839
  786SOL     OW 3256   6.538   6.973   6.973
  786SOL    HW1 3257   6.482   0.010   6.914
  786SOL    HW2 3258   6.614   0.004   7.011
  787SOL     OW 3259   3.433   1.212   6.712
  787SOL    HW1 3260   3.510   1.271   6.688
  787SOL    HW2 3261   3.378   1.195   6.630
  788SOL     OW 3262   0.880   4.549   3.699
  788SOL    HW1 3263   0.892   4.647   3.682
  788SOL    HW2 3264   0.965   4.511   3.735
  789SOL     OW 3265   5.762   3.851   0.981
  789SOL    HW1 3266   5.856   3.883   0.970
  789SOL    HW2 3267   5.759   3.776   1.046
  790SOL     OW 3268   3.496   1.176   4.059
  790SOL    HW1 3269   3.447   1.257   4.027
  790SOL    HW2 3270   3.592   1.183   4.035
  791SOL     OW 3271   4.076   1.993   4.029
  791SOL    HW1 3272   4.100   1.961   4.121
  791SOL    HW2 3273   4.099   2.089   4.020
  792SOL     OW 3274   5.865   0.643   3.219
  792SOL    HW1 3275   5.903   0.733   3.200
  792SOL    HW2 3276   5.819   0.644   3.308
  793SOL     OW 3277   6.708   6.994   6.469
  793SOL    HW1 3278   6.735   6.998   6.565
  793SOL    HW2 3279   6.789   6.989   6.411
  794SOL     OW 3280   2.419   5.136   5.267
  794SOL    HW1 3281   2.406   5.070   5.194
  794SOL    HW2 3282   2.331   5.167   5.301
  795SOL     OW 3283   4.858   4.575   6.325
  795SOL    HW1 3284   4.785   4.623   6.275
  795SOL    HW2 3285   4.817   4.507   6.385
  796SOL     OW 3286   0.833   2.487   5.793
  796SOL    HW1 3287   0.800   2.435   5.714
  796SOL    HW2 3288   0.932   2.494   5.789
  797SOL     OW 3289   6.033   2.617   4.704
  797SOL    HW1 3290   6.128   2.597   4.681
  797SOL    HW2 3291   6.030   2.684   4.778
  798SOL     OW 3292   6.214   0.670   5.708
  798SOL    HW1 3293   6.272   0.626   5.639
  798SOL    HW2 3294   6.160   0.742   5.665
  799SOL     OW 3295   6.665   3.433   3.112
  799SOL    HW1 3296   6.729   3.432   3.188
  799SOL    HW2 3297   6.575   3.405   3.144
  800SOL     OW 3298   6.778   1.390   1.687
  800SOL    HW1 3299   6.766   1.320   1.757
  800SOL    HW2 3300   6.697   1.391   1.627
  801SOL     OW 3301   0.018   2.434   3.926
  801SOL    HW1 3302   0.070   2.478   3.999
  801SOL    HW2 3303   0.002   2.338   3.950
  802SOL     OW 3304   6.095   1.025   0.626
  802SOL    HW1 3305   6.010   1.069   0.656
  802SOL    HW2 3306   6.144   0.990   0.706
  803SOL     OW 3307   1.154   6.778   4.816
  803SOL    HW1 3308   1.197   6.788   4.906
  803SOL    HW2 3309   1.182   6.853   4.756
  804SOL     OW 3310   6.614   0.621   0.587
  804SOL    HW1 3311   6.641   0.530   0.620
  804SOL    HW2 3312   6.532   0.612   0.531
  805SOL     OW 3313   1.453   3.218   6.060
  805SOL    HW1 3314   1.466   3.317   6.069
  805SOL    HW2 3315   1.523   3.170   6.113
  806SOL     OW 3316   5.712   1.020   0.632
  806SOL    HW1 3317   5.748   1.086   0.698
  806SOL    HW2 3318   5.631   1.057   0.587
  807SOL     OW 3319   1.849   0.382   3.103
  807SOL    HW1 3320   1.856   0.353   3.199
  807SOL    HW2 3321   1.819   0.477   3.099
  808SOL     OW 3322   5.606   3.200   4.557
  808SOL    HW1 3323   5.628   3.207   4.459
  808SOL    HW2 3324   5.685   3.229   4.611
  809SOL     OW 3325   0.637   4.736   6.174
  809SOL    HW1 3326   0.625   4.637   6.175
  809SOL    HW2 3327   0.566   4.779   6.229
  810SOL     OW 3328   6.118   4.687   6.623
  810SOL    HW1 3329   6.135   4.688   6.524
  810SOL    HW2 3330   6.175   4.757   6.666
  811SOL     OW 3331   4.815   4.950   3.730
  811SOL    HW1 3332   4.741   4.987   3.786
  811SOL    HW2 3333   4.776   4.912   3.646
  812SOL     OW 3334   0.827   0.404   2.456
  812SOL    HW1 3335   0.798   0.389   2.551
  812SOL    HW2 3336   0.876   0.323   2.423
  813SOL     OW 3337   6.156   5.432   2.268
  813SOL    HW1 3338   6.159   5.420   2.367
  813SOL    HW2 3339   6.066   5.406   2.233
  814SOL     OW 3340   5.219   5.644   1.221
  814SOL    HW1 3341   5.138   5.698   1.201
  814SOL    HW2 3342   5.296   5.677   1.167
  815SOL     OW 3343   0.352   2.378   0.490
  815SOL    HW1 3344   0.423   2.445   0.471
  815SOL    HW2 3345   0.386   2.312   0.558
  816SOL     OW 3346   6.434   0.671   1.237
  816SOL    HW1 3347   6.459   0.661   1.333
  816SOL    HW2 3348   6.378   0.594   1.208
  817SOL     OW 3349   1.816   1.968   2.684
  817SOL    HW1 3350   1.744   1.898   2.686
  817SOL    HW2 3351   1.899   1.927   2.646
  818SOL     OW 3352   6.962   1.927   1.037
  818SOL    HW1 3353   6.862   1.927   1.038
  818SOL    HW2 3354   6.996   1.885   1.121
  819SOL     OW 3355   0.098   4.417   3.505
  819SOL    HW1 3356   0.102   4.464   3.593
  819SOL    HW2 3357   0.011   4.367   3.499
  820SOL     OW 3358   0.800   3.687   4.854
  820SOL    HW1 3359   0.785   3.630   4.774
  820SOL    HW2 3360   0.720   3.681   4.915
  821SOL     OW 3361   1.184   3.634   0.329
  821SOL    HW1 3362   1.184   3.679   0.239
  821SOL    HW2 3363   1.120   3.681   0.390
  822SOL     OW 3364   1.804   3.603   4.662
  822SOL    HW1 3365   1.846   3.624   4.750
  822SOL    HW2 3366   1.875   3.578   4.596
  823SOL     OW 3367   3.062   3.434   0.919
  823SOL    HW1 3368   3.100   3.415   0.828
  823SOL    HW2 3369   2.963   3.428   0.915
  824SOL     OW 3370   6.129   2.089   5.618
  824SOL    HW1 3371   6.209   2.149   5.626
  824SOL    HW2 3372   6.049   2.144   5.592
  825SOL     OW 3373   1.400   4.200   2.146
  825SOL    HW1 3374   1.453   4.141   2.207
  825SOL    HW2 3375   1.325   4.149   2.106
  826SOL     OW 3376   0.265   4.109   6.004
  826SOL    HW1 3377   0.228   4.142   6.091
  826SOL    HW2 3378   0.365   4.111   6.008
  827SOL     OW 3379   4.062   6.023   0.447
  827SOL    HW1 3380   4.108   6.043   0.360
  827SOL    HW2 3381   4.125   5.975   0.507
  828SOL     OW 3382   5.927   6.643   6.439
  828SOL    HW1 3383   5.909   6.548   6.464
  828SOL    HW2 3384   5.890   6.704   6.509
  829SOL     OW 3385   3.814   2.920   4.839
  829SOL    HW1 3386   3.841   2.985   4.911
  829SOL    HW2 3387   3.841   2.828   4.865
  830SOL     OW 3388   4.464   3.982   5.356
  830SOL    HW1 3389   4.494   4.025   5.440
  830SOL    HW2 3390   4.374   4.018   5.330
  831SOL     OW 3391   6.195   0.280   5.056
  831SOL    HW1 3392   6.239   0.239   4.977
  831SOL    HW2 3393   6.173   0.209   5.123
  832SOL     OW 3394   2.104   1.478   5.617
  832SOL    HW1 3395   2.079   1.387   5.585
  832SOL    HW2 3396   2.137   1.472   5.712
  833SOL     OW 3397   0.807   0.000   5.844
  833SOL    HW1 3398   0.869   6.944   5.845
  833SOL    HW2 3399   0.715   6.992   5.822
  834SOL     OW 3400   3.314   4.333   5.836
  834SOL    HW1 3401   3.330   4.421   5.791
  834SOL    HW2 3402   3.228   4.294   5.803
  835SOL     OW 3403   4.409   0.677   2.818
  835SOL    HW1 3404   4.504   0.684   2.846
  835SOL    HW2 3405   4.401   0.608   2.746
  836SOL     OW 3406   2.243   0.995   0.606
  836SOL    HW1 3407   2.298   1.073   0.574
  836SOL    HW2 3408   2.271   0.912   0.558
  837SOL     OW 3409   3.865   0.073   5.656
  837SOL    HW1 3410   3.767   0.053   5.655
  837SOL    HW2 3411   3.879   0.169   5.630
  838SOL     OW 3412   1.915   4.429   2.593
  838SOL    HW1 3413   1.993   4.490   2.609
  838SOL    HW2 3414   1.832   4.472   2.628
  839SOL     OW 3415   3.538   1.220   1.720
  839SOL    HW1 3416   3.568   1.287   1.651
  839SOL    HW2 3417   3.583   1.132   1.702
  840SOL     OW 3418   0.635   1.765   6.132
  840SOL    HW1 3419   0.732   1.780   6.113
  840SOL    HW2 3420   0.617   1.780   6.229
  841SOL     OW 3421   0.154   3.867   0.402
  841SOL    HW1 3422   0.056   3.883   0.411
  841SOL    HW2 3423   0.173   3.769   0.415
  842SOL     OW 3424   3.557   5.293   4.011
  842SOL    HW1 3425   3.635   5.237   4.041
  842SOL    HW2 3426   3.591   5.379   3.973
  843SOL     OW 3427   6.721   3.452   2.562
  843SOL    HW1 3428   6.727   3.445   2.662
  843SOL    HW2 3429   6.809   3.481   2.525
  844SOL     OW 3430   5.305   5.574   0.838
  844SOL    HW1 3431   5.287   5.480   0.867
  844SOL    HW2 3432   5.334   5.629   0.916
  845SOL     OW 3433   0.974   4.864   4.578
  845SOL    HW1 3434   0.906   4.870   4.504
  845SOL    HW2 3435   1.054   4.815   4.545
  846SOL     OW 3436   5.811   2.611   0.194
  846SOL    HW1 3437   5.882   2.678   0.173
  846SOL    HW2 3438   5.729   2.632   0.142
  847SOL     OW 3439   5.443   3.586   2.206
  847SOL    HW1 3440   5.485   3.661   2.155
  847SOL    HW2 3441   5.483   3.499   2.175
  848SOL     OW 3442   6.717   0.195   5.669
  848SOL    HW1 3443   6.700   0.096   5.668
  848SOL    HW2 3444   6.688   0.232   5.758
  849SOL     OW 3445   0.864   5.371   4.283
  849SOL    HW1 3446   0.779   5.379   4.232
  849SOL    HW2 3447   0.884   5.275   4.301
  850SOL     OW 3448   3.683   0.713   2.584
  850SOL    HW1 3449   3.709   0.804   2.550
  850SOL    HW2 3450   3.737   0.692   2.665
  851SOL     OW 3451   1.010   0.178   5.711
  851SOL    HW1 3452   0.955   0.122   5.773
  851SOL    HW2 3453   0.960   0.193   5.626
  852SOL     OW 3454   2.723   4.328   6.266
  852SOL    HW1 3455   2.646   4.264   6.270
  852SOL    HW2 3456   2.768   4.321   6.177
  853SOL     OW 3457   1.311   3.267   1.316
  853SOL    HW1 3458   1.309   3.367   1.313
  853SOL    HW2 3459   1.333   3.236   1.409
  854SOL     OW 3460   5.418   4.966   2.114
  854SOL    HW1 3461   5.373   4.921   2.038
  854SOL    HW2 3462   5.516   4.973   2.096
  855SOL     OW 3463   5.577   0.460   1.389
  855SOL    HW1 3464   5.671   0.467   1.357
  855SOL    HW2 3465   5.530   0.547   1.375
  856SOL     OW 3466   1.952   0.429   4.804
  856SOL    HW1 3467   1.927   0.334   4.785
  856SOL    HW2 3468   2.043   0.447   4.766
  857SOL     OW 3469   6.699   3.561   1.645
  857SOL    HW1 3470   6.713   3.657   1.622
  857SOL    HW2 3471   6.746   3.540   1.731
  858SOL     OW 3472   3.182   4.041   1.145
  858SOL    HW1 3473   3.110   4.093   1.099
  858SOL    HW2 3474   3.175   3.945   1.119
  859SOL     OW 3475   6.960   5.093   0.483
  859SOL    HW1 3476   7.001   5.078   0.573
  859SOL    HW2 3477   7.018   5.155   0.430
  860SOL     OW 3478   1.817   4.915   1.633
  860SOL    HW1 3479   1.914   4.905   1.611
  860SOL    HW2 3480   1.786   5.006   1.604
  861SOL     OW 3481   3.831   5.459   6.194
  861SOL    HW1 3482   3.792   5.463   6.286
  861SOL    HW2 3483   3.874   5.546   6.173
  862SOL     OW 3484   4.820   4.402   4.336
  862SOL    HW1 3485   4.895   4.336   4.325
  862SOL    HW2 3486   4.839   4.483   4.280
  863SOL     OW 3487   5.840   1.224   0.751
  863SOL    HW1 3488   5.782   1.285   0.805
  863SOL    HW2 3489   5.925   1.271   0.727
  864SOL     OW 3490   6.388   4.336   2.659
  864SOL    HW1 3491   6.418   4.350   2.753
  864SOL    HW2 3492   6.375   4.238   2.643
  865SOL     OW 3493   1.481   0.649   4.231
  865SOL    HW1 3494   1.410   0.608   4.288
  865SOL    HW2 3495   1.439   0.714   4.168
  866SOL     OW 3496   3.885   1.306   1.435
  866SOL    HW1 3497   3.787   1.290   1.445
  866SOL    HW2 3498   3.935   1.224   1.465
  867SOL     OW 3499   1.625   2.393   6.413
  867SOL    HW1 3500   1.623   2.378   6.512
  867SOL    HW2 3501   1.535   2.370   6.374
  868SOL     OW 3502   5.609   2.728   3.213
  868SOL    HW1 3503   5.647   2.779   3.291
  868SOL    HW2 3504   5.603   2.789   3.134
  869SOL     OW 3505   6.225   4.283   2.405
  869SOL    HW1 3506   6.254   4.371   2.443
  869SOL    HW2 3507   6.242   4.210   2.472
  870SOL     OW 3508   0.154   2.755   0.521
  870SOL    HW1 3509   0.112   2.736   0.432
  870SOL    HW2 3510   0.130   2.849   0.549
  871SOL     OW 3511   5.835   4.170   0.992
  871SOL    HW1 3512   5.857   4.221   0.909
  871SOL    HW2 3513   5.737   4.176   1.011
  872SOL     OW 3514   5.599   2.525   2.593
  872SOL    HW1 3515   5.523   2.518   2.528
  872SOL    HW2 3516   5.604   2.618   2.630
  873SOL     OW 3517   4.587   6.746   5.381
  873SOL    HW1 3518   4.684   6.764   5.363
  873SOL    HW2 3519   4.552   6.683   5.313
  874SOL     OW 3520   0.211   3.706   6.482
  874SOL    HW1 3521   0.198   3.790   6.429
  874SOL    HW2 3522   0.146   3.637   6.452
  875SOL     OW 3523   6.230   4.884   6.225
  875SOL    HW1 3524   6.304   4.867   6.290
  875SOL    HW2 3525   6.168   4.952   6.263
  876SOL     OW 3526   0.933   2.733   1.285
  876SOL    HW1 3527   0.861   2.746   1.353
  876SOL    HW2 3528   1.014   2.693   1.328
  877SOL     OW 3529   5.810   5.778   0.684
  877SOL    HW1 3530   5.836   5.824   0.769
  877SOL    HW2 3531   5.768   5.844   0.622
  878SOL     OW 3532   3.189   2.903   0.143
  878SOL    HW1 3533   3.194   2.818   0.091
  878SOL    HW2 3534   3.265   2.906   0.208
  879SOL     OW 3535   3.894   1.832   2.642
  879SOL    HW1 3536   3.870   1.869   2.552
  879SOL    HW2 3537   3.896   1.732   2.637
  880SOL     OW 3538   3.998   5.137   0.929
  880SOL    HW1 3539   4.071   5.143   0.997
  880SOL    HW2 3540   3.956   5.047   0.933
  881SOL     OW 3541   4.230   5.336   4.218
  881SOL    HW1 3542   4.288   5.254   4.218
  881SOL    HW2 3543   4.135   5.310   4.205
  882SOL     OW 3544   0.835   1.803   4.363
  882SOL    HW1 3545   0.738   1.815   4.343
  882SOL    HW2 3546   0.865   1.714   4.327
  883SOL     OW 3547   3.189   4.567   0.073
  883SOL    HW1 3548   3.250   4.625   0.018
  883SOL    HW2 3549   3.201   4.472   0.046
  884SOL     OW 3550   4.324   3.492   1.735
  884SOL    HW1 3551   4.248   3.493   1.800
  884SOL    HW2 3552   4.296   3.445   1.651
  885SOL     OW 3553   4.456   6.573   6.696
  885SOL    HW1 3554   4.384   6.508   6.722
  885SOL    HW2 3555   4.522   6.581   6.770
  886SOL     OW 3556   4.194   1.327   6.337
  886SOL    HW1 3557   4.099   1.351   6.354
  886SOL    HW2 3558   4.216   1.342   6.241
  887SOL     OW 3559   5.711   0.072   6.410
  887SOL    HW1 3560   5.625   0.114   6.381
  887SOL    HW2 3561   5.785   0.101   6.348
  888SOL     OW 3562   6.744   6.645   3.762
  888SOL    HW1 3563   6.666   6.628   3.701
  888SOL    HW2 3564   6.726   6.603   3.851
  889SOL     OW 3565   1.341   6.992   4.678
  889SOL    HW1 3566   1.332   0.011   4.587
  889SOL    HW2 3567   1.330   0.040   4.748
  890SOL     OW 3568   2.112   4.599   2.617
  890SOL    HW1 3569   2.203   4.556   2.621
  890SOL    HW2 3570   2.120   4.690   2.578
  891SOL     OW 3571   5.473   3.368   5.995
  891SOL    HW1 3572   5.515   3.457   5.976
  891SOL    HW2 3573   5.533   3.296   5.959
  892SOL     OW 3574   2.339   5.577   1.604
  892SOL    HW1 3575   2.426   5.626   1.595
  892SOL    HW2 3576   2.266   5.643   1.621
  893SOL     OW 3577   1.962   6.522   0.685
  893SOL    HW1 3578   1.998   6.429   0.680
  893SOL    HW2 3579   1.963   6.562   0.593
  894SOL     OW 3580   1.061   5.091   3.989
  894SOL    HW1 3581   1.127   5.165   3.975
  894SOL    HW2 3582   1.080   5.045   4.076
  895SOL     OW 3583   2.237   0.512   4.749
  895SOL    HW1 3584   2.285   0.587   4.704
  895SOL    HW2 3585   2.270   0.425   4.713
  896SOL     OW 3586   5.315   6.706   3.480
  896SOL    HW1 3587   5.220   6.725   3.503
  896SOL    HW2 3588   5.347   6.627   3.532
  897SOL     OW 3589   5.144   1.836   5.787
  897SOL    HW1 3590   5.236   1.874   5.774
  897SOL    HW2 3591   5.140   1.745   5.746
  898SOL     OW 3592   6.250   5.890   3.926
  898SOL    HW1 3593   6.283   5.854   3.839
  898SOL    HW2 3594   6.327   5.923   3.980
  899SOL     OW 3595   1.540   4.311   6.769
  899SOL    HW1 3596   1.555   4.408   6.751
  899SOL    HW2 3597   1.572   4.257   6.691
  900SOL     OW 3598   0.349   5.655   3.875
  900SOL    HW1 3599   0.309   5.686   3.789
  900SOL    HW2 3600   0.364   5.734   3.935
  901SOL     OW 3601   5.819   2.036   3.298
  901SOL    HW1 3602   5.912   2.008   3.323
  901SOL    HW2 3603   5.824   2.109   3.230
  902SOL     OW 3604   0.679   6.156   0.494
  902SOL    HW1 3605   0.651   6.132   0.401
  902SOL    HW2 3606   0.740   6.086   0.530
  903SOL     OW 3607   0.382   4.879   6.884
  903SOL    HW1 3608   0.284   4.876   6.866
  903SOL    HW2 3609   0.431   4.903   6.801
  904SOL     OW 3610   1.628   1.343   3.489
  904SOL    HW1 3611   1.611   1.407   3.564
  904SOL    HW2 3612   1.677   1.263   3.523
  905SOL     OW 3613   6.480   1.825   5.758
  905SOL    HW1 3614   6.571   1.829   5.717
  905SOL    HW2 3615   6.415   1.786   5.693
  906SOL     OW 3616   6.282   3.647   5.272
  906SOL    HW1 3617   6.270   3.558   5.230
  906SOL    HW2 3618   6.196   3.679   5.311
  907SOL     OW 3619   0.260   3.375   1.423
  907SOL    HW1 3620   0.312   3.400   1.505
  907SOL    HW2 3621   0.311   3.402   1.341
  908SOL     OW 3622   2.190   0.834   3.135
  908SOL    HW1 3623   2.235   0.801   3.052
  908SOL    HW2 3624   2.250   0.900   3.181
  909SOL     OW 3625   4.259   0.421   1.194
  909SOL    HW1 3626   4.349   0.456   1.169
  909SOL    HW2 3627   4.249   0.420   1.294
  910SOL     OW 3628   1.799   1.562   1.995
  910SOL    HW1 3629   1.734   1.580   2.069
  910SOL    HW2 3630   1.892   1.560   2.033
  911SOL     OW 3631   0.199   4.048   1.408
  911SOL    HW1 3632   0.107   4.076   1.381
  911SOL    HW2 3633   0.203   4.034   1.506
  912SOL     OW 3634   1.045   0.308   6.336
  912SOL    HW1 3635   1.061   0.301   6.238
  912SOL    HW2 3636   1.124   0.351   6.380
  913SOL     OW 3637   2.098   1.280   1.994
  913SOL    HW1 3638   2.011   1.251   1.954
  913SOL    HW2 3639   2.108   1.238   2.085
  914SOL     OW 3640   2.715   5.894   2.706
  914SOL    HW1 3641   2.753   5.842   2.629
  914SOL    HW2 3642   2.683   5.831   2.776
  915SOL     OW 3643   1.406   2.926   0.118
  915SOL    HW1 3644   1.364   2.902   0.206
  915SOL    HW2 3645   1.343   2.901   0.044
  916SOL     OW 3646   1.214   3.357   2.398
  916SOL    HW1 3647   1.198   3.328   2.492
  916SOL    HW2 3648   1.182   3.451   2.387
  917SOL     OW 3649   3.538   2.304   6.797
  917SOL    HW1 3650   3.525   2.396   6.835
  917SOL    HW2 3651   3.454   2.251   6.810
  918SOL     OW 3652   1.029   0.909   5.562
  918SOL    HW1 3653   1.051   0.832   5.622
  918SOL    HW2 3654   0.939   0.947   5.586
  919SOL     OW 3655   1.842   0.133   0.960
  919SOL    HW1 3656   1.796   0.047   0.980
  919SOL    HW2 3657   1.803   0.205   1.018
  920SOL     OW 3658   2.003   0.800   3.598
  920SOL    HW1 3659   1.931   0.784   3.665
  920SOL    HW2 3660   2.039   0.892   3.609
  921SOL     OW 3661   4.451   4.546   6.713
  921SOL    HW1 3662   4.427   4.611   6.641
  921SOL    HW2 3663   4.463   4.596   6.799
  922SOL     OW 3664   1.873   4.082   6.431
  922SOL    HW1 3665   1.955   4.110   6.481
  922SOL    HW2 3666   1.854   4.148   6.358
  923SOL     OW 3667   3.637   1.380   6.634
  923SOL    HW1 3668   3.728   1.378   6.675
  923SOL    HW2 3669   3.645   1.378   6.535
  924SOL     OW 3670   6.666   4.657   3.034
  924SOL    HW1 3671   6.723   4.681   3.112
  924SOL    HW2 3672   6.687   4.563   3.005
  925SOL     OW 3673   6.917   1.967   2.909
  925SOL    HW1 3674   6.970   1.885   2.934
  925SOL    HW2 3675   6.833   1.969   2.962
  926SOL     OW 3676   5.510   6.296   0.758
  926SOL    HW1 3677   5.424   6.318   0.804
  926SOL    HW2 3678   5.522   6.196   0.757
  927SOL     OW 3679   5.124   5.236   4.969
  927SOL    HW1 3680   5.184   5.161   4.997
  927SOL    HW2 3681   5.168   5.323   4.988
  928SOL     OW 3682   0.596   1.530   1.237
  928SOL    HW1 3683   0.523   1.595   1.253
  928SOL    HW2 3684   0.685   1.575   1.249
  929SOL     OW 3685   0.581   2.490   2.498
  929SOL    HW1 3686   0.593   2.518   2.593
  929SOL    HW2 3687   0.634   2.408   2.480
  930SOL     OW 3688   5.435   5.352   3.070
  930SOL    HW1 3689   5.504   5.366   2.998
  930SOL    HW2 3690   5.403   5.257   3.066
  931SOL     OW 3691   1.900   2.890   2.258
  931SOL    HW1 3692   1.826   2.824   2.271
  931SOL    HW2 3693   1.964   2.855   2.189
  932SOL     OW 3694   4.791   6.446   1.167
  932SOL    HW1 3695   4.854   6.523   1.169
  932SOL    HW2 3696   4.814   6.382   1.241
  933SOL     OW 3697   1.741   5.676   4.219
  933SOL    HW1 3698   1.649   5.716   4.226
  933SOL    HW2 3699   1.796   5.705   4.297
  934SOL     OW 3700   3.132   0.581   5.698
  934SOL    HW1 3701   3.228   0.566   5.719
  934SOL    HW2 3702   3.122   0.667   5.648
  935SOL     OW 3703   1.943   3.318   6.234
  935SOL    HW1 3704   2.020   3.273   6.278
  935SOL    HW2 3705   1.962   3.329   6.136
  936SOL     OW 3706   0.113   1.753   1.932
  936SOL    HW1 3707   0.074   1.790   2.017
  936SOL    HW2 3708   0.135   1.829   1.870
  937SOL     OW 3709   5.206   1.962   3.468
  937SOL    HW1 3710   5.295   1.931   3.501
  937SOL    HW2 3711   5.179   2.044   3.518
  938SOL     OW 3712   6.257   1.759   0.304
  938SOL    HW1 3713   6.265   1.823   0.229
  938SOL    HW2 3714   6.344   1.710   0.316
  939SOL     OW 3715   6.380   0.550   5.528
  939SOL    HW1 3716   6.353   0.611   5.454
  939SOL    HW2 3717   6.479   0.549   5.536
  940SOL     OW 3718   0.525   0.481   4.109
  940SOL    HW1 3719   0.494   0.455   4.201
  940SOL    HW2 3720   0.448   0.520   4.058
  941SOL     OW 3721   5.693   2.966   5.106
  941SOL    HW1 3722   5.676   2.868   5.099
  941SOL    HW2 3723   5.664   3.011   5.022
  942SOL     OW 3724   4.461   0.734   5.310
  942SOL    HW1 3725   4.464   0.832   5.291
  942SOL    HW2 3726   4.524   0.686   5.251
  943SOL     OW 3727   5.575   2.129   6.991
  943SOL    HW1 3728   5.664   2.094   6.963
  943SOL    HW2 3729   5.586   2.189   0.048
  944SOL     OW 3730   5.422   3.651   4.757
  944SOL    HW1 3731   5.328   3.670   4.785
  944SOL    HW2 3732   5.484   3.719   4.798
  945SOL     OW 3733   5.422   3.467   5.010
  945SOL    HW1 3734   5.414   3.566   5.020
  945SOL    HW2 3735   5.456   3.446   4.918
  946SOL     OW 3736   5.535   3.160   6.213
  946SOL    HW1 3737   5.539   3.229   6.141
  946SOL    HW2 3738   5.616   3.100   6.206
  947SOL     OW 3739   1.354   2.324   5.266
  947SOL    HW1 3740   1.364   2.319   5.167
  947SOL    HW2 3741   1.444   2.340   5.308
  948SOL     OW 3742   3.996   1.576   0.630
  948SOL    HW1 3743   3.941   1.656   0.607
  948SOL    HW2 3744   3.952   1.524   0.703
  949SOL     OW 3745   5.679   5.700   6.871
  949SOL    HW1 3746   5.636   5.780   6.828
  949SOL    HW2 3747   5.740   5.656   6.804
  950SOL     OW 3748   3.529   5.553   0.654
  950SOL    HW1 3749   3.539   5.457   0.628
  950SOL    HW2 3750   3.493   5.558   0.748
  951SOL     OW 3751   0.439   2.495   3.694
  951SOL    HW1 3752   0.358   2.445   3.722
  951SOL    HW2 3753   0.500   2.507   3.772
  952SOL     OW 3754   5.197   0.967   1.313
  952SOL    HW1 3755   5.232   0.903   1.382
  952SOL    HW2 3756   5.183   1.057   1.355
  953SOL     OW 3757   3.602   6.419   5.885
  953SOL    HW1 3758   3.598   6.397   5.787
  953SOL    HW2 3759   3.511   6.445   5.917
  954SOL     OW 3760   0.148   6.906   1.576
  954SOL    HW1 3761   0.106   6.826   1.533
  954SOL    HW2 3762   0.092   6.987   1.559
  955SOL     OW 3763   0.023   6.926   2.645
  955SOL    HW1 3764   7.017   7.018   2.617
  955SOL    HW2 3765   6.979   6.859   2.613
  956SOL     OW 3766   0.981   2.686   0.093
  956SOL    HW1 3767   0.997   2.589   0.111
  956SOL    HW2 3768   1.063   2.727   0.053
  957SOL     OW 3769   2.328   6.503   4.836
  957SOL    HW1 3770   2.340   6.510   4.737
  957SOL    HW2 3771   2.379   6.577   4.880
  958SOL     OW 3772   4.921   1.975   0.574
  958SOL    HW1 3773   4.868   1.892   0.591
  958SOL    HW2 3774   4.972   2.000   0.656
  959SOL     OW 3775   1.562   3.794   2.023
  959SOL    HW1 3776   1.588   3.890   2.028
  959SOL    HW2 3777   1.532   3.762   2.113
  960SOL     OW 3778   1.521   5.594   5.611
  960SOL    HW1 3779   1.458   5.545   5.551
  960SOL    HW2 3780   1.486   5.593   5.705
  961SOL     OW 3781   3.763   6.752   1.192
  961SOL    HW1 3782   3.694   6.705   1.247
  961SOL    HW2 3783   3.791   6.836   1.239
  962SOL     OW 3784   1.612   5.959   4.021
  962SOL    HW1 3785   1.619   5.901   4.102
  962SOL    HW2 3786   1.595   6.053   4.047
  963SOL     OW 3787   6.000   0.064   2.490
  963SOL    HW1 3788   6.080   0.061   2.550
  963SOL    HW2 3789   5.951   6.999   2.496
  964SOL     OW 3790   5.194   3.462   1.076
  964SOL    HW1 3791   5.248   3.519   1.013
  964SOL    HW2 3792   5.097   3.484   1.065
  965SOL     OW 3793   1.540   2.310   0.543
  965SOL    HW1 3794   1.530   2.213   0.566
  965SOL    HW2 3795   1.611   2.320   0.474
  966SOL     OW 3796   6.883   2.550   1.643
  966SOL    HW1 3797   6.978   2.575   1.663
  966SOL    HW2 3798   6.848   2.491   1.715
  967SOL     OW 3799   1.125   5.950   2.288
  967SOL    HW1 3800   1.150   5.861   2.326
  967SOL    HW2 3801   1.083   6.006   2.359
  968SOL     OW 3802   6.574   4.408   1.607
  968SOL    HW1 3803   6.580   4.507   1.618
  968SOL    HW2 3804   6.505   4.372   1.670
  969SOL     OW 3805   3.969   6.383   6.932
  969SOL    HW1 3806   3.981   6.296   6.980
  969SOL    HW2 3807   3.926   6.450   6.993
  970SOL     OW 3808   4.425   2.280   5.235
  970SOL    HW1 3809   4.424   2.202   5.297
  970SOL    HW2 3810   4.501   2.271   5.170
  971SOL     OW 3811   0.433   2.762   0.613
  971SOL    HW1 3812   0.341   2.728   0.594
  971SOL    HW2 3813   0.469   2.808   0.532
  972SOL     OW 3814   6.117   5.696   1.345
  972SOL    HW1 3815   6.028   5.731   1.316
  972SOL    HW2 3816   6.147   5.745   1.427
  973SOL     OW 3817   5.726   3.785   5.180
  973SOL    HW1 3818   5.767   3.718   5.118
  973SOL    HW2 3819   5.796   3.851   5.209
  974SOL     OW 3820   3.188   1.468   4.378
  974SOL    HW1 3821   3.154   1.559   4.357
  974SOL    HW2 3822   3.265   1.476   4.442
  975SOL     OW 3823   3.549   6.513   5.571
  975SOL    HW1 3824   3.626   6.452   5.551
  975SOL    HW2 3825   3.466   6.458   5.584
  976SOL     OW 3826   6.937   6.265   3.822
  976SOL    HW1 3827   6.995   6.184   3.811
  976SOL    HW2 3828   6.920   6.306   3.733
  977SOL     OW 3829   1.595   2.603   2.091
  977SOL    HW1 3830   1.569   2.513   2.124
  977SOL    HW2 3831   1.523   2.639   2.032
  978SOL     OW 3832   5.680   3.204   4.284
  978SOL    HW1 3833   5.669   3.121   4.229
  978SOL    HW2 3834   5.778   3.223   4.297
  979SOL     OW 3835   5.921   1.642   3.312
  979SOL    HW1 3836   5.892   1.707   3.242
  979SOL    HW2 3837   5.987   1.685   3.373
  980SOL     OW 3838   6.630   0.698   4.514
  980SOL    HW1 3839   6.693   0.624   4.494
  980SOL    HW2 3840   6.673   0.762   4.578
  981SOL     OW 3841   6.664   3.656   5.027
  981SOL    HW1 3842   6.700   3.626   4.939
  981SOL    HW2 3843   6.661   3.578   5.090
  982SOL     OW 3844   1.687   2.634   1.408
  982SOL    HW1 3845   1.653   2.718   1.450
  982SOL    HW2 3846   1.787   2.635   1.406
  983SOL     OW 3847   5.999   1.727   2.653
  983SOL    HW1 3848   6.004   1.677   2.740
  983SOL    HW2 3849   6.087   1.722   2.606
  984SOL     OW 3850   4.875   1.848   5.044
  984SOL    HW1 3851   4.904   1.793   4.965
  984SOL    HW2 3852   4.956   1.876   5.095
  985SOL     OW 3853   2.750   5.065   1.127
  985SOL    HW1 3854   2.841   5.023   1.136
  985SOL    HW2 3855   2.702   5.060   1.214
  986SOL     OW 3856   4.003   5.128   6.602
  986SOL    HW1 3857   3.916   5.079   6.613
  986SOL    HW2 3858   3.984   5.224   6.580
  987SOL     OW 3859   3.451   6.791   2.343
  987SOL    HW1 3860   3.526   6.803   2.278
  987SOL    HW2 3861   3.411   6.880   2.366
  988SOL     OW 3862   3.375   3.835   1.992
  988SOL    HW1 3863   3.428   3.877   2.065
  988SOL    HW2 3864   3.296   3.787   2.031
  989SOL     OW 3865   0.446   6.673   4.787
  989SOL    HW1 3866   0.360   6.655   4.739
  989SOL    HW2 3867   0.508   6.595   4.774
  990SOL     OW 3868   5.035   6.009   3.058
  990SOL    HW1 3869   5.038   6.023   2.959
  990SOL    HW2 3870   5.112   6.055   3.101
  991SOL     OW 3871   6.712   1.576   4.948
  991SOL    HW1 3872   6.690   1.482   4.974
  991SOL    HW2 3873   6.723   1.632   5.031
  992SOL     OW 3874   0.256   3.061   1.261
  992SOL    HW1 3875   0.294   3.046   1.352
  992SOL    HW2 3876   0.233   2.973   1.220
  993SOL     OW 3877   3.339   5.320   4.176
  993SOL    HW1 3878   3.326   5.241   4.236
  993SOL    HW2 3879   3.422   5.308   4.123
  994SOL     OW 3880   2.832   3.528   2.046
  994SOL    HW1 3881   2.738   3.563   2.042
  994SOL    HW2 3882   2.863   3.507   1.953
  995SOL     OW 3883   0.167   0.974   4.822
  995SOL    HW1 3884   0.133   0.936   4.908
  995SOL    HW2 3885   0.113   1.055   4.797
  996SOL     OW 3886   1.194   3.753   1.257
  996SOL    HW1 3887   1.129   3.822   1.226
  996SOL    HW2 3888   1.240   3.785   1.340
  997SOL     OW 3889   0.449   0.882   0.936
  997SOL    HW1 3890   0.465   0.863   1.033
  997SOL    HW2 3891   0.438   0.795   0.887
  998SOL     OW 3892   4.807   0.426   3.603
  998SOL    HW1 3893   4.738   0.377   3.551
  998SOL    HW2 3894   4.880   0.456   3.542
  999SOL     OW 3895   6.880   5.274   1.768
  999SOL    HW1 3896   6.826   5.298   1.688
  999SOL    HW2 3897   6.897   5.357   1.823
 1000SOL     OW 3898   4.206   2.272   4.329
 1000SOL    HW1 3899   4.270   2.316   4.265
 1000SOL    HW2 3900   4.117   2.260   4.284
 1001SOL     OW 3901   4.195   0.532   5.666
 1001SOL    HW1 3902   4.272   0.594   5.653
 1001SOL    HW2 3903   4.112   0.586   5.685
 1002SOL     OW 3904   6.840   1.146   0.331
 1002SOL    HW1 3905   6.819   1.084   0.407
 1002SOL    HW2 3906   6.830   1.241   0.361
 1003SOL     OW 3907   4.757   4.566   3.131
 1003SOL    HW1 3908   4.785   4.471   3.148
 1003SOL    HW2 3909   4.788   4.595   3.040
 1004SOL     OW 3910   5.707   5.521   0.634
 1004SOL    HW1 3911   5.702   5.620   0.623
 1004SOL    HW2 3912   5.614   5.484   0.644
 1005SOL     OW 3913   6.713   5.835   3.816
 1005SOL    HW1 3914   6.667   5.761   3.866
 1005SOL    HW2 3915   6.788   5.871   3.870
 1006SOL     OW 3916   2.371   4.255   1.194
 1006SOL    HW1 3917   2.399   4.187   1.126
 1006SOL    HW2 3918   2.291   4.222   1.244
 1007SOL     OW 3919   1.345   0.494   3.473
 1007SOL    HW1 3920   1.436   0.497   3.515
 1007SOL    HW2 3921   1.344   0.556   3.393
 1008SOL     OW 3922   2.850   2.274   4.231
 1008SOL    HW1 3923   2.862   2.266   4.330
 1008SOL    HW2 3924   2.783   2.345   4.211
 1009SOL     OW 3925   2.026   5.514   5.039
 1009SOL    HW1 3926   2.050   5.430   4.991
 1009SOL    HW2 3927   1.950   5.496   5.103
 1010SOL     OW 3928   3.983   0.997   6.651
 1010SOL    HW1 3929   4.068   0.959   6.614
 1010SOL    HW2 3930   3.931   1.039   6.577
 1011SOL     OW 3931   3.155   5.829   4.017
 1011SOL    HW1 3932   3.099   5.842   4.099
 1011SOL    HW2 3933   3.143   5.736   3.982
 1012SOL     OW 3934   4.367   5.889   0.008
 1012SOL    HW1 3935   4.407   5.952   0.074
 1012SOL    HW2 3936   4.393   5.916   6.938
 1013SOL     OW 3937   6.869   1.383   1.022
 1013SOL    HW1 3938   6.906   1.473   0.999
 1013SOL    HW2 3939   6.938   1.329   1.070
 1014SOL     OW 3940   5.231   0.770   6.625
 1014SOL    HW1 3941   5.257   0.809   6.537
 1014SOL    HW2 3942   5.200   0.676   6.611
 1015SOL     OW 3943   3.235   6.229   4.314
 1015SOL    HW1 3944   3.252   6.155   4.379
 1015SOL    HW2 3945   3.253   6.317   4.358
 1016SOL     OW 3946   4.821   2.552   1.672
 1016SOL    HW1 3947   4.735   2.572   1.719
 1016SOL    HW2 3948   4.838   2.622   1.603
 1017SOL     OW 3949   4.794   1.908   6.896
 1017SOL    HW1 3950   4.713   1.878   6.946
 1017SOL    HW2 3951   4.766   1.957   6.813
 1018SOL     OW 3952   1.610   2.892   1.986
 1018SOL    HW1 3953   1.582   2.988   1.977
 1018SOL    HW2 3954   1.640   2.875   2.080
 1019SOL     OW 3955   6.242   0.651   0.331
 1019SOL    HW1 3956   6.195   0.731   0.367
 1019SOL    HW2 3957   6.308   0.617   0.398
 1020SOL     OW 3958   3.493   2.078   1.167
 1020SOL    HW1 3959   3.501   1.978   1.170
 1020SOL    HW2 3960   3.512   2.116   1.257
 1021SOL     OW 3961   6.448   1.865   0.890
 1021SOL    HW1 3962   6.516   1.799   0.860
 1021SOL    HW2 3963   6.364   1.818   0.916
 1022SOL     OW 3964   3.624   2.616   6.878
 1022SOL    HW1 3965   3.666   2.557   6.947
 1022SOL    HW2 3966   3.680   2.616   6.795
 1023SOL     OW 3967   5.497   1.403   4.197
 1023SOL    HW1 3968   5.447   1.333   4.249
 1023SOL    HW2 3969   5.571   1.440   4.253
 1024SOL     OW 3970   6.234   1.492   3.578
 1024SOL    HW1 3971   6.313   1.514   3.635
 1024SOL    HW2 3972   6.202   1.400   3.600
 1025SOL     OW 3973   3.076   4.478   1.045
 1025SOL    HW1 3974   3.123   4.476   1.133
 1025SOL    HW2 3975   2.984   4.515   1.056
 1026SOL     OW 3976   0.733   2.973   6.661
 1026SOL    HW1 3977   0.694   3.060   6.633
 1026SOL    HW2 3978   0.792   2.986   6.741
 1027SOL     OW 3979   2.584   5.369   2.225
 1027SOL    HW1 3980   2.553   5.459   2.197
 1027SOL    HW2 3981   2.505   5.309   2.241
 1028SOL     OW 3982   1.295   5.999   0.868
 1028SOL    HW1 3983   1.329   6.080   0.820
 1028SOL    HW2 3984   1.272   5.929   0.801
 1029SOL     OW 3985   3.164   6.958   5.398
 1029SOL    HW1 3986   3.255   6.934   5.363
 1029SOL    HW2 3987   3.167   6.962   5.498
 1030SOL     OW 3988   3.436   4.198   5.204
 1030SOL    HW1 3989   3.336   4.192   5.201
 1030SOL    HW2 3990   3.475   4.120   5.156
 1031SOL     OW 3991   2.068   5.437   1.561
 1031SOL    HW1 3992   2.095   5.498   1.487
 1031SOL    HW2 3993   2.132   5.360   1.565
 1032SOL     OW 3994   1.870   0.964   4.559
 1032SOL    HW1 3995   1.958   0.985   4.601
 1032SOL    HW2 3996   1.868   1.002   4.466
 1033SOL     OW 3997   2.506   5.882   3.330
 1033SOL    HW1 3998   2.524   5.946   3.405
 1033SOL    HW2 3999   2.498   5.790   3.366
 1034SOL     OW 4000   1.575   6.588   2.836
 1034SOL    HW1 4001   1.622   6.544   2.913
 1034SOL    HW2 4002   1.476   6.574   2.845
 1035SOL     OW 4003   3.009   0.684   3.989
 1035SOL    HW1 4004   2.926   0.633   4.012
 1035SOL    HW2 4005   3.021   0.758   4.055
 1036SOL     OW 4006   4.148   0.141   6.381
 1036SOL    HW1 4007   4.206   0.079   6.328
 1036SOL    HW2 4008   4.077   0.087   6.428
 1037SOL     OW 4009   2.792   1.734   6.248
 1037SOL    HW1 4010   2.730   1.669   6.291
 1037SOL    HW2 4011   2.800   1.816   6.304
 1038SOL     OW 4012   3.067   1.318   4.718
 1038SOL    HW1 4013   3.099   1.409   4.743
 1038SOL    HW2 4014   2.967   1.316   4.721
 1039SOL     OW 4015   4.197   1.530   3.795
 1039SOL    HW1 4016   4.173   1.625   3.815
 1039SOL    HW2 4017   4.170   1.508   3.701
 1040SOL     OW 4018   6.130   3.275   4.046
 1040SOL    HW1 4019   6.062   3.344   4.074
 1040SOL    HW2 4020   6.202   3.269   4.115
 1041SOL     OW 4021   1.413   6.774   4.296
 1041SOL    HW1 4022   1.444   6.695   4.349
 1041SOL    HW2 4023   1.472   6.852   4.315
 1042SOL     OW 4024   4.781   3.809   1.120
 1042SOL    HW1 4025   4.854   3.831   1.185
 1042SOL    HW2 4026   4.692   3.828   1.161
 1043SOL     OW 4027   3.324   0.258   6.572
 1043SOL    HW1 4028   3.419   0.249   6.542
 1043SOL    HW2 4029   3.320   0.251   6.672
 1044SOL     OW 4030   3.615   4.196   1.969
 1044SOL    HW1 4031   3.660   4.246   2.043
 1044SOL    HW2 4032   3.613   4.254   1.887
 1045SOL     OW 4033   3.913   1.612   3.451
 1045SOL    HW1 4034   3.876   1.678   3.516
 1045SOL    HW2 4035   3.863   1.618   3.365
 1046SOL     OW 4036   4.064   1.297   2.380
 1046SOL    HW1 4037   4.112   1.216   2.346
 1046SOL    HW2 4038   4.033   1.281   2.473
 1047SOL     OW 4039   0.255   5.367   2.232
 1047SOL    HW1 4040   0.346   5.374   2.191
 1047SOL    HW2 4041   0.191   5.328   2.166
 1048SOL     OW 4042   6.403   4.649   5.018
 1048SOL    HW1 4043   6.321   4.597   4.994
 1048SOL    HW2 4044   6.383   4.711   5.094
 1049SOL     OW 4045   0.603   3.546   5.020
 1049SOL    HW1 4046   0.696   3.523   5.050
 1049SOL    HW2 4047   0.551   3.462   5.005
 1050SOL     OW 4048   3.451   0.503   0.085
 1050SOL    HW1 4049   3.514   0.450   0.029
 1050SOL    HW2 4050   3.389   0.441   0.133
 1051SOL     OW 4051   4.992   5.329   2.509
 1051SOL    HW1 4052   5.007   5.427   2.494
 1051SOL    HW2 4053   4.927   5.317   2.583
 1052SOL     OW 4054   3.514   6.961   3.963
 1052SOL    HW1 4055   3.488   0.015   4.023
 1052SOL    HW2 4056   3.490   6.983   3.869
 1053SOL     OW 4057   3.984   4.793   3.403
 1053SOL    HW1 4058   3.946   4.739   3.328
 1053SOL    HW2 4059   4.006   4.885   3.371
 1054SOL     OW 4060   3.797   6.023   4.467
 1054SOL    HW1 4061   3.731   5.990   4.399
 1054SOL    HW2 4062   3.889   6.021   4.428
 1055SOL     OW 4063   4.487   5.582   4.328
 1055SOL    HW1 4064   4.398   5.577   4.283
 1055SOL    HW2 4065   4.498   5.504   4.389
 1056SOL     OW 4066   1.606   5.865   5.654
 1056SOL    HW1 4067   1.552   5.781   5.659
 1056SOL    HW2 4068   1.685   5.851   5.595
 1057SOL     OW 4069   3.811   4.188   1.145
 1057SOL    HW1 4070   3.745   4.184   1.220
 1057SOL    HW2 4071   3.883   4.120   1.160
 1058SOL     OW 4072   3.347   0.208   1.565
 1058SOL    HW1 4073   3.249   0.227   1.559
 1058SOL    HW2 4074   3.374   0.147   1.490
 1059SOL     OW 4075   3.213   1.107   0.851
 1059SOL    HW1 4076   3.160   1.157   0.782
 1059SOL    HW2 4077   3.153   1.079   0.926
 1060SOL     OW 4078   2.548   2.170   4.498
 1060SOL    HW1 4079   2.497   2.222   4.430
 1060SOL    HW2 4080   2.485   2.133   4.566
 1061SOL     OW 4081   3.140   6.158   1.666
 1061SOL    HW1 4082   3.194   6.242   1.670
 1061SOL    HW2 4083   3.100   6.149   1.575
 1062SOL     OW 4084   4.899   4.257   5.408
 1062SOL    HW1 4085   4.815   4.250   5.354
 1062SOL    HW2 4086   4.889   4.331   5.474
 1063SOL     OW 4087   1.647   3.231   5.587
 1063SOL    HW1 4088   1.559   3.203   5.626
 1063SOL    HW2 4089   1.688   3.300   5.647
 1064SOL     OW 4090   0.318   3.729   1.574
 1064SOL    HW1 4091   0.357   3.820   1.562
 1064SOL    HW2 4092   0.229   3.724   1.529
 1065SOL     OW 4093   4.888   5.108   5.067
 1065SOL    HW1 4094   4.955   5.159   5.014
 1065SOL    HW2 4095   4.924   5.089   5.159
 1066SOL     OW 4096   4.269   0.294   3.765
 1066SOL    HW1 4097   4.273   0.312   3.667
 1066SOL    HW2 4098   4.340   0.229   3.791
 1067SOL     OW 4099   2.182   3.495   1.083
 1067SOL    HW1 4100   2.167   3.558   1.007
 1067SOL    HW2 4101   2.278   3.469   1.087
 1068SOL     OW 4102   0.566   4.313   0.816
 1068SOL    HW1 4103   0.548   4.406   0.849
 1068SOL    HW2 4104   0.547   4.247   0.889
 1069SOL     OW 4105   3.767   4.094   1.660
 1069SOL    HW1 4106   3.731   4.075   1.751
 1069SOL    HW2 4107   3.693   4.090   1.593
 1070SOL     OW 4108   1.905   0.340   0.556
 1070SOL    HW1 4109   1.939   0.274   0.623
 1070SOL    HW2 4110   1.978   0.404   0.532
 1071SOL     OW 4111   4.416   6.048   3.706
 1071SOL    HW1 4112   4.395   5.972   3.645
 1071SOL    HW2 4113   4.337   6.067   3.764
 1072SOL     OW 4114   3.751   5.537   3.003
 1072SOL    HW1 4115   3.778   5.496   2.916
 1072SOL    HW2 4116   3.701   5.621   2.987
 1073SOL     OW 4117   3.140   5.329   3.270
 1073SOL    HW1 4118   3.077   5.406   3.264
 1073SOL    HW2 4119   3.220   5.347   3.212
 1074SOL     OW 4120   1.762   5.121   1.968
 1074SOL    HW1 4121   1.694   5.055   2.000
 1074SOL    HW2 4122   1.846   5.072   1.944
 1075SOL     OW 4123   0.561   4.123   2.832
 1075SOL    HW1 4124   0.641   4.073   2.800
 1075SOL    HW2 4125   0.590   4.206   2.879
 1076SOL     OW 4126   0.139   4.242   2.794
 1076SOL    HW1 4127   0.108   4.152   2.763
 1076SOL    HW2 4128   0.071   4.311   2.770
 1077SOL     OW 4129   4.986   1.316   1.046
 1077SOL    HW1 4130   4.975   1.243   0.979
 1077SOL    HW2 4131   4.942   1.288   1.132
 1078SOL     OW 4132   1.002   3.298   1.316
 1078SOL    HW1 4133   1.097   3.316   1.341
 1078SOL    HW2 4134   0.946   3.376   1.344
 1079SOL     OW 4135   2.588   5.391   3.197
 1079SOL    HW1 4136   2.568   5.488   3.184
 1079SOL    HW2 4137   2.533   5.336   3.134
 1080SOL     OW 4138   1.491   5.794   4.227
 1080SOL    HW1 4139   1.523   5.824   4.316
 1080SOL    HW2 4140   1.425   5.860   4.191
 1081SOL     OW 4141   1.326   1.632   0.469
 1081SOL    HW1 4142   1.321   1.724   0.430
 1081SOL    HW2 4143   1.390   1.577   0.417
 1082SOL     OW 4144   2.349   6.601   0.364
 1082SOL    HW1 4145   2.331   6.624   0.459
 1082SOL    HW2 4146   2.262   6.584   0.317
 1083SOL     OW 4147   3.956   2.473   1.571
 1083SOL    HW1 4148   3.927   2.411   1.644
 1083SOL    HW2 4149   3.881   2.534   1.548
 1084SOL     OW 4150   6.550   3.592   0.205
 1084SOL    HW1 4151   6.500   3.524   0.260
 1084SOL    HW2 4152   6.645   3.564   0.196
 1085SOL     OW 4153   1.644   4.401   3.055
 1085SOL    HW1 4154   1.612   4.351   3.135
 1085SOL    HW2 4155   1.724   4.356   3.017
 1086SOL     OW 4156   4.486   5.077   2.374
 1086SOL    HW1 4157   4.408   5.114   2.323
 1086SOL    HW2 4158   4.519   4.994   2.329
 1087SOL     OW 4159   3.921   3.398   5.252
 1087SOL    HW1 4160   3.828   3.435   5.262
 1087SOL    HW2 4161   3.920   3.300   5.272
 1088SOL     OW 4162   6.006   4.655   3.265
 1088SOL    HW1 4163   6.058   4.631   3.183
 1088SOL    HW2 4164   5.909   4.668   3.241
 1089SOL     OW 4165   6.036   0.149   3.185
 1089SOL    HW1 4166   5.949   0.196   3.171
 1089SOL    HW2 4167   6.026   0.080   3.257
 1090SOL     OW 4168   1.426   1.956   5.562
 1090SOL    HW1 4169   1.399   1.941   5.658
 1090SOL    HW2 4170   1.412   2.052   5.538
 1091SOL     OW 4171   1.135   2.852   5.175
 1091SOL    HW1 4172   1.180   2.765   5.154
 1091SOL    HW2 4173   1.185   2.927   5.132
 1092SOL     OW 4174   1.957   4.533   1.070
 1092SOL    HW1 4175   1.865   4.537   1.031
 1092SOL    HW2 4176   1.954   4.484   1.157
 1093SOL     OW 4177   0.343   2.000   2.315
 1093SOL    HW1 4178   0.270   1.964   2.373
 1093SOL    HW2 4179   0.304   2.065   2.249
 1094SOL     OW 4180   0.732   6.187   2.228
 1094SOL    HW1 4181   0.749   6.159   2.133
 1094SOL    HW2 4182   0.789   6.132   2.289
 1095SOL     OW 4183   5.908   3.659   5.927
 1095SOL    HW1 4184   5.932   3.572   5.971
 1095SOL    HW2 4185   5.819   3.650   5.883
 1096SOL     OW 4186   3.365   4.219   1.763
 1096SOL    HW1 4187   3.420   4.147   1.804
 1096SOL    HW2 4188   3.416   4.305   1.764
 1097SOL     OW 4189   1.734   4.619   5.037
 1097SOL    HW1 4190   1.689   4.675   4.967
 1097SOL    HW2 4191   1.701   4.644   5.127
 1098SOL     OW 4192   4.386   1.002   3.109
 1098SOL    HW1 4193   4.422   0.930   3.169
 1098SOL    HW2 4194   4.449   1.018   3.034
 1099SOL     OW 4195   3.945   1.424   2.773
 1099SOL    HW1 4196   4.012   1.483   2.730
 1099SOL    HW2 4197   3.990   1.366   2.841
 1100SOL     OW 4198   0.231   0.627   0.294
 1100SOL    HW1 4199   0.228   0.683   0.376
 1100SOL    HW2 4200   0.291   0.549   0.308
 1101SOL     OW 4201   5.823   3.170   0.913
 1101SOL    HW1 4202   5.743   3.230   0.908
 1101SOL    HW2 4203   5.886   3.205   0.982
 1102SOL     OW 4204   0.262   4.199   3.879
 1102SOL    HW1 4205   0.283   4.288   3.918
 1102SOL    HW2 4206   0.177   4.204   3.827
 1103SOL     OW 4207   0.798   3.316   1.114
 1103SOL    HW1 4208   0.719   3.280   1.064
 1103SOL    HW2 4209   0.882   3.286   1.071
 1104SOL     OW 4210   2.789   5.531   5.933
 1104SOL    HW1 4211   2.703   5.534   5.984
 1104SOL    HW2 4212   2.773   5.562   5.839
 1105SOL     OW 4213   4.267   5.190   0.315
 1105SOL    HW1 4214   4.364   5.181   0.292
 1105SOL    HW2 4215   4.257   5.253   0.392
 1106SOL     OW 4216   1.393   0.868   5.738
 1106SOL    HW1 4217   1.345   0.790   5.698
 1106SOL    HW2 4218   1.350   0.953   5.707
 1107SOL     OW 4219   0.802   6.615   1.646
 1107SOL    HW1 4220   0.841   6.707   1.642
 1107SOL    HW2 4221   0.712   6.615   1.601
 1108SOL     OW 4222   1.227   1.024   6.455
 1108SOL    HW1 4223   1.221   1.057   6.361
 1108SOL    HW2 4224   1.288   1.084   6.507
 1109SOL     OW 4225   4.935   1.357   3.733
 1109SOL    HW1 4226   4.847   1.311   3.722
 1109SOL    HW2 4227   4.977   1.327   3.819
 1110SOL     OW 4228   3.487   2.821   1.819
 1110SOL    HW1 4229   3.509   2.737   1.769
 1110SOL    HW2 4230   3.566   2.883   1.816
 1111SOL     OW 4231   5.342   0.053   6.584
 1111SOL    HW1 4232   5.381   6.985   6.571
 1111SOL    HW2 4233   5.395   0.121   6.533
 1112SOL     OW 4234   0.719   1.345   3.179
 1112SOL    HW1 4235   0.677   1.258   3.205
 1112SOL    HW2 4236   0.807   1.355   3.227
 1113SOL     OW 4237   6.027   3.881   2.039
 1113SOL    HW1 4238   6.026   3.790   2.080
 1113SOL    HW2 4239   5.957   3.938   2.084
 1114SOL     OW 4240   6.050   1.443   5.656
 1114SOL    HW1 4241   5.988   1.521   5.667
 1114SOL    HW2 4242   6.138   1.465   5.698
 1115SOL     OW 4243   3.245   4.018   0.401
 1115SOL    HW1 4244   3.243   3.925   0.435
 1115SOL    HW2 4245   3.338   4.043   0.376
 1116SOL     OW 4246   3.879   6.108   6.093
 1116SOL    HW1 4247   3.832   6.030   6.132
 1116SOL    HW2 4248   3.929   6.157   6.165
 1117SOL     OW 4249   2.658   3.163   0.560
 1117SOL    HW1 4250   2.583   3.224   0.585
 1117SOL    HW2 4251   2.637   3.119   0.473
 1118SOL     OW 4252   1.459   3.411   2.715
 1118SOL    HW1 4253   1.486   3.356   2.794
 1118SOL    HW2 4254   1.509   3.379   2.634
 1119SOL     OW 4255   2.931   3.185   2.423
 1119SOL    HW1 4256   2.909   3.234   2.339
 1119SOL    HW2 4257   2.935   3.086   2.404
 1120SOL     OW 4258   5.059   0.719   4.796
 1120SOL    HW1 4259   5.120   0.704   4.875
 1120SOL    HW2 4260   5.054   0.635   4.742
 1121SOL     OW 4261   4.984   3.291   2.313
 1121SOL    HW1 4262   4.987   3.262   2.408
 1121SOL    HW2 4263   4.931   3.375   2.305
 1122SOL     OW 4264   4.558   5.219   0.513
 1122SOL    HW1 4265   4.565   5.189   0.417
 1122SOL    HW2 4266   4.557   5.139   0.573
 1123SOL     OW 4267   3.876   0.783   2.038
 1123SOL    HW1 4268   3.936   0.793   2.117
 1123SOL    HW2 4269   3.922   0.729   1.968
 1124SOL     OW 4270   0.658   4.848   4.950
 1124SOL    HW1 4271   0.623   4.755   4.942
 1124SOL    HW2 4272   0.753   4.851   4.920
 1125SOL     OW 4273   3.524   3.404   4.705
 1125SOL    HW1 4274   3.519   3.345   4.625
 1125SOL    HW2 4275   3.573   3.357   4.778
 1126SOL     OW 4276   6.249   6.982   2.576
 1126SOL    HW1 4277   6.235   6.904   2.515
 1126SOL    HW2 4278   6.239   6.953   2.671
 1127SOL     OW 4279   1.242   5.187   6.465
 1127SOL    HW1 4280   1.200   5.116   6.409
 1127SOL    HW2 4281   1.319   5.148   6.516
 1128SOL     OW 4282   2.522   1.712   3.865
 1128SOL    HW1 4283   2.483   1.685   3.953
 1128SOL    HW2 4284   2.621   1.703   3.868
 1129SOL     OW 4285   5.107   0.126   6.446
 1129SOL    HW1 4286   5.194   0.109   6.491
 1129SOL    HW2 4287   5.061   0.204   6.490
 1130SOL     OW 4288   6.831   5.050   5.934
 1130SOL    HW1 4289   6.822   4.951   5.925
 1130SOL    HW2 4290   6.743   5.094   5.919
 1131SOL     OW 4291   0.453   5.427   5.642
 1131SOL    HW1 4292   0.476   5.450   5.547
 1131SOL    HW2 4293   0.405   5.340   5.645
 1132SOL     OW 4294   4.889   0.647   5.022
 1132SOL    HW1 4295   4.939   0.642   4.936
 1132SOL    HW2 4296   4.895   0.560   5.070
 1133SOL     OW 4297   0.167   2.454   0.724
 1133SOL    HW1 4298   0.235   2.391   0.760
 1133SOL    HW2 4299   0.213   2.529   0.677
 1134SOL     OW 4300   6.603   2.385   6.128
 1134SOL    HW1 4301   6.699   2.383   6.156
 1134SOL    HW2 4302   6.558   2.465   6.170
 1135SOL     OW 4303   5.637   1.763   3.609
 1135SOL    HW1 4304   5.652   1.858   3.582
 1135SOL    HW2 4305   5.556   1.758   3.668
 1136SOL     OW 4306   3.856   5.494   4.294
 1136SOL    HW1 4307   3.822   5.486   4.388
 1136SOL    HW2 4308   3.913   5.414   4.273
 1137SOL     OW 4309   1.505   0.750   5.944
 1137SOL    HW1 4310   1.512   0.813   6.021
 1137SOL    HW2 4311   1.459   0.795   5.867
 1138SOL     OW 4312   0.314   4.485   5.572
 1138SOL    HW1 4313   0.216   4.479   5.586
 1138SOL    HW2 4314   0.333   4.504   5.476
 1139SOL     OW 4315   0.804   6.183   1.496
 1139SOL    HW1 4316   0.710   6.202   1.465
 1139SOL    HW2 4317   0.869   6.230   1.437
 1140SOL     OW 4318   3.753   1.638   3.766
 1140SOL    HW1 4319   3.722   1.676   3.853
 1140SOL    HW2 4320   3.793   1.711   3.710
 1141SOL     OW 4321   6.605   5.823   5.819
 1141SOL    HW1 4322   6.643   5.776   5.740
 1141SOL    HW2 4323   6.640   5.917   5.821
 1142SOL     OW 4324   5.856   1.117   4.201
 1142SOL    HW1 4325   5.827   1.042   4.140
 1142SOL    HW2 4326   5.826   1.204   4.162
 1143SOL     OW 4327   4.078   2.079   2.528
 1143SOL    HW1 4328   3.983   2.106   2.514
 1143SOL    HW2 4329   4.136   2.160   2.529
 1144SOL     OW 4330   1.607   6.859   5.648
 1144SOL    HW1 4331   1.571   6.952   5.645
 1144SOL    HW2 4332   1.706   6.861   5.643
 1145SOL     OW 4333   1.703   4.924   5.072
 1145SOL    HW1 4334   1.630   4.960   5.014
 1145SOL    HW2 4335   1.791   4.960   5.040
 1146SOL     OW 4336   6.261   2.296   0.918
 1146SOL    HW1 4337   6.210   2.224   0.870
 1146SOL    HW2 4338   6.344   2.318   0.867
 1147SOL     OW 4339   6.593   2.859   1.870
 1147SOL    HW1 4340   6.648   2.833   1.791
 1147SOL    HW2 4341   6.503   2.816   1.864
 1148SOL     OW 4342   4.598   0.660   6.900
 1148SOL    HW1 4343   4.679   0.609   6.870
 1148SOL    HW2 4344   4.516   0.611   6.871
 1149SOL     OW 4345   6.926   2.710   2.812
 1149SOL    HW1 4346   6.940   2.761   2.728
 1149SOL    HW2 4347   7.015   2.686   2.852
 1150SOL     OW 4348   1.145   4.984   5.686
 1150SOL    HW1 4349   1.062   4.963   5.737
 1150SOL    HW2 4350   1.167   4.908   5.625
 1151SOL     OW 4351   4.503   5.637   0.008
 1151SOL    HW1 4352   4.500   5.601   6.937
 1151SOL    HW2 4353   4.463   5.728   0.010
 1152SOL     OW 4354   0.302   0.992   4.474
 1152SOL    HW1 4355   0.355   0.910   4.453
 1152SOL    HW2 4356   0.212   0.965   4.509
 1153SOL     OW 4357   2.527   4.972   2.524
 1153SOL    HW1 4358   2.574   5.054   2.493
 1153SOL    HW2 4359   2.569   4.892   2.483
 1154SOL     OW 4360   1.628   4.064   1.876
 1154SOL    HW1 4361   1.597   4.158   1.886
 1154SOL    HW2 4362   1.632   4.040   1.779
 1155SOL     OW 4363   3.966   6.282   2.227
 1155SOL    HW1 4364   3.971   6.278   2.326
 1155SOL    HW2 4365   3.982   6.191   2.188
 1156SOL     OW 4366   1.609   1.102   4.330
 1156SOL    HW1 4367   1.528   1.123   4.276
 1156SOL    HW2 4368   1.588   1.032   4.397
 1157SOL     OW 4369   0.656   3.039   4.478
 1157SOL    HW1 4370   0.557   3.041   4.469
 1157SOL    HW2 4371   0.683   2.956   4.527
 1158SOL     OW 4372   4.614   5.739   6.295
 1158SOL    HW1 4373   4.609   5.811   6.364
 1158SOL    HW2 4374   4.692   5.757   6.234
 1159SOL     OW 4375   5.098   5.405   3.133
 1159SOL    HW1 4376   5.144   5.493   3.119
 1159SOL    HW2 4377   5.155   5.345   3.189
 1160SOL     OW 4378   2.403   2.766   0.548
 1160SOL    HW1 4379   2.471   2.814   0.605
 1160SOL    HW2 4380   2.357   2.696   0.603
 1161SOL     OW 4381   4.112   0.420   4.603
 1161SOL    HW1 4382   4.108   0.388   4.508
 1161SOL    HW2 4383   4.045   0.370   4.657
 1162SOL     OW 4384   3.925   4.717   1.762
 1162SOL    HW1 4385   3.970   4.632   1.734
 1162SOL    HW2 4386   3.964   4.750   1.848
 1163SOL     OW 4387   4.837   1.798   2.286
 1163SOL    HW1 4388   4.769   1.726   2.300
 1163SOL    HW2 4389   4.800   1.869   2.227
 1164SOL     OW 4390   5.527   3.310   3.906
 1164SOL    HW1 4391   5.550   3.362   3.988
 1164SOL    HW2 4392   5.482   3.370   3.839
 1165SOL     OW 4393   1.469   4.559   2.006
 1165SOL    HW1 4394   1.432   4.597   2.091
 1165SOL    HW2 4395   1.538   4.621   1.969
 1166SOL     OW 4396   3.754   2.570   6.588
 1166SOL    HW1 4397   3.765   2.473   6.610
 1166SOL    HW2 4398   3.829   2.599   6.528
 1167SOL     OW 4399   4.541   1.833   4.924
 1167SOL    HW1 4400   4.555   1.889   5.006
 1167SOL    HW2 4401   4.595   1.870   4.849
 1168SOL     OW 4402   6.355   6.467   3.845
 1168SOL    HW1 4403   6.414   6.509   3.777
 1168SOL    HW2 4404   6.265   6.510   3.841
 1169SOL     OW 4405   0.875   4.307   1.342
 1169SOL    HW1 4406   0.967   4.342   1.363
 1169SOL    HW2 4407   0.867   4.213   1.376
 1170SOL     OW 4408   2.847   0.758   0.798
 1170SOL    HW1 4409   2.825   0.855   0.794
 1170SOL    HW2 4410   2.839   0.726   0.892
 1171SOL     OW 4411   2.679   0.356   0.492
 1171SOL    HW1 4412   2.667   0.308   0.579
 1171SOL    HW2 4413   2.771   0.340   0.458
 1172SOL     OW 4414   3.166   3.175   4.776
 1172SOL    HW1 4415   3.157   3.122   4.860
 1172SOL    HW2 4416   3.204   3.265   4.797
 1173SOL     OW 4417   5.299   0.625   6.125
 1173SOL    HW1 4418   5.383   0.664   6.163
 1173SOL    HW2 4419   5.311   0.608   6.027
 1174SOL     OW 4420   3.622   6.592   0.986
 1174SOL    HW1 4421   3.571   6.641   0.916
 1174SOL    HW2 4422   3.670   6.659   1.044
 1175SOL     OW 4423   6.697   5.268   4.813
 1175SOL    HW1 4424   6.653   5.192   4.860
 1175SOL    HW2 4425   6.629   5.338   4.792
 1176SOL     OW 4426   6.359   3.851   0.720
 1176SOL    HW1 4427   6.323   3.935   0.761
 1176SOL    HW2 4428   6.303   3.774   0.749
 1177SOL     OW 4429   6.329   3.433   0.069
 1177SOL    HW1 4430   6.398   3.501   0.043
 1177SOL    HW2 4431   6.238   3.473   0.058
 1178SOL     OW 4432   5.329   4.125   1.742
 1178SOL    HW1 4433   5.280   4.192   1.798
 1178SOL    HW2 4434   5.310   4.033   1.777
 1179SOL     OW 4435   2.107   5.493   6.258
 1179SOL    HW1 4436   2.198   5.454   6.242
 1179SOL    HW2 4437   2.046   5.423   6.293
 1180SOL     OW 4438   2.072   1.059   3.698
 1180SOL    HW1 4439   2.125   1.140   3.671
 1180SOL    HW2 4440   2.075   1.049   3.797
 1181SOL     OW 4441   1.911   4.088   2.732
 1181SOL    HW1 4442   1.995   4.056   2.687
 1181SOL    HW2 4443   1.847   4.122   2.663
 1182SOL     OW 4444   0.993   3.710   2.933
 1182SOL    HW1 4445   1.086   3.687   2.905
 1182SOL    HW2 4446   0.939   3.735   2.852
 1183SOL     OW 4447   4.239   5.435   0.501
 1183SOL    HW1 4448   4.220   5.477   0.590
 1183SOL    HW2 4449   4.223   5.503   0.429
 1184SOL     OW 4450   2.874   3.070   5.846
 1184SOL    HW1 4451   2.809   3.062   5.771
 1184SOL    HW2 4452   2.843   3.140   5.910
 1185SOL     OW 4453   2.680   1.787   0.437
 1185SOL    HW1 4454   2.726   1.699   0.428
 1185SOL    HW2 4455   2.585   1.773   0.464
 1186SOL     OW 4456   3.939   1.304   5.487
 1186SOL    HW1 4457   3.849   1.337   5.514
 1186SOL    HW2 4458   3.929   1.229   5.422
 1187SOL     OW 4459   0.713   0.908   5.397
 1187SOL    HW1 4460   0.716   0.941   5.491
 1187SOL    HW2 4461   0.741   0.812   5.393
 1188SOL     OW 4462   1.580   6.892   5.225
 1188SOL    HW1 4463   1.660   6.905   5.284
 1188SOL    HW2 4464   1.547   6.981   5.194
 1189SOL     OW 4465   6.662   0.813   0.900
 1189SOL    HW1 4466   6.606   0.732   0.919
 1189SOL    HW2 4467   6.723   0.793   0.824
 1190SOL     OW 4468   4.163   4.652   3.143
 1190SOL    HW1 4469   4.071   4.614   3.128
 1190SOL    HW2 4470   4.165   4.747   3.111
 1191SOL     OW 4471   2.853   5.215   0.837
 1191SOL    HW1 4472   2.947   5.196   0.810
 1191SOL    HW2 4473   2.849   5.232   0.936
 1192SOL     OW 4474   4.625   5.491   2.133
 1192SOL    HW1 4475   4.613   5.587   2.158
 1192SOL    HW2 4476   4.590   5.433   2.206
 1193SOL     OW 4477   3.824   0.034   4.085
 1193SOL    HW1 4478   3.754   0.105   4.083
 1193SOL    HW2 4479   3.902   0.062   4.029
 1194SOL     OW 4480   6.327   0.765   1.510
 1194SOL    HW1 4481   6.426   0.752   1.506
 1194SOL    HW2 4482   6.298   0.817   1.429
 1195SOL     OW 4483   3.160   6.477   0.070
 1195SOL    HW1 4484   3.213   6.410   0.019
 1195SOL    HW2 4485   3.106   6.532   0.006
 1196SOL     OW 4486   0.482   5.464   3.042
 1196SOL    HW1 4487   0.577   5.436   3.061
 1196SOL    HW2 4488   0.479   5.511   2.953
 1197SOL     OW 4489   3.288   5.132   6.307
 1197SOL    HW1 4490   3.297   5.147   6.406
 1197SOL    HW2 4491   3.371   5.162   6.261
 1198SOL     OW 4492   3.410   1.415   2.456
 1198SOL    HW1 4493   3.331   1.433   2.398
 1198SOL    HW2 4494   3.490   1.463   2.418
 1199SOL     OW 4495   2.904   3.711   3.281
 1199SOL    HW1 4496   2.824   3.763   3.252
 1199SOL    HW2 4497   2.944   3.664   3.202
 1200SOL     OW 4498   3.791   3.354   0.668
 1200SOL    HW1 4499   3.834   3.366   0.758
 1200SOL    HW2 4500   3.803   3.259   0.639
 1201SOL     OW 4501   1.246   0.794   4.544
 1201SOL    HW1 4502   1.160   0.822   4.588
 1201SOL    HW2 4503   1.279   0.710   4.585
 1202SOL     OW 4504   5.459   0.233   4.724
 1202SOL    HW1 4505   5.504   0.165   4.666
 1202SOL    HW2 4506   5.527   0.276   4.783
 1203SOL     OW 4507   6.139   6.622   1.765
 1203SOL    HW1 4508   6.137   6.716   1.800
 1203SOL    HW2 4509   6.220   6.575   1.801
 1204SOL     OW 4510   2.281   6.767   6.771
 1204SOL    HW1 4511   2.342   6.845   6.758
 1204SOL    HW2 4512   2.240   6.742   6.683
 1205SOL     OW 4513   0.900   2.172   5.075
 1205SOL    HW1 4514   0.874   2.268   5.071
 1205SOL    HW2 4515   0.900   2.134   4.982
 1206SOL     OW 4516   0.685   1.343   4.427
 1206SOL    HW1 4517   0.655   1.438   4.423
 1206SOL    HW2 4518   0.612   1.287   4.467
 1207SOL     OW 4519   5.944   6.173   6.517
 1207SOL    HW1 4520   5.932   6.133   6.426
 1207SOL    HW2 4521   6.036   6.210   6.525
 1208SOL     OW 4522   3.372   4.169   3.292
 1208SOL    HW1 4523   3.317   4.253   3.290
 1208SOL    HW2 4524   3.313   4.090   3.275
 1209SOL     OW 4525   6.612   4.247   5.078
 1209SOL    HW1 4526   6.599   4.148   5.066
 1209SOL    HW2 4527   6.628   4.290   4.990
 1210SOL     OW 4528   3.112   6.872   2.050
 1210SOL    HW1 4529   3.206   6.867   2.017
 1210SOL    HW2 4530   3.103   6.950   2.112
 1211SOL     OW 4531   1.382   2.945   3.460
 1211SOL    HW1 4532   1.321   2.871   3.490
 1211SOL    HW2 4533   1.404   3.003   3.539
 1212SOL     OW 4534   1.742   3.587   3.855
 1212SOL    HW1 4535   1.731   3.579   3.954
 1212SOL    HW2 4536   1.764   3.498   3.816
 1213SOL     OW 4537   5.777   2.374   5.292
 1213SOL    HW1 4538   5.728   2.461   5.283
 1213SOL    HW2 4539   5.875   2.391   5.290
 1214SOL     OW 4540   1.727   2.363   2.609
 1214SOL    HW1 4541   1.797   2.417   2.562
 1214SOL    HW2 4542   1.694   2.291   2.548
 1215SOL     OW 4543   7.006   5.040   2.382
 1215SOL    HW1 4544   6.959   5.028   2.295
 1215SOL    HW2 4545   6.996   5.134   2.413
 1216SOL     OW 4546   2.709   0.561   1.592
 1216SOL    HW1 4547   2.732   0.530   1.684
 1216SOL    HW2 4548   2.643   0.636   1.597
 1217SOL     OW 4549   2.010   1.277   2.800
 1217SOL    HW1 4550   1.915   1.252   2.818
 1217SOL    HW2 4551   2.071   1.215   2.849
 1218SOL     OW 4552   0.361   3.310   3.592
 1218SOL    HW1 4553   0.381   3.261   3.677
 1218SOL    HW2 4554   0.438   3.300   3.529
 1219SOL     OW 4555   2.637   5.874   3.748
 1219SOL    HW1 4556   2.583   5.937   3.805
 1219SOL    HW2 4557   2.723   5.918   3.723
 1220SOL     OW 4558   5.999   4.366   3.001
 1220SOL    HW1 4559   5.902   4.363   3.026
 1220SOL    HW2 4560   6.027   4.461   2.987
 1221SOL     OW 4561   4.820   4.019   5.966
 1221SOL    HW1 4562   4.917   3.999   5.951
 1221SOL    HW2 4563   4.768   3.995   5.885
 1222SOL     OW 4564   5.396   4.972   1.787
 1222SOL    HW1 4565   5.487   4.979   1.745
 1222SOL    HW2 4566   5.360   5.064   1.805
 1223SOL     OW 4567   6.012   4.887   4.885
 1223SOL    HW1 4568   6.005   4.825   4.808
 1223SOL    HW2 4569   6.082   4.956   4.866
 1224SOL     OW 4570   4.882   5.239   1.824
 1224SOL    HW1 4571   4.912   5.212   1.916
 1224SOL    HW2 4572   4.855   5.157   1.773
 1225SOL     OW 4573   4.096   1.231   6.774
 1225SOL    HW1 4574   4.072   1.157   6.711
 1225SOL    HW2 4575   4.178   1.205   6.825
 1226SOL     OW 4576   5.424   5.027   1.151
 1226SOL    HW1 4577   5.435   5.110   1.206
 1226SOL    HW2 4578   5.344   5.036   1.092
 1227SOL     OW 4579   4.787   4.416   6.952
 1227SOL    HW1 4580   4.759   4.382   0.020
 1227SOL    HW2 4581   4.886   4.423   6.948
 1228SOL     OW 4582   3.702   4.018   4.531
 1228SOL    HW1 4583   3.739   3.945   4.474
 1228SOL    HW2 4584   3.619   4.054   4.489
 1229SOL     OW 4585   2.616   6.121   2.615
 1229SOL    HW1 4586   2.662   6.176   2.545
 1229SOL    HW2 4587   2.669   6.038   2.633
 1230SOL     OW 4588   5.643   5.005   1.677
 1230SOL    HW1 4589   5.720   4.963   1.725
 1230SOL    HW2 4590   5.667   5.019   1.581
 1231SOL     OW 4591   2.045   1.812   6.215
 1231SOL    HW1 4592   2.027   1.714   6.209
 1231SOL    HW2 4593   2.114   1.829   6.286
 1232SOL     OW 4594   2.952   0.925   5.151
 1232SOL    HW1 4595   3.022   0.995   5.167
 1232SOL    HW2 4596   2.873   0.967   5.105
 1233SOL     OW 4597   0.156   5.979   5.101
 1233SOL    HW1 4598   0.133   5.901   5.158
 1233SOL    HW2 4599   0.197   6.051   5.159
 1234SOL     OW 4600   5.947   4.274   6.813
 1234SOL    HW1 4601   5.927   4.230   6.726
 1234SOL    HW2 4602   5.996   4.360   6.797
 1235SOL     OW 4603   6.453   4.772   1.123
 1235SOL    HW1 4604   6.500   4.777   1.211
 1235SOL    HW2 4605   6.355   4.758   1.139
 1236SOL     OW 4606   1.578   1.243   2.045
 1236SOL    HW1 4607   1.580   1.198   1.956
 1236SOL    HW2 4608   1.497   1.213   2.096
 1237SOL     OW 4609   0.676   6.844   4.817
 1237SOL    HW1 4610   0.753   6.780   4.816
 1237SOL    HW2 4611   0.591   6.794   4.801
 1238SOL     OW 4612   0.813   0.884   4.815
 1238SOL    HW1 4613   0.772   0.822   4.882
 1238SOL    HW2 4614   0.749   0.958   4.796
 1239SOL     OW 4615   5.327   5.089   3.632
 1239SOL    HW1 4616   5.290   5.039   3.710
 1239SOL    HW2 4617   5.272   5.170   3.615
 1240SOL     OW 4618   0.885   3.561   1.440
 1240SOL    HW1 4619   0.912   3.503   1.517
 1240SOL    HW2 4620   0.914   3.655   1.457
 1241SOL     OW 4621   3.813   4.972   5.635
 1241SOL    HW1 4622   3.836   4.942   5.543
 1241SOL    HW2 4623   3.714   4.984   5.642
 1242SOL     OW 4624   2.411   4.514   1.134
 1242SOL    HW1 4625   2.391   4.426   1.178
 1242SOL    HW2 4626   2.483   4.502   1.066
 1243SOL     OW 4627   1.083   3.334   3.380
 1243SOL    HW1 4628   1.034   3.399   3.439
 1243SOL    HW2 4629   1.112   3.381   3.297
 1244SOL     OW 4630   6.451   0.192   5.406
 1244SOL    HW1 4631   6.484   0.243   5.327
 1244SOL    HW2 4632   6.378   0.243   5.451
 1245SOL     OW 4633   4.828   6.486   0.870
 1245SOL    HW1 4634   4.792   6.509   0.960
 1245SOL    HW2 4635   4.824   6.387   0.857
 1246SOL     OW 4636   5.073   1.572   1.227
 1246SOL    HW1 4637   4.975   1.551   1.235
 1246SOL    HW2 4638   5.096   1.585   1.131
 1247SOL     OW 4639   6.531   6.890   3.452
 1247SOL    HW1 4640   6.470   6.841   3.514
 1247SOL    HW2 4641   6.478   6.933   3.379
 1248SOL     OW 4642   1.247   6.401   4.291
 1248SOL    HW1 4643   1.167   6.345   4.310
 1248SOL    HW2 4644   1.233   6.494   4.325
 1249SOL     OW 4645   5.826   5.647   6.651
 1249SOL    HW1 4646   5.897   5.703   6.695
 1249SOL    HW2 4647   5.864   5.559   6.626
 1250SOL     OW 4648   0.277   3.789   5.337
 1250SOL    HW1 4649   0.239   3.838   5.415
 1250SOL    HW2 4650   0.353   3.731   5.367
 1251SOL     OW 4651   3.076   0.456   2.489
 1251SOL    HW1 4652   2.980   0.479   2.503
 1251SOL    HW2 4653   3.130   0.539   2.483
 1252SOL     OW 4654   2.198   5.105   6.658
 1252SOL    HW1 4655   2.184   5.041   6.582
 1252SOL    HW2 4656   2.178   5.059   6.744
 1253SOL     OW 4657   3.060   6.776   0.096
 1253SOL    HW1 4658   2.988   6.774   0.026
 1253SOL    HW2 4659   3.020   6.764   0.186
 1254SOL     OW 4660   6.155   1.265   2.974
 1254SOL    HW1 4661   6.142   1.292   3.069
 1254SOL    HW2 4662   6.230   1.199   2.967
 1255SOL     OW 4663   6.019   1.182   5.626
 1255SOL    HW1 4664   5.959   1.144   5.555
 1255SOL    HW2 4665   6.033   1.280   5.609
 1256SOL     OW 4666   0.120   5.592   4.784
 1256SOL    HW1 4667   0.167   5.679   4.799
 1256SOL    HW2 4668   0.179   5.533   4.728
 1257SOL     OW 4669   0.326   6.426   3.049
 1257SOL    HW1 4670   0.337   6.327   3.041
 1257SOL    HW2 4671   0.296   6.449   3.142
 1258SOL     OW 4672   4.626   6.191   6.192
 1258SOL    HW1 4673   4.688   6.154   6.261
 1258SOL    HW2 4674   4.659   6.281   6.162
 1259SOL     OW 4675   5.253   0.626   5.542
 1259SOL    HW1 4676   5.177   0.690   5.533
 1259SOL    HW2 4677   5.337   0.668   5.508
 1260SOL     OW 4678   2.898   1.450   1.318
 1260SOL    HW1 4679   2.926   1.387   1.390
 1260SOL    HW2 4680   2.805   1.484   1.336
 1261SOL     OW 4681   6.964   4.881   4.687
 1261SOL    HW1 4682   0.006   4.957   4.676
 1261SOL    HW2 4683   6.956   4.858   4.785
 1262SOL     OW 4684   3.968   5.575   1.417
 1262SOL    HW1 4685   3.888   5.521   1.391
 1262SOL    HW2 4686   3.982   5.649   1.351
 1263SOL     OW 4687   6.455   2.536   1.064
 1263SOL    HW1 4688   6.421   2.464   1.005
 1263SOL    HW2 4689   6.550   2.517   1.089
 1264SOL     OW 4690   6.660   2.600   4.197
 1264SOL    HW1 4691   6.667   2.563   4.290
 1264SOL    HW2 4692   6.604   2.538   4.142
 1265SOL     OW 4693   6.522   6.165   4.992
 1265SOL    HW1 4694   6.441   6.134   4.943
 1265SOL    HW2 4695   6.540   6.103   5.068
 1266SOL     OW 4696   2.614   0.826   4.237
 1266SOL    HW1 4697   2.589   0.808   4.332
 1266SOL    HW2 4698   2.584   0.749   4.180
 1267SOL     OW 4699   7.007   4.728   2.932
 1267SOL    HW1 4700   6.949   4.690   3.004
 1267SOL    HW2 4701   0.075   4.685   2.934
 1268SOL     OW 4702   5.871   3.853   6.839
 1268SOL    HW1 4703   5.847   3.912   6.762
 1268SOL    HW2 4704   5.944   3.896   6.893
 1269SOL     OW 4705   6.745   5.090   6.388
 1269SOL    HW1 4706   6.758   4.993   6.368
 1269SOL    HW2 4707   6.674   5.101   6.458
 1270SOL     OW 4708   1.671   2.127   5.046
 1270SOL    HW1 4709   1.702   2.185   4.972
 1270SOL    HW2 4710   1.623   2.047   5.009
 1271SOL     OW 4711   4.928   2.421   3.215
 1271SOL    HW1 4712   4.944   2.471   3.301
 1271SOL    HW2 4713   5.006   2.433   3.154
 1272SOL     OW 4714   6.878   6.893   1.745
 1272SOL    HW1 4715   6.778   6.894   1.736
 1272SOL    HW2 4716   6.918   6.962   1.685
 1273SOL     OW 4717   2.227   6.293   6.417
 1273SOL    HW1 4718   2.325   6.273   6.412
 1273SOL    HW2 4719   2.188   6.246   6.496
 1274SOL     OW 4720   5.635   2.824   1.135
 1274SOL    HW1 4721   5.630   2.871   1.224
 1274SOL    HW2 4722   5.658   2.728   1.150
 1275SOL     OW 4723   3.729   1.786   4.031
 1275SOL    HW1 4724   3.781   1.868   4.007
 1275SOL    HW2 4725   3.788   1.722   4.081
 1276SOL     OW 4726   6.031   0.270   3.539
 1276SOL    HW1 4727   6.028   0.364   3.573
 1276SOL    HW2 4728   6.110   0.259   3.479
 1277SOL     OW 4729   0.392   1.220   5.265
 1277SOL    HW1 4730   0.381   1.158   5.342
 1277SOL    HW2 4731   0.323   1.292   5.269
 1278SOL     OW 4732   3.101   2.079   5.353
 1278SOL    HW1 4733   3.143   2.169   5.366
 1278SOL    HW2 4734   3.082   2.039   5.442
 1279SOL     OW 4735   2.525   4.887   0.611
 1279SOL    HW1 4736   2.451   4.846   0.665
 1279SOL    HW2 4737   2.548   4.976   0.650
 1280SOL     OW 4738   1.780   6.131   3.292
 1280SOL    HW1 4739   1.818   6.208   3.241
 1280SOL    HW2 4740   1.854   6.072   3.324
 1281SOL     OW 4741   0.808   6.860   3.973
 1281SOL    HW1 4742   0.883   6.806   4.012
 1281SOL    HW2 4743   0.815   6.859   3.873
 1282SOL     OW 4744   1.291   0.133   1.989
 1282SOL    HW1 4745   1.287   0.146   1.890
 1282SOL    HW2 4746   1.367   0.073   2.013
 1283SOL     OW 4747   5.232   4.551   5.098
 1283SOL    HW1 4748   5.312   4.492   5.088
 1283SOL    HW2 4749   5.155   4.497   5.133
 1284SOL     OW 4750   2.534   1.916   3.028
 1284SOL    HW1 4751   2.582   1.967   3.099
 1284SOL    HW2 4752   2.437   1.939   3.031
 1285SOL     OW 4753   5.683   2.566   5.686
 1285SOL    HW1 4754   5.782   2.557   5.682
 1285SOL    HW2 4755   5.655   2.587   5.779
 1286SOL     OW 4756   6.029   5.941   1.608
 1286SOL    HW1 4757   6.021   5.983   1.517
 1286SOL    HW2 4758   6.000   5.846   1.604
 1287SOL     OW 4759   5.919   4.979   6.122
 1287SOL    HW1 4760   5.912   4.879   6.114
 1287SOL    HW2 4761   5.904   5.005   6.218
 1288SOL     OW 4762   6.662   2.648   2.821
 1288SOL    HW1 4763   6.684   2.559   2.861
 1288SOL    HW2 4764   6.746   2.702   2.813
 1289SOL     OW 4765   6.671   5.856   2.893
 1289SOL    HW1 4766   6.642   5.766   2.927
 1289SOL    HW2 4767   6.771   5.859   2.888
 1290SOL     OW 4768   0.540   6.631   1.545
 1290SOL    HW1 4769   0.517   6.605   1.451
 1290SOL    HW2 4770   0.470   6.693   1.580
 1291SOL     OW 4771   2.036   0.189   0.736
 1291SOL    HW1 4772   1.985   0.144   0.810
 1291SOL    HW2 4773   2.110   0.129   0.706
 1292SOL     OW 4774   1.145   6.162   6.774
 1292SOL    HW1 4775   1.185   6.119   6.693
 1292SOL    HW2 4776   1.160   6.261   6.769
 1293SOL     OW 4777   6.882   2.598   5.800
 1293SOL    HW1 4778   6.927   2.516   5.832
 1293SOL    HW2 4779   6.818   2.632   5.869
 1294SOL     OW 4780   6.993   1.705   3.004
 1294SOL    HW1 4781   0.045   1.751   3.051
 1294SOL    HW2 4782   0.002   1.615   2.972
 1295SOL     OW 4783   5.598   3.346   2.132
 1295SOL    HW1 4784   5.654   3.266   2.150
 1295SOL    HW2 4785   5.559   3.340   2.040
 1296SOL     OW 4786   3.548   2.561   6.391
 1296SOL    HW1 4787   3.609   2.544   6.468
 1296SOL    HW2 4788   3.550   2.658   6.368
 1297SOL     OW 4789   6.463   1.457   6.732
 1297SOL    HW1 4790   6.537   1.419   6.675
 1297SOL    HW2 4791   6.421   1.383   6.785
 1298SOL     OW 4792   5.962   2.973   3.403
 1298SOL    HW1 4793   6.042   3.030   3.421
 1298SOL    HW2 4794   5.989   2.877   3.401
 1299SOL     OW 4795   1.057   3.967   4.111
 1299SOL    HW1 4796   1.140   3.931   4.068
 1299SOL    HW2 4797   1.037   4.057   4.073
 1300SOL     OW 4798   2.908   3.157   1.257
 1300SOL    HW1 4799   2.971   3.181   1.183
 1300SOL    HW2 4800   2.899   3.058   1.262
 1301SOL     OW 4801   0.949   0.534   3.115
 1301SOL    HW1 4802   1.041   0.507   3.086
 1301SOL    HW2 4803   0.933   0.629   3.089
 1302SOL     OW 4804   2.410   5.536   5.366
 1302SOL    HW1 4805   2.328   5.552   5.421
 1302SOL    HW2 4806   2.484   5.505   5.425
 1303SOL     OW 4807   3.810   0.974   1.338
 1303SOL    HW1 4808   3.877   0.901   1.328
 1303SOL    HW2 4809   3.757   0.960   1.422
 1304SOL     OW 4810   3.098   0.602   6.117
 1304SOL    HW1 4811   3.089   0.701   6.109
 1304SOL    HW2 4812   3.116   0.578   6.213
 1305SOL     OW 4813   5.398   6.895   4.820
 1305SOL    HW1 4814   5.447   6.808   4.825
 1305SOL    HW2 4815   5.428   6.946   4.740
 1306SOL     OW 4816   0.654   4.543   3.866
 1306SOL    HW1 4817   0.733   4.532   3.805
 1306SOL    HW2 4818   0.685   4.575   3.955
 1307SOL     OW 4819   2.303   1.556   4.067
 1307SOL    HW1 4820   2.350   1.492   4.129
 1307SOL    HW2 4821   2.263   1.630   4.121
 1308SOL     OW 4822   4.660   5.511   2.602
 1308SOL    HW1 4823   4.696   5.598   2.568
 1308SOL    HW2 4824   4.654   5.446   2.526
 1309SOL     OW 4825   6.184   2.318   4.651
 1309SOL    HW1 4826   6.094   2.345   4.620
 1309SOL    HW2 4827   6.188   2.218   4.660
 1310SOL     OW 4828   5.043   3.567   5.392
 1310SOL    HW1 4829   5.021   3.632   5.464
 1310SOL    HW2 4830   5.138   3.577   5.365
 1311SOL     OW 4831   5.189   5.436   5.344
 1311SOL    HW1 4832   5.229   5.449   5.435
 1311SOL    HW2 4833   5.245   5.371   5.292
 1312SOL     OW 4834   6.876   6.831   2.222
 1312SOL    HW1 4835   6.813   6.907   2.236
 1312SOL    HW2 4836   6.933   6.849   2.142
 1313SOL     OW 4837   3.453   4.927   5.407
 1313SOL    HW1 4838   3.373   4.973   5.448
 1313SOL    HW2 4839   3.465   4.838   5.450
 1314SOL     OW 4840   5.892   1.351   5.001
 1314SOL    HW1 4841   5.867   1.439   4.962
 1314SOL    HW2 4842   5.855   1.343   5.094
 1315SOL     OW 4843   2.260   0.744   2.868
 1315SOL    HW1 4844   2.313   0.697   2.798
 1315SOL    HW2 4845   2.188   0.798   2.824
 1316SOL     OW 4846   3.414   6.294   2.337
 1316SOL    HW1 4847   3.385   6.228   2.406
 1316SOL    HW2 4848   3.410   6.252   2.247
 1317SOL     OW 4849   0.208   4.955   3.765
 1317SOL    HW1 4850   0.224   4.859   3.741
 1317SOL    HW2 4851   0.110   4.973   3.767
 1318SOL     OW 4852   0.353   6.218   1.172
 1318SOL    HW1 4853   0.326   6.149   1.106
 1318SOL    HW2 4854   0.279   6.233   1.237
 1319SOL     OW 4855   6.143   1.033   0.137
 1319SOL    HW1 4856   6.169   1.129   0.149
 1319SOL    HW2 4857   6.138   0.989   0.226
 1320SOL     OW 4858   5.251   5.748   5.840
 1320SOL    HW1 4859   5.311   5.827   5.829
 1320SOL    HW2 4860   5.299   5.665   5.810
 1321SOL     OW 4861   3.350   2.021   6.500
 1321SOL    HW1 4862   3.337   2.096   6.435
 1321SOL    HW2 4863   3.310   2.046   6.588
 1322SOL     OW 4864   5.706   1.109   5.003
 1322SOL    HW1 4865   5.761   1.187   4.973
 1322SOL    HW2 4866   5.611   1.123   4.974
 1323SOL     OW 4867   5.850   1.429   4.656
 1323SOL    HW1 4868   5.797   1.348   4.682
 1323SOL    HW2 4869   5.839   1.499   4.726
 1324SOL     OW 4870   0.910   3.974   0.787
 1324SOL    HW1 4871   0.862   4.035   0.850
 1324SOL    HW2 4872   0.861   3.971   0.700
 1325SOL     OW 4873   3.385   5.575   2.846
 1325SOL    HW1 4874   3.411   5.584   2.942
 1325SOL    HW2 4875   3.328   5.652   2.820
 1326SOL     OW 4876   5.118   4.178   4.616
 1326SOL    HW1 4877   5.032   4.162   4.665
 1326SOL    HW2 4878   5.164   4.091   4.599
 1327SOL     OW 4879   3.336   5.586   3.117
 1327SOL    HW1 4880   3.350   5.553   3.210
 1327SOL    HW2 4881   3.243   5.619   3.106
 1328SOL     OW 4882   1.900   2.318   6.616
 1328SOL    HW1 4883   1.939   2.306   6.525
 1328SOL    HW2 4884   1.800   2.313   6.610
 1329SOL     OW 4885   0.736   0.232   1.401
 1329SOL    HW1 4886   0.687   0.313   1.370
 1329SOL    HW2 4887   0.674   0.174   1.455
 1330SOL     OW 4888   5.935   6.793   0.955
 1330SOL    HW1 4889   5.849   6.744   0.971
 1330SOL    HW2 4890   6.000   6.732   0.909
 1331SOL     OW 4891   6.647   0.944   2.673
 1331SOL    HW1 4892   6.728   0.929   2.617
 1331SOL    HW2 4893   6.668   0.920   2.768
 1332SOL     OW 4894   4.222   1.585   1.188
 1332SOL    HW1 4895   4.195   1.527   1.264
 1332SOL    HW2 4896   4.290   1.652   1.219
 1333SOL     OW 4897   4.021   4.123   5.231
 1333SOL    HW1 4898   3.959   4.149   5.158
 1333SOL    HW2 4899   3.990   4.037   5.272
 1334SOL     OW 4900   0.979   4.073   3.285
 1334SOL    HW1 4901   1.046   4.057   3.358
 1334SOL    HW2 4902   1.021   4.132   3.215
 1335SOL     OW 4903   2.763   5.017   2.190
 1335SOL    HW1 4904   2.761   5.040   2.287
 1335SOL    HW2 4905   2.670   4.996   2.160
 1336SOL     OW 4906   0.754   0.084   4.907
 1336SOL    HW1 4907   0.734   7.018   4.864
 1336SOL    HW2 4908   0.669   0.136   4.916
 1337SOL     OW 4909   2.535   0.699   6.353
 1337SOL    HW1 4910   2.520   0.722   6.256
 1337SOL    HW2 4911   2.631   0.716   6.375
 1338SOL     OW 4912   3.112   5.809   0.709
 1338SOL    HW1 4913   3.031   5.756   0.683
 1338SOL    HW2 4914   3.149   5.854   0.628
 1339SOL     OW 4915   0.248   4.753   4.907
 1339SOL    HW1 4916   0.230   4.746   4.809
 1339SOL    HW2 4917   0.226   4.666   4.952
 1340SOL     OW 4918   2.157   1.546   6.363
 1340SOL    HW1 4919   2.099   1.541   6.282
 1340SOL    HW2 4920   2.213   1.463   6.370
 1341SOL     OW 4921   5.139   1.387   3.524
 1341SOL    HW1 4922   5.156   1.301   3.475
 1341SOL    HW2 4923   5.072   1.372   3.596
 1342SOL     OW 4924   0.522   5.890   1.429
 1342SOL    HW1 4925   0.456   5.936   1.489
 1342SOL    HW2 4926   0.526   5.793   1.453
 1343SOL     OW 4927   3.998   5.367   3.608
 1343SOL    HW1 4928   3.899   5.351   3.614
 1343SOL    HW2 4929   4.018   5.421   3.527
 1344SOL     OW 4930   5.918   1.263   2.315
 1344SOL    HW1 4931   6.017   1.277   2.307
 1344SOL    HW2 4932   5.870   1.344   2.281
 1345SOL     OW 4933   1.436   6.861   3.767
 1345SOL    HW1 4934   1.513   6.920   3.742
 1345SOL    HW2 4935   1.402   6.887   3.857
 1346SOL     OW 4936   0.290   0.622   4.089
 1346SOL    HW1 4937   0.287   0.685   4.167
 1346SOL    HW2 4938   0.201   0.579   4.078
 1347SOL     OW 4939   5.856   0.220   2.897
 1347SOL    HW1 4940   5.845   0.131   2.853
 1347SOL    HW2 4941   5.818   0.217   2.989
 1348SOL     OW 4942   4.035   5.755   4.446
 1348SOL    HW1 4943   3.939   5.731   4.431
 1348SOL    HW2 4944   4.091   5.672   4.443
 1349SOL     OW 4945   4.694   2.655   0.134
 1349SOL    HW1 4946   4.647   2.633   0.048
 1349SOL    HW2 4947   4.766   2.587   0.151
 1350SOL     OW 4948   3.108   6.633   5.605
 1350SOL    HW1 4949   3.068   6.664   5.691
 1350SOL    HW2 4950   3.035   6.608   5.542
 1351SOL     OW 4951   0.941   1.300   4.584
 1351SOL    HW1 4952   0.945   1.222   4.646
 1351SOL    HW2 4953   0.852   1.302   4.539
 1352SOL     OW 4954   0.605   6.728   4.164
 1352SOL    HW1 4955   0.550   6.669   4.106
 1352SOL    HW2 4956   0.650   6.798   4.108
 1353SOL     OW 4957   1.730   3.350   3.721
 1353SOL    HW1 4958   1.649   3.361   3.779
 1353SOL    HW2 4959   1.796   3.290   3.767
 1354SOL     OW 4960   0.033   6.999   1.192
 1354SOL    HW1 4961   6.989   6.927   1.211
 1354SOL    HW2 4962   0.111   6.960   1.143
 1355SOL     OW 4963   4.368   3.425   0.300
 1355SOL    HW1 4964   4.411   3.359   0.361
 1355SOL    HW2 4965   4.426   3.437   0.219
 1356SOL     OW 4966   3.112   3.665   1.650
 1356SOL    HW1 4967   3.208   3.691   1.639
 1356SOL    HW2 4968   3.101   3.568   1.627
 1357SOL     OW 4969   2.814   2.817   6.016
 1357SOL    HW1 4970   2.745   2.821   6.089
 1357SOL    HW2 4971   2.795   2.888   5.948
 1358SOL     OW 4972   2.431   3.203   5.933
 1358SOL    HW1 4973   2.480   3.203   5.846
 1358SOL    HW2 4974   2.333   3.191   5.916
 1359SOL     OW 4975   0.004   0.917   6.913
 1359SOL    HW1 4976   0.058   0.861   6.975
 1359SOL    HW2 4977   6.929   0.896   6.925
 1360SOL     OW 4978   2.935   3.298   3.833
 1360SOL    HW1 4979   2.960   3.245   3.915
 1360SOL    HW2 4980   2.976   3.255   3.752
 1361SOL     OW 4981   1.134   5.750   1.240
 1361SOL    HW1 4982   1.180   5.718   1.157
 1361SOL    HW2 4983   1.183   5.828   1.277
 1362SOL     OW 4984   3.027   2.360   6.532
 1362SOL    HW1 4985   3.104   2.406   6.576
 1362SOL    HW2 4986   2.961   2.331   6.602
 1363SOL     OW 4987   6.378   6.455   1.871
 1363SOL    HW1 4988   6.458   6.512   1.893
 1363SOL    HW2 4989   6.369   6.383   1.939
 1364SOL     OW 4990   0.659   3.572   0.633
 1364SOL    HW1 4991   0.673   3.480   0.668
 1364SOL    HW2 4992   0.649   3.636   0.710
 1365SOL     OW 4993   0.246   4.297   5.214
 1365SOL    HW1 4994   0.233   4.237   5.135
 1365SOL    HW2 4995   0.158   4.313   5.258
 1366SOL     OW 4996   5.147   0.536   0.746
 1366SOL    HW1 4997   5.192   0.457   0.787
 1366SOL    HW2 4998   5.118   0.600   0.817
 1367SOL     OW 4999   1.548   6.584   4.474
 1367SOL    HW1 5000   1.525   6.662   4.532
 1367SOL    HW2 5001   1.617   6.528   4.519
 1368SOL     OW 5002   1.245   6.331   5.469
 1368SOL    HW1 5003   1.332   6.359   5.509
 1368SOL    HW2 5004   1.179   6.406   5.476
 1369SOL     OW 5005   2.954   6.257   3.308
 1369SOL    HW1 5006   2.873   6.228   3.257
 1369SOL    HW2 5007   2.926   6.296   3.396
 1370SOL     OW 5008   6.840   2.456   2.605
 1370SOL    HW1 5009   6.769   2.385   2.610
 1370SOL    HW2 5010   6.875   2.473   2.698
 1371SOL     OW 5011   6.000   2.097   5.877
 1371SOL    HW1 5012   6.044   2.166   5.933
 1371SOL    HW2 5013   5.944   2.141   5.807
 1372SOL     OW 5014   6.575   3.063   0.851
 1372SOL    HW1 5015   6.512   3.040   0.925
 1372SOL    HW2 5016   6.560   3.157   0.822
 1373SOL     OW 5017   5.479   2.107   1.629
 1373SOL    HW1 5018   5.452   2.199   1.660
 1373SOL    HW2 5019   5.569   2.111   1.586
 1374SOL     OW 5020   4.390   4.131   1.120
 1374SOL    HW1 5021   4.439   4.116   1.034
 1374SOL    HW2 5022   4.357   4.226   1.124
 1375SOL     OW 5023   5.818   5.248   4.067
 1375SOL    HW1 5024   5.902   5.303   4.074
 1375SOL    HW2 5025   5.739   5.310   4.064
 1376SOL     OW 5026   3.049   5.055   5.928
 1376SOL    HW1 5027   2.966   5.100   5.894
 1376SOL    HW2 5028   3.072   5.090   6.018
 1377SOL     OW 5029   1.802   1.597   3.000
 1377SOL    HW1 5030   1.840   1.518   3.048
 1377SOL    HW2 5031   1.872   1.640   2.944
 1378SOL     OW 5032   5.159   2.792   4.146
 1378SOL    HW1 5033   5.068   2.820   4.117
 1378SOL    HW2 5034   5.218   2.873   4.154
 1379SOL     OW 5035   4.862   5.300   1.303
 1379SOL    HW1 5036   4.888   5.305   1.400
 1379SOL    HW2 5037   4.766   5.272   1.295
 1380SOL     OW 5038   0.087   6.016   2.193
 1380SOL    HW1 5039   0.075   6.010   2.292
 1380SOL    HW2 5040   0.001   5.997   2.147
 1381SOL     OW 5041   6.388   2.547   6.094
 1381SOL    HW1 5042   6.429   2.637   6.078
 1381SOL    HW2 5043   6.324   2.553   6.170
 1382SOL     OW 5044   4.510   3.043   0.057
 1382SOL    HW1 5045   4.456   2.963   0.085
 1382SOL    HW2 5046   4.550   3.086   0.138
 1383SOL     OW 5047   0.304   0.585   1.429
 1383SOL    HW1 5048   0.259   0.535   1.503
 1383SOL    HW2 5049   0.397   0.550   1.418
 1384SOL     OW 5050   6.200   1.699   1.762
 1384SOL    HW1 5051   6.141   1.780   1.768
 1384SOL    HW2 5052   6.247   1.686   1.850
 1385SOL     OW 5053   0.562   5.496   1.131
 1385SOL    HW1 5054   0.608   5.408   1.117
 1385SOL    HW2 5055   0.624   5.571   1.109
 1386SOL     OW 5056   2.029   5.757   4.499
 1386SOL    HW1 5057   2.004   5.671   4.544
 1386SOL    HW2 5058   2.079   5.736   4.415
 1387SOL     OW 5059   2.955   6.209   2.059
 1387SOL    HW1 5060   2.896   6.151   2.003
 1387SOL    HW2 5061   3.024   6.152   2.103
 1388SOL     OW 5062   6.990   0.597   1.639
 1388SOL    HW1 5063   0.059   0.566   1.610
 1388SOL    HW2 5064   6.995   0.629   1.733
 1389SOL     OW 5065   6.561   0.938   2.195
 1389SOL    HW1 5066   6.497   0.978   2.260
 1389SOL    HW2 5067   6.542   0.973   2.103
 1390SOL     OW 5068   1.286   1.642   5.433
 1390SOL    HW1 5069   1.275   1.574   5.360
 1390SOL    HW2 5070   1.377   1.633   5.473
 1391SOL     OW 5071   0.413   2.994   3.426
 1391SOL    HW1 5072   0.366   2.906   3.436
 1391SOL    HW2 5073   0.469   3.011   3.507
 1392SOL     OW 5074   5.043   4.367   5.189
 1392SOL    HW1 5075   4.998   4.318   5.264
 1392SOL    HW2 5076   4.997   4.345   5.103
 1393SOL     OW 5077   3.054   6.437   5.893
 1393SOL    HW1 5078   3.144   6.464   5.856
 1393SOL    HW2 5079   3.067   6.387   5.978
 1394SOL     OW 5080   1.570   6.141   6.534
 1394SOL    HW1 5081   1.500   6.212   6.526
 1394SOL    HW2 5082   1.550   6.068   6.469
 1395SOL     OW 5083   3.461   4.136   5.656
 1395SOL    HW1 5084   3.442   4.228   5.691
 1395SOL    HW2 5085   3.383   4.103   5.604
 1396SOL     OW 5086   5.793   5.992   3.940
 1396SOL    HW1 5087   5.744   6.030   4.018
 1396SOL    HW2 5088   5.888   6.024   3.940
 1397SOL     OW 5089   4.602   6.021   5.427
 1397SOL    HW1 5090   4.662   5.990   5.354
 1397SOL    HW2 5091   4.646   6.006   5.516
 1398SOL     OW 5092   2.171   1.130   4.319
 1398SOL    HW1 5093   2.209   1.038   4.325
 1398SOL    HW2 5094   2.072   1.127   4.335
 1399SOL     OW 5095   2.690   6.663   1.578
 1399SOL    HW1 5096   2.658   6.722   1.652
 1399SOL    HW2 5097   2.693   6.714   1.492
 1400SOL     OW 5098   1.439   6.644   2.046
 1400SOL    HW1 5099   1.530   6.614   2.015
 1400SOL    HW2 5100   1.420   6.605   2.136
 1401SOL     OW 5101   6.442   1.437   4.723
 1401SOL    HW1 5102   6.348   1.439   4.756
 1401SOL    HW2 5103   6.500   1.489   4.786
 1402SOL     OW 5104   0.215   3.260   0.501
 1402SOL    HW1 5105   0.273   3.199   0.447
 1402SOL    HW2 5106   0.272   3.326   0.551
 1403SOL     OW 5107   2.977   0.873   2.397
 1403SOL    HW1 5108   3.001   0.794   2.453
 1403SOL    HW2 5109   2.914   0.844   2.324
 1404SOL     OW 5110   5.273   1.088   0.122
 1404SOL    HW1 5111   5.220   1.116   0.202
 1404SOL    HW2 5112   5.230   1.009   0.079
 1405SOL     OW 5113   2.423   3.389   1.078
 1405SOL    HW1 5114   2.370   3.307   1.058
 1405SOL    HW2 5115   2.514   3.364   1.110
 1406SOL     OW 5116   1.340   3.917   1.013
 1406SOL    HW1 5117   1.394   3.855   0.956
 1406SOL    HW2 5118   1.278   3.865   1.070
 1407SOL     OW 5119   6.435   2.438   2.748
 1407SOL    HW1 5120   6.494   2.512   2.779
 1407SOL    HW2 5121   6.346   2.475   2.721
 1408SOL     OW 5122   6.593   0.541   6.757
 1408SOL    HW1 5123   6.638   0.552   6.668
 1408SOL    HW2 5124   6.495   0.531   6.743
 1409SOL     OW 5125   0.541   1.030   4.189
 1409SOL    HW1 5126   0.560   0.983   4.102
 1409SOL    HW2 5127   0.581   0.977   4.264
 1410SOL     OW 5128   0.401   2.652   6.987
 1410SOL    HW1 5129   0.438   2.641   6.895
 1410SOL    HW2 5130   0.304   2.677   6.982
 1411SOL     OW 5131   1.895   0.070   1.433
 1411SOL    HW1 5132   1.926   0.018   1.513
 1411SOL    HW2 5133   1.864   0.007   1.362
 1412SOL     OW 5134   1.087   2.983   0.344
 1412SOL    HW1 5135   1.184   2.960   0.349
 1412SOL    HW2 5136   1.036   2.927   0.409
 1413SOL     OW 5137   2.728   0.079   4.108
 1413SOL    HW1 5138   2.706   0.132   4.190
 1413SOL    HW2 5139   2.805   0.019   4.127
 1414SOL     OW 5140   1.990   1.418   1.652
 1414SOL    HW1 5141   1.957   1.369   1.732
 1414SOL    HW2 5142   2.008   1.514   1.676
 1415SOL     OW 5143   4.029   6.166   6.442
 1415SOL    HW1 5144   4.066   6.115   6.364
 1415SOL    HW2 5145   4.103   6.184   6.508
 1416SOL     OW 5146   4.270   5.613   2.276
 1416SOL    HW1 5147   4.325   5.681   2.323
 1416SOL    HW2 5148   4.194   5.658   2.229
 1417SOL     OW 5149   3.130   1.593   6.018
 1417SOL    HW1 5150   3.219   1.635   5.999
 1417SOL    HW2 5151   3.111   1.598   6.116
 1418SOL     OW 5152   3.537   4.000   2.572
 1418SOL    HW1 5153   3.457   4.059   2.569
 1418SOL    HW2 5154   3.574   3.989   2.480
 1419SOL     OW 5155   4.698   6.904   4.966
 1419SOL    HW1 5156   4.608   6.918   5.008
 1419SOL    HW2 5157   4.729   6.811   4.985
 1420SOL     OW 5158   0.810   5.868   2.146
 1420SOL    HW1 5159   0.872   5.944   2.168
 1420SOL    HW2 5160   0.861   5.797   2.097
 1421SOL     OW 5161   3.249   0.942   2.560
 1421SOL    HW1 5162   3.166   0.990   2.590
 1421SOL    HW2 5163   3.324   1.008   2.553
 1422SOL     OW 5164   2.765   6.323   0.165
 1422SOL    HW1 5165   2.729   6.289   0.252
 1422SOL    HW2 5166   2.853   6.368   0.181
 1423SOL     OW 5167   4.589   0.059   2.731
 1423SOL    HW1 5168   4.659   0.130   2.724
 1423SOL    HW2 5169   4.565   0.027   2.639
 1424SOL     OW 5170   6.750   4.784   4.099
 1424SOL    HW1 5171   6.684   4.859   4.092
 1424SOL    HW2 5172   6.780   4.776   4.194
 1425SOL     OW 5173   2.678   6.774   4.119
 1425SOL    HW1 5174   2.607   6.844   4.115
 1425SOL    HW2 5175   2.764   6.815   4.149
 1426SOL     OW 5176   1.102   1.713   5.625
 1426SOL    HW1 5177   1.012   1.710   5.581
 1426SOL    HW2 5178   1.173   1.703   5.555
 1427SOL     OW 5179   6.061   0.926   4.267
 1427SOL    HW1 5180   6.020   1.015   4.249
 1427SOL    HW2 5181   6.161   0.933   4.262
 1428SOL     OW 5182   5.287   1.452   6.962
 1428SOL    HW1 5183   5.332   1.369   6.929
 1428SOL    HW2 5184   5.256   1.506   6.883
 1429SOL     OW 5185   6.760   0.682   0.349
 1429SOL    HW1 5186   6.703   0.753   0.306
 1429SOL    HW2 5187   6.701   0.620   0.401
 1430SOL     OW 5188   2.129   5.047   3.739
 1430SOL    HW1 5189   2.032   5.025   3.726
 1430SOL    HW2 5190   2.168   4.985   3.807
 1431SOL     OW 5191   1.724   0.910   0.633
 1431SOL    HW1 5192   1.822   0.909   0.614
 1431SOL    HW2 5193   1.708   0.894   0.730
 1432SOL     OW 5194   1.765   0.882   2.026
 1432SOL    HW1 5195   1.815   0.932   2.096
 1432SOL    HW2 5196   1.667   0.891   2.042
 1433SOL     OW 5197   4.532   0.881   3.967
 1433SOL    HW1 5198   4.546   0.861   4.064
 1433SOL    HW2 5199   4.441   0.851   3.939
 1434SOL     OW 5200   1.053   0.375   5.182
 1434SOL    HW1 5201   1.140   0.382   5.133
 1434SOL    HW2 5202   0.982   0.422   5.130
 1435SOL     OW 5203   6.548   1.908   2.814
 1435SOL    HW1 5204   6.568   1.900   2.716
 1435SOL    HW2 5205   6.624   1.870   2.867
 1436SOL     OW 5206   3.910   3.477   0.907
 1436SOL    HW1 5207   3.985   3.542   0.897
 1436SOL    HW2 5208   3.912   3.438   0.999
 1437SOL     OW 5209   3.720   1.139   2.218
 1437SOL    HW1 5210   3.634   1.142   2.270
 1437SOL    HW2 5211   3.761   1.230   2.216
 1438SOL     OW 5212   2.328   0.316   1.185
 1438SOL    HW1 5213   2.357   0.376   1.111
 1438SOL    HW2 5214   2.397   0.245   1.200
 1439SOL     OW 5215   0.410   5.624   2.757
 1439SOL    HW1 5216   0.478   5.687   2.718
 1439SOL    HW2 5217   0.362   5.670   2.831
 1440SOL     OW 5218   2.568   3.424   1.625
 1440SOL    HW1 5219   2.518   3.432   1.711
 1440SOL    HW2 5220   2.552   3.334   1.585
 1441SOL     OW 5221   5.634   6.564   0.778
 1441SOL    HW1 5222   5.719   6.573   0.726
 1441SOL    HW2 5223   5.579   6.490   0.739
 1442SOL     OW 5224   5.754   5.486   0.923
 1442SOL    HW1 5225   5.843   5.441   0.927
 1442SOL    HW2 5226   5.723   5.490   0.829
 1443SOL     OW 5227   0.480   2.807   2.790
 1443SOL    HW1 5228   0.420   2.849   2.722
 1443SOL    HW2 5229   0.516   2.877   2.851
 1444SOL     OW 5230   6.307   4.870   6.726
 1444SOL    HW1 5231   6.280   4.937   6.657
 1444SOL    HW2 5232   6.303   4.911   6.817
 1445SOL     OW 5233   1.369   3.052   1.655
 1445SOL    HW1 5234   1.450   3.003   1.622
 1445SOL    HW2 5235   1.359   3.037   1.753
 1446SOL     OW 5236   6.963   0.288   6.844
 1446SOL    HW1 5237   7.006   0.206   6.883
 1446SOL    HW2 5238   6.870   0.296   6.879
 1447SOL     OW 5239   6.137   4.980   4.504
 1447SOL    HW1 5240   6.075   5.046   4.460
 1447SOL    HW2 5241   6.150   5.006   4.599
 1448SOL     OW 5242   1.321   2.517   5.579
 1448SOL    HW1 5243   1.382   2.440   5.558
 1448SOL    HW2 5244   1.337   2.591   5.514
 1449SOL     OW 5245   2.117   3.492   3.661
 1449SOL    HW1 5246   2.172   3.409   3.649
 1449SOL    HW2 5247   2.090   3.501   3.757
 1450SOL     OW 5248   2.175   2.765   4.043
 1450SOL    HW1 5249   2.266   2.725   4.035
 1450SOL    HW2 5250   2.113   2.698   4.086
 1451SOL     OW 5251   2.458   0.567   1.915
 1451SOL    HW1 5252   2.513   0.595   1.994
 1451SOL    HW2 5253   2.451   0.643   1.850
 1452SOL     OW 5254   5.065   2.711   6.033
 1452SOL    HW1 5255   5.163   2.728   6.042
 1452SOL    HW2 5256   5.017   2.752   6.111
 1453SOL     OW 5257   6.691   5.305   5.299
 1453SOL    HW1 5258   6.681   5.206   5.292
 1453SOL    HW2 5259   6.659   5.348   5.215
 1454SOL     OW 5260   3.662   2.044   3.725
 1454SOL    HW1 5261   3.729   2.039   3.799
 1454SOL    HW2 5262   3.572   2.067   3.763
 1455SOL     OW 5263   0.464   5.822   1.761
 1455SOL    HW1 5264   0.504   5.850   1.848
 1455SOL    HW2 5265   0.503   5.734   1.733
 1456SOL     OW 5266   6.544   4.723   4.616
 1456SOL    HW1 5267   6.538   4.750   4.712
 1456SOL    HW2 5268   6.453   4.727   4.575
 1457SOL     OW 5269   1.237   4.370   6.115
 1457SOL    HW1 5270   1.185   4.373   6.201
 1457SOL    HW2 5271   1.265   4.463   6.091
 1458SOL     OW 5272   4.936   5.053   5.375
 1458SOL    HW1 5273   4.903   4.963   5.406
 1458SOL    HW2 5274   4.877   5.124   5.412
 1459SOL     OW 5275   5.218   6.548   5.132
 1459SOL    HW1 5276   5.150   6.555   5.059
 1459SOL    HW2 5277   5.277   6.629   5.132
 1460SOL     OW 5278   1.185   6.100   5.584
 1460SOL    HW1 5279   1.209   6.190   5.546
 1460SOL    HW2 5280   1.252   6.033   5.555
 1461SOL     OW 5281   6.446   3.139   3.488
 1461SOL    HW1 5282   6.476   3.204   3.558
 1461SOL    HW2 5283   6.518   3.071   3.473
 1462SOL     OW 5284   0.292   0.476   1.940
 1462SOL    HW1 5285   0.356   0.430   1.879
 1462SOL    HW2 5286   0.326   0.473   2.034
 1463SOL     OW 5287   1.636   5.476   0.139
 1463SOL    HW1 5288   1.611   5.567   0.105
 1463SOL    HW2 5289   1.605   5.467   0.234
 1464SOL     OW 5290   1.145   4.117   3.575
 1464SOL    HW1 5291   1.215   4.080   3.636
 1464SOL    HW2 5292   1.086   4.179   3.627
 1465SOL     OW 5293   0.764   2.544   3.385
 1465SOL    HW1 5294   0.672   2.511   3.409
 1465SOL    HW2 5295   0.825   2.533   3.464
 1466SOL     OW 5296   4.984   2.383   2.131
 1466SOL    HW1 5297   5.019   2.467   2.091
 1466SOL    HW2 5298   4.924   2.405   2.208
 1467SOL     OW 5299   1.260   1.448   4.238
 1467SOL    HW1 5300   1.192   1.391   4.284
 1467SOL    HW2 5301   1.235   1.544   4.249
 1468SOL     OW 5302   2.243   5.448   2.623
 1468SOL    HW1 5303   2.257   5.360   2.669
 1468SOL    HW2 5304   2.161   5.492   2.660
 1469SOL     OW 5305   6.247   4.133   3.203
 1469SOL    HW1 5306   6.194   4.048   3.200
 1469SOL    HW2 5307   6.344   4.112   3.211
 1470SOL     OW 5308   6.396   1.559   1.173
 1470SOL    HW1 5309   6.345   1.588   1.254
 1470SOL    HW2 5310   6.486   1.601   1.173
 1471SOL     OW 5311   5.456   6.580   1.754
 1471SOL    HW1 5312   5.425   6.489   1.780
 1471SOL    HW2 5313   5.523   6.613   1.820
 1472SOL     OW 5314   1.522   0.134   5.910
 1472SOL    HW1 5315   1.560   0.071   5.978
 1472SOL    HW2 5316   1.463   0.200   5.956
 1473SOL     OW 5317   1.991   5.675   3.534
 1473SOL    HW1 5318   2.048   5.626   3.600
 1473SOL    HW2 5319   1.896   5.675   3.566
 1474SOL     OW 5320   2.999   5.109   1.714
 1474SOL    HW1 5321   2.961   5.201   1.713
 1474SOL    HW2 5322   3.062   5.100   1.791
 1475SOL     OW 5323   5.754   0.216   6.643
 1475SOL    HW1 5324   5.728   0.175   6.555
 1475SOL    HW2 5325   5.811   0.296   6.626
 1476SOL     OW 5326   4.919   0.592   1.139
 1476SOL    HW1 5327   4.938   0.665   1.204
 1476SOL    HW2 5328   4.820   0.576   1.135
 1477SOL     OW 5329   3.461   4.970   1.701
 1477SOL    HW1 5330   3.415   4.949   1.615
 1477SOL    HW2 5331   3.396   4.963   1.776
 1478SOL     OW 5332   5.111   5.312   6.491
 1478SOL    HW1 5333   5.079   5.343   6.401
 1478SOL    HW2 5334   5.161   5.226   6.480
 1479SOL     OW 5335   4.033   3.780   1.110
 1479SOL    HW1 5336   3.969   3.768   1.186
 1479SOL    HW2 5337   4.092   3.859   1.129
 1480SOL     OW 5338   3.305   0.296   5.069
 1480SOL    HW1 5339   3.232   0.275   5.134
 1480SOL    HW2 5340   3.367   0.217   5.062
 1481SOL     OW 5341   5.338   2.591   5.833
 1481SOL    HW1 5342   5.331   2.614   5.736
 1481SOL    HW2 5343   5.353   2.493   5.843
 1482SOL     OW 5344   4.757   1.411   0.883
 1482SOL    HW1 5345   4.830   1.400   0.950
 1482SOL    HW2 5346   4.669   1.397   0.928
 1483SOL     OW 5347   5.465   1.337   6.002
 1483SOL    HW1 5348   5.377   1.290   6.011
 1483SOL    HW2 5349   5.462   1.423   6.052
 1484SOL     OW 5350   3.663   5.737   5.073
 1484SOL    HW1 5351   3.665   5.742   4.973
 1484SOL    HW2 5352   3.601   5.663   5.101
 1485SOL     OW 5353   5.169   2.385   3.089
 1485SOL    HW1 5354   5.225   2.458   3.129
 1485SOL    HW2 5355   5.222   2.300   3.089
 1486SOL     OW 5356   4.844   6.707   3.816
 1486SOL    HW1 5357   4.924   6.652   3.790
 1486SOL    HW2 5358   4.773   6.697   3.747
 1487SOL     OW 5359   6.703   0.549   1.118
 1487SOL    HW1 5360   6.771   0.498   1.066
 1487SOL    HW2 5361   6.630   0.579   1.056
 1488SOL     OW 5362   6.600   1.886   2.545
 1488SOL    HW1 5363   6.550   1.820   2.489
 1488SOL    HW2 5364   6.559   1.976   2.536
 1489SOL     OW 5365   3.502   4.347   0.600
 1489SOL    HW1 5366   3.444   4.421   0.633
 1489SOL    HW2 5367   3.490   4.266   0.658
 1490SOL     OW 5368   6.724   2.611   2.221
 1490SOL    HW1 5369   6.822   2.607   2.199
 1490SOL    HW2 5370   6.680   2.528   2.188
 1491SOL     OW 5371   6.132   2.458   3.697
 1491SOL    HW1 5372   6.131   2.434   3.794
 1491SOL    HW2 5373   6.207   2.522   3.679
 1492SOL     OW 5374   6.312   1.194   3.287
 1492SOL    HW1 5375   6.232   1.138   3.310
 1492SOL    HW2 5376   6.349   1.234   3.371
 1493SOL     OW 5377   4.629   2.618   5.887
 1493SOL    HW1 5378   4.572   2.584   5.961
 1493SOL    HW2 5379   4.649   2.544   5.823
 1494SOL     OW 5380   6.525   4.553   5.618
 1494SOL    HW1 5381   6.458   4.619   5.584
 1494SOL    HW2 5382   6.478   4.473   5.656
 1495SOL     OW 5383   6.886   4.340   4.526
 1495SOL    HW1 5384   6.838   4.276   4.466
 1495SOL    HW2 5385   6.961   4.292   4.571
 1496SOL     OW 5386   6.428   5.504   6.195
 1496SOL    HW1 5387   6.498   5.437   6.169
 1496SOL    HW2 5388   6.435   5.583   6.135
 1497SOL     OW 5389   5.889   2.629   2.489
 1497SOL    HW1 5390   5.893   2.656   2.585
 1497SOL    HW2 5391   5.828   2.551   2.478
 1498SOL     OW 5392   3.491   3.873   0.555
 1498SOL    HW1 5393   3.492   3.883   0.654
 1498SOL    HW2 5394   3.453   3.783   0.530
 1499SOL     OW 5395   0.595   4.151   5.171
 1499SOL    HW1 5396   0.679   4.098   5.187
 1499SOL    HW2 5397   0.518   4.088   5.159
 1500SOL     OW 5398   0.803   5.844   1.777
 1500SOL    HW1 5399   0.819   5.859   1.679
 1500SOL    HW2 5400   0.881   5.881   1.829
 1501SOL     OW 5401   6.126   2.637   0.418
 1501SOL    HW1 5402   6.049   2.621   0.480
 1501SOL    HW2 5403   6.196   2.691   0.465
 1502SOL     OW 5404   6.600   0.198   6.290
 1502SOL    HW1 5405   6.676   0.212   6.227
 1502SOL    HW2 5406   6.596   0.101   6.316
 1503SOL     OW 5407   6.590   4.617   1.815
 1503SOL    HW1 5408   6.639   4.701   1.792
 1503SOL    HW2 5409   6.641   4.567   1.885
 1504SOL     OW 5410   1.665   6.971   2.283
 1504SOL    HW1 5411   1.719   0.026   2.317
 1504SOL    HW2 5412   1.626   6.995   2.194
 1505SOL     OW 5413   5.066   5.914   5.081
 1505SOL    HW1 5414   5.096   5.842   5.144
 1505SOL    HW2 5415   4.975   5.946   5.107
 1506SOL     OW 5416   0.487   1.925   0.988
 1506SOL    HW1 5417   0.578   1.902   0.954
 1506SOL    HW2 5418   0.420   1.920   0.914
 1507SOL     OW 5419   1.224   2.852   4.331
 1507SOL    HW1 5420   1.253   2.900   4.414
 1507SOL    HW2 5421   1.292   2.864   4.259
 1508SOL     OW 5422   1.044   0.423   0.963
 1508SOL    HW1 5423   1.120   0.358   0.964
 1508SOL    HW2 5424   1.028   0.458   1.055
 1509SOL     OW 5425   5.078   0.386   4.342
 1509SOL    HW1 5426   5.137   0.333   4.402
 1509SOL    HW2 5427   5.067   0.338   4.255
 1510SOL     OW 5428   3.593   5.670   4.305
 1510SOL    HW1 5429   3.538   5.650   4.223
 1510SOL    HW2 5430   3.680   5.623   4.298
 1511SOL     OW 5431   2.876   3.556   4.526
 1511SOL    HW1 5432   2.876   3.486   4.454
 1511SOL    HW2 5433   2.959   3.548   4.580
 1512SOL     OW 5434   5.711   6.300   0.953
 1512SOL    HW1 5435   5.784   6.362   0.924
 1512SOL    HW2 5436   5.630   6.317   0.898
 1513SOL     OW 5437   3.015   6.874   6.211
 1513SOL    HW1 5438   2.926   6.891   6.169
 1513SOL    HW2 5439   3.003   6.844   6.305
 1514SOL     OW 5440   3.073   2.477   5.611
 1514SOL    HW1 5441   3.101   2.508   5.702
 1514SOL    HW2 5442   3.123   2.393   5.588
 1515SOL     OW 5443   5.239   1.792   1.640
 1515SOL    HW1 5444   5.174   1.718   1.622
 1515SOL    HW2 5445   5.317   1.784   1.578
 1516SOL     OW 5446   5.987   0.006   5.370
 1516SOL    HW1 5447   6.050   0.012   5.293
 1516SOL    HW2 5448   6.038   0.013   5.456
 1517SOL     OW 5449   3.782   6.224   4.002
 1517SOL    HW1 5450   3.682   6.220   3.995
 1517SOL    HW2 5451   3.818   6.131   4.009
 1518SOL     OW 5452   0.727   2.781   0.009
 1518SOL    HW1 5453   0.819   2.741   0.013
 1518SOL    HW2 5454   0.682   2.752   6.947
 1519SOL     OW 5455   0.436   4.598   6.729
 1519SOL    HW1 5456   0.385   4.674   6.768
 1519SOL    HW2 5457   0.435   4.521   6.792
 1520SOL     OW 5458   0.341   6.007   2.304
 1520SOL    HW1 5459   0.420   6.016   2.244
 1520SOL    HW2 5460   0.257   6.018   2.250
 1521SOL     OW 5461   2.279   4.844   5.906
 1521SOL    HW1 5462   2.346   4.812   5.973
 1521SOL    HW2 5463   2.263   4.773   5.838
 1522SOL     OW 5464   5.017   5.964   3.794
 1522SOL    HW1 5465   5.063   5.992   3.710
 1522SOL    HW2 5466   5.082   5.920   3.855
 1523SOL     OW 5467   3.651   6.609   0.542
 1523SOL    HW1 5468   3.663   6.570   0.633
 1523SOL    HW2 5469   3.705   6.557   0.476
 1524SOL     OW 5470   2.219   1.552   3.048
 1524SOL    HW1 5471   2.139   1.491   3.048
 1524SOL    HW2 5472   2.188   1.647   3.046
 1525SOL     OW 5473   5.370   3.103   6.887
 1525SOL    HW1 5474   5.458   3.059   6.908
 1525SOL    HW2 5475   5.313   3.040   6.834
 1526SOL     OW 5476   0.976   1.114   0.208
 1526SOL    HW1 5477   0.953   1.019   0.226
 1526SOL    HW2 5478   1.045   1.119   0.136
 1527SOL     OW 5479   3.974   1.240   4.156
 1527SOL    HW1 5480   4.073   1.240   4.170
 1527SOL    HW2 5481   3.945   1.328   4.121
 1528SOL     OW 5482   3.981   3.913   1.591
 1528SOL    HW1 5483   4.016   3.858   1.667
 1528SOL    HW2 5484   3.902   3.966   1.622
 1529SOL     OW 5485   4.708   1.365   6.041
 1529SOL    HW1 5486   4.663   1.296   5.983
 1529SOL    HW2 5487   4.747   1.436   5.982
 1530SOL     OW 5488   3.201   5.968   1.380
 1530SOL    HW1 5489   3.240   5.970   1.288
 1530SOL    HW2 5490   3.123   6.030   1.384
 1531SOL     OW 5491   3.862   6.736   4.047
 1531SOL    HW1 5492   3.823   6.827   4.038
 1531SOL    HW2 5493   3.950   6.741   4.093
 1532SOL     OW 5494   3.103   5.629   6.408
 1532SOL    HW1 5495   3.193   5.663   6.437
 1532SOL    HW2 5496   3.082   5.545   6.458
 1533SOL     OW 5497   6.089   4.886   1.667
 1533SOL    HW1 5498   5.995   4.873   1.699
 1533SOL    HW2 5499   6.100   4.844   1.576
 1534SOL     OW 5500   3.716   5.629   6.441
 1534SOL    HW1 5501   3.686   5.678   6.359
 1534SOL    HW2 5502   3.636   5.591   6.488
 1535SOL     OW 5503   5.972   5.891   4.204
 1535SOL    HW1 5504   6.067   5.905   4.232
 1535SOL    HW2 5505   5.970   5.837   4.120
 1536SOL     OW 5506   4.636   3.290   5.911
 1536SOL    HW1 5507   4.686   3.353   5.970
 1536SOL    HW2 5508   4.700   3.240   5.853
 1537SOL     OW 5509   3.488   5.218   3.216
 1537SOL    HW1 5510   3.483   5.230   3.117
 1537SOL    HW2 5511   3.562   5.154   3.238
 1538SOL     OW 5512   2.959   1.508   6.651
 1538SOL    HW1 5513   2.914   1.577   6.708
 1538SOL    HW2 5514   3.057   1.528   6.646
 1539SOL     OW 5515   5.805   3.425   0.601
 1539SOL    HW1 5516   5.864   3.355   0.561
 1539SOL    HW2 5517   5.849   3.514   0.596
 1540SOL     OW 5518   3.616   6.623   4.571
 1540SOL    HW1 5519   3.551   6.617   4.646
 1540SOL    HW2 5520   3.572   6.597   4.485
 1541SOL     OW 5521   3.659   3.265   4.928
 1541SOL    HW1 5522   3.722   3.200   4.971
 1541SOL    HW2 5523   3.583   3.283   4.990
 1542SOL     OW 5524   0.491   0.253   2.561
 1542SOL    HW1 5525   0.500   0.176   2.498
 1542SOL    HW2 5526   0.420   0.232   2.628
 1543SOL     OW 5527   2.732   4.756   0.181
 1543SOL    HW1 5528   2.705   4.832   0.239
 1543SOL    HW2 5529   2.819   4.778   0.135
 1544SOL     OW 5530   3.556   3.484   4.266
 1544SOL    HW1 5531   3.459   3.490   4.242
 1544SOL    HW2 5532   3.602   3.423   4.202
 1545SOL     OW 5533   6.036   6.008   2.266
 1545SOL    HW1 5534   6.088   5.925   2.249
 1545SOL    HW2 5535   5.999   6.006   2.359
 1546SOL     OW 5536   5.424   6.864   5.672
 1546SOL    HW1 5537   5.391   6.769   5.676
 1546SOL    HW2 5538   5.519   6.865   5.641
 1547SOL     OW 5539   1.819   3.458   6.860
 1547SOL    HW1 5540   1.792   3.514   6.938
 1547SOL    HW2 5541   1.744   3.454   6.795
 1548SOL     OW 5542   6.253   2.019   6.524
 1548SOL    HW1 5543   6.213   2.105   6.493
 1548SOL    HW2 5544   6.229   2.004   6.620
 1549SOL     OW 5545   4.469   0.639   4.966
 1549SOL    HW1 5546   4.532   0.593   5.029
 1549SOL    HW2 5547   4.376   0.606   4.982
 1550SOL     OW 5548   4.060   3.144   3.369
 1550SOL    HW1 5549   3.991   3.075   3.347
 1550SOL    HW2 5550   4.130   3.146   3.297
 1551SOL     OW 5551   6.233   4.673   5.891
 1551SOL    HW1 5552   6.247   4.582   5.928
 1551SOL    HW2 5553   6.140   4.704   5.912
 1552SOL     OW 5554   1.387   4.262   1.680
 1552SOL    HW1 5555   1.289   4.282   1.681
 1552SOL    HW2 5556   1.424   4.271   1.773
 1553SOL     OW 5557   1.460   1.576   5.731
 1553SOL    HW1 5558   1.434   1.664   5.692
 1553SOL    HW2 5559   1.538   1.539   5.679
 1554SOL     OW 5560   3.014   1.333   4.060
 1554SOL    HW1 5561   3.092   1.307   4.004
 1554SOL    HW2 5562   2.983   1.424   4.035
 1555SOL     OW 5563   6.560   4.103   6.095
 1555SOL    HW1 5564   6.569   4.015   6.048
 1555SOL    HW2 5565   6.619   4.170   6.050
 1556SOL     OW 5566   2.128   1.297   6.002
 1556SOL    HW1 5567   2.177   1.283   6.089
 1556SOL    HW2 5568   2.164   1.378   5.957
 1557SOL     OW 5569   0.289   2.606   6.623
 1557SOL    HW1 5570   0.312   2.568   6.534
 1557SOL    HW2 5571   0.193   2.588   6.643
 1558SOL     OW 5572   0.314   0.180   5.245
 1558SOL    HW1 5573   0.375   0.123   5.189
 1558SOL    HW2 5574   0.361   0.206   5.329
 1559SOL     OW 5575   1.113   1.843   6.175
 1559SOL    HW1 5576   1.119   1.789   6.259
 1559SOL    HW2 5577   1.206   1.861   6.141
 1560SOL     OW 5578   6.794   0.016   6.759
 1560SOL    HW1 5579   6.728   0.090   6.773
 1560SOL    HW2 5580   6.871   0.049   6.705
 1561SOL     OW 5581   5.721   5.747   3.072
 1561SOL    HW1 5582   5.630   5.705   3.080
 1561SOL    HW2 5583   5.730   5.819   3.141
 1562SOL     OW 5584   5.803   1.146   3.826
 1562SOL    HW1 5585   5.758   1.178   3.743
 1562SOL    HW2 5586   5.740   1.087   3.877
 1563SOL     OW 5587   4.224   6.909   5.214
 1563SOL    HW1 5588   4.269   6.926   5.302
 1563SOL    HW2 5589   4.226   6.991   5.158
 1564SOL     OW 5590   1.658   1.750   2.674
 1564SOL    HW1 5591   1.637   1.693   2.754
 1564SOL    HW2 5592   1.681   1.691   2.596
 1565SOL     OW 5593   5.397   4.378   1.928
 1565SOL    HW1 5594   5.437   4.388   1.838
 1565SOL    HW2 5595   5.335   4.454   1.946
 1566SOL     OW 5596   6.046   4.465   3.490
 1566SOL    HW1 5597   6.021   4.524   3.414
 1566SOL    HW2 5598   6.141   4.483   3.517
 1567SOL     OW 5599   6.496   5.918   5.410
 1567SOL    HW1 5600   6.468   5.833   5.454
 1567SOL    HW2 5601   6.433   5.991   5.435
 1568SOL     OW 5602   0.490   6.837   0.513
 1568SOL    HW1 5603   0.557   6.826   0.439
 1568SOL    HW2 5604   0.535   6.875   0.593
 1569SOL     OW 5605   3.573   6.106   5.018
 1569SOL    HW1 5606   3.515   6.030   4.992
 1569SOL    HW2 5607   3.646   6.118   4.951
 1570SOL     OW 5608   3.599   1.876   1.735
 1570SOL    HW1 5609   3.658   1.955   1.722
 1570SOL    HW2 5610   3.611   1.840   1.828
 1571SOL     OW 5611   6.561   4.445   1.322
 1571SOL    HW1 5612   6.592   4.404   1.408
 1571SOL    HW2 5613   6.483   4.505   1.340
 1572SOL     OW 5614   1.656   6.205   2.344
 1572SOL    HW1 5615   1.622   6.223   2.436
 1572SOL    HW2 5616   1.582   6.171   2.287
 1573SOL     OW 5617   4.041   0.382   1.049
 1573SOL    HW1 5618   4.118   0.390   1.112
 1573SOL    HW2 5619   4.076   0.375   0.955
 1574SOL     OW 5620   6.204   2.716   2.020
 1574SOL    HW1 5621   6.140   2.673   2.084
 1574SOL    HW2 5622   6.235   2.803   2.058
 1575SOL     OW 5623   2.489   2.906   0.934
 1575SOL    HW1 5624   2.392   2.883   0.924
 1575SOL    HW2 5625   2.535   2.837   0.990
 1576SOL     OW 5626   6.778   5.950   4.096
 1576SOL    HW1 5627   6.849   5.881   4.085
 1576SOL    HW2 5628   6.744   5.949   4.190
 1577SOL     OW 5629   1.706   0.709   0.220
 1577SOL    HW1 5630   1.695   0.659   0.306
 1577SOL    HW2 5631   1.803   0.730   0.206
 1578SOL     OW 5632   5.766   5.382   4.623
 1578SOL    HW1 5633   5.738   5.468   4.666
 1578SOL    HW2 5634   5.699   5.356   4.554
 1579SOL     OW 5635   0.997   0.040   3.723
 1579SOL    HW1 5636   1.024   0.046   3.819
 1579SOL    HW2 5637   0.935   6.985   3.710
 1580SOL     OW 5638   3.030   3.907   5.629
 1580SOL    HW1 5639   3.088   3.830   5.604
 1580SOL    HW2 5640   3.037   3.923   5.728
 1581SOL     OW 5641   6.838   3.763   4.541
 1581SOL    HW1 5642   6.938   3.752   4.535
 1581SOL    HW2 5643   6.817   3.823   4.618
 1582SOL     OW 5644   5.934   5.146   4.448
 1582SOL    HW1 5645   5.949   5.237   4.486
 1582SOL    HW2 5646   5.855   5.148   4.387
 1583SOL     OW 5647   1.748   2.457   2.861
 1583SOL    HW1 5648   1.659   2.502   2.865
 1583SOL    HW2 5649   1.758   2.410   2.774
 1584SOL     OW 5650   2.245   0.478   6.766
 1584SOL    HW1 5651   2.290   0.521   6.687
 1584SOL    HW2 5652   2.260   0.379   6.763
 1585SOL     OW 5653   5.768   1.867   5.529
 1585SOL    HW1 5654   5.723   1.930   5.465
 1585SOL    HW2 5655   5.831   1.808   5.478
 1586SOL     OW 5656   3.732   4.087   2.733
 1586SOL    HW1 5657   3.662   4.067   2.665
 1586SOL    HW2 5658   3.689   4.126   2.815
 1587SOL     OW 5659   2.676   6.113   6.809
 1587SOL    HW1 5660   2.738   6.078   6.879
 1587SOL    HW2 5661   2.645   6.204   6.834
 1588SOL     OW 5662   6.002   3.792   1.782
 1588SOL    HW1 5663   6.007   3.868   1.847
 1588SOL    HW2 5664   5.921   3.804   1.724
 1589SOL     OW 5665   5.442   4.039   3.966
 1589SOL    HW1 5666   5.415   4.119   3.914
 1589SOL    HW2 5667   5.394   4.038   4.054
 1590SOL     OW 5668   1.856   0.929   6.059
 1590SOL    HW1 5669   1.947   0.961   6.034
 1590SOL    HW2 5670   1.801   0.917   5.977
 1591SOL     OW 5671   0.416   4.464   1.503
 1591SOL    HW1 5672   0.484   4.462   1.429
 1591SOL    HW2 5673   0.455   4.424   1.586
 1592SOL     OW 5674   2.970   3.203   2.728
 1592SOL    HW1 5675   3.068   3.186   2.726
 1592SOL    HW2 5676   2.933   3.195   2.636
 1593SOL     OW 5677   0.637   5.710   5.569
 1593SOL    HW1 5678   0.736   5.712   5.557
 1593SOL    HW2 5679   0.601   5.623   5.537
 1594SOL     OW 5680   6.957   5.199   3.518
 1594SOL    HW1 5681   0.030   5.227   3.524
 1594SOL    HW2 5682   6.898   5.280   3.522
 1595SOL     OW 5683   0.652   4.892   5.924
 1595SOL    HW1 5684   0.691   4.846   6.004
 1595SOL    HW2 5685   0.567   4.845   5.897
 1596SOL     OW 5686   2.484   5.221   6.938
 1596SOL    HW1 5687   2.419   5.296   6.933
 1596SOL    HW2 5688   2.525   5.218   0.007
 1597SOL     OW 5689   2.528   6.992   0.880
 1597SOL    HW1 5690   2.479   6.973   0.965
 1597SOL    HW2 5691   2.468   0.020   0.818
 1598SOL     OW 5692   0.075   5.552   1.644
 1598SOL    HW1 5693   0.105   5.636   1.688
 1598SOL    HW2 5694   0.046   5.486   1.714
 1599SOL     OW 5695   3.583   5.155   6.940
 1599SOL    HW1 5696   3.643   5.104   7.002
 1599SOL    HW2 5697   3.500   5.182   6.989
 1600SOL     OW 5698   4.018   1.492   4.826
 1600SOL    HW1 5699   3.959   1.469   4.903
 1600SOL    HW2 5700   3.965   1.540   4.756
 1601SOL     OW 5701   1.071   4.996   4.250
 1601SOL    HW1 5702   0.989   5.053   4.258
 1601SOL    HW2 5703   1.053   4.905   4.288
 1602SOL     OW 5704   0.984   4.628   3.414
 1602SOL    HW1 5705   1.064   4.619   3.474
 1602SOL    HW2 5706   0.953   4.538   3.386
 1603SOL     OW 5707   6.778   6.864   1.255
 1603SOL    HW1 5708   6.709   6.833   1.190
 1603SOL    HW2 5709   6.751   6.953   1.293
 1604SOL     OW 5710   0.412   5.722   5.745
 1604SOL    HW1 5711   0.333   5.703   5.686
 1604SOL    HW2 5712   0.494   5.728   5.689
 1605SOL     OW 5713   5.370   6.389   3.132
 1605SOL    HW1 5714   5.298   6.442   3.178
 1605SOL    HW2 5715   5.459   6.429   3.153
 1606SOL     OW 5716   4.981   6.917   6.057
 1606SOL    HW1 5717   5.050   6.845   6.060
 1606SOL    HW2 5718   4.899   6.882   6.011
 1607SOL     OW 5719   4.288   2.217   1.070
 1607SOL    HW1 5720   4.387   2.223   1.062
 1607SOL    HW2 5721   4.251   2.164   0.994
 1608SOL     OW 5722   2.632   0.225   0.760
 1608SOL    HW1 5723   2.633   0.141   0.814
 1608SOL    HW2 5724   2.631   0.304   0.822
 1609SOL     OW 5725   4.680   1.801   5.229
 1609SOL    HW1 5726   4.661   1.703   5.242
 1609SOL    HW2 5727   4.769   1.812   5.186
 1610SOL     OW 5728   5.462   5.747   4.234
 1610SOL    HW1 5729   5.522   5.826   4.242
 1610SOL    HW2 5730   5.473   5.688   4.314
 1611SOL     OW 5731   3.135   3.560   1.190
 1611SOL    HW1 5732   3.112   3.525   1.100
 1611SOL    HW2 5733   3.068   3.630   1.217
 1612SOL     OW 5734   3.686   1.006   4.363
 1612SOL    HW1 5735   3.717   1.016   4.458
 1612SOL    HW2 5736   3.608   1.066   4.347
 1613SOL     OW 5737   1.548   5.810   0.696
 1613SOL    HW1 5738   1.624   5.855   0.650
 1613SOL    HW2 5739   1.530   5.857   0.783
 1614SOL     OW 5740   6.967   2.566   6.700
 1614SOL    HW1 5741   6.898   2.638   6.703
 1614SOL    HW2 5742   6.971   2.527   6.608
 1615SOL     OW 5743   6.475   4.920   6.342
 1615SOL    HW1 5744   6.528   4.917   6.258
 1615SOL    HW2 5745   6.482   5.011   6.383
 1616SOL     OW 5746   2.825   1.604   5.469
 1616SOL    HW1 5747   2.900   1.604   5.535
 1616SOL    HW2 5748   2.750   1.660   5.503
 1617SOL     OW 5749   4.826   0.700   4.016
 1617SOL    HW1 5750   4.742   0.667   4.060
 1617SOL    HW2 5751   4.893   0.626   4.014
 1618SOL     OW 5752   5.519   2.470   0.844
 1618SOL    HW1 5753   5.610   2.435   0.866
 1618SOL    HW2 5754   5.510   2.477   0.744
 1619SOL     OW 5755   1.661   3.237   4.508
 1619SOL    HW1 5756   1.722   3.268   4.581
 1619SOL    HW2 5757   1.604   3.162   4.541
 1620SOL     OW 5758   3.612   5.178   1.648
 1620SOL    HW1 5759   3.577   5.086   1.667
 1620SOL    HW2 5760   3.540   5.233   1.606
 1621SOL     OW 5761   1.798   1.191   1.575
 1621SOL    HW1 5762   1.852   1.274   1.585
 1621SOL    HW2 5763   1.735   1.201   1.497
 1622SOL     OW 5764   2.345   2.548   4.277
 1622SOL    HW1 5765   2.254   2.579   4.247
 1622SOL    HW2 5766   2.371   2.595   4.361
 1623SOL     OW 5767   2.857   1.987   5.265
 1623SOL    HW1 5768   2.949   2.015   5.295
 1623SOL    HW2 5769   2.822   2.052   5.199
 1624SOL     OW 5770   2.504   0.538   0.600
 1624SOL    HW1 5771   2.428   0.491   0.645
 1624SOL    HW2 5772   2.582   0.476   0.591
 1625SOL     OW 5773   6.658   5.464   2.072
 1625SOL    HW1 5774   6.595   5.541   2.060
 1625SOL    HW2 5775   6.606   5.379   2.076
 1626SOL     OW 5776   2.281   2.965   6.114
 1626SOL    HW1 5777   2.311   2.899   6.045
 1626SOL    HW2 5778   2.247   3.047   6.069
 1627SOL     OW 5779   5.113   3.079   3.739
 1627SOL    HW1 5780   5.018   3.110   3.731
 1627SOL    HW2 5781   5.154   3.118   3.821
 1628SOL     OW 5782   2.917   3.298   0.392
 1628SOL    HW1 5783   2.839   3.259   0.345
 1628SOL    HW2 5784   2.969   3.226   0.437
 1629SOL     OW 5785   4.548   1.969   3.551
 1629SOL    HW1 5786   4.521   1.924   3.637
 1629SOL    HW2 5787   4.477   2.034   3.524
 1630SOL     OW 5788   0.240   4.973   4.393
 1630SOL    HW1 5789   0.206   5.065   4.414
 1630SOL    HW2 5790   0.209   4.946   4.302
 1631SOL     OW 5791   0.602   6.580   5.700
 1631SOL    HW1 5792   0.696   6.559   5.671
 1631SOL    HW2 5793   0.557   6.496   5.731
 1632SOL     OW 5794   5.963   0.318   1.833
 1632SOL    HW1 5795   5.936   0.410   1.804
 1632SOL    HW2 5796   6.048   0.292   1.788
 1633SOL     OW 5797   5.714   2.913   3.422
 1633SOL    HW1 5798   5.811   2.938   3.420
 1633SOL    HW2 5799   5.668   2.964   3.495
 1634SOL     OW 5800   3.543   0.791   0.221
 1634SOL    HW1 5801   3.629   0.741   0.231
 1634SOL    HW2 5802   3.520   0.798   0.124
 1635SOL     OW 5803   0.757   5.324   3.418
 1635SOL    HW1 5804   0.791   5.267   3.493
 1635SOL    HW2 5805   0.770   5.420   3.440
 1636SOL     OW 5806   2.339   6.319   1.704
 1636SOL    HW1 5807   2.272   6.303   1.777
 1636SOL    HW2 5808   2.355   6.233   1.654
 1637SOL     OW 5809   6.966   3.515   2.454
 1637SOL    HW1 5810   6.973   3.526   2.355
 1637SOL    HW2 5811   0.035   3.523   2.494
 1638SOL     OW 5812   1.937   2.896   4.996
 1638SOL    HW1 5813   1.969   2.802   4.990
 1638SOL    HW2 5814   2.015   2.958   5.002
 1639SOL     OW 5815   4.882   4.483   2.735
 1639SOL    HW1 5816   4.870   4.545   2.813
 1639SOL    HW2 5817   4.891   4.536   2.651
 1640SOL     OW 5818   6.280   0.416   1.206
 1640SOL    HW1 5819   6.230   0.378   1.284
 1640SOL    HW2 5820   6.378   0.409   1.222
 1641SOL     OW 5821   6.370   2.727   5.457
 1641SOL    HW1 5822   6.311   2.808   5.465
 1641SOL    HW2 5823   6.449   2.738   5.517
 1642SOL     OW 5824   0.607   2.194   1.336
 1642SOL    HW1 5825   0.522   2.230   1.298
 1642SOL    HW2 5826   0.683   2.250   1.306
 1643SOL     OW 5827   3.964   0.712   5.798
 1643SOL    HW1 5828   3.953   0.777   5.873
 1643SOL    HW2 5829   3.939   0.621   5.830
 1644SOL     OW 5830   3.406   1.187   1.328
 1644SOL    HW1 5831   3.314   1.161   1.357
 1644SOL    HW2 5832   3.459   1.104   1.307
 1645SOL     OW 5833   2.106   6.626   6.104
 1645SOL    HW1 5834   2.142   6.596   6.192
 1645SOL    HW2 5835   2.135   6.563   6.032
 1646SOL     OW 5836   0.881   3.732   0.987
 1646SOL    HW1 5837   0.801   3.730   0.927
 1646SOL    HW2 5838   0.853   3.708   1.080
 1647SOL     OW 5839   6.041   2.664   3.459
 1647SOL    HW1 5840   6.131   2.650   3.501
 1647SOL    HW2 5841   5.970   2.653   3.528
 1648SOL     OW 5842   4.290   6.925   2.322
 1648SOL    HW1 5843   4.244   6.943   2.409
 1648SOL    HW2 5844   4.271   7.001   2.258
 1649SOL     OW 5845   3.546   0.354   3.187
 1649SOL    HW1 5846   3.572   0.446   3.214
 1649SOL    HW2 5847   3.628   0.302   3.163
 1650SOL     OW 5848   3.012   6.580   3.973
 1650SOL    HW1 5849   3.010   6.491   3.927
 1650SOL    HW2 5850   3.005   6.566   4.072
 1651SOL     OW 5851   1.532   6.507   0.712
 1651SOL    HW1 5852   1.450   6.556   0.739
 1651SOL    HW2 5853   1.611   6.568   0.719
 1652SOL     OW 5854   2.596   2.639   1.659
 1652SOL    HW1 5855   2.513   2.685   1.688
 1652SOL    HW2 5856   2.597   2.545   1.695
 1653SOL     OW 5857   1.011   5.153   0.604
 1653SOL    HW1 5858   1.041   5.060   0.583
 1653SOL    HW2 5859   0.913   5.153   0.624
 1654SOL     OW 5860   0.342   2.640   3.282
 1654SOL    HW1 5861   0.418   2.597   3.331
 1654SOL    HW2 5862   0.356   2.629   3.184
 1655SOL     OW 5863   5.030   4.770   5.995
 1655SOL    HW1 5864   4.963   4.835   6.032
 1655SOL    HW2 5865   5.014   4.680   6.035
 1656SOL     OW 5866   0.720   4.223   3.268
 1656SOL    HW1 5867   0.691   4.138   3.310
 1656SOL    HW2 5868   0.733   4.209   3.170
 1657SOL     OW 5869   1.214   6.997   5.542
 1657SOL    HW1 5870   1.192   0.008   5.634
 1657SOL    HW2 5871   1.230   0.052   5.481
 1658SOL     OW 5872   6.211   6.014   2.740
 1658SOL    HW1 5873   6.113   6.001   2.752
 1658SOL    HW2 5874   6.254   5.926   2.721
 1659SOL     OW 5875   4.448   2.199   5.589
 1659SOL    HW1 5876   4.464   2.118   5.532
 1659SOL    HW2 5877   4.520   2.267   5.572
 1660SOL     OW 5878   1.795   5.679   3.222
 1660SOL    HW1 5879   1.788   5.683   3.322
 1660SOL    HW2 5880   1.708   5.648   3.183
 1661SOL     OW 5881   2.816   0.035   2.347
 1661SOL    HW1 5882   2.848   0.055   2.255
 1661SOL    HW2 5883   2.879   0.076   2.414
 1662SOL     OW 5884   0.772   0.273   3.728
 1662SOL    HW1 5885   0.799   0.227   3.814
 1662SOL    HW2 5886   0.744   0.204   3.661
 1663SOL     OW 5887   3.047   6.989   3.516
 1663SOL    HW1 5888   3.134   6.972   3.470
 1663SOL    HW2 5889   2.992   6.905   3.517
 1664SOL     OW 5890   2.335   5.723   4.479
 1664SOL    HW1 5891   2.288   5.779   4.548
 1664SOL    HW2 5892   2.273   5.706   4.402
 1665SOL     OW 5893   0.688   6.667   5.104
 1665SOL    HW1 5894   0.669   6.665   5.006
 1665SOL    HW2 5895   0.784   6.692   5.118
 1666SOL     OW 5896   5.876   2.862   6.132
 1666SOL    HW1 5897   5.917   2.792   6.191
 1666SOL    HW2 5898   5.845   2.939   6.187
 1667SOL     OW 5899   6.884   0.632   6.337
 1667SOL    HW1 5900   6.930   0.547   6.312
 1667SOL    HW2 5901   6.932   0.709   6.295
 1668SOL     OW 5902   3.097   1.150   5.212
 1668SOL    HW1 5903   3.037   1.215   5.259
 1668SOL    HW2 5904   3.096   1.169   5.114
 1669SOL     OW 5905   5.576   6.624   6.394
 1669SOL    HW1 5906   5.650   6.662   6.339
 1669SOL    HW2 5907   5.507   6.694   6.410
 1670SOL     OW 5908   5.520   4.223   5.655
 1670SOL    HW1 5909   5.596   4.194   5.713
 1670SOL    HW2 5910   5.550   4.300   5.598
 1671SOL     OW 5911   5.272   4.520   0.011
 1671SOL    HW1 5912   5.252   4.446   0.075
 1671SOL    HW2 5913   5.296   4.602   0.061
 1672SOL     OW 5914   2.254   5.184   2.745
 1672SOL    HW1 5915   2.298   5.100   2.777
 1672SOL    HW2 5916   2.161   5.188   2.781
 1673SOL     OW 5917   6.948   1.840   4.068
 1673SOL    HW1 5918   6.931   1.771   3.998
 1673SOL    HW2 5919   6.861   1.872   4.105
 1674SOL     OW 5920   1.061   5.026   6.336
 1674SOL    HW1 5921   0.985   4.998   6.277
 1674SOL    HW2 5922   1.138   4.963   6.324
 1675SOL     OW 5923   4.600   2.551   6.883
 1675SOL    HW1 5924   4.525   2.610   6.914
 1675SOL    HW2 5925   4.594   2.463   6.930
 1676SOL     OW 5926   2.449   0.829   3.374
 1676SOL    HW1 5927   2.374   0.790   3.427
 1676SOL    HW2 5928   2.440   0.929   3.371
 1677SOL     OW 5929   6.364   0.924   5.420
 1677SOL    HW1 5930   6.452   0.898   5.459
 1677SOL    HW2 5931   6.369   1.019   5.388
 1678SOL     OW 5932   5.269   0.008   1.014
 1678SOL    HW1 5933   5.214   0.082   0.975
 1678SOL    HW2 5934   5.211   6.972   1.071
 1679SOL     OW 5935   6.740   4.094   6.931
 1679SOL    HW1 5936   6.782   4.150   6.859
 1679SOL    HW2 5937   6.802   4.088   7.009
 1680SOL     OW 5938   1.059   1.723   5.105
 1680SOL    HW1 5939   0.974   1.681   5.137
 1680SOL    HW2 5940   1.067   1.815   5.143
 1681SOL     OW 5941   6.042   5.213   1.413
 1681SOL    HW1 5942   6.060   5.246   1.320
 1681SOL    HW2 5943   6.118   5.237   1.473
 1682SOL     OW 5944   6.206   3.240   5.359
 1682SOL    HW1 5945   6.118   3.260   5.401
 1682SOL    HW2 5946   6.213   3.287   5.271
 1683SOL     OW 5947   5.875   5.773   0.261
 1683SOL    HW1 5948   5.940   5.763   0.186
 1683SOL    HW2 5949   5.784   5.792   0.224
 1684SOL     OW 5950   0.749   5.954   4.619
 1684SOL    HW1 5951   0.797   5.904   4.691
 1684SOL    HW2 5952   0.803   6.034   4.592
 1685SOL     OW 5953   1.362   1.687   0.010
 1685SOL    HW1 5954   1.381   1.759   6.966
 1685SOL    HW2 5955   1.440   1.625   0.016
 1686SOL     OW 5956   1.715   5.906   6.527
 1686SOL    HW1 5957   1.650   5.837   6.496
 1686SOL    HW2 5958   1.667   5.979   6.575
 1687SOL     OW 5959   1.438   0.160   1.650
 1687SOL    HW1 5960   1.386   0.227   1.704
 1687SOL    HW2 5961   1.532   0.193   1.639
 1688SOL     OW 5962   0.471   1.914   3.539
 1688SOL    HW1 5963   0.383   1.870   3.522
 1688SOL    HW2 5964   0.543   1.860   3.496
 1689SOL     OW 5965   2.788   1.094   2.457
 1689SOL    HW1 5966   2.844   1.014   2.437
 1689SOL    HW2 5967   2.696   1.081   2.419
 1690SOL     OW 5968   0.720   2.356   1.034
 1690SOL    HW1 5969   0.649   2.286   1.029
 1690SOL    HW2 5970   0.687   2.434   1.087
 1691SOL     OW 5971   4.580   4.974   2.603
 1691SOL    HW1 5972   4.552   5.015   2.517
 1691SOL    HW2 5973   4.522   5.009   2.677
 1692SOL     OW 5974   1.337   0.926   4.144
 1692SOL    HW1 5975   1.391   0.988   4.201
 1692SOL    HW2 5976   1.284   0.978   4.078
 1693SOL     OW 5977   2.837   2.279   3.728
 1693SOL    HW1 5978   2.776   2.200   3.732
 1693SOL    HW2 5979   2.917   2.256   3.673
 1694SOL     OW 5980   4.597   6.179   5.920
 1694SOL    HW1 5981   4.504   6.205   5.894
 1694SOL    HW2 5982   4.598   6.152   6.016
 1695SOL     OW 5983   2.428   1.868   6.003
 1695SOL    HW1 5984   2.365   1.894   5.931
 1695SOL    HW2 5985   2.508   1.928   6.000
 1696SOL     OW 5986   3.327   5.457   1.267
 1696SOL    HW1 5987   3.245   5.515   1.270
 1696SOL    HW2 5988   3.407   5.515   1.252
 1697SOL     OW 5989   1.279   1.242   1.759
 1697SOL    HW1 5990   1.264   1.159   1.706
 1697SOL    HW2 5991   1.360   1.290   1.725
 1698SOL     OW 5992   5.079   2.060   0.760
 1698SOL    HW1 5993   5.177   2.048   0.779
 1698SOL    HW2 5994   5.026   2.014   0.832
 1699SOL     OW 5995   2.152   3.942   1.082
 1699SOL    HW1 5996   2.144   4.040   1.101
 1699SOL    HW2 5997   2.242   3.910   1.110
 1700SOL     OW 5998   6.542   3.138   4.414
 1700SOL    HW1 5999   6.632   3.141   4.458
 1700SOL    HW2 6000   6.552   3.117   4.317
 1701SOL     OW 6001   6.006   3.510   4.750
 1701SOL    HW1 6002   6.001   3.571   4.671
 1701SOL    HW2 6003   6.049   3.424   4.724
 1702SOL     OW 6004   4.665   2.566   1.362
 1702SOL    HW1 6005   4.743   2.602   1.412
 1702SOL    HW2 6006   4.597   2.639   1.350
 1703SOL     OW 6007   1.903   4.349   0.435
 1703SOL    HW1 6008   1.888   4.250   0.433
 1703SOL    HW2 6009   1.991   4.370   0.392
 1704SOL     OW 6010   1.034   1.040   2.161
 1704SOL    HW1 6011   1.057   0.979   2.086
 1704SOL    HW2 6012   1.088   1.016   2.241
 1705SOL     OW 6013   3.925   3.390   1.893
 1705SOL    HW1 6014   3.980   3.473   1.889
 1705SOL    HW2 6015   3.964   3.327   1.960
 1706SOL     OW 6016   2.638   0.957   6.585
 1706SOL    HW1 6017   2.695   1.012   6.525
 1706SOL    HW2 6018   2.541   0.978   6.568
 1707SOL     OW 6019   6.241   1.627   2.895
 1707SOL    HW1 6020   6.224   1.581   2.808
 1707SOL    HW2 6021   6.338   1.618   2.918
 1708SOL     OW 6022   0.057   4.763   2.262
 1708SOL    HW1 6023   0.049   4.845   2.319
 1708SOL    HW2 6024   0.042   4.788   2.167
 1709SOL     OW 6025   3.598   5.568   3.956
 1709SOL    HW1 6026   3.568   5.617   3.874
 1709SOL    HW2 6027   3.524   5.568   4.023
 1710SOL     OW 6028   0.162   5.808   4.253
 1710SOL    HW1 6029   0.099   5.781   4.180
 1710SOL    HW2 6030   0.124   5.886   4.302
 1711SOL     OW 6031   1.559   4.596   5.434
 1711SOL    HW1 6032   1.649   4.556   5.452
 1711SOL    HW2 6033   1.571   4.679   5.379
 1712SOL     OW 6034   1.212   4.871   1.100
 1712SOL    HW1 6035   1.213   4.840   1.005
 1712SOL    HW2 6036   1.299   4.914   1.122
 1713SOL     OW 6037   1.436   3.555   0.285
 1713SOL    HW1 6038   1.435   3.456   0.272
 1713SOL    HW2 6039   1.348   3.585   0.322
 1714SOL     OW 6040   3.506   1.614   0.277
 1714SOL    HW1 6041   3.458   1.529   0.297
 1714SOL    HW2 6042   3.514   1.626   0.178
 1715SOL     OW 6043   0.381   3.170   3.827
 1715SOL    HW1 6044   0.464   3.118   3.846
 1715SOL    HW2 6045   0.323   3.174   3.908
 1716SOL     OW 6046   0.217   6.819   0.028
 1716SOL    HW1 6047   0.134   6.765   0.014
 1716SOL    HW2 6048   0.210   6.869   0.114
 1717SOL     OW 6049   3.507   0.271   0.315
 1717SOL    HW1 6050   3.515   0.299   0.410
 1717SOL    HW2 6051   3.424   0.310   0.275
 1718SOL     OW 6052   1.016   4.877   5.179
 1718SOL    HW1 6053   1.027   4.957   5.238
 1718SOL    HW2 6054   0.989   4.907   5.087
 1719SOL     OW 6055   2.306   3.417   1.383
 1719SOL    HW1 6056   2.253   3.444   1.463
 1719SOL    HW2 6057   2.259   3.447   1.300
 1720SOL     OW 6058   6.545   1.649   1.674
 1720SOL    HW1 6059   6.461   1.659   1.621
 1720SOL    HW2 6060   6.623   1.639   1.612
 1721SOL     OW 6061   2.115   6.344   3.499
 1721SOL    HW1 6062   2.039   6.281   3.517
 1721SOL    HW2 6063   2.199   6.292   3.483
 1722SOL     OW 6064   5.567   6.736   2.152
 1722SOL    HW1 6065   5.628   6.815   2.160
 1722SOL    HW2 6066   5.618   6.652   2.174
 1723SOL     OW 6067   6.293   1.339   2.068
 1723SOL    HW1 6068   6.354   1.339   1.988
 1723SOL    HW2 6069   6.218   1.403   2.052
 1724SOL     OW 6070   4.874   0.540   6.832
 1724SOL    HW1 6071   4.965   0.509   6.803
 1724SOL    HW2 6072   4.833   0.595   6.759
 1725SOL     OW 6073   4.330   4.969   1.947
 1725SOL    HW1 6074   4.314   4.871   1.959
 1725SOL    HW2 6075   4.429   4.986   1.943
 1726SOL     OW 6076   0.332   5.048   4.718
 1726SOL    HW1 6077   0.369   5.042   4.811
 1726SOL    HW2 6078   0.304   4.957   4.687
 1727SOL     OW 6079   3.645   3.532   5.245
 1727SOL    HW1 6080   3.612   3.514   5.338
 1727SOL    HW2 6081   3.611   3.462   5.183
 1728SOL     OW 6082   4.767   4.101   3.523
 1728SOL    HW1 6083   4.759   4.070   3.428
 1728SOL    HW2 6084   4.818   4.034   3.576
 1729SOL     OW 6085   1.841   3.170   2.728
 1729SOL    HW1 6086   1.759   3.202   2.680
 1729SOL    HW2 6087   1.914   3.237   2.718
 1730SOL     OW 6088   5.886   1.942   4.637
 1730SOL    HW1 6089   5.846   1.898   4.557
 1730SOL    HW2 6090   5.877   1.881   4.716
 1731SOL     OW 6091   1.117   5.411   0.202
 1731SOL    HW1 6092   1.147   5.450   0.289
 1731SOL    HW2 6093   1.172   5.331   0.180
 1732SOL     OW 6094   0.362   4.943   0.131
 1732SOL    HW1 6095   0.363   4.954   0.032
 1732SOL    HW2 6096   0.407   4.858   0.156
 1733SOL     OW 6097   1.173   4.050   0.820
 1733SOL    HW1 6098   1.079   4.025   0.843
 1733SOL    HW2 6099   1.236   3.998   0.878
 1734SOL     OW 6100   4.843   3.165   0.999
 1734SOL    HW1 6101   4.815   3.254   1.036
 1734SOL    HW2 6102   4.836   3.167   0.900
 1735SOL     OW 6103   5.543   5.333   1.876
 1735SOL    HW1 6104   5.617   5.329   1.808
 1735SOL    HW2 6105   5.541   5.425   1.917
 1736SOL     OW 6106   3.084   3.658   0.649
 1736SOL    HW1 6107   3.091   3.687   0.554
 1736SOL    HW2 6108   3.071   3.559   0.653
 1737SOL     OW 6109   1.719   6.035   3.735
 1737SOL    HW1 6110   1.650   6.066   3.669
 1737SOL    HW2 6111   1.674   5.983   3.808
 1738SOL     OW 6112   1.274   2.081   1.616
 1738SOL    HW1 6113   1.203   2.019   1.649
 1738SOL    HW2 6114   1.244   2.124   1.531
 1739SOL     OW 6115   4.167   1.883   5.844
 1739SOL    HW1 6116   4.146   1.965   5.896
 1739SOL    HW2 6117   4.144   1.802   5.897
 1740SOL     OW 6118   0.730   1.316   5.918
 1740SOL    HW1 6119   0.698   1.221   5.918
 1740SOL    HW2 6120   0.770   1.337   5.829
 1741SOL     OW 6121   1.717   0.404   2.603
 1741SOL    HW1 6122   1.706   0.307   2.622
 1741SOL    HW2 6123   1.683   0.424   2.511
 1742SOL     OW 6124   5.841   0.500   4.445
 1742SOL    HW1 6125   5.900   0.573   4.410
 1742SOL    HW2 6126   5.786   0.463   4.371
 1743SOL     OW 6127   4.604   1.099   0.783
 1743SOL    HW1 6128   4.596   1.012   0.832
 1743SOL    HW2 6129   4.615   1.081   0.685
 1744SOL     OW 6130   3.126   0.852   1.587
 1744SOL    HW1 6131   3.183   0.801   1.523
 1744SOL    HW2 6132   3.169   0.854   1.677
 1745SOL     OW 6133   0.007   3.003   4.313
 1745SOL    HW1 6134   0.093   2.955   4.295
 1745SOL    HW2 6135   7.001   3.052   4.230
 1746SOL     OW 6136   2.745   0.435   5.984
 1746SOL    HW1 6137   2.776   0.511   5.928
 1746SOL    HW2 6138   2.807   0.423   6.062
 1747SOL     OW 6139   4.422   0.467   0.673
 1747SOL    HW1 6140   4.431   0.485   0.771
 1747SOL    HW2 6141   4.373   0.542   0.630
 1748SOL     OW 6142   5.873   1.931   1.682
 1748SOL    HW1 6143   5.835   1.896   1.597
 1748SOL    HW2 6144   5.820   1.896   1.759
 1749SOL     OW 6145   4.678   6.883   6.162
 1749SOL    HW1 6146   4.756   6.912   6.219
 1749SOL    HW2 6147   4.650   6.791   6.189
 1750SOL     OW 6148   5.233   0.705   3.539
 1750SOL    HW1 6149   5.309   0.664   3.589
 1750SOL    HW2 6150   5.186   0.770   3.598
 1751SOL     OW 6151   2.151   5.559   3.745
 1751SOL    HW1 6152   2.239   5.605   3.757
 1751SOL    HW2 6153   2.109   5.545   3.835
 1752SOL     OW 6154   6.431   2.223   0.263
 1752SOL    HW1 6155   6.495   2.180   0.326
 1752SOL    HW2 6156   6.347   2.168   0.259
 1753SOL     OW 6157   2.642   0.245   2.149
 1753SOL    HW1 6158   2.721   0.202   2.192
 1753SOL    HW2 6159   2.614   0.191   2.069
 1754SOL     OW 6160   3.591   2.587   0.799
 1754SOL    HW1 6161   3.494   2.584   0.826
 1754SOL    HW2 6162   3.642   2.519   0.850
 1755SOL     OW 6163   4.980   3.577   0.641
 1755SOL    HW1 6164   4.954   3.522   0.562
 1755SOL    HW2 6165   5.004   3.516   0.717
 1756SOL     OW 6166   6.011   5.434   4.453
 1756SOL    HW1 6167   5.936   5.486   4.411
 1756SOL    HW2 6168   6.075   5.498   4.497
 1757SOL     OW 6169   3.125   6.710   4.882
 1757SOL    HW1 6170   3.050   6.663   4.836
 1757SOL    HW2 6171   3.173   6.646   4.943
 1758SOL     OW 6172   2.750   1.125   3.496
 1758SOL    HW1 6173   2.778   1.161   3.586
 1758SOL    HW2 6174   2.830   1.114   3.438
 1759SOL     OW 6175   0.422   5.586   6.192
 1759SOL    HW1 6176   0.347   5.652   6.198
 1759SOL    HW2 6177   0.386   5.497   6.164
 1760SOL     OW 6178   5.858   0.548   2.662
 1760SOL    HW1 6179   5.930   0.508   2.605
 1760SOL    HW2 6180   5.777   0.564   2.607
 1761SOL     OW 6181   6.282   2.608   1.281
 1761SOL    HW1 6182   6.329   2.600   1.369
 1761SOL    HW2 6183   6.337   2.566   1.209
 1762SOL     OW 6184   5.966   2.272   6.789
 1762SOL    HW1 6185   5.906   2.281   6.710
 1762SOL    HW2 6186   5.925   2.316   6.868
 1763SOL     OW 6187   2.088   3.791   3.581
 1763SOL    HW1 6188   2.008   3.824   3.630
 1763SOL    HW2 6189   2.139   3.728   3.639
 1764SOL     OW 6190   6.650   2.934   4.175
 1764SOL    HW1 6191   6.647   2.844   4.131
 1764SOL    HW2 6192   6.707   2.928   4.257
 1765SOL     OW 6193   2.682   2.480   6.285
 1765SOL    HW1 6194   2.734   2.558   6.320
 1765SOL    HW2 6195   2.742   2.401   6.277
 1766SOL     OW 6196   5.499   3.037   5.307
 1766SOL    HW1 6197   5.581   3.002   5.261
 1766SOL    HW2 6198   5.467   3.120   5.261
 1767SOL     OW 6199   5.756   3.569   2.214
 1767SOL    HW1 6200   5.703   3.497   2.170
 1767SOL    HW2 6201   5.849   3.570   2.178
 1768SOL     OW 6202   5.587   6.069   3.791
 1768SOL    HW1 6203   5.672   6.032   3.828
 1768SOL    HW2 6204   5.534   6.111   3.865
 1769SOL     OW 6205   5.469   1.375   3.026
 1769SOL    HW1 6206   5.446   1.472   3.041
 1769SOL    HW2 6207   5.503   1.336   3.112
 1770SOL     OW 6208   2.668   5.171   5.115
 1770SOL    HW1 6209   2.635   5.161   5.209
 1770SOL    HW2 6210   2.696   5.081   5.080
 1771SOL     OW 6211   4.822   6.098   6.354
 1771SOL    HW1 6212   4.910   6.144   6.358
 1771SOL    HW2 6213   4.806   6.049   6.440
 1772SOL     OW 6214   3.462   6.453   2.818
 1772SOL    HW1 6215   3.463   6.355   2.836
 1772SOL    HW2 6216   3.415   6.500   2.893
 1773SOL     OW 6217   0.608   5.401   0.196
 1773SOL    HW1 6218   0.519   5.367   0.228
 1773SOL    HW2 6219   0.594   5.463   0.119
 1774SOL     OW 6220   3.548   5.182   2.144
 1774SOL    HW1 6221   3.584   5.217   2.057
 1774SOL    HW2 6222   3.566   5.084   2.150
 1775SOL     OW 6223   0.513   4.773   1.784
 1775SOL    HW1 6224   0.583   4.701   1.790
 1775SOL    HW2 6225   0.466   4.781   1.872
 1776SOL     OW 6226   2.977   5.614   5.383
 1776SOL    HW1 6227   2.943   5.666   5.305
 1776SOL    HW2 6228   2.912   5.541   5.405
 1777SOL     OW 6229   3.617   5.933   0.264
 1777SOL    HW1 6230   3.564   5.849   0.272
 1777SOL    HW2 6231   3.602   5.974   0.174
 1778SOL     OW 6232   5.654   3.303   5.297
 1778SOL    HW1 6233   5.671   3.291   5.395
 1778SOL    HW2 6234   5.561   3.275   5.276
 1779SOL     OW 6235   3.240   6.563   5.082
 1779SOL    HW1 6236   3.313   6.630   5.101
 1779SOL    HW2 6237   3.230   6.502   5.161
 1780SOL     OW 6238   3.309   3.307   6.604
 1780SOL    HW1 6239   3.407   3.311   6.586
 1780SOL    HW2 6240   3.260   3.351   6.529
 1781SOL     OW 6241   3.766   5.454   3.269
 1781SOL    HW1 6242   3.764   5.502   3.182
 1781SOL    HW2 6243   3.702   5.498   3.333
 1782SOL     OW 6244   3.483   1.862   4.111
 1782SOL    HW1 6245   3.488   1.949   4.159
 1782SOL    HW2 6246   3.568   1.846   4.061
 1783SOL     OW 6247   1.579   5.498   0.398
 1783SOL    HW1 6248   1.630   5.516   0.482
 1783SOL    HW2 6249   1.505   5.565   0.389
 1784SOL     OW 6250   3.507   6.677   5.091
 1784SOL    HW1 6251   3.530   6.682   5.188
 1784SOL    HW2 6252   3.517   6.583   5.059
 1785SOL     OW 6253   6.515   4.404   2.900
 1785SOL    HW1 6254   6.590   4.366   2.956
 1785SOL    HW2 6255   6.432   4.409   2.955
 1786SOL     OW 6256   3.167   2.492   1.334
 1786SOL    HW1 6257   3.149   2.414   1.395
 1786SOL    HW2 6258   3.222   2.560   1.383
 1787SOL     OW 6259   3.346   0.260   5.903
 1787SOL    HW1 6260   3.305   0.178   5.863
 1787SOL    HW2 6261   3.354   0.250   6.002
 1788SOL     OW 6262   1.949   5.000   4.956
 1788SOL    HW1 6263   1.960   4.902   4.967
 1788SOL    HW2 6264   2.011   5.033   4.885
 1789SOL     OW 6265   6.237   1.477   6.924
 1789SOL    HW1 6266   6.166   1.451   6.859
 1789SOL    HW2 6267   6.310   1.525   6.875
 1790SOL     OW 6268   4.131   6.726   3.118
 1790SOL    HW1 6269   4.057   6.658   3.125
 1790SOL    HW2 6270   4.211   6.683   3.077
 1791SOL     OW 6271   0.257   6.640   2.641
 1791SOL    HW1 6272   0.338   6.652   2.699
 1791SOL    HW2 6273   0.245   6.721   2.584
 1792SOL     OW 6274   1.312   3.164   5.290
 1792SOL    HW1 6275   1.408   3.138   5.297
 1792SOL    HW2 6276   1.257   3.105   5.350
 1793SOL     OW 6277   0.382   0.375   3.807
 1793SOL    HW1 6278   0.411   0.353   3.714
 1793SOL    HW2 6279   0.355   0.471   3.811
 1794SOL     OW 6280   4.105   6.008   6.244
 1794SOL    HW1 6281   4.067   5.921   6.276
 1794SOL    HW2 6282   4.204   6.008   6.257
 1795SOL     OW 6283   0.861   3.154   0.338
 1795SOL    HW1 6284   0.958   3.134   0.324
 1795SOL    HW2 6285   0.807   3.108   0.267
 1796SOL     OW 6286   3.331   0.510   6.398
 1796SOL    HW1 6287   3.276   0.582   6.441
 1796SOL    HW2 6288   3.308   0.422   6.439
 1797SOL     OW 6289   0.749   0.010   1.223
 1797SOL    HW1 6290   0.744   0.102   1.262
 1797SOL    HW2 6291   0.782   0.015   1.129
 1798SOL     OW 6292   5.323   2.467   2.830
 1798SOL    HW1 6293   5.236   2.448   2.877
 1798SOL    HW2 6294   5.312   2.548   2.772
 1799SOL     OW 6295   1.575   1.822   6.474
 1799SOL    HW1 6296   1.633   1.832   6.554
 1799SOL    HW2 6297   1.531   1.909   6.453
 1800SOL     OW 6298   4.285   5.156   2.154
 1800SOL    HW1 6299   4.308   5.083   2.090
 1800SOL    HW2 6300   4.309   5.244   2.114
 1801SOL     OW 6301   6.422   6.821   0.846
 1801SOL    HW1 6302   6.468   6.859   0.767
 1801SOL    HW2 6303   6.462   6.859   0.930
 1802SOL     OW 6304   5.438   5.678   3.843
 1802SOL    HW1 6305   5.472   5.746   3.909
 1802SOL    HW2 6306   5.421   5.723   3.755
 1803SOL     OW 6307   6.442   5.301   1.157
 1803SOL    HW1 6308   6.540   5.321   1.157
 1803SOL    HW2 6309   6.393   5.373   1.205
 1804SOL     OW 6310   3.159   3.039   5.001
 1804SOL    HW1 6311   3.252   3.026   5.036
 1804SOL    HW2 6312   3.094   2.996   5.063
 1805SOL     OW 6313   4.642   3.420   6.493
 1805SOL    HW1 6314   4.581   3.490   6.530
 1805SOL    HW2 6315   4.735   3.436   6.526
 1806SOL     OW 6316   0.276   6.705   1.749
 1806SOL    HW1 6317   0.225   6.778   1.703
 1806SOL    HW2 6318   0.214   6.650   1.805
 1807SOL     OW 6319   5.871   1.033   5.475
 1807SOL    HW1 6320   5.880   0.996   5.382
 1807SOL    HW2 6321   5.775   1.029   5.503
 1808SOL     OW 6322   1.336   4.964   3.955
 1808SOL    HW1 6323   1.325   5.064   3.949
 1808SOL    HW2 6324   1.432   4.940   3.943
 1809SOL     OW 6325   3.587   0.213   6.524
 1809SOL    HW1 6326   3.652   0.273   6.570
 1809SOL    HW2 6327   3.596   0.224   6.425
 1810SOL     OW 6328   3.407   6.181   3.117
 1810SOL    HW1 6329   3.363   6.142   3.036
 1810SOL    HW2 6330   3.341   6.185   3.192
 1811SOL     OW 6331   5.846   5.266   3.554
 1811SOL    HW1 6332   5.757   5.243   3.592
 1811SOL    HW2 6333   5.884   5.345   3.602
 1812SOL     OW 6334   4.185   5.493   6.292
 1812SOL    HW1 6335   4.157   5.397   6.289
 1812SOL    HW2 6336   4.129   5.546   6.229
 1813SOL     OW 6337   5.967   4.704   6.025
 1813SOL    HW1 6338   5.875   4.668   6.007
 1813SOL    HW2 6339   6.004   4.661   6.107
 1814SOL     OW 6340   4.911   6.764   1.832
 1814SOL    HW1 6341   4.952   6.835   1.776
 1814SOL    HW2 6342   4.882   6.802   1.920
 1815SOL     OW 6343   0.509   0.546   3.482
 1815SOL    HW1 6344   0.597   0.511   3.450
 1815SOL    HW2 6345   0.524   0.616   3.552
 1816SOL     OW 6346   0.515   4.446   0.229
 1816SOL    HW1 6347   0.601   4.401   0.252
 1816SOL    HW2 6348   0.451   4.436   0.306
 1817SOL     OW 6349   2.218   6.050   2.125
 1817SOL    HW1 6350   2.124   6.019   2.111
 1817SOL    HW2 6351   2.217   6.145   2.157
 1818SOL     OW 6352   2.612   1.331   3.145
 1818SOL    HW1 6353   2.638   1.427   3.154
 1818SOL    HW2 6354   2.691   1.273   3.164
 1819SOL     OW 6355   1.867   4.670   2.045
 1819SOL    HW1 6356   1.809   4.661   1.964
 1819SOL    HW2 6357   1.910   4.582   2.065
 1820SOL     OW 6358   5.006   0.384   2.503
 1820SOL    HW1 6359   4.937   0.418   2.438
 1820SOL    HW2 6360   5.024   0.454   2.571
 1821SOL     OW 6361   3.002   2.219   3.045
 1821SOL    HW1 6362   3.077   2.210   2.980
 1821SOL    HW2 6363   2.915   2.223   2.995
 1822SOL     OW 6364   3.462   3.080   1.516
 1822SOL    HW1 6365   3.535   3.031   1.468
 1822SOL    HW2 6366   3.499   3.164   1.556
 1823SOL     OW 6367   3.989   6.588   2.542
 1823SOL    HW1 6368   4.029   6.505   2.503
 1823SOL    HW2 6369   3.901   6.606   2.499
 1824SOL     OW 6370   5.162   2.781   1.381
 1824SOL    HW1 6371   5.207   2.706   1.430
 1824SOL    HW2 6372   5.107   2.745   1.306
 1825SOL     OW 6373   1.266   0.768   1.716
 1825SOL    HW1 6374   1.323   0.723   1.647
 1825SOL    HW2 6375   1.317   0.845   1.756
 1826SOL     OW 6376   3.310   6.592   6.784
 1826SOL    HW1 6377   3.242   6.526   6.818
 1826SOL    HW2 6378   3.386   6.542   6.742
 1827SOL     OW 6379   6.644   6.472   1.498
 1827SOL    HW1 6380   6.565   6.510   1.448
 1827SOL    HW2 6381   6.660   6.378   1.468
 1828SOL     OW 6382   1.632   2.308   6.702
 1828SOL    HW1 6383   1.555   2.245   6.706
 1828SOL    HW2 6384   1.696   2.287   6.776
 1829SOL     OW 6385   5.777   5.280   1.718
 1829SOL    HW1 6386   5.868   5.253   1.750
 1829SOL    HW2 6387   5.732   5.201   1.676
 1830SOL     OW 6388   4.824   6.356   3.854
 1830SOL    HW1 6389   4.725   6.354   3.869
 1830SOL    HW2 6390   4.867   6.418   3.920
 1831SOL     OW 6391   4.847   0.152   2.663
 1831SOL    HW1 6392   4.911   0.207   2.609
 1831SOL    HW2 6393   4.857   0.174   2.760
 1832SOL     OW 6394   5.053   2.798   0.845
 1832SOL    HW1 6395   5.130   2.847   0.803
 1832SOL    HW2 6396   5.069   2.789   0.943
 1833SOL     OW 6397   5.892   1.648   5.731
 1833SOL    HW1 6398   5.971   1.638   5.791
 1833SOL    HW2 6399   5.905   1.727   5.672
 1834SOL     OW 6400   2.757   3.503   0.544
 1834SOL    HW1 6401   2.808   3.417   0.545
 1834SOL    HW2 6402   2.776   3.552   0.459
 1835SOL     OW 6403   1.577   4.634   0.209
 1835SOL    HW1 6404   1.610   4.719   0.168
 1835SOL    HW2 6405   1.653   4.571   0.223
 1836SOL     OW 6406   0.387   6.138   0.910
 1836SOL    HW1 6407   0.467   6.167   0.858
 1836SOL    HW2 6408   0.315   6.108   0.848
 1837SOL     OW 6409   1.217   2.623   4.766
 1837SOL    HW1 6410   1.129   2.668   4.782
 1837SOL    HW2 6411   1.252   2.650   4.676
 1838SOL     OW 6412   6.473   2.412   4.091
 1838SOL    HW1 6413   6.421   2.383   4.171
 1838SOL    HW2 6414   6.426   2.382   4.008
 1839SOL     OW 6415   0.071   2.124   5.912
 1839SOL    HW1 6416   0.073   2.047   5.848
 1839SOL    HW2 6417   0.069   2.089   6.006
 1840SOL     OW 6418   1.455   4.958   1.204
 1840SOL    HW1 6419   1.482   4.911   1.289
 1840SOL    HW2 6420   1.536   4.975   1.148
 1841SOL     OW 6421   1.572   2.451   3.762
 1841SOL    HW1 6422   1.601   2.359   3.736
 1841SOL    HW2 6423   1.559   2.455   3.861
 1842SOL     OW 6424   0.741   4.697   0.365
 1842SOL    HW1 6425   0.735   4.639   0.447
 1842SOL    HW2 6426   0.834   4.732   0.356
 1843SOL     OW 6427   3.249   1.723   4.670
 1843SOL    HW1 6428   3.163   1.756   4.630
 1843SOL    HW2 6429   3.278   1.785   4.743
 1844SOL     OW 6430   4.804   2.969   3.752
 1844SOL    HW1 6431   4.829   2.914   3.672
 1844SOL    HW2 6432   4.806   3.066   3.728
 1845SOL     OW 6433   4.382   0.489   7.008
 1845SOL    HW1 6434   4.343   0.401   0.013
 1845SOL    HW2 6435   4.374   0.554   0.060
 1846SOL     OW 6436   3.525   1.152   5.833
 1846SOL    HW1 6437   3.505   1.069   5.886
 1846SOL    HW2 6438   3.610   1.193   5.867
 1847SOL     OW 6439   0.698   6.970   0.678
 1847SOL    HW1 6440   0.671   0.043   0.660
 1847SOL    HW2 6441   0.779   6.948   0.623
 1848SOL     OW 6442   3.111   6.773   2.309
 1848SOL    HW1 6443   3.177   6.699   2.317
 1848SOL    HW2 6444   3.111   6.808   2.216
 1849SOL     OW 6445   2.504   1.552   6.616
 1849SOL    HW1 6446   2.459   1.638   6.640
 1849SOL    HW2 6447   2.441   1.475   6.634
 1850SOL     OW 6448   5.727   1.779   1.876
 1850SOL    HW1 6449   5.770   1.690   1.866
 1850SOL    HW2 6450   5.654   1.789   1.808
 1851SOL     OW 6451   6.927   2.954   2.558
 1851SOL    HW1 6452   6.980   3.021   2.505
 1851SOL    HW2 6453   6.899   2.879   2.498
 1852SOL     OW 6454   5.234   3.191   0.146
 1852SOL    HW1 6455   5.283   3.154   0.225
 1852SOL    HW2 6456   5.256   3.137   0.065
 1853SOL     OW 6457   1.841   4.712   0.726
 1853SOL    HW1 6458   1.841   4.778   0.801
 1853SOL    HW2 6459   1.924   4.725   0.671
 1854SOL     OW 6460   2.528   5.918   4.409
 1854SOL    HW1 6461   2.469   5.841   4.433
 1854SOL    HW2 6462   2.554   5.967   4.493
 1855SOL     OW 6463   4.907   4.891   2.050
 1855SOL    HW1 6464   4.867   4.890   2.142
 1855SOL    HW2 6465   5.006   4.904   2.058
 1856SOL     OW 6466   5.103   2.152   5.356
 1856SOL    HW1 6467   5.164   2.130   5.280
 1856SOL    HW2 6468   5.121   2.090   5.432
 1857SOL     OW 6469   4.959   0.954   3.012
 1857SOL    HW1 6470   4.942   1.007   3.095
 1857SOL    HW2 6471   5.018   1.006   2.950
 1858SOL     OW 6472   5.167   3.583   3.599
 1858SOL    HW1 6473   5.165   3.676   3.634
 1858SOL    HW2 6474   5.075   3.544   3.602
 1859SOL     OW 6475   5.055   1.690   2.834
 1859SOL    HW1 6476   5.151   1.661   2.832
 1859SOL    HW2 6477   5.044   1.764   2.900
 1860SOL     OW 6478   4.988   1.122   4.723
 1860SOL    HW1 6479   4.923   1.052   4.693
 1860SOL    HW2 6480   5.069   1.078   4.761
 1861SOL     OW 6481   5.682   6.439   2.596
 1861SOL    HW1 6482   5.593   6.400   2.570
 1861SOL    HW2 6483   5.676   6.476   2.688
 1862SOL     OW 6484   2.054   1.820   0.273
 1862SOL    HW1 6485   2.145   1.811   0.233
 1862SOL    HW2 6486   1.990   1.855   0.204
 1863SOL     OW 6487   2.755   3.063   1.495
 1863SOL    HW1 6488   2.764   2.971   1.531
 1863SOL    HW2 6489   2.708   3.060   1.406
 1864SOL     OW 6490   1.405   6.259   3.837
 1864SOL    HW1 6491   1.328   6.322   3.828
 1864SOL    HW2 6492   1.422   6.213   3.750
 1865SOL     OW 6493   4.290   2.363   6.668
 1865SOL    HW1 6494   4.298   2.443   6.609
 1865SOL    HW2 6495   4.291   2.392   6.764
 1866SOL     OW 6496   4.436   5.317   2.812
 1866SOL    HW1 6497   4.378   5.357   2.883
 1866SOL    HW2 6498   4.430   5.217   2.817
 1867SOL     OW 6499   0.780   4.055   6.767
 1867SOL    HW1 6500   0.721   4.103   6.832
 1867SOL    HW2 6501   0.864   4.107   6.753
 1868SOL     OW 6502   5.672   3.866   4.820
 1868SOL    HW1 6503   5.742   3.895   4.756
 1868SOL    HW2 6504   5.710   3.799   4.884
 1869SOL     OW 6505   6.152   1.149   5.285
 1869SOL    HW1 6506   6.115   1.242   5.277
 1869SOL    HW2 6507   6.080   1.087   5.314
 1870SOL     OW 6508   1.674   5.554   4.571
 1870SOL    HW1 6509   1.681   5.529   4.668
 1870SOL    HW2 6510   1.762   5.541   4.526
 1871SOL     OW 6511   1.463   6.942   0.591
 1871SOL    HW1 6512   1.506   6.992   0.516
 1871SOL    HW2 6513   1.514   6.958   0.675
 1872SOL     OW 6514   2.500   4.676   0.120
 1872SOL    HW1 6515   2.577   4.727   0.157
 1872SOL    HW2 6516   2.526   4.580   0.107
 1873SOL     OW 6517   4.393   1.958   6.930
 1873SOL    HW1 6518   4.355   1.962   6.838
 1873SOL    HW2 6519   4.459   1.883   6.936
 1874SOL     OW 6520   1.299   2.195   2.185
 1874SOL    HW1 6521   1.374   2.254   2.154
 1874SOL    HW2 6522   1.257   2.236   2.266
 1875SOL     OW 6523   0.642   6.837   0.288
 1875SOL    HW1 6524   0.680   6.768   0.227
 1875SOL    HW2 6525   0.710   6.909   0.303
 1876SOL     OW 6526   2.365   6.938   4.704
 1876SOL    HW1 6527   2.308   6.876   4.758
 1876SOL    HW2 6528   2.343   0.011   4.728
 1877SOL     OW 6529   0.884   6.815   3.704
 1877SOL    HW1 6530   0.833   6.736   3.668
 1877SOL    HW2 6531   0.982   6.795   3.701
 1878SOL     OW 6532   5.958   2.569   5.645
 1878SOL    HW1 6533   5.971   2.666   5.667
 1878SOL    HW2 6534   6.036   2.536   5.592
 1879SOL     OW 6535   1.314   4.273   4.892
 1879SOL    HW1 6536   1.317   4.200   4.823
 1879SOL    HW2 6537   1.261   4.241   4.971
 1880SOL     OW 6538   6.057   0.437   5.715
 1880SOL    HW1 6539   6.132   0.503   5.715
 1880SOL    HW2 6540   6.067   0.377   5.636
 1881SOL     OW 6541   6.688   2.451   0.191
 1881SOL    HW1 6542   6.704   2.533   0.247
 1881SOL    HW2 6543   6.592   2.446   0.166
 1882SOL     OW 6544   0.664   5.314   6.302
 1882SOL    HW1 6545   0.682   5.218   6.280
 1882SOL    HW2 6546   0.572   5.339   6.271
 1883SOL     OW 6547   0.135   1.958   4.214
 1883SOL    HW1 6548   0.079   1.921   4.140
 1883SOL    HW2 6549   0.107   1.917   4.301
 1884SOL     OW 6550   0.085   2.629   1.348
 1884SOL    HW1 6551   0.132   2.614   1.261
 1884SOL    HW2 6552   0.014   2.699   1.336
 1885SOL     OW 6553   2.207   1.778   4.206
 1885SOL    HW1 6554   2.122   1.729   4.228
 1885SOL    HW2 6555   2.258   1.795   4.290
 1886SOL     OW 6556   1.388   0.091   3.194
 1886SOL    HW1 6557   1.387   0.013   3.130
 1886SOL    HW2 6558   1.454   0.073   3.266
 1887SOL     OW 6559   1.984   5.922   6.379
 1887SOL    HW1 6560   1.924   5.993   6.341
 1887SOL    HW2 6561   1.938   5.879   6.457
 1888SOL     OW 6562   2.904   0.904   1.741
 1888SOL    HW1 6563   2.908   1.003   1.751
 1888SOL    HW2 6564   2.964   0.875   1.667
 1889SOL     OW 6565   0.223   3.072   3.248
 1889SOL    HW1 6566   0.282   3.021   3.311
 1889SOL    HW2 6567   0.243   3.043   3.154
 1890SOL     OW 6568   0.431   5.862   4.121
 1890SOL    HW1 6569   0.365   5.834   4.191
 1890SOL    HW2 6570   0.439   5.961   4.120
 1891SOL     OW 6571   3.420   3.158   3.322
 1891SOL    HW1 6572   3.354   3.234   3.326
 1891SOL    HW2 6573   3.370   3.073   3.309
 1892SOL     OW 6574   0.748   0.700   2.729
 1892SOL    HW1 6575   0.657   0.741   2.725
 1892SOL    HW2 6576   0.740   0.600   2.732
 1893SOL     OW 6577   3.490   2.923   4.392
 1893SOL    HW1 6578   3.540   2.864   4.329
 1893SOL    HW2 6579   3.530   2.915   4.484
 1894SOL     OW 6580   2.956   3.533   3.968
 1894SOL    HW1 6581   2.949   3.549   4.066
 1894SOL    HW2 6582   2.893   3.460   3.941
 1895SOL     OW 6583   2.015   5.713   6.596
 1895SOL    HW1 6584   1.971   5.623   6.589
 1895SOL    HW2 6585   2.113   5.703   6.581
 1896SOL     OW 6586   5.251   2.873   0.655
 1896SOL    HW1 6587   5.208   2.826   0.579
 1896SOL    HW2 6588   5.304   2.808   0.709
 1897SOL     OW 6589   1.835   4.723   4.276
 1897SOL    HW1 6590   1.778   4.738   4.357
 1897SOL    HW2 6591   1.858   4.810   4.234
 1898SOL     OW 6592   1.563   6.265   3.414
 1898SOL    HW1 6593   1.540   6.361   3.400
 1898SOL    HW2 6594   1.657   6.248   3.383
 1899SOL     OW 6595   0.405   0.554   2.456
 1899SOL    HW1 6596   0.428   0.515   2.545
 1899SOL    HW2 6597   0.308   0.540   2.437
 1900SOL     OW 6598   2.395   6.918   0.157
 1900SOL    HW1 6599   2.300   6.895   0.137
 1900SOL    HW2 6600   2.446   6.833   0.176
 1901SOL     OW 6601   2.944   3.757   1.232
 1901SOL    HW1 6602   2.999   3.809   1.298
 1901SOL    HW2 6603   2.904   3.820   1.165
 1902SOL     OW 6604   1.515   6.444   4.248
 1902SOL    HW1 6605   1.552   6.483   4.332
 1902SOL    HW2 6606   1.416   6.432   4.257
 1903SOL     OW 6607   0.651   2.569   4.395
 1903SOL    HW1 6608   0.705   2.485   4.388
 1903SOL    HW2 6609   0.612   2.575   4.487
 1904SOL     OW 6610   5.532   5.615   1.958
 1904SOL    HW1 6611   5.560   5.633   2.052
 1904SOL    HW2 6612   5.433   5.606   1.954
 1905SOL     OW 6613   6.871   0.950   3.846
 1905SOL    HW1 6614   6.886   0.941   3.748
 1905SOL    HW2 6615   6.894   1.042   3.876
 1906SOL     OW 6616   1.733   0.159   5.493
 1906SOL    HW1 6617   1.806   0.092   5.476
 1906SOL    HW2 6618   1.682   0.132   5.575
 1907SOL     OW 6619   6.059   2.719   0.158
 1907SOL    HW1 6620   6.124   2.791   0.133
 1907SOL    HW2 6621   6.088   2.676   0.244
 1908SOL     OW 6622   3.104   1.459   1.117
 1908SOL    HW1 6623   3.045   1.415   1.184
 1908SOL    HW2 6624   3.188   1.489   1.161
 1909SOL     OW 6625   6.634   4.522   4.925
 1909SOL    HW1 6626   6.708   4.575   4.966
 1909SOL    HW2 6627   6.547   4.549   4.967
 1910SOL     OW 6628   6.965   6.300   5.542
 1910SOL    HW1 6629   6.868   6.282   5.524
 1910SOL    HW2 6630   7.018   6.276   5.460
 1911SOL     OW 6631   0.073   5.189   4.111
 1911SOL    HW1 6632   0.151   5.131   4.132
 1911SOL    HW2 6633   0.086   5.230   4.020
 1912SOL     OW 6634   2.813   5.279   2.094
 1912SOL    HW1 6635   2.795   5.183   2.116
 1912SOL    HW2 6636   2.744   5.336   2.137
 1913SOL     OW 6637   3.495   4.379   6.540
 1913SOL    HW1 6638   3.589   4.362   6.511
 1913SOL    HW2 6639   3.441   4.295   6.532
 1914SOL     OW 6640   2.458   4.757   6.086
 1914SOL    HW1 6641   2.509   4.675   6.113
 1914SOL    HW2 6642   2.427   4.805   6.168
 1915SOL     OW 6643   4.362   2.522   5.506
 1915SOL    HW1 6644   4.395   2.616   5.519
 1915SOL    HW2 6645   4.428   2.459   5.548
 1916SOL     OW 6646   4.214   1.001   2.368
 1916SOL    HW1 6647   4.287   1.041   2.312
 1916SOL    HW2 6648   4.163   0.934   2.312
 1917SOL     OW 6649   2.313   4.062   1.443
 1917SOL    HW1 6650   2.221   4.073   1.480
 1917SOL    HW2 6651   2.363   4.148   1.451
 1918SOL     OW 6652   5.510   2.867   3.816
 1918SOL    HW1 6653   5.501   2.963   3.788
 1918SOL    HW2 6654   5.419   2.831   3.838
 1919SOL     OW 6655   0.005   2.311   0.574
 1919SOL    HW1 6656   0.072   2.374   0.612
 1919SOL    HW2 6657   6.969   2.276   0.647
 1920SOL     OW 6658   4.769   2.907   0.895
 1920SOL    HW1 6659   4.847   2.860   0.854
 1920SOL    HW2 6660   4.802   2.986   0.946
 1921SOL     OW 6661   1.987   2.735   0.003
 1921SOL    HW1 6662   2.085   2.751   0.008
 1921SOL    HW2 6663   1.967   2.666   6.956
 1922SOL     OW 6664   3.547   3.130   2.063
 1922SOL    HW1 6665   3.586   3.091   2.146
 1922SOL    HW2 6666   3.463   3.081   2.039
 1923SOL     OW 6667   3.600   0.423   4.923
 1923SOL    HW1 6668   3.506   0.457   4.927
 1923SOL    HW2 6669   3.663   0.501   4.923
 1924SOL     OW 6670   4.400   0.582   6.704
 1924SOL    HW1 6671   4.367   0.571   6.610
 1924SOL    HW2 6672   4.335   0.638   6.756
 1925SOL     OW 6673   1.702   4.032   0.706
 1925SOL    HW1 6674   1.666   3.941   0.725
 1925SOL    HW2 6675   1.668   4.097   0.774
 1926SOL     OW 6676   3.856   0.312   1.558
 1926SOL    HW1 6677   3.936   0.270   1.600
 1926SOL    HW2 6678   3.863   0.303   1.458
 1927SOL     OW 6679   2.236   5.241   1.507
 1927SOL    HW1 6680   2.281   5.189   1.580
 1927SOL    HW2 6681   2.303   5.300   1.462
 1928SOL     OW 6682   5.137   4.664   3.640
 1928SOL    HW1 6683   5.100   4.572   3.650
 1928SOL    HW2 6684   5.085   4.714   3.571
 1929SOL     OW 6685   3.406   0.112   2.802
 1929SOL    HW1 6686   3.423   0.200   2.846
 1929SOL    HW2 6687   3.307   0.100   2.789
 1930SOL     OW 6688   4.222   3.318   6.929
 1930SOL    HW1 6689   4.252   3.305   6.834
 1930SOL    HW2 6690   4.146   3.256   6.948
 1931SOL     OW 6691   6.843   1.938   4.726
 1931SOL    HW1 6692   6.791   1.997   4.788
 1931SOL    HW2 6693   6.941   1.947   4.746
 1932SOL     OW 6694   4.150   1.963   1.974
 1932SOL    HW1 6695   4.129   2.060   1.967
 1932SOL    HW2 6696   4.065   1.910   1.977
 1933SOL     OW 6697   0.884   0.776   1.482
 1933SOL    HW1 6698   0.934   0.823   1.555
 1933SOL    HW2 6699   0.927   0.797   1.394
 1934SOL     OW 6700   0.012   0.628   0.096
 1934SOL    HW1 6701   6.978   0.552   0.127
 1934SOL    HW2 6702   0.075   0.655   0.169
 1935SOL     OW 6703   6.695   5.357   4.033
 1935SOL    HW1 6704   6.729   5.277   4.082
 1935SOL    HW2 6705   6.597   5.346   4.016
 1936SOL     OW 6706   4.780   2.826   5.752
 1936SOL    HW1 6707   4.730   2.758   5.805
 1936SOL    HW2 6708   4.822   2.783   5.673
 1937SOL     OW 6709   5.740   5.058   6.642
 1937SOL    HW1 6710   5.659   5.079   6.588
 1937SOL    HW2 6711   5.712   5.019   6.730
 1938SOL     OW 6712   6.956   3.184   6.673
 1938SOL    HW1 6713   6.888   3.157   6.741
 1938SOL    HW2 6714   0.004   3.240   6.716
 1939SOL     OW 6715   1.335   0.597   4.712
 1939SOL    HW1 6716   1.326   0.647   4.799
 1939SOL    HW2 6717   1.258   0.534   4.702
 1940SOL     OW 6718   6.706   5.175   0.500
 1940SOL    HW1 6719   6.802   5.162   0.477
 1940SOL    HW2 6720   6.694   5.266   0.539
 1941SOL     OW 6721   4.961   1.755   4.414
 1941SOL    HW1 6722   5.007   1.772   4.501
 1941SOL    HW2 6723   4.970   1.658   4.389
 1942SOL     OW 6724   6.287   4.085   2.844
 1942SOL    HW1 6725   6.244   4.077   2.934
 1942SOL    HW2 6726   6.385   4.069   2.853
 1943SOL     OW 6727   0.810   2.354   2.644
 1943SOL    HW1 6728   0.835   2.281   2.707
 1943SOL    HW2 6729   0.811   2.441   2.692
 1944SOL     OW 6730   0.152   2.888   3.628
 1944SOL    HW1 6731   0.086   2.962   3.633
 1944SOL    HW2 6732   0.129   2.817   3.694
 1945SOL     OW 6733   4.873   1.663   1.830
 1945SOL    HW1 6734   4.788   1.632   1.874
 1945SOL    HW2 6735   4.933   1.702   1.900
 1946SOL     OW 6736   6.720   5.542   1.023
 1946SOL    HW1 6737   6.762   5.487   0.951
 1946SOL    HW2 6738   6.734   5.497   1.111
 1947SOL     OW 6739   6.383   4.848   3.430
 1947SOL    HW1 6740   6.432   4.932   3.454
 1947SOL    HW2 6741   6.285   4.867   3.423
 1948SOL     OW 6742   5.292   3.354   3.092
 1948SOL    HW1 6743   5.311   3.329   2.997
 1948SOL    HW2 6744   5.311   3.452   3.105
 1949SOL     OW 6745   3.344   5.216   0.084
 1949SOL    HW1 6746   3.304   5.306   0.102
 1949SOL    HW2 6747   3.272   5.147   0.083
 1950SOL     OW 6748   3.347   3.599   3.113
 1950SOL    HW1 6749   3.409   3.527   3.143
 1950SOL    HW2 6750   3.379   3.687   3.148
 1951SOL     OW 6751   5.726   5.025   5.487
 1951SOL    HW1 6752   5.698   5.116   5.519
 1951SOL    HW2 6753   5.783   4.982   5.556
 1952SOL     OW 6754   6.078   5.508   0.644
 1952SOL    HW1 6755   6.016   5.500   0.566
 1952SOL    HW2 6756   6.148   5.576   0.624
 1953SOL     OW 6757   0.521   1.346   6.879
 1953SOL    HW1 6758   0.451   1.408   6.841
 1953SOL    HW2 6759   0.608   1.363   6.834
 1954SOL     OW 6760   3.944   0.153   2.103
 1954SOL    HW1 6761   3.908   0.232   2.053
 1954SOL    HW2 6762   3.919   0.159   2.199
 1955SOL     OW 6763   7.016   2.167   3.970
 1955SOL    HW1 6764   0.065   2.110   3.930
 1955SOL    HW2 6765   6.961   2.112   4.034
 1956SOL     OW 6766   5.646   0.732   1.951
 1956SOL    HW1 6767   5.619   0.640   1.923
 1956SOL    HW2 6768   5.661   0.734   2.050
 1957SOL     OW 6769   6.129   2.046   4.713
 1957SOL    HW1 6770   6.184   1.995   4.646
 1957SOL    HW2 6771   6.040   2.001   4.723
 1958SOL     OW 6772   4.278   1.553   0.552
 1958SOL    HW1 6773   4.184   1.582   0.569
 1958SOL    HW2 6774   4.280   1.454   0.537
 1959SOL     OW 6775   0.878   1.493   5.450
 1959SOL    HW1 6776   0.872   1.589   5.424
 1959SOL    HW2 6777   0.974   1.469   5.467
 1960SOL     OW 6778   5.769   4.181   4.258
 1960SOL    HW1 6779   5.756   4.103   4.196
 1960SOL    HW2 6780   5.861   4.176   4.298
 1961SOL     OW 6781   0.085   3.795   3.966
 1961SOL    HW1 6782   0.037   3.734   3.903
 1961SOL    HW2 6783   0.168   3.831   3.922
 1962SOL     OW 6784   0.969   0.524   2.826
 1962SOL    HW1 6785   0.924   0.563   2.907
 1962SOL    HW2 6786   0.984   0.426   2.840
 1963SOL     OW 6787   0.206   2.471   0.287
 1963SOL    HW1 6788   0.259   2.437   0.364
 1963SOL    HW2 6789   0.129   2.410   0.269
 1964SOL     OW 6790   5.654   3.878   0.723
 1964SOL    HW1 6791   5.595   3.959   0.728
 1964SOL    HW2 6792   5.674   3.845   0.815
 1965SOL     OW 6793   6.284   4.079   3.830
 1965SOL    HW1 6794   6.281   4.179   3.830
 1965SOL    HW2 6795   6.319   4.046   3.742
 1966SOL     OW 6796   1.274   4.655   0.173
 1966SOL    HW1 6797   1.370   4.633   0.160
 1966SOL    HW2 6798   1.266   4.750   0.205
 1967SOL     OW 6799   6.374   2.982   4.207
 1967SOL    HW1 6800   6.324   2.957   4.123
 1967SOL    HW2 6801   6.470   2.959   4.195
 1968SOL     OW 6802   2.832   1.460   4.938
 1968SOL    HW1 6803   2.811   1.459   5.036
 1968SOL    HW2 6804   2.928   1.483   4.925
 1969SOL     OW 6805   1.776   6.099   0.629
 1969SOL    HW1 6806   1.757   6.180   0.572
 1969SOL    HW2 6807   1.828   6.033   0.576
 1970SOL     OW 6808   5.895   5.726   4.544
 1970SOL    HW1 6809   5.850   5.728   4.455
 1970SOL    HW2 6810   5.825   5.716   4.616
 1971SOL     OW 6811   1.464   5.487   5.239
 1971SOL    HW1 6812   1.416   5.467   5.324
 1971SOL    HW2 6813   1.515   5.573   5.248
 1972SOL     OW 6814   5.729   2.636   2.186
 1972SOL    HW1 6815   5.725   2.616   2.088
 1972SOL    HW2 6816   5.818   2.609   2.223
 1973SOL     OW 6817   2.616   2.708   1.047
 1973SOL    HW1 6818   2.686   2.757   1.098
 1973SOL    HW2 6819   2.568   2.645   1.108
 1974SOL     OW 6820   2.465   5.422   5.124
 1974SOL    HW1 6821   2.422   5.332   5.132
 1974SOL    HW2 6822   2.464   5.467   5.213
 1975SOL     OW 6823   1.795   2.674   3.498
 1975SOL    HW1 6824   1.748   2.589   3.475
 1975SOL    HW2 6825   1.729   2.749   3.504
 1976SOL     OW 6826   0.992   0.279   5.418
 1976SOL    HW1 6827   1.016   0.334   5.338
 1976SOL    HW2 6828   0.906   0.230   5.401
 1977SOL     OW 6829   1.779   4.449   5.958
 1977SOL    HW1 6830   1.751   4.535   5.917
 1977SOL    HW2 6831   1.733   4.373   5.912
 1978SOL     OW 6832   2.978   0.157   1.851
 1978SOL    HW1 6833   2.968   0.256   1.845
 1978SOL    HW2 6834   3.071   0.131   1.824
 1979SOL     OW 6835   6.222   4.471   6.282
 1979SOL    HW1 6836   6.174   4.437   6.201
 1979SOL    HW2 6837   6.320   4.450   6.273
 1980SOL     OW 6838   3.418   1.226   1.037
 1980SOL    HW1 6839   3.343   1.209   0.972
 1980SOL    HW2 6840   3.389   1.200   1.129
 1981SOL     OW 6841   3.528   1.986   2.606
 1981SOL    HW1 6842   3.453   2.042   2.571
 1981SOL    HW2 6843   3.501   1.945   2.693
 1982SOL     OW 6844   0.865   3.032   5.288
 1982SOL    HW1 6845   0.842   2.986   5.203
 1982SOL    HW2 6846   0.789   3.091   5.316
 1983SOL     OW 6847   0.516   0.830   2.467
 1983SOL    HW1 6848   0.496   0.869   2.557
 1983SOL    HW2 6849   0.459   0.750   2.452
 1984SOL     OW 6850   4.292   3.335   5.614
 1984SOL    HW1 6851   4.284   3.276   5.534
 1984SOL    HW2 6852   4.387   3.362   5.628
 1985SOL     OW 6853   6.430   2.745   2.956
 1985SOL    HW1 6854   6.513   2.708   2.916
 1985SOL    HW2 6855   6.355   2.738   2.890
 1986SOL     OW 6856   3.854   2.928   2.104
 1986SOL    HW1 6857   3.821   2.907   2.012
 1986SOL    HW2 6858   3.902   2.849   2.141
 1987SOL     OW 6859   2.639   1.405   1.142
 1987SOL    HW1 6860   2.672   1.482   1.086
 1987SOL    HW2 6861   2.646   1.429   1.238
 1988SOL     OW 6862   0.244   2.339   1.629
 1988SOL    HW1 6863   0.177   2.302   1.566
 1988SOL    HW2 6864   0.336   2.323   1.594
 1989SOL     OW 6865   2.858   4.806   4.800
 1989SOL    HW1 6866   2.832   4.731   4.861
 1989SOL    HW2 6867   2.840   4.779   4.705
 1990SOL     OW 6868   4.322   0.249   0.057
 1990SOL    HW1 6869   4.346   0.171   7.022
 1990SOL    HW2 6870   4.289   0.216   0.145
 1991SOL     OW 6871   2.635   5.676   1.527
 1991SOL    HW1 6872   2.606   5.618   1.450
 1991SOL    HW2 6873   2.726   5.712   1.509
 1992SOL     OW 6874   1.112   6.539   2.695
 1992SOL    HW1 6875   1.152   6.604   2.631
 1992SOL    HW2 6876   1.081   6.457   2.646
 1993SOL     OW 6877   2.266   2.299   3.310
 1993SOL    HW1 6878   2.189   2.246   3.274
 1993SOL    HW2 6879   2.232   2.382   3.354
 1994SOL     OW 6880   3.619   2.673   1.104
 1994SOL    HW1 6881   3.564   2.757   1.106
 1994SOL    HW2 6882   3.574   2.604   1.049
 1995SOL     OW 6883   5.299   1.896   4.152
 1995SOL    HW1 6884   5.267   1.984   4.188
 1995SOL    HW2 6885   5.238   1.866   4.079
 1996SOL     OW 6886   4.510   0.500   1.109
 1996SOL    HW1 6887   4.567   0.463   1.183
 1996SOL    HW2 6888   4.535   0.455   1.023
 1997SOL     OW 6889   3.949   0.861   4.052
 1997SOL    HW1 6890   3.981   0.893   4.142
 1997SOL    HW2 6891   3.854   0.832   4.060
 1998SOL     OW 6892   2.033   3.603   1.483
 1998SOL    HW1 6893   2.060   3.515   1.523
 1998SOL    HW2 6894   2.052   3.676   1.549
 1999SOL     OW 6895   0.969   6.965   0.584
 1999SOL    HW1 6896   1.000   6.872   0.607
 1999SOL    HW2 6897   1.047   0.005   0.587
 2000SOL     OW 6898   4.284   4.666   5.974
 2000SOL    HW1 6899   4.303   4.750   5.924
 2000SOL    HW2 6900   4.186   4.653   5.982
 2001SOL     OW 6901   2.336   1.997   1.375
 2001SOL    HW1 6902   2.421   1.951   1.402
 2001SOL    HW2 6903   2.334   2.006   1.275
 2002SOL     OW 6904   6.822   5.619   0.516
 2002SOL    HW1 6905   6.905   5.607   0.460
 2002SOL    HW2 6906   6.848   5.654   0.607
 2003SOL     OW 6907   5.912   5.123   2.844
 2003SOL    HW1 6908   5.821   5.158   2.822
 2003SOL    HW2 6909   5.978   5.154   2.775
 2004SOL     OW 6910   3.994   0.105   3.305
 2004SOL    HW1 6911   4.013   0.102   3.403
 2004SOL    HW2 6912   4.065   0.055   3.256
 2005SOL     OW 6913   1.786   5.926   0.197
 2005SOL    HW1 6914   1.687   5.926   0.210
 2005SOL    HW2 6915   1.831   5.957   0.281
 2006SOL     OW 6916   5.558   6.319   2.028
 2006SOL    HW1 6917   5.509   6.392   1.980
 2006SOL    HW2 6918   5.539   6.325   2.125
 2007SOL     OW 6919   5.112   4.498   6.820
 2007SOL    HW1 6920   5.154   4.507   6.910
 2007SOL    HW2 6921   5.075   4.586   6.791
 2008SOL     OW 6922   2.131   3.109   3.386
 2008SOL    HW1 6923   2.096   3.180   3.324
 2008SOL    HW2 6924   2.105   3.019   3.351
 2009SOL     OW 6925   6.434   0.056   2.877
 2009SOL    HW1 6926   6.344   0.038   2.916
 2009SOL    HW2 6927   6.485   6.993   2.872
 2010SOL     OW 6928   7.020   1.899   1.679
 2010SOL    HW1 6929   0.009   1.916   1.581
 2010SOL    HW2 6930   6.970   1.813   1.692
 2011SOL     OW 6931   1.253   6.789   5.053
 2011SOL    HW1 6932   1.234   6.882   5.085
 2011SOL    HW2 6933   1.202   6.724   5.109
 2012SOL     OW 6934   0.838   3.094   1.653
 2012SOL    HW1 6935   0.830   3.007   1.701
 2012SOL    HW2 6936   0.927   3.135   1.673
 2013SOL     OW 6937   0.492   2.655   1.797
 2013SOL    HW1 6938   0.410   2.695   1.756
 2013SOL    HW2 6939   0.467   2.582   1.860
 2014SOL     OW 6940   3.903   0.940   4.828
 2014SOL    HW1 6941   3.948   1.002   4.893
 2014SOL    HW2 6942   3.816   0.910   4.866
 2015SOL     OW 6943   3.867   6.979   1.307
 2015SOL    HW1 6944   3.924   6.962   1.387
 2015SOL    HW2 6945   3.810   0.038   1.323
 2016SOL     OW 6946   2.129   0.902   4.581
 2016SOL    HW1 6947   2.179   0.918   4.496
 2016SOL    HW2 6948   2.070   0.822   4.570
 2017SOL     OW 6949   4.305   6.454   3.916
 2017SOL    HW1 6950   4.207   6.449   3.935
 2017SOL    HW2 6951   4.324   6.530   3.853
 2018SOL     OW 6952   1.288   0.492   4.335
 2018SOL    HW1 6953   1.272   0.500   4.237
 2018SOL    HW2 6954   1.238   0.413   4.370
 2019SOL     OW 6955   5.477   5.496   6.237
 2019SOL    HW1 6956   5.410   5.554   6.191
 2019SOL    HW2 6957   5.492   5.530   6.330
 2020SOL     OW 6958   1.772   6.378   6.915
 2020SOL    HW1 6959   1.675   6.374   6.892
 2020SOL    HW2 6960   1.805   6.286   6.935
 2021SOL     OW 6961   0.058   6.224   4.394
 2021SOL    HW1 6962   7.015   6.295   4.423
 2021SOL    HW2 6963   0.024   6.134   4.421
 2022SOL     OW 6964   1.765   3.470   4.128
 2022SOL    HW1 6965   1.810   3.525   4.199
 2022SOL    HW2 6966   1.799   3.376   4.133
 2023SOL     OW 6967   6.677   6.089   6.997
 2023SOL    HW1 6968   6.628   6.062   0.058
 2023SOL    HW2 6969   6.730   6.011   6.962
 2024SOL     OW 6970   0.674   5.990   3.956
 2024SOL    HW1 6971   0.603   5.935   3.914
 2024SOL    HW2 6972   0.762   5.941   3.950
 2025SOL     OW 6973   1.621   5.880   4.846
 2025SOL    HW1 6974   1.576   5.946   4.906
 2025SOL    HW2 6975   1.588   5.788   4.866
 2026SOL     OW 6976   0.515   0.417   5.858
 2026SOL    HW1 6977   0.529   0.439   5.954
 2026SOL    HW2 6978   0.556   0.328   5.838
 2027SOL     OW 6979   6.652   6.197   2.004
 2027SOL    HW1 6980   6.591   6.172   2.078
 2027SOL    HW2 6981   6.700   6.282   2.027
 2028SOL     OW 6982   3.077   5.170   4.877
 2028SOL    HW1 6983   3.006   5.127   4.821
 2028SOL    HW2 6984   3.034   5.220   4.952
 2029SOL     OW 6985   6.575   3.144   6.378
 2029SOL    HW1 6986   6.587   3.148   6.477
 2029SOL    HW2 6987   6.538   3.230   6.345
 2030SOL     OW 6988   2.507   6.618   2.449
 2030SOL    HW1 6989   2.542   6.695   2.502
 2030SOL    HW2 6990   2.423   6.583   2.490
 2031SOL     OW 6991   0.536   6.191   4.322
 2031SOL    HW1 6992   0.562   6.198   4.226
 2031SOL    HW2 6993   0.580   6.264   4.374
 2032SOL     OW 6994   2.473   2.841   5.751
 2032SOL    HW1 6995   2.514   2.900   5.820
 2032SOL    HW2 6996   2.422   2.898   5.686
 2033SOL     OW 6997   2.301   1.911   0.710
 2033SOL    HW1 6998   2.391   1.913   0.753
 2033SOL    HW2 6999   2.231   1.890   0.779
 2034SOL     OW 7000   0.485   4.375   5.310
 2034SOL    HW1 7001   0.387   4.391   5.301
 2034SOL    HW2 7002   0.509   4.286   5.271
 2035SOL     OW 7003   5.103   0.060   3.347
 2035SOL    HW1 7004   5.127   0.150   3.312
 2035SOL    HW2 7005   5.115   0.058   3.446
 2036SOL     OW 7006   0.488   4.925   6.641
 2036SOL    HW1 7007   0.471   4.860   6.567
 2036SOL    HW2 7008   0.467   5.018   6.610
 2037SOL     OW 7009   0.845   2.538   6.772
 2037SOL    HW1 7010   0.786   2.499   6.842
 2037SOL    HW2 7011   0.930   2.486   6.767
 2038SOL     OW 7012   0.955   0.876   6.360
 2038SOL    HW1 7013   0.988   0.923   6.277
 2038SOL    HW2 7014   1.031   0.830   6.405
 2039SOL     OW 7015   5.250   6.171   3.185
 2039SOL    HW1 7016   5.188   6.204   3.256
 2039SOL    HW2 7017   5.301   6.248   3.147
 2040SOL     OW 7018   2.482   2.372   0.384
 2040SOL    HW1 7019   2.487   2.464   0.347
 2040SOL    HW2 7020   2.467   2.377   0.483
 2041SOL     OW 7021   2.774   0.745   6.467
 2041SOL    HW1 7022   2.709   0.804   6.514
 2041SOL    HW2 7023   2.843   0.713   6.532
 2042SOL     OW 7024   6.156   1.113   5.887
 2042SOL    HW1 7025   6.143   1.093   5.790
 2042SOL    HW2 7026   6.231   1.178   5.898
 2043SOL     OW 7027   0.549   4.119   1.042
 2043SOL    HW1 7028   0.498   4.166   1.115
 2043SOL    HW2 7029   0.563   4.023   1.067
 2044SOL     OW 7030   4.004   0.759   1.368
 2044SOL    HW1 7031   4.003   0.670   1.414
 2044SOL    HW2 7032   4.028   0.745   1.272
 2045SOL     OW 7033   1.736   6.435   4.557
 2045SOL    HW1 7034   1.736   6.354   4.498
 2045SOL    HW2 7035   1.784   6.415   4.642
 2046SOL     OW 7036   0.802   2.960   5.047
 2046SOL    HW1 7037   0.881   2.960   4.987
 2046SOL    HW2 7038   0.760   3.050   5.048
 2047SOL     OW 7039   6.937   0.349   0.660
 2047SOL    HW1 7040   6.933   0.434   0.607
 2047SOL    HW2 7041   7.017   0.352   0.720
 2048SOL     OW 7042   1.409   1.907   3.793
 2048SOL    HW1 7043   1.494   1.861   3.768
 2048SOL    HW2 7044   1.417   2.005   3.775
 2049SOL     OW 7045   4.703   2.439   4.808
 2049SOL    HW1 7046   4.679   2.536   4.815
 2049SOL    HW2 7047   4.752   2.411   4.891
 2050SOL     OW 7048   1.004   1.058   3.703
 2050SOL    HW1 7049   1.019   1.157   3.704
 2050SOL    HW2 7050   1.053   1.018   3.626
 2051SOL     OW 7051   2.692   6.239   0.415
 2051SOL    HW1 7052   2.781   6.259   0.454
 2051SOL    HW2 7053   2.683   6.140   0.402
 2052SOL     OW 7054   0.960   4.156   0.469
 2052SOL    HW1 7055   0.880   4.104   0.498
 2052SOL    HW2 7056   0.978   4.230   0.534
 2053SOL     OW 7057   6.689   5.511   2.808
 2053SOL    HW1 7058   6.782   5.545   2.821
 2053SOL    HW2 7059   6.628   5.557   2.873
 2054SOL     OW 7060   2.945   3.809   2.796
 2054SOL    HW1 7061   2.970   3.806   2.699
 2054SOL    HW2 7062   2.869   3.746   2.813
 2055SOL     OW 7063   3.639   2.697   5.340
 2055SOL    HW1 7064   3.727   2.724   5.379
 2055SOL    HW2 7065   3.583   2.654   5.412
 2056SOL     OW 7066   3.342   4.937   1.409
 2056SOL    HW1 7067   3.436   4.945   1.373
 2056SOL    HW2 7068   3.307   4.846   1.388
 2057SOL     OW 7069   5.272   3.169   3.938
 2057SOL    HW1 7070   5.297   3.111   4.015
 2057SOL    HW2 7071   5.353   3.213   3.901
 2058SOL     OW 7072   6.205   0.040   3.870
 2058SOL    HW1 7073   6.209   0.126   3.919
 2058SOL    HW2 7074   6.298   0.007   3.852
 2059SOL     OW 7075   1.744   1.375   5.424
 2059SOL    HW1 7076   1.837   1.342   5.408
 2059SOL    HW2 7077   1.702   1.401   5.337
 2060SOL     OW 7078   1.923   2.978   6.879
 2060SOL    HW1 7079   1.931   2.928   6.965
 2060SOL    HW2 7080   1.832   3.017   6.870
 2061SOL     OW 7081   1.558   2.569   2.623
 2061SOL    HW1 7082   1.601   2.658   2.610
 2061SOL    HW2 7083   1.628   2.500   2.637
 2062SOL     OW 7084   6.582   5.015   4.120
 2062SOL    HW1 7085   6.653   5.066   4.168
 2062SOL    HW2 7086   6.492   5.048   4.147
 2063SOL     OW 7087   0.618   1.861   4.076
 2063SOL    HW1 7088   0.603   1.781   4.019
 2063SOL    HW2 7089   0.541   1.873   4.138
 2064SOL     OW 7090   0.567   3.148   4.105
 2064SOL    HW1 7091   0.589   3.052   4.087
 2064SOL    HW2 7092   0.650   3.197   4.131
 2065SOL     OW 7093   4.107   3.694   5.692
 2065SOL    HW1 7094   4.025   3.744   5.663
 2065SOL    HW2 7095   4.092   3.596   5.679
 2066SOL     OW 7096   1.233   3.426   5.333
 2066SOL    HW1 7097   1.272   3.446   5.423
 2066SOL    HW2 7098   1.266   3.336   5.302
 2067SOL     OW 7099   6.357   4.712   1.694
 2067SOL    HW1 7100   6.268   4.671   1.713
 2067SOL    HW2 7101   6.427   4.668   1.750
 2068SOL     OW 7102   4.221   0.900   4.631
 2068SOL    HW1 7103   4.192   0.996   4.639
 2068SOL    HW2 7104   4.142   0.842   4.617
 2069SOL     OW 7105   0.129   1.165   3.430
 2069SOL    HW1 7106   0.060   1.238   3.437
 2069SOL    HW2 7107   0.088   1.086   3.383
 2070SOL     OW 7108   1.291   5.107   1.408
 2070SOL    HW1 7109   1.347   5.149   1.479
 2070SOL    HW2 7110   1.345   5.095   1.325
 2071SOL     OW 7111   0.390   1.857   5.648
 2071SOL    HW1 7112   0.399   1.951   5.616
 2071SOL    HW2 7113   0.300   1.845   5.690
 2072SOL     OW 7114   5.347   4.468   5.609
 2072SOL    HW1 7115   5.352   4.374   5.642
 2072SOL    HW2 7116   5.420   4.484   5.543
 2073SOL     OW 7117   3.421   5.733   6.855
 2073SOL    HW1 7118   3.462   5.810   6.904
 2073SOL    HW2 7119   3.334   5.762   6.816
 2074SOL     OW 7120   1.856   4.680   6.108
 2074SOL    HW1 7121   1.880   4.583   6.112
 2074SOL    HW2 7122   1.826   4.711   6.198
 2075SOL     OW 7123   5.937   2.952   1.153
 2075SOL    HW1 7124   5.910   2.932   1.058
 2075SOL    HW2 7125   5.966   2.867   1.197
 2076SOL     OW 7126   6.434   6.712   4.600
 2076SOL    HW1 7127   6.402   6.686   4.509
 2076SOL    HW2 7128   6.361   6.699   4.667
 2077SOL     OW 7129   6.575   4.796   0.881
 2077SOL    HW1 7130   6.541   4.792   0.975
 2077SOL    HW2 7131   6.559   4.888   0.844
 2078SOL     OW 7132   0.785   3.617   5.590
 2078SOL    HW1 7133   0.827   3.610   5.681
 2078SOL    HW2 7134   0.737   3.532   5.569
 2079SOL     OW 7135   5.305   0.895   2.702
 2079SOL    HW1 7136   5.305   0.929   2.796
 2079SOL    HW2 7137   5.383   0.934   2.653
 2080SOL     OW 7138   2.558   3.472   6.241
 2080SOL    HW1 7139   2.472   3.481   6.293
 2080SOL    HW2 7140   2.635   3.499   6.299
 2081SOL     OW 7141   5.959   6.010   1.882
 2081SOL    HW1 7142   5.927   5.922   1.918
 2081SOL    HW2 7143   5.982   6.001   1.785
 2082SOL     OW 7144   6.555   6.062   4.307
 2082SOL    HW1 7145   6.553   6.162   4.319
 2082SOL    HW2 7146   6.513   6.018   4.386
 2083SOL     OW 7147   0.019   6.770   4.178
 2083SOL    HW1 7148   0.025   6.674   4.202
 2083SOL    HW2 7149   0.111   6.809   4.172
 2084SOL     OW 7150   6.721   2.084   0.589
 2084SOL    HW1 7151   6.766   2.142   0.657
 2084SOL    HW2 7152   6.759   1.992   0.594
 2085SOL     OW 7153   6.290   6.096   0.864
 2085SOL    HW1 7154   6.269   6.009   0.818
 2085SOL    HW2 7155   6.383   6.091   0.902
 2086SOL     OW 7156   4.846   0.982   0.198
 2086SOL    HW1 7157   4.780   1.047   0.159
 2086SOL    HW2 7158   4.798   0.910   0.247
 2087SOL     OW 7159   4.007   1.656   6.794
 2087SOL    HW1 7160   4.005   1.651   6.893
 2087SOL    HW2 7161   3.937   1.719   6.761
 2088SOL     OW 7162   0.778   5.024   5.545
 2088SOL    HW1 7163   0.684   5.059   5.537
 2088SOL    HW2 7164   0.781   4.930   5.512
 2089SOL     OW 7165   2.291   3.446   6.298
 2089SOL    HW1 7166   2.277   3.521   6.363
 2089SOL    HW2 7167   2.298   3.360   6.348
 2090SOL     OW 7168   5.052   3.140   5.897
 2090SOL    HW1 7169   5.036   3.129   5.996
 2090SOL    HW2 7170   5.034   3.235   5.871
 2091SOL     OW 7171   5.571   6.017   0.750
 2091SOL    HW1 7172   5.508   5.945   0.718
 2091SOL    HW2 7173   5.642   6.032   0.681
 2092SOL     OW 7174   3.705   3.770   1.780
 2092SOL    HW1 7175   3.800   3.800   1.773
 2092SOL    HW2 7176   3.700   3.692   1.843
 2093SOL     OW 7177   4.388   1.174   1.392
 2093SOL    HW1 7178   4.391   1.122   1.477
 2093SOL    HW2 7179   4.319   1.135   1.331
 2094SOL     OW 7180   5.410   2.058   6.776
 2094SOL    HW1 7181   5.420   1.958   6.775
 2094SOL    HW2 7182   5.473   2.097   6.843
 2095SOL     OW 7183   5.585   5.448   3.824
 2095SOL    HW1 7184   5.654   5.508   3.783
 2095SOL    HW2 7185   5.501   5.500   3.839
 2096SOL     OW 7186   3.861   6.297   1.411
 2096SOL    HW1 7187   3.849   6.394   1.431
 2096SOL    HW2 7188   3.795   6.243   1.464
 2097SOL     OW 7189   0.771   5.860   5.898
 2097SOL    HW1 7190   0.853   5.834   5.948
 2097SOL    HW2 7191   0.692   5.811   5.935
 2098SOL     OW 7192   3.382   6.587   3.683
 2098SOL    HW1 7193   3.398   6.490   3.663
 2098SOL    HW2 7194   3.399   6.604   3.780
 2099SOL     OW 7195   4.526   2.206   6.622
 2099SOL    HW1 7196   4.599   2.244   6.678
 2099SOL    HW2 7197   4.456   2.276   6.606
 2100SOL     OW 7198   5.217   0.291   0.865
 2100SOL    HW1 7199   5.152   0.308   0.939
 2100SOL    HW2 7200   5.310   0.295   0.901
 2101SOL     OW 7201   1.171   0.440   3.032
 2101SOL    HW1 7202   1.227   0.450   2.950
 2101SOL    HW2 7203   1.230   0.433   3.112
 2102SOL     OW 7204   3.985   2.393   1.142
 2102SOL    HW1 7205   4.030   2.391   1.053
 2102SOL    HW2 7206   3.923   2.315   1.150
 2103SOL     OW 7207   2.015   6.261   0.715
 2103SOL    HW1 7208   2.108   6.224   0.719
 2103SOL    HW2 7209   1.951   6.187   0.693
 2104SOL     OW 7210   1.814   3.655   3.360
 2104SOL    HW1 7211   1.821   3.583   3.428
 2104SOL    HW2 7212   1.894   3.716   3.367
 2105SOL     OW 7213   5.671   0.110   5.058
 2105SOL    HW1 7214   5.644   0.193   5.010
 2105SOL    HW2 7215   5.708   0.044   4.992
 2106SOL     OW 7216   4.306   3.189   1.336
 2106SOL    HW1 7217   4.257   3.174   1.250
 2106SOL    HW2 7218   4.403   3.204   1.317
 2107SOL     OW 7219   5.244   4.962   5.034
 2107SOL    HW1 7220   5.228   4.880   4.980
 2107SOL    HW2 7221   5.189   4.960   5.117
 2108SOL     OW 7222   4.888   0.154   4.712
 2108SOL    HW1 7223   4.802   0.177   4.666
 2108SOL    HW2 7224   4.870   0.128   4.806
 2109SOL     OW 7225   3.287   6.482   1.986
 2109SOL    HW1 7226   3.353   6.407   1.992
 2109SOL    HW2 7227   3.286   6.531   2.073
 2110SOL     OW 7228   3.500   6.435   0.304
 2110SOL    HW1 7229   3.566   6.411   0.234
 2110SOL    HW2 7230   3.478   6.532   0.298
 2111SOL     OW 7231   1.096   2.532   5.730
 2111SOL    HW1 7232   1.187   2.533   5.688
 2111SOL    HW2 7233   1.054   2.622   5.721
 2112SOL     OW 7234   1.189   0.104   6.996
 2112SOL    HW1 7235   1.209   0.198   6.968
 2112SOL    HW2 7236   1.223   0.041   6.927
 2113SOL     OW 7237   6.759   1.485   4.494
 2113SOL    HW1 7238   6.827   1.538   4.443
 2113SOL    HW2 7239   6.784   1.484   4.591
 2114SOL     OW 7240   2.080   1.195   5.665
 2114SOL    HW1 7241   2.000   1.190   5.724
 2114SOL    HW2 7242   2.163   1.180   5.719
 2115SOL     OW 7243   6.585   5.692   3.585
 2115SOL    HW1 7244   6.606   5.655   3.494
 2115SOL    HW2 7245   6.664   5.743   3.619
 2116SOL     OW 7246   2.024   1.901   6.954
 2116SOL    HW1 7247   2.043   1.895   6.856
 2116SOL    HW2 7248   1.934   1.945   6.968
 2117SOL     OW 7249   0.046   1.632   2.712
 2117SOL    HW1 7250   6.977   1.672   2.704
 2117SOL    HW2 7251   0.113   1.704   2.727
 2118SOL     OW 7252   0.157   1.887   2.458
 2118SOL    HW1 7253   0.183   1.860   2.551
 2118SOL    HW2 7254   0.058   1.880   2.447
 2119SOL     OW 7255   0.704   2.418   0.603
 2119SOL    HW1 7256   0.750   2.477   0.669
 2119SOL    HW2 7257   0.673   2.472   0.525
 2120SOL     OW 7258   5.596   1.994   0.629
 2120SOL    HW1 7259   5.666   2.054   0.591
 2120SOL    HW2 7260   5.562   1.933   0.558
 2121SOL     OW 7261   1.728   6.658   0.718
 2121SOL    HW1 7262   1.743   6.708   0.632
 2121SOL    HW2 7263   1.809   6.604   0.740
 2122SOL     OW 7264   6.366   0.461   4.738
 2122SOL    HW1 7265   6.315   0.509   4.666
 2122SOL    HW2 7266   6.407   0.528   4.800
 2123SOL     OW 7267   1.718   5.185   3.054
 2123SOL    HW1 7268   1.632   5.135   3.064
 2123SOL    HW2 7269   1.762   5.159   2.968
 2124SOL     OW 7270   4.413   3.718   6.480
 2124SOL    HW1 7271   4.474   3.775   6.426
 2124SOL    HW2 7272   4.450   3.707   6.572
 2125SOL     OW 7273   1.835   6.000   4.499
 2125SOL    HW1 7274   1.914   5.939   4.502
 2125SOL    HW2 7275   1.753   5.949   4.524
 2126SOL     OW 7276   2.582   3.761   6.926
 2126SOL    HW1 7277   2.549   3.780   7.019
 2126SOL    HW2 7278   2.513   3.707   6.877
 2127SOL     OW 7279   0.778   3.290   4.198
 2127SOL    HW1 7280   0.875   3.268   4.182
 2127SOL    HW2 7281   0.760   3.291   4.296
 2128SOL     OW 7282   5.141   2.869   2.100
 2128SOL    HW1 7283   5.086   2.949   2.124
 2128SOL    HW2 7284   5.080   2.794   2.074
 2129SOL     OW 7285   5.069   4.942   4.367
 2129SOL    HW1 7286   4.971   4.936   4.347
 2129SOL    HW2 7287   5.082   4.952   4.466
 2130SOL     OW 7288   2.362   1.265   1.005
 2130SOL    HW1 7289   2.364   1.361   1.033
 2130SOL    HW2 7290   2.273   1.244   0.965
 2131SOL     OW 7291   5.591   0.443   5.673
 2131SOL    HW1 7292   5.644   0.507   5.729
 2131SOL    HW2 7293   5.568   0.485   5.586
 2132SOL     OW 7294   2.545   2.686   0.075
 2132SOL    HW1 7295   2.641   2.709   0.087
 2132SOL    HW2 7296   2.537   2.611   0.009
 2133SOL     OW 7297   3.767   2.209   1.140
 2133SOL    HW1 7298   3.724   2.230   1.228
 2133SOL    HW2 7299   3.722   2.131   1.098
 2134SOL     OW 7300   2.242   6.497   5.191
 2134SOL    HW1 7301   2.249   6.432   5.266
 2134SOL    HW2 7302   2.233   6.590   5.229
 2135SOL     OW 7303   1.185   6.038   3.539
 2135SOL    HW1 7304   1.163   5.983   3.458
 2135SOL    HW2 7305   1.281   6.021   3.564
 2136SOL     OW 7306   1.597   4.980   3.545
 2136SOL    HW1 7307   1.662   4.991   3.471
 2136SOL    HW2 7308   1.615   5.047   3.617
 2137SOL     OW 7309   0.740   1.271   4.792
 2137SOL    HW1 7310   0.800   1.283   4.871
 2137SOL    HW2 7311   0.684   1.353   4.779
 2138SOL     OW 7312   0.982   2.792   5.652
 2138SOL    HW1 7313   0.974   2.867   5.717
 2138SOL    HW2 7314   1.028   2.824   5.570
 2139SOL     OW 7315   2.686   0.196   4.367
 2139SOL    HW1 7316   2.782   0.222   4.380
 2139SOL    HW2 7317   2.643   0.183   4.456
 2140SOL     OW 7318   1.623   5.911   3.353
 2140SOL    HW1 7319   1.689   5.981   3.326
 2140SOL    HW2 7320   1.530   5.948   3.345
 2141SOL     OW 7321   6.720   1.517   0.143
 2141SOL    HW1 7322   6.817   1.541   0.143
 2141SOL    HW2 7323   6.673   1.570   0.072
 2142SOL     OW 7324   3.131   1.215   3.583
 2142SOL    HW1 7325   3.179   1.302   3.587
 2142SOL    HW2 7326   3.181   1.147   3.637
 2143SOL     OW 7327   4.173   6.297   0.211
 2143SOL    HW1 7328   4.194   6.389   0.242
 2143SOL    HW2 7329   4.244   6.265   0.149
 2144SOL     OW 7330   0.570   0.775   2.106
 2144SOL    HW1 7331   0.522   0.862   2.111
 2144SOL    HW2 7332   0.558   0.725   2.191
 2145SOL     OW 7333   3.534   5.692   2.565
 2145SOL    HW1 7334   3.588   5.768   2.602
 2145SOL    HW2 7335   3.437   5.708   2.582
 2146SOL     OW 7336   3.086   2.188   0.778
 2146SOL    HW1 7337   3.175   2.228   0.755
 2146SOL    HW2 7338   3.100   2.098   0.821
 2147SOL     OW 7339   0.331   0.689   5.716
 2147SOL    HW1 7340   0.288   0.614   5.766
 2147SOL    HW2 7341   0.353   0.763   5.780
 2148SOL     OW 7342   5.477   3.301   3.328
 2148SOL    HW1 7343   5.517   3.230   3.270
 2148SOL    HW2 7344   5.380   3.312   3.307
 2149SOL     OW 7345   3.341   0.372   2.469
 2149SOL    HW1 7346   3.382   0.438   2.532
 2149SOL    HW2 7347   3.243   0.389   2.462
 2150SOL     OW 7348   3.916   0.713   2.737
 2150SOL    HW1 7349   3.892   0.801   2.696
 2150SOL    HW2 7350   4.008   0.719   2.778
 2151SOL     OW 7351   3.177   3.679   5.533
 2151SOL    HW1 7352   3.176   3.590   5.487
 2151SOL    HW2 7353   3.271   3.704   5.555
 2152SOL     OW 7354   6.282   6.345   2.106
 2152SOL    HW1 7355   6.205   6.281   2.095
 2152SOL    HW2 7356   6.247   6.435   2.130
 2153SOL     OW 7357   4.845   2.429   2.770
 2153SOL    HW1 7358   4.905   2.501   2.807
 2153SOL    HW2 7359   4.750   2.459   2.775
 2154SOL     OW 7360   4.029   6.138   5.233
 2154SOL    HW1 7361   4.120   6.144   5.192
 2154SOL    HW2 7362   3.968   6.088   5.173
 2155SOL     OW 7363   5.693   3.822   6.289
 2155SOL    HW1 7364   5.736   3.745   6.337
 2155SOL    HW2 7365   5.731   3.907   6.324
 2156SOL     OW 7366   0.459   0.899   1.209
 2156SOL    HW1 7367   0.524   0.924   1.280
 2156SOL    HW2 7368   0.366   0.901   1.246
 2157SOL     OW 7369   6.455   1.301   4.142
 2157SOL    HW1 7370   6.438   1.394   4.175
 2157SOL    HW2 7371   6.547   1.272   4.170
 2158SOL     OW 7372   4.667   6.532   3.036
 2158SOL    HW1 7373   4.693   6.597   2.965
 2158SOL    HW2 7374   4.655   6.441   2.994
 2159SOL     OW 7375   2.448   6.740   5.336
 2159SOL    HW1 7376   2.507   6.761   5.413
 2159SOL    HW2 7377   2.354   6.769   5.357
 2160SOL     OW 7378   2.938   3.052   0.975
 2160SOL    HW1 7379   2.967   3.033   0.881
 2160SOL    HW2 7380   2.995   3.124   1.014
 2161SOL     OW 7381   5.190   2.217   3.525
 2161SOL    HW1 7382   5.227   2.305   3.493
 2161SOL    HW2 7383   5.128   2.233   3.602
 2162SOL     OW 7384   1.579   1.393   0.937
 2162SOL    HW1 7385   1.671   1.406   0.899
 2162SOL    HW2 7386   1.520   1.468   0.907
 2163SOL     OW 7387   2.354   1.538   1.150
 2163SOL    HW1 7388   2.271   1.484   1.137
 2163SOL    HW2 7389   2.385   1.530   1.245
 2164SOL     OW 7390   0.077   0.539   1.274
 2164SOL    HW1 7391   0.162   0.527   1.326
 2164SOL    HW2 7392   0.076   0.476   1.197
 2165SOL     OW 7393   3.002   6.936   1.073
 2165SOL    HW1 7394   2.967   7.010   1.016
 2165SOL    HW2 7395   3.059   6.875   1.018
 2166SOL     OW 7396   5.969   2.669   6.317
 2166SOL    HW1 7397   5.962   2.718   6.404
 2166SOL    HW2 7398   6.058   2.623   6.311
 2167SOL     OW 7399   2.675   0.834   1.621
 2167SOL    HW1 7400   2.691   0.857   1.525
 2167SOL    HW2 7401   2.757   0.856   1.674
 2168SOL     OW 7402   5.670   6.338   4.720
 2168SOL    HW1 7403   5.657   6.430   4.683
 2168SOL    HW2 7404   5.582   6.293   4.731
 2169SOL     OW 7405   6.757   1.636   5.467
 2169SOL    HW1 7406   6.748   1.710   5.533
 2169SOL    HW2 7407   6.681   1.572   5.477
 2170SOL     OW 7408   5.357   4.242   4.333
 2170SOL    HW1 7409   5.327   4.176   4.264
 2170SOL    HW2 7410   5.298   4.322   4.331
 2171SOL     OW 7411   6.824   3.466   0.186
 2171SOL    HW1 7412   6.813   3.390   0.250
 2171SOL    HW2 7413   6.838   3.431   0.094
 2172SOL     OW 7414   2.713   0.372   1.246
 2172SOL    HW1 7415   2.672   0.453   1.203
 2172SOL    HW2 7416   2.801   0.354   1.203
 2173SOL     OW 7417   4.879   2.176   4.962
 2173SOL    HW1 7418   4.879   2.213   4.869
 2173SOL    HW2 7419   4.887   2.076   4.958
 2174SOL     OW 7420   1.100   5.294   5.168
 2174SOL    HW1 7421   1.020   5.252   5.124
 2174SOL    HW2 7422   1.178   5.290   5.106
 2175SOL     OW 7423   1.580   6.127   6.113
 2175SOL    HW1 7424   1.606   6.070   6.035
 2175SOL    HW2 7425   1.553   6.217   6.080
 2176SOL     OW 7426   1.637   2.776   2.306
 2176SOL    HW1 7427   1.588   2.800   2.390
 2176SOL    HW2 7428   1.574   2.732   2.242
 2177SOL     OW 7429   0.172   1.521   2.485
 2177SOL    HW1 7430   0.135   1.575   2.561
 2177SOL    HW2 7431   0.155   1.568   2.399
 2178SOL     OW 7432   0.050   5.658   1.056
 2178SOL    HW1 7433   0.121   5.664   0.985
 2178SOL    HW2 7434   0.054   5.568   1.100
 2179SOL     OW 7435   1.172   3.527   4.010
 2179SOL    HW1 7436   1.219   3.544   3.923
 2179SOL    HW2 7437   1.091   3.584   4.016
 2180SOL     OW 7438   3.869   2.875   1.587
 2180SOL    HW1 7439   3.842   2.960   1.543
 2180SOL    HW2 7440   3.969   2.867   1.588
 2181SOL     OW 7441   3.981   6.559   1.080
 2181SOL    HW1 7442   3.924   6.639   1.099
 2181SOL    HW2 7443   4.039   6.577   1.000
 2182SOL     OW 7444   5.687   2.246   0.512
 2182SOL    HW1 7445   5.685   2.333   0.463
 2182SOL    HW2 7446   5.764   2.246   0.576
 2183SOL     OW 7447   2.595   3.024   0.334
 2183SOL    HW1 7448   2.510   2.984   0.299
 2183SOL    HW2 7449   2.640   2.958   0.395
 2184SOL     OW 7450   4.415   3.187   6.131
 2184SOL    HW1 7451   4.409   3.283   6.102
 2184SOL    HW2 7452   4.465   3.135   6.062
 2185SOL     OW 7453   0.260   6.960   2.006
 2185SOL    HW1 7454   0.163   6.983   2.005
 2185SOL    HW2 7455   0.271   6.862   2.023
 2186SOL     OW 7456   0.188   4.592   3.005
 2186SOL    HW1 7457   0.255   4.539   2.954
 2186SOL    HW2 7458   0.170   4.548   3.092
 2187SOL     OW 7459   6.478   1.568   6.362
 2187SOL    HW1 7460   6.534   1.502   6.413
 2187SOL    HW2 7461   6.436   1.631   6.427
 2188SOL     OW 7462   5.161   1.158   3.404
 2188SOL    HW1 7463   5.100   1.087   3.440
 2188SOL    HW2 7464   5.186   1.135   3.310
 2189SOL     OW 7465   2.921   0.428   6.815
 2189SOL    HW1 7466   2.958   0.451   6.905
 2189SOL    HW2 7467   2.933   0.330   6.798
 2190SOL     OW 7468   5.252   2.327   0.799
 2190SOL    HW1 7469   5.314   2.369   0.865
 2190SOL    HW2 7470   5.300   2.315   0.712
 2191SOL     OW 7471   2.680   1.895   6.805
 2191SOL    HW1 7472   2.589   1.936   6.796
 2191SOL    HW2 7473   2.687   1.849   6.894
 2192SOL     OW 7474   3.834   5.122   2.904
 2192SOL    HW1 7475   3.899   5.197   2.917
 2192SOL    HW2 7476   3.873   5.054   2.842
 2193SOL     OW 7477   6.759   5.876   4.999
 2193SOL    HW1 7478   6.717   5.843   4.915
 2193SOL    HW2 7479   6.823   5.950   4.978
 2194SOL     OW 7480   3.136   0.240   1.379
 2194SOL    HW1 7481   3.082   0.293   1.443
 2194SOL    HW2 7482   3.129   0.143   1.401
 2195SOL     OW 7483   1.041   4.965   2.383
 2195SOL    HW1 7484   1.035   4.988   2.285
 2195SOL    HW2 7485   1.017   4.869   2.396
 2196SOL     OW 7486   4.387   2.738   0.227
 2196SOL    HW1 7487   4.480   2.715   0.257
 2196SOL    HW2 7488   4.321   2.697   0.291
 2197SOL     OW 7489   4.674   4.130   6.853
 2197SOL    HW1 7490   4.771   4.155   6.842
 2197SOL    HW2 7491   4.640   4.164   6.940
 2198SOL     OW 7492   6.296   4.197   0.397
 2198SOL    HW1 7493   6.300   4.270   0.466
 2198SOL    HW2 7494   6.213   4.142   0.412
 2199SOL     OW 7495   4.172   0.801   2.807
 2199SOL    HW1 7496   4.255   0.749   2.822
 2199SOL    HW2 7497   4.193   0.899   2.810
 2200SOL     OW 7498   2.312   6.579   3.885
 2200SOL    HW1 7499   2.353   6.670   3.878
 2200SOL    HW2 7500   2.216   6.584   3.858
 2201SOL     OW 7501   4.756   4.207   4.080
 2201SOL    HW1 7502   4.779   4.299   4.047
 2201SOL    HW2 7503   4.670   4.211   4.132
 2202SOL     OW 7504   5.088   6.218   4.042
 2202SOL    HW1 7505   5.156   6.177   3.980
 2202SOL    HW2 7506   4.997   6.211   4.001
 2203SOL     OW 7507   3.094   1.794   2.950
 2203SOL    HW1 7508   3.049   1.791   2.861
 2203SOL    HW2 7509   3.140   1.882   2.961
 2204SOL     OW 7510   2.572   3.192   0.941
 2204SOL    HW1 7511   2.536   3.101   0.964
 2204SOL    HW2 7512   2.563   3.207   0.843
 2205SOL     OW 7513   2.441   0.889   1.944
 2205SOL    HW1 7514   2.376   0.939   1.885
 2205SOL    HW2 7515   2.533   0.898   1.906
 2206SOL     OW 7516   1.995   3.117   0.189
 2206SOL    HW1 7517   2.016   3.040   0.249
 2206SOL    HW2 7518   2.064   3.189   0.203
 2207SOL     OW 7519   0.542   4.600   4.995
 2207SOL    HW1 7520   0.514   4.640   5.082
 2207SOL    HW2 7521   0.477   4.528   4.969
 2208SOL     OW 7522   6.725   4.730   2.187
 2208SOL    HW1 7523   6.629   4.723   2.215
 2208SOL    HW2 7524   6.751   4.827   2.183
 2209SOL     OW 7525   0.981   6.638   1.870
 2209SOL    HW1 7526   0.933   6.622   1.784
 2209SOL    HW2 7527   1.071   6.678   1.851
 2210SOL     OW 7528   2.314   5.188   3.418
 2210SOL    HW1 7529   2.295   5.242   3.500
 2210SOL    HW2 7530   2.236   5.129   3.398
 2211SOL     OW 7531   6.985   1.906   5.526
 2211SOL    HW1 7532   0.014   1.826   5.557
 2211SOL    HW2 7533   6.947   1.888   5.436
 2212SOL     OW 7534   2.124   0.054   6.450
 2212SOL    HW1 7535   2.038   0.089   6.414
 2212SOL    HW2 7536   2.170   7.022   6.380
 2213SOL     OW 7537   3.672   0.606   3.177
 2213SOL    HW1 7538   3.730   0.559   3.110
 2213SOL    HW2 7539   3.692   0.571   3.268
 2214SOL     OW 7540   4.512   0.011   5.116
 2214SOL    HW1 7541   4.425   0.054   5.093
 2214SOL    HW2 7542   4.551   0.055   5.196
 2215SOL     OW 7543   5.941   2.277   5.641
 2215SOL    HW1 7544   5.845   2.250   5.631
 2215SOL    HW2 7545   5.949   2.375   5.621
 2216SOL     OW 7546   2.804   0.719   2.218
 2216SOL    HW1 7547   2.895   0.684   2.198
 2216SOL    HW2 7548   2.762   0.754   2.133
 2217SOL     OW 7549   4.029   0.837   1.776
 2217SOL    HW1 7550   4.095   0.840   1.701
 2217SOL    HW2 7551   4.049   0.910   1.841
 2218SOL     OW 7552   1.772   0.011   3.094
 2218SOL    HW1 7553   1.733   0.059   3.017
 2218SOL    HW2 7554   1.708   0.012   3.171
 2219SOL     OW 7555   1.338   2.473   2.467
 2219SOL    HW1 7556   1.414   2.499   2.527
 2219SOL    HW2 7557   1.326   2.542   2.396
 2220SOL     OW 7558   0.511   0.026   2.120
 2220SOL    HW1 7559   0.420   0.006   2.083
 2220SOL    HW2 7560   0.567   6.965   2.117
 2221SOL     OW 7561   0.865   1.102   6.498
 2221SOL    HW1 7562   0.783   1.133   6.451
 2221SOL    HW2 7563   0.907   1.028   6.445
 2222SOL     OW 7564   6.282   6.169   3.176
 2222SOL    HW1 7565   6.287   6.172   3.076
 2222SOL    HW2 7566   6.211   6.105   3.204
 2223SOL     OW 7567   6.285   6.063   1.617
 2223SOL    HW1 7568   6.318   6.033   1.527
 2223SOL    HW2 7569   6.217   5.998   1.651
 2224SOL     OW 7570   0.821   4.669   1.796
 2224SOL    HW1 7571   0.833   4.588   1.854
 2224SOL    HW2 7572   0.844   4.646   1.701
 2225SOL     OW 7573   0.138   4.323   1.183
 2225SOL    HW1 7574   0.099   4.238   1.217
 2225SOL    HW2 7575   0.101   4.400   1.235
 2226SOL     OW 7576   4.043   3.796   1.831
 2226SOL    HW1 7577   4.102   3.724   1.868
 2226SOL    HW2 7578   4.020   3.861   1.903
 2227SOL     OW 7579   0.905   2.694   4.708
 2227SOL    HW1 7580   0.862   2.783   4.720
 2227SOL    HW2 7581   0.953   2.692   4.620
 2228SOL     OW 7582   3.300   4.935   4.510
 2228SOL    HW1 7583   3.268   4.940   4.415
 2228SOL    HW2 7584   3.231   4.889   4.566
 2229SOL     OW 7585   5.757   6.884   3.340
 2229SOL    HW1 7586   5.851   6.907   3.362
 2229SOL    HW2 7587   5.745   6.883   3.241
 2230SOL     OW 7588   2.643   5.405   1.747
 2230SOL    HW1 7589   2.734   5.389   1.786
 2230SOL    HW2 7590   2.650   5.408   1.647
 2231SOL     OW 7591   2.754   6.185   1.239
 2231SOL    HW1 7592   2.791   6.254   1.301
 2231SOL    HW2 7593   2.716   6.110   1.291
 2232SOL     OW 7594   5.517   3.081   3.524
 2232SOL    HW1 7595   5.554   3.102   3.615
 2232SOL    HW2 7596   5.502   3.166   3.474
 2233SOL     OW 7597   2.393   1.686   6.211
 2233SOL    HW1 7598   2.399   1.769   6.154
 2233SOL    HW2 7599   2.319   1.697   6.278
 2234SOL     OW 7600   3.513   2.613   1.411
 2234SOL    HW1 7601   3.607   2.635   1.436
 2234SOL    HW2 7602   3.502   2.618   1.312
 2235SOL     OW 7603   2.595   1.837   1.327
 2235SOL    HW1 7604   2.685   1.862   1.291
 2235SOL    HW2 7605   2.602   1.825   1.427
 2236SOL     OW 7606   0.938   4.783   6.218
 2236SOL    HW1 7607   1.020   4.742   6.178
 2236SOL    HW2 7608   0.863   4.779   6.152
 2237SOL     OW 7609   6.307   3.262   4.222
 2237SOL    HW1 7610   6.311   3.172   4.266
 2237SOL    HW2 7611   6.394   3.309   4.235
 2238SOL     OW 7612   6.398   6.532   1.344
 2238SOL    HW1 7613   6.371   6.436   1.334
 2238SOL    HW2 7614   6.370   6.583   1.263
 2239SOL     OW 7615   5.754   6.103   2.283
 2239SOL    HW1 7616   5.715   6.039   2.349
 2239SOL    HW2 7617   5.839   6.065   2.246
 2240SOL     OW 7618   5.720   3.944   1.830
 2240SOL    HW1 7619   5.720   3.913   1.925
 2240SOL    HW2 7620   5.721   3.865   1.769
 2241SOL     OW 7621   1.502   6.935   2.515
 2241SOL    HW1 7622   1.559   6.962   2.592
 2241SOL    HW2 7623   1.558   6.935   2.431
 2242SOL     OW 7624   3.470   1.842   2.388
 2242SOL    HW1 7625   3.478   1.905   2.311
 2242SOL    HW2 7626   3.506   1.885   2.470
 2243SOL     OW 7627   2.598   6.594   5.146
 2243SOL    HW1 7628   2.541   6.636   5.217
 2243SOL    HW2 7629   2.558   6.506   5.120
 2244SOL     OW 7630   3.103   1.158   4.928
 2244SOL    HW1 7631   3.090   1.227   4.857
 2244SOL    HW2 7632   3.187   1.106   4.909
 2245SOL     OW 7633   0.393   2.205   2.100
 2245SOL    HW1 7634   0.477   2.160   2.069
 2245SOL    HW2 7635   0.415   2.272   2.170
 2246SOL     OW 7636   1.457   4.878   4.910
 2246SOL    HW1 7637   1.472   4.852   4.814
 2246SOL    HW2 7638   1.430   4.797   4.962
 2247SOL     OW 7639   1.708   1.524   4.363
 2247SOL    HW1 7640   1.747   1.599   4.416
 2247SOL    HW2 7641   1.728   1.437   4.407
 2248SOL     OW 7642   4.306   3.844   5.654
 2248SOL    HW1 7643   4.233   3.777   5.668
 2248SOL    HW2 7644   4.385   3.799   5.613
 2249SOL     OW 7645   3.769   4.917   5.139
 2249SOL    HW1 7646   3.831   4.942   5.212
 2249SOL    HW2 7647   3.710   4.842   5.169
 2250SOL     OW 7648   4.879   4.972   1.365
 2250SOL    HW1 7649   4.811   4.899   1.357
 2250SOL    HW2 7650   4.835   5.056   1.398
 2251SOL     OW 7651   0.771   6.999   6.112
 2251SOL    HW1 7652   0.781   0.063   6.161
 2251SOL    HW2 7653   0.791   7.012   6.015
 2252SOL     OW 7654   3.637   0.401   6.015
 2252SOL    HW1 7655   3.544   0.423   5.984
 2252SOL    HW2 7656   3.700   0.405   5.938
 2253SOL     OW 7657   1.253   2.965   6.387
 2253SOL    HW1 7658   1.162   2.956   6.429
 2253SOL    HW2 7659   1.271   3.062   6.370
 2254SOL     OW 7660   1.597   4.431   6.205
 2254SOL    HW1 7661   1.623   4.451   6.111
 2254SOL    HW2 7662   1.498   4.415   6.210
 2255SOL     OW 7663   5.386   3.541   0.136
 2255SOL    HW1 7664   5.306   3.541   0.194
 2255SOL    HW2 7665   5.458   3.597   0.177
 2256SOL     OW 7666   3.207   4.880   2.519
 2256SOL    HW1 7667   3.185   4.951   2.586
 2256SOL    HW2 7668   3.303   4.889   2.492
 2257SOL     OW 7669   1.872   3.614   4.322
 2257SOL    HW1 7670   1.919   3.532   4.355
 2257SOL    HW2 7671   1.906   3.694   4.372
 2258SOL     OW 7672   1.587   4.843   5.300
 2258SOL    HW1 7673   1.507   4.902   5.313
 2258SOL    HW2 7674   1.645   4.881   5.228
 2259SOL     OW 7675   6.471   3.629   6.402
 2259SOL    HW1 7676   6.553   3.622   6.458
 2259SOL    HW2 7677   6.444   3.538   6.371
 2260SOL     OW 7678   4.339   3.622   1.244
 2260SOL    HW1 7679   4.394   3.644   1.325
 2260SOL    HW2 7680   4.242   3.635   1.265
 2261SOL     OW 7681   2.928   6.316   4.989
 2261SOL    HW1 7682   2.967   6.272   4.908
 2261SOL    HW2 7683   2.948   6.261   5.070
 2262SOL     OW 7684   3.300   1.782   3.201
 2262SOL    HW1 7685   3.215   1.764   3.250
 2262SOL    HW2 7686   3.356   1.846   3.254
 2263SOL     OW 7687   0.505   3.676   5.834
 2263SOL    HW1 7688   0.520   3.640   5.926
 2263SOL    HW2 7689   0.464   3.605   5.777
 2264SOL     OW 7690   3.066   3.659   3.054
 2264SOL    HW1 7691   3.034   3.666   2.960
 2264SOL    HW2 7692   3.165   3.646   3.055
 2265SOL     OW 7693   1.247   6.615   3.208
 2265SOL    HW1 7694   1.150   6.605   3.231
 2265SOL    HW2 7695   1.303   6.576   3.281
 2266SOL     OW 7696   6.712   0.482   6.513
 2266SOL    HW1 7697   6.769   0.542   6.457
 2266SOL    HW2 7698   6.719   0.388   6.479
 2267SOL     OW 7699   5.800   2.080   5.303
 2267SOL    HW1 7700   5.705   2.049   5.313
 2267SOL    HW2 7701   5.801   2.180   5.294
 2268SOL     OW 7702   6.646   5.292   6.854
 2268SOL    HW1 7703   6.598   5.350   6.920
 2268SOL    HW2 7704   6.717   5.346   6.808
 2269SOL     OW 7705   0.531   6.633   3.057
 2269SOL    HW1 7706   0.472   6.561   3.021
 2269SOL    HW2 7707   0.532   6.628   3.156
 2270SOL     OW 7708   3.610   3.205   2.826
 2270SOL    HW1 7709   3.630   3.249   2.739
 2270SOL    HW2 7710   3.694   3.195   2.879
 2271SOL     OW 7711   0.625   4.412   2.702
 2271SOL    HW1 7712   0.607   4.419   2.801
 2271SOL    HW2 7713   0.643   4.316   2.679
 2272SOL     OW 7714   5.344   2.134   5.516
 2272SOL    HW1 7715   5.297   2.221   5.527
 2272SOL    HW2 7716   5.280   2.059   5.536
 2273SOL     OW 7717   0.722   0.701   3.317
 2273SOL    HW1 7718   0.704   0.793   3.353
 2273SOL    HW2 7719   0.820   0.682   3.322
 2274SOL     OW 7720   0.802   4.057   2.695
 2274SOL    HW1 7721   0.814   3.958   2.704
 2274SOL    HW2 7722   0.852   4.090   2.615
 2275SOL     OW 7723   4.836   6.178   3.640
 2275SOL    HW1 7724   4.822   6.260   3.696
 2275SOL    HW2 7725   4.876   6.106   3.697
 2276SOL     OW 7726   3.161   5.736   2.211
 2276SOL    HW1 7727   3.241   5.714   2.156
 2276SOL    HW2 7728   3.141   5.659   2.272
 2277SOL     OW 7729   3.180   3.769   0.995
 2277SOL    HW1 7730   3.169   3.671   1.014
 2277SOL    HW2 7731   3.098   3.803   0.950
 2278SOL     OW 7732   5.172   6.423   1.059
 2278SOL    HW1 7733   5.131   6.405   1.149
 2278SOL    HW2 7734   5.256   6.371   1.050
 2279SOL     OW 7735   6.039   4.115   5.810
 2279SOL    HW1 7736   6.122   4.097   5.864
 2279SOL    HW2 7737   6.035   4.052   5.733
 2280SOL     OW 7738   5.741   6.926   6.132
 2280SOL    HW1 7739   5.747   6.836   6.175
 2280SOL    HW2 7740   5.826   6.944   6.081
 2281SOL     OW 7741   2.927   1.888   0.362
 2281SOL    HW1 7742   2.837   1.846   0.372
 2281SOL    HW2 7743   2.987   1.857   0.436
 2282SOL     OW 7744   4.370   6.249   2.075
 2282SOL    HW1 7745   4.341   6.268   1.982
 2282SOL    HW2 7746   4.363   6.332   2.131
 2283SOL     OW 7747   6.847   4.037   2.008
 2283SOL    HW1 7748   6.749   4.015   2.004
 2283SOL    HW2 7749   6.864   4.120   1.955
 2284SOL     OW 7750   2.574   2.336   2.285
 2284SOL    HW1 7751   2.536   2.244   2.285
 2284SOL    HW2 7752   2.674   2.331   2.292
 2285SOL     OW 7753   1.816   3.914   6.765
 2285SOL    HW1 7754   1.750   3.910   6.840
 2285SOL    HW2 7755   1.863   4.002   6.766
 2286SOL     OW 7756   5.921   6.495   4.440
 2286SOL    HW1 7757   5.990   6.492   4.512
 2286SOL    HW2 7758   5.958   6.540   4.359
 2287SOL     OW 7759   2.222   2.231   0.713
 2287SOL    HW1 7760   2.150   2.162   0.709
 2287SOL    HW2 7761   2.181   2.322   0.718
 2288SOL     OW 7762   1.962   5.499   4.555
 2288SOL    HW1 7763   1.972   5.526   4.651
 2288SOL    HW2 7764   2.030   5.429   4.533
 2289SOL     OW 7765   4.281   1.565   6.979
 2289SOL    HW1 7766   4.192   1.585   7.020
 2289SOL    HW2 7767   4.297   1.625   6.901
 2290SOL     OW 7768   3.316   3.797   3.448
 2290SOL    HW1 7769   3.249   3.871   3.450
 2290SOL    HW2 7770   3.287   3.724   3.511
 2291SOL     OW 7771   1.125   2.338   6.178
 2291SOL    HW1 7772   1.180   2.355   6.096
 2291SOL    HW2 7773   1.123   2.421   6.234
 2292SOL     OW 7774   4.953   1.557   2.600
 2292SOL    HW1 7775   4.980   1.611   2.679
 2292SOL    HW2 7776   4.984   1.602   2.516
 2293SOL     OW 7777   0.710   0.659   0.195
 2293SOL    HW1 7778   0.692   0.565   0.166
 2293SOL    HW2 7779   0.626   0.713   0.188
 2294SOL     OW 7780   0.307   0.707   6.155
 2294SOL    HW1 7781   0.208   0.712   6.168
 2294SOL    HW2 7782   0.353   0.744   6.235
 2295SOL     OW 7783   5.682   5.435   1.518
 2295SOL    HW1 7784   5.741   5.460   1.441
 2295SOL    HW2 7785   5.736   5.386   1.587
 2296SOL     OW 7786   3.980   5.264   4.189
 2296SOL    HW1 7787   3.921   5.232   4.114
 2296SOL    HW2 7788   3.962   5.209   4.270
 2297SOL     OW 7789   5.456   3.718   5.098
 2297SOL    HW1 7790   5.473   3.815   5.079
 2297SOL    HW2 7791   5.520   3.686   5.166
 2298SOL     OW 7792   2.957   3.697   4.858
 2298SOL    HW1 7793   2.912   3.751   4.930
 2298SOL    HW2 7794   2.900   3.617   4.837
 2299SOL     OW 7795   5.592   2.918   4.183
 2299SOL    HW1 7796   5.630   2.941   4.273
 2299SOL    HW2 7797   5.665   2.884   4.124
 2300SOL     OW 7798   5.365   0.002   1.839
 2300SOL    HW1 7799   5.413   0.075   1.789
 2300SOL    HW2 7800   5.277   7.006   1.794
 2301SOL     OW 7801   3.916   3.140   4.992
 2301SOL    HW1 7802   4.005   3.150   4.947
 2301SOL    HW2 7803   3.928   3.147   5.091
 2302SOL     OW 7804   6.355   3.013   6.269
 2302SOL    HW1 7805   6.316   2.963   6.347
 2302SOL    HW2 7806   6.429   3.072   6.301
 2303SOL     OW 7807   3.217   2.691   6.990
 2303SOL    HW1 7808   3.173   2.722   6.906
 2303SOL    HW2 7809   3.199   2.594   7.003
 2304SOL     OW 7810   6.677   6.609   2.735
 2304SOL    HW1 7811   6.700   6.576   2.827
 2304SOL    HW2 7812   6.606   6.551   2.696
 2305SOL     OW 7813   2.646   6.755   5.513
 2305SOL    HW1 7814   2.653   6.748   5.612
 2305SOL    HW2 7815   2.732   6.792   5.477
 2306SOL     OW 7816   1.604   5.274   4.652
 2306SOL    HW1 7817   1.658   5.251   4.733
 2306SOL    HW2 7818   1.641   5.356   4.609
 2307SOL     OW 7819   6.340   3.370   4.791
 2307SOL    HW1 7820   6.316   3.281   4.829
 2307SOL    HW2 7821   6.304   3.443   4.849
 2308SOL     OW 7822   0.932   5.619   2.493
 2308SOL    HW1 7823   1.019   5.666   2.476
 2308SOL    HW2 7824   0.874   5.678   2.549
 2309SOL     OW 7825   2.359   0.805   4.716
 2309SOL    HW1 7826   2.284   0.857   4.675
 2309SOL    HW2 7827   2.356   0.814   4.815
 2310SOL     OW 7828   4.612   6.636   1.053
 2310SOL    HW1 7829   4.645   6.557   1.105
 2310SOL    HW2 7830   4.533   6.676   1.099
 2311SOL     OW 7831   2.125   5.438   0.955
 2311SOL    HW1 7832   2.064   5.360   0.961
 2311SOL    HW2 7833   2.201   5.417   0.892
 2312SOL     OW 7834   3.333   4.871   1.911
 2312SOL    HW1 7835   3.395   4.797   1.887
 2312SOL    HW2 7836   3.346   4.894   2.008
 2313SOL     OW 7837   4.931   4.550   1.617
 2313SOL    HW1 7838   4.909   4.634   1.666
 2313SOL    HW2 7839   4.974   4.572   1.530
 2314SOL     OW 7840   2.703   4.643   4.141
 2314SOL    HW1 7841   2.718   4.554   4.098
 2314SOL    HW2 7842   2.606   4.668   4.134
 2315SOL     OW 7843   4.730   2.278   6.790
 2315SOL    HW1 7844   4.825   2.259   6.766
 2315SOL    HW2 7845   4.727   2.325   6.878
 2316SOL     OW 7846   5.181   3.694   2.006
 2316SOL    HW1 7847   5.171   3.748   2.089
 2316SOL    HW2 7848   5.091   3.673   1.968
 2317SOL     OW 7849   0.403   5.978   2.819
 2317SOL    HW1 7850   0.396   5.926   2.735
 2317SOL    HW2 7851   0.397   6.076   2.799
 2318SOL     OW 7852   0.223   1.035   4.154
 2318SOL    HW1 7853   0.263   1.060   4.242
 2318SOL    HW2 7854   0.296   1.017   4.088
 2319SOL     OW 7855   1.533   4.981   2.097
 2319SOL    HW1 7856   1.583   4.903   2.135
 2319SOL    HW2 7857   1.435   4.965   2.103
 2320SOL     OW 7858   6.584   5.075   5.004
 2320SOL    HW1 7859   6.538   5.089   5.092
 2320SOL    HW2 7860   6.677   5.041   5.020
 2321SOL     OW 7861   3.560   4.929   4.618
 2321SOL    HW1 7862   3.571   4.915   4.717
 2321SOL    HW2 7863   3.464   4.948   4.598
 2322SOL     OW 7864   2.972   0.587   4.827
 2322SOL    HW1 7865   3.029   0.662   4.792
 2322SOL    HW2 7866   3.015   0.500   4.804
 2323SOL     OW 7867   5.005   3.769   2.335
 2323SOL    HW1 7868   5.105   3.767   2.341
 2323SOL    HW2 7869   4.976   3.840   2.271
 2324SOL     OW 7870   0.680   4.597   3.354
 2324SOL    HW1 7871   0.657   4.508   3.394
 2324SOL    HW2 7872   0.760   4.634   3.400
 2325SOL     OW 7873   0.012   2.273   0.300
 2325SOL    HW1 7874   0.008   2.282   0.400
 2325SOL    HW2 7875   0.004   2.177   0.274
 2326SOL     OW 7876   0.682   4.241   0.337
 2326SOL    HW1 7877   0.712   4.226   0.431
 2326SOL    HW2 7878   0.627   4.164   0.307
 2327SOL     OW 7879   5.399   1.752   3.756
 2327SOL    HW1 7880   5.330   1.807   3.804
 2327SOL    HW2 7881   5.354   1.681   3.703
 2328SOL     OW 7882   6.647   6.293   3.537
 2328SOL    HW1 7883   6.599   6.286   3.624
 2328SOL    HW2 7884   6.739   6.329   3.552
 2329SOL     OW 7885   6.919   5.601   2.934
 2329SOL    HW1 7886   6.898   5.587   3.031
 2329SOL    HW2 7887   6.963   5.691   2.923
 2330SOL     OW 7888   0.571   3.804   1.773
 2330SOL    HW1 7889   0.555   3.791   1.675
 2330SOL    HW2 7890   0.545   3.720   1.821
 2331SOL     OW 7891   1.213   4.375   5.682
 2331SOL    HW1 7892   1.209   4.334   5.591
 2331SOL    HW2 7893   1.307   4.398   5.704
 2332SOL     OW 7894   5.463   2.299   5.268
 2332SOL    HW1 7895   5.552   2.272   5.304
 2332SOL    HW2 7896   5.445   2.395   5.290
 2333SOL     OW 7897   3.077   4.872   4.014
 2333SOL    HW1 7898   3.002   4.833   3.962
 2333SOL    HW2 7899   3.157   4.883   3.955
 2334SOL     OW 7900   2.603   6.983   7.014
 2334SOL    HW1 7901   2.535   6.944   0.053
 2334SOL    HW2 7902   2.558   0.025   6.951
 2335SOL     OW 7903   4.700   5.115   4.692
 2335SOL    HW1 7904   4.798   5.111   4.707
 2335SOL    HW2 7905   4.680   5.085   4.598
 2336SOL     OW 7906   3.858   2.988   5.809
 2336SOL    HW1 7907   3.877   2.946   5.898
 2336SOL    HW2 7908   3.932   3.051   5.786
 2337SOL     OW 7909   6.371   0.485   4.324
 2337SOL    HW1 7910   6.431   0.482   4.244
 2337SOL    HW2 7911   6.350   0.580   4.346
 2338SOL     OW 7912   1.323   0.146   6.418
 2338SOL    HW1 7913   1.380   0.100   6.487
 2338SOL    HW2 7914   1.303   0.239   6.448
 2339SOL     OW 7915   4.283   4.797   6.867
 2339SOL    HW1 7916   4.300   4.774   6.771
 2339SOL    HW2 7917   4.326   4.885   6.888
 2340SOL     OW 7918   3.957   4.847   3.683
 2340SOL    HW1 7919   4.050   4.879   3.701
 2340SOL    HW2 7920   3.957   4.787   3.603
 2341SOL     OW 7921   5.617   4.625   6.502
 2341SOL    HW1 7922   5.638   4.574   6.585
 2341SOL    HW2 7923   5.519   4.623   6.484
 2342SOL     OW 7924   6.906   0.297   5.258
 2342SOL    HW1 7925   6.955   0.262   5.177
 2342SOL    HW2 7926   6.848   0.225   5.295
 2343SOL     OW 7927   0.988   0.338   0.577
 2343SOL    HW1 7928   1.045   0.419   0.565
 2343SOL    HW2 7929   1.046   0.258   0.597
 2344SOL     OW 7930   3.150   1.521   2.884
 2344SOL    HW1 7931   3.192   1.531   2.793
 2344SOL    HW2 7932   3.131   1.611   2.921
 2345SOL     OW 7933   1.216   1.575   2.610
 2345SOL    HW1 7934   1.276   1.654   2.593
 2345SOL    HW2 7935   1.215   1.554   2.708
 2346SOL     OW 7936   4.750   3.165   5.386
 2346SOL    HW1 7937   4.694   3.093   5.426
 2346SOL    HW2 7938   4.702   3.253   5.392
 2347SOL     OW 7939   1.317   3.316   0.920
 2347SOL    HW1 7940   1.263   3.400   0.916
 2347SOL    HW2 7941   1.411   3.334   0.891
 2348SOL     OW 7942   2.819   6.332   1.738
 2348SOL    HW1 7943   2.863   6.420   1.755
 2348SOL    HW2 7944   2.861   6.262   1.794
 2349SOL     OW 7945   4.611   4.130   6.269
 2349SOL    HW1 7946   4.548   4.207   6.263
 2349SOL    HW2 7947   4.700   4.157   6.233
 2350SOL     OW 7948   2.225   5.680   5.147
 2350SOL    HW1 7949   2.166   5.612   5.104
 2350SOL    HW2 7950   2.320   5.650   5.143
 2351SOL     OW 7951   2.220   4.791   3.450
 2351SOL    HW1 7952   2.148   4.776   3.383
 2351SOL    HW2 7953   2.232   4.889   3.466
 2352SOL     OW 7954   6.187   4.273   0.812
 2352SOL    HW1 7955   6.235   4.341   0.866
 2352SOL    HW2 7956   6.092   4.301   0.800
 2353SOL     OW 7957   2.322   3.905   6.788
 2353SOL    HW1 7958   2.305   3.916   6.690
 2353SOL    HW2 7959   2.308   3.809   6.814
 2354SOL     OW 7960   3.875   2.081   1.945
 2354SOL    HW1 7961   3.860   1.987   1.975
 2354SOL    HW2 7962   3.793   2.135   1.962
 2355SOL     OW 7963   6.949   1.609   1.633
 2355SOL    HW1 7964   0.023   1.615   1.659
 2355SOL    HW2 7965   6.907   1.531   1.679
 2356SOL     OW 7966   2.936   5.148   3.923
 2356SOL    HW1 7967   2.889   5.122   4.007
 2356SOL    HW2 7968   3.035   5.141   3.936
 2357SOL     OW 7969   0.026   4.235   0.936
 2357SOL    HW1 7970   0.056   4.269   1.025
 2357SOL    HW2 7971   0.003   4.138   0.943
 2358SOL     OW 7972   3.406   1.271   5.135
 2358SOL    HW1 7973   3.446   1.284   5.226
 2358SOL    HW2 7974   3.350   1.351   5.112
 2359SOL     OW 7975   2.365   1.389   5.326
 2359SOL    HW1 7976   2.396   1.418   5.235
 2359SOL    HW2 7977   2.336   1.469   5.378
 2360SOL     OW 7978   2.893   4.961   0.316
 2360SOL    HW1 7979   2.858   4.982   0.407
 2360SOL    HW2 7980   2.943   4.875   0.318
 2361SOL     OW 7981   3.538   5.643   1.254
 2361SOL    HW1 7982   3.542   5.735   1.215
 2361SOL    HW2 7983   3.550   5.648   1.353
 2362SOL     OW 7984   3.478   4.944   3.832
 2362SOL    HW1 7985   3.511   4.940   3.927
 2362SOL    HW2 7986   3.380   4.967   3.832
 2363SOL     OW 7987   1.409   4.018   0.305
 2363SOL    HW1 7988   1.317   4.036   0.271
 2363SOL    HW2 7989   1.411   4.031   0.404
 2364SOL     OW 7990   3.838   1.568   2.480
 2364SOL    HW1 7991   3.854   1.536   2.573
 2364SOL    HW2 7992   3.741   1.590   2.469
 2365SOL     OW 7993   4.991   4.308   2.963
 2365SOL    HW1 7994   4.892   4.294   2.956
 2365SOL    HW2 7995   5.024   4.355   2.881
 2366SOL     OW 7996   3.276   5.083   5.538
 2366SOL    HW1 7997   3.207   5.010   5.545
 2366SOL    HW2 7998   3.235   5.164   5.497
 2367SOL     OW 7999   6.049   5.097   5.885
 2367SOL    HW1 8000   5.997   5.061   5.962
 2367SOL    HW2 8001   6.035   5.196   5.879
 2368SOL     OW 8002   5.628   0.500   5.415
 2368SOL    HW1 8003   5.685   0.535   5.341
 2368SOL    HW2 8004   5.601   0.406   5.393
 2369SOL     OW 8005   3.704   2.142   4.237
 2369SOL    HW1 8006   3.733   2.087   4.316
 2369SOL    HW2 8007   3.611   2.116   4.212
 2370SOL     OW 8008   5.145   2.198   1.842
 2370SOL    HW1 8009   5.105   2.236   1.759
 2370SOL    HW2 8010   5.111   2.105   1.857
 2371SOL     OW 8011   1.097   6.290   1.946
 2371SOL    HW1 8012   1.180   6.345   1.960
 2371SOL    HW2 8013   1.041   6.331   1.874
 2372SOL     OW 8014   6.691   6.517   6.705
 2372SOL    HW1 8015   6.690   6.462   6.789
 2372SOL    HW2 8016   6.761   6.588   6.713
 2373SOL     OW 8017   6.081   4.407   6.049
 2373SOL    HW1 8018   5.988   4.415   6.014
 2373SOL    HW2 8019   6.097   4.314   6.082
 2374SOL     OW 8020   6.086   6.530   2.617
 2374SOL    HW1 8021   6.096   6.443   2.666
 2374SOL    HW2 8022   5.999   6.531   2.569
 2375SOL     OW 8023   2.060   0.506   4.392
 2375SOL    HW1 8024   2.004   0.574   4.437
 2375SOL    HW2 8025   2.132   0.475   4.454
 2376SOL     OW 8026   5.316   2.216   2.649
 2376SOL    HW1 8027   5.220   2.228   2.627
 2376SOL    HW2 8028   5.342   2.280   2.722
 2377SOL     OW 8029   4.962   3.692   5.632
 2377SOL    HW1 8030   5.037   3.732   5.684
 2377SOL    HW2 8031   4.895   3.652   5.694
 2378SOL     OW 8032   0.379   1.749   0.278
 2378SOL    HW1 8033   0.473   1.715   0.279
 2378SOL    HW2 8034   0.316   1.671   0.282
 2379SOL     OW 8035   0.203   5.489   2.459
 2379SOL    HW1 8036   0.213   5.422   2.386
 2379SOL    HW2 8037   0.249   5.456   2.542
 2380SOL     OW 8038   4.689   5.288   6.739
 2380SOL    HW1 8039   4.674   5.200   6.784
 2380SOL    HW2 8040   4.754   5.343   6.791
 2381SOL     OW 8041   2.243   4.037   3.566
 2381SOL    HW1 8042   2.195   3.949   3.565
 2381SOL    HW2 8043   2.308   4.038   3.643
 2382SOL     OW 8044   6.910   5.094   3.240
 2382SOL    HW1 8045   6.884   5.000   3.222
 2382SOL    HW2 8046   6.954   5.100   3.329
 2383SOL     OW 8047   5.338   4.090   6.237
 2383SOL    HW1 8048   5.252   4.040   6.232
 2383SOL    HW2 8049   5.348   4.146   6.155
 2384SOL     OW 8050   0.180   1.872   3.095
 2384SOL    HW1 8051   0.246   1.849   3.167
 2384SOL    HW2 8052   0.171   1.971   3.088
 2385SOL     OW 8053   0.008   1.388   0.668
 2385SOL    HW1 8054   6.973   1.458   0.710
 2385SOL    HW2 8055   7.011   1.299   0.711
 2386SOL     OW 8056   5.925   6.335   4.860
 2386SOL    HW1 8057   5.913   6.386   4.945
 2386SOL    HW2 8058   5.841   6.339   4.806
 2387SOL     OW 8059   1.171   1.486   3.985
 2387SOL    HW1 8060   1.221   1.464   4.069
 2387SOL    HW2 8061   1.193   1.579   3.956
 2388SOL     OW 8062   0.218   3.209   5.236
 2388SOL    HW1 8063   0.234   3.168   5.326
 2388SOL    HW2 8064   0.197   3.306   5.247
 2389SOL     OW 8065   4.460   5.224   3.304
 2389SOL    HW1 8066   4.373   5.271   3.291
 2389SOL    HW2 8067   4.446   5.143   3.361
 2390SOL     OW 8068   4.595   2.548   6.610
 2390SOL    HW1 8069   4.601   2.519   6.706
 2390SOL    HW2 8070   4.685   2.543   6.568
 2391SOL     OW 8071   3.501   4.832   6.403
 2391SOL    HW1 8072   3.494   4.788   6.313
 2391SOL    HW2 8073   3.419   4.813   6.456
 2392SOL     OW 8074   4.378   4.552   5.733
 2392SOL    HW1 8075   4.292   4.511   5.702
 2392SOL    HW2 8076   4.368   4.583   5.827
 2393SOL     OW 8077   4.460   4.372   0.939
 2393SOL    HW1 8078   4.448   4.414   1.029
 2393SOL    HW2 8079   4.551   4.333   0.933
 2394SOL     OW 8080   0.311   1.589   3.930
 2394SOL    HW1 8081   0.232   1.563   3.985
 2394SOL    HW2 8082   0.289   1.672   3.878
 2395SOL     OW 8083   0.881   3.170   3.694
 2395SOL    HW1 8084   0.899   3.102   3.765
 2395SOL    HW2 8085   0.938   3.151   3.614
 2396SOL     OW 8086   0.794   0.138   6.648
 2396SOL    HW1 8087   0.780   0.074   6.724
 2396SOL    HW2 8088   0.709   0.147   6.596
 2397SOL     OW 8089   0.600   3.914   4.873
 2397SOL    HW1 8090   0.530   3.898   4.943
 2397SOL    HW2 8091   0.652   3.996   4.897
 2398SOL     OW 8092   4.117   6.959   3.812
 2398SOL    HW1 8093   4.031   6.912   3.792
 2398SOL    HW2 8094   4.164   6.980   3.726
 2399SOL     OW 8095   3.254   2.037   2.951
 2399SOL    HW1 8096   3.352   2.055   2.965
 2399SOL    HW2 8097   3.218   2.101   2.884
 2400SOL     OW 8098   1.873   4.072   0.513
 2400SOL    HW1 8099   1.873   3.984   0.467
 2400SOL    HW2 8100   1.810   4.069   0.591
 2401SOL     OW 8101   2.128   6.194   6.682
 2401SOL    HW1 8102   2.085   6.109   6.711
 2401SOL    HW2 8103   2.061   6.268   6.688
 2402SOL     OW 8104   0.882   3.943   2.122
 2402SOL    HW1 8105   0.785   3.957   2.103
 2402SOL    HW2 8106   0.905   3.846   2.111
 2403SOL     OW 8107   3.337   3.840   4.911
 2403SOL    HW1 8108   3.402   3.866   4.983
 2403SOL    HW2 8109   3.377   3.769   4.854
 2404SOL     OW 8110   5.920   1.904   0.748
 2404SOL    HW1 8111   5.824   1.879   0.760
 2404SOL    HW2 8112   5.972   1.824   0.718
 2405SOL     OW 8113   1.593   3.390   0.856
 2405SOL    HW1 8114   1.675   3.446   0.872
 2405SOL    HW2 8115   1.575   3.383   0.758
 2406SOL     OW 8116   2.900   5.547   4.939
 2406SOL    HW1 8117   2.802   5.566   4.947
 2406SOL    HW2 8118   2.948   5.582   5.019
 2407SOL     OW 8119   3.059   0.974   3.084
 2407SOL    HW1 8120   3.070   1.049   3.150
 2407SOL    HW2 8121   3.144   0.963   3.033
 2408SOL     OW 8122   2.469   6.497   5.664
 2408SOL    HW1 8123   2.450   6.593   5.682
 2408SOL    HW2 8124   2.541   6.489   5.594
 2409SOL     OW 8125   0.929   3.327   0.081
 2409SOL    HW1 8126   0.872   3.338   0.162
 2409SOL    HW2 8127   1.021   3.360   0.100
 2410SOL     OW 8128   6.944   3.135   4.034
 2410SOL    HW1 8129   6.884   3.205   4.072
 2410SOL    HW2 8130   0.000   3.178   3.990
 2411SOL     OW 8131   3.208   2.212   6.377
 2411SOL    HW1 8132   3.127   2.237   6.430
 2411SOL    HW2 8133   3.260   2.294   6.353
 2412SOL     OW 8134   3.290   1.515   5.638
 2412SOL    HW1 8135   3.334   1.429   5.612
 2412SOL    HW2 8136   3.360   1.587   5.644
 2413SOL     OW 8137   0.502   3.191   6.995
 2413SOL    HW1 8138   0.430   3.131   6.961
 2413SOL    HW2 8139   0.591   3.156   6.965
 2414SOL     OW 8140   6.638   1.275   4.649
 2414SOL    HW1 8141   6.601   1.182   4.648
 2414SOL    HW2 8142   6.566   1.340   4.674
 2415SOL     OW 8143   2.608   5.062   6.445
 2415SOL    HW1 8144   2.688   5.099   6.399
 2415SOL    HW2 8145   2.589   5.117   6.527
 2416SOL     OW 8146   6.738   2.405   2.990
 2416SOL    HW1 8147   6.692   2.325   3.030
 2416SOL    HW2 8148   6.820   2.426   3.043
 2417SOL     OW 8149   2.844   2.586   1.476
 2417SOL    HW1 8150   2.752   2.623   1.480
 2417SOL    HW2 8151   2.841   2.490   1.447
 2418SOL     OW 8152   4.865   3.954   6.576
 2418SOL    HW1 8153   4.893   4.044   6.544
 2418SOL    HW2 8154   4.821   3.962   6.665
 2419SOL     OW 8155   2.974   0.660   3.315
 2419SOL    HW1 8156   2.959   0.708   3.401
 2419SOL    HW2 8157   3.070   0.670   3.288
 2420SOL     OW 8158   1.155   4.158   2.410
 2420SOL    HW1 8159   1.166   4.140   2.313
 2420SOL    HW2 8160   1.239   4.134   2.459
 2421SOL     OW 8161   3.424   6.788   3.530
 2421SOL    HW1 8162   3.443   6.744   3.442
 2421SOL    HW2 8163   3.387   6.720   3.593
 2422SOL     OW 8164   4.237   4.650   1.338
 2422SOL    HW1 8165   4.235   4.720   1.267
 2422SOL    HW2 8166   4.217   4.692   1.426
 2423SOL     OW 8167   2.537   5.663   3.100
 2423SOL    HW1 8168   2.528   5.718   3.183
 2423SOL    HW2 8169   2.455   5.673   3.044
 2424SOL     OW 8170   4.896   6.716   6.330
 2424SOL    HW1 8171   4.958   6.793   6.319
 2424SOL    HW2 8172   4.892   6.664   6.244
 2425SOL     OW 8173   4.846   5.398   5.091
 2425SOL    HW1 8174   4.888   5.456   5.022
 2425SOL    HW2 8175   4.891   5.309   5.093
 2426SOL     OW 8176   2.555   2.628   5.119
 2426SOL    HW1 8177   2.576   2.540   5.075
 2426SOL    HW2 8178   2.620   2.697   5.088
 2427SOL     OW 8179   5.592   0.711   0.292
 2427SOL    HW1 8180   5.494   0.693   0.293
 2427SOL    HW2 8181   5.611   0.789   0.232
 2428SOL     OW 8182   1.449   1.272   2.800
 2428SOL    HW1 8183   1.512   1.293   2.726
 2428SOL    HW2 8184   1.496   1.217   2.870
 2429SOL     OW 8185   6.304   4.977   1.859
 2429SOL    HW1 8186   6.340   5.070   1.852
 2429SOL    HW2 8187   6.268   4.948   1.770
 2430SOL     OW 8188   6.242   0.812   6.424
 2430SOL    HW1 8189   6.154   0.844   6.390
 2430SOL    HW2 8190   6.231   0.722   6.465
 2431SOL     OW 8191   0.620   3.534   1.508
 2431SOL    HW1 8192   0.718   3.544   1.487
 2431SOL    HW2 8193   0.607   3.539   1.607
 2432SOL     OW 8194   2.238   5.622   1.957
 2432SOL    HW1 8195   2.139   5.610   1.953
 2432SOL    HW2 8196   2.282   5.548   1.906
 2433SOL     OW 8197   6.933   4.142   5.117
 2433SOL    HW1 8198   6.897   4.193   5.039
 2433SOL    HW2 8199   6.892   4.050   5.119
 2434SOL     OW 8200   4.689   0.698   2.697
 2434SOL    HW1 8201   4.770   0.639   2.690
 2434SOL    HW2 8202   4.719   0.793   2.711
 2435SOL     OW 8203   5.950   6.835   6.999
 2435SOL    HW1 8204   5.936   6.764   6.930
 2435SOL    HW2 8205   6.019   6.805   0.042
 2436SOL     OW 8206   0.556   2.653   0.847
 2436SOL    HW1 8207   0.534   2.695   0.935
 2436SOL    HW2 8208   0.521   2.709   0.773
 2437SOL     OW 8209   0.281   3.787   1.861
 2437SOL    HW1 8210   0.334   3.809   1.780
 2437SOL    HW2 8211   0.184   3.807   1.844
 2438SOL     OW 8212   3.875   1.852   4.814
 2438SOL    HW1 8213   3.908   1.946   4.803
 2438SOL    HW2 8214   3.789   1.853   4.866
 2439SOL     OW 8215   1.803   5.520   1.623
 2439SOL    HW1 8216   1.880   5.456   1.618
 2439SOL    HW2 8217   1.757   5.523   1.534
 2440SOL     OW 8218   6.835   1.347   5.501
 2440SOL    HW1 8219   6.879   1.378   5.417
 2440SOL    HW2 8220   6.791   1.425   5.546
 2441SOL     OW 8221   5.962   0.642   0.682
 2441SOL    HW1 8222   5.936   0.665   0.776
 2441SOL    HW2 8223   5.893   0.677   0.619
 2442SOL     OW 8224   5.393   2.942   1.277
 2442SOL    HW1 8225   5.338   2.889   1.342
 2442SOL    HW2 8226   5.360   2.925   1.185
 2443SOL     OW 8227   0.817   3.093   1.372
 2443SOL    HW1 8228   0.890   3.152   1.339
 2443SOL    HW2 8229   0.838   3.063   1.465
 2444SOL     OW 8230   3.270   5.732   2.569
 2444SOL    HW1 8231   3.286   5.641   2.532
 2444SOL    HW2 8232   3.181   5.766   2.538
 2445SOL     OW 8233   0.678   1.918   1.351
 2445SOL    HW1 8234   0.674   2.013   1.320
 2445SOL    HW2 8235   0.773   1.892   1.368
 2446SOL     OW 8236   0.931   5.613   2.060
 2446SOL    HW1 8237   1.023   5.648   2.074
 2446SOL    HW2 8238   0.906   5.550   2.133
 2447SOL     OW 8239   2.394   0.162   0.229
 2447SOL    HW1 8240   2.486   0.189   0.199
 2447SOL    HW2 8241   2.377   0.067   0.204
 2448SOL     OW 8242   5.234   1.034   4.665
 2448SOL    HW1 8243   5.212   0.987   4.580
 2448SOL    HW2 8244   5.287   0.973   4.724
 2449SOL     OW 8245   1.107   4.431   1.462
 2449SOL    HW1 8246   1.121   4.394   1.553
 2449SOL    HW2 8247   1.165   4.511   1.448
 2450SOL     OW 8248   1.214   6.449   5.148
 2450SOL    HW1 8249   1.213   6.351   5.167
 2450SOL    HW2 8250   1.189   6.465   5.052
 2451SOL     OW 8251   1.488   6.501   5.253
 2451SOL    HW1 8252   1.394   6.510   5.221
 2451SOL    HW2 8253   1.551   6.507   5.176
 2452SOL     OW 8254   2.384   2.042   3.449
 2452SOL    HW1 8255   2.449   2.114   3.424
 2452SOL    HW2 8256   2.317   2.080   3.513
 2453SOL     OW 8257   1.208   1.509   5.782
 2453SOL    HW1 8258   1.308   1.517   5.788
 2453SOL    HW2 8259   1.173   1.577   5.719
 2454SOL     OW 8260   3.628   6.039   0.872
 2454SOL    HW1 8261   3.698   5.985   0.825
 2454SOL    HW2 8262   3.619   6.128   0.827
 2455SOL     OW 8263   4.116   2.534   0.669
 2455SOL    HW1 8264   4.196   2.510   0.615
 2455SOL    HW2 8265   4.076   2.619   0.633
 2456SOL     OW 8266   0.627   3.265   5.683
 2456SOL    HW1 8267   0.594   3.315   5.603
 2456SOL    HW2 8268   0.550   3.221   5.729
 2457SOL     OW 8269   4.298   1.894   5.261
 2457SOL    HW1 8270   4.262   1.839   5.337
 2457SOL    HW2 8271   4.222   1.927   5.205
 2458SOL     OW 8272   0.762   0.101   2.810
 2458SOL    HW1 8273   0.755   0.036   2.885
 2458SOL    HW2 8274   0.847   0.153   2.818
 2459SOL     OW 8275   1.894   6.818   0.146
 2459SOL    HW1 8276   1.883   6.753   0.072
 2459SOL    HW2 8277   1.988   6.853   0.146
 2460SOL     OW 8278   1.147   1.295   5.001
 2460SOL    HW1 8279   1.064   1.341   5.033
 2460SOL    HW2 8280   1.147   1.200   5.032
 2461SOL     OW 8281   4.703   0.786   3.760
 2461SOL    HW1 8282   4.764   0.732   3.817
 2461SOL    HW2 8283   4.675   0.869   3.809
 2462SOL     OW 8284   0.334   5.189   0.234
 2462SOL    HW1 8285   0.339   5.097   0.197
 2462SOL    HW2 8286   0.317   5.254   0.160
 2463SOL     OW 8287   6.632   0.365   0.176
 2463SOL    HW1 8288   6.695   0.408   0.111
 2463SOL    HW2 8289   6.553   0.424   0.190
 2464SOL     OW 8290   0.815   2.187   4.436
 2464SOL    HW1 8291   0.726   2.142   4.445
 2464SOL    HW2 8292   0.824   2.225   4.344
 2465SOL     OW 8293   6.954   6.618   6.223
 2465SOL    HW1 8294   6.904   6.613   6.136
 2465SOL    HW2 8295   6.903   6.568   6.293
 2466SOL     OW 8296   0.914   1.850   1.852
 2466SOL    HW1 8297   0.832   1.889   1.811
 2466SOL    HW2 8298   0.908   1.855   1.952
 2467SOL     OW 8299   6.016   2.639   5.282
 2467SOL    HW1 8300   6.055   2.600   5.199
 2467SOL    HW2 8301   6.062   2.601   5.362
 2468SOL     OW 8302   3.539   6.781   5.359
 2468SOL    HW1 8303   3.531   6.881   5.364
 2468SOL    HW2 8304   3.469   6.739   5.418
 2469SOL     OW 8305   3.918   1.999   5.495
 2469SOL    HW1 8306   3.951   1.989   5.401
 2469SOL    HW2 8307   3.866   2.084   5.503
 2470SOL     OW 8308   2.897   5.068   6.368
 2470SOL    HW1 8309   2.924   5.136   6.300
 2470SOL    HW2 8310   2.932   4.978   6.341
 2471SOL     OW 8311   2.891   5.339   1.825
 2471SOL    HW1 8312   2.835   5.301   1.899
 2471SOL    HW2 8313   2.937   5.422   1.858
 2472SOL     OW 8314   4.910   1.739   3.269
 2472SOL    HW1 8315   4.926   1.781   3.180
 2472SOL    HW2 8316   4.885   1.809   3.336
 2473SOL     OW 8317   0.310   3.931   3.843
 2473SOL    HW1 8318   0.403   3.896   3.855
 2473SOL    HW2 8319   0.310   4.030   3.854
 2474SOL     OW 8320   1.162   5.605   1.637
 2474SOL    HW1 8321   1.161   5.539   1.712
 2474SOL    HW2 8322   1.079   5.594   1.582
 2475SOL     OW 8323   4.555   0.766   0.416
 2475SOL    HW1 8324   4.640   0.800   0.457
 2475SOL    HW2 8325   4.541   0.670   0.441
 2476SOL     OW 8326   4.814   0.850   0.488
 2476SOL    HW1 8327   4.880   0.882   0.556
 2476SOL    HW2 8328   4.854   0.774   0.437
 2477SOL     OW 8329   3.961   0.081   2.990
 2477SOL    HW1 8330   3.941   0.016   2.917
 2477SOL    HW2 8331   3.890   0.077   3.059
 2478SOL     OW 8332   4.624   7.002   4.699
 2478SOL    HW1 8333   4.689   6.972   4.629
 2478SOL    HW2 8334   4.646   6.958   4.786
 2479SOL     OW 8335   6.013   3.285   6.999
 2479SOL    HW1 8336   6.074   3.346   0.029
 2479SOL    HW2 8337   5.973   3.217   0.038
 2480SOL     OW 8338   3.206   2.279   1.503
 2480SOL    HW1 8339   3.277   2.344   1.529
 2480SOL    HW2 8340   3.136   2.277   1.574
 2481SOL     OW 8341   3.176   0.654   1.366
 2481SOL    HW1 8342   3.241   0.583   1.340
 2481SOL    HW2 8343   3.085   0.614   1.377
 2482SOL     OW 8344   6.058   3.842   6.307
 2482SOL    HW1 8345   6.057   3.908   6.383
 2482SOL    HW2 8346   6.013   3.882   6.228
 2483SOL     OW 8347   1.599   2.659   0.361
 2483SOL    HW1 8348   1.526   2.615   0.308
 2483SOL    HW2 8349   1.687   2.624   0.330
 2484SOL     OW 8350   5.100   1.001   1.052
 2484SOL    HW1 8351   5.004   1.020   1.077
 2484SOL    HW2 8352   5.149   0.969   1.133
 2485SOL     OW 8353   6.846   2.261   6.283
 2485SOL    HW1 8354   6.871   2.277   6.378
 2485SOL    HW2 8355   6.805   2.170   6.274
 2486SOL     OW 8356   6.456   5.410   4.788
 2486SOL    HW1 8357   6.378   5.375   4.736
 2486SOL    HW2 8358   6.434   5.500   4.825
 2487SOL     OW 8359   5.055   6.212   6.389
 2487SOL    HW1 8360   5.110   6.257   6.320
 2487SOL    HW2 8361   5.106   6.207   6.475
 2488SOL     OW 8362   6.507   4.028   0.397
 2488SOL    HW1 8363   6.485   3.936   0.363
 2488SOL    HW2 8364   6.433   4.091   0.372
 2489SOL     OW 8365   6.761   6.252   4.850
 2489SOL    HW1 8366   6.681   6.218   4.900
 2489SOL    HW2 8367   6.758   6.220   4.756
 2490SOL     OW 8368   2.471   5.540   2.758
 2490SOL    HW1 8369   2.434   5.619   2.807
 2490SOL    HW2 8370   2.395   5.486   2.722
 2491SOL     OW 8371   3.619   4.714   1.505
 2491SOL    HW1 8372   3.620   4.764   1.419
 2491SOL    HW2 8373   3.622   4.616   1.487
 2492SOL     OW 8374   6.905   4.512   1.597
 2492SOL    HW1 8375   6.884   4.415   1.583
 2492SOL    HW2 8376   6.925   4.528   1.694
 2493SOL     OW 8377   6.137   6.832   1.116
 2493SOL    HW1 8378   6.047   6.816   1.077
 2493SOL    HW2 8379   6.160   6.929   1.110
 2494SOL     OW 8380   6.260   4.057   2.588
 2494SOL    HW1 8381   6.264   4.056   2.688
 2494SOL    HW2 8382   6.224   3.970   2.555
 2495SOL     OW 8383   6.909   4.618   3.170
 2495SOL    HW1 8384   6.983   4.564   3.210
 2495SOL    HW2 8385   6.897   4.702   3.222
 2496SOL     OW 8386   6.061   4.693   6.283
 2496SOL    HW1 8387   6.114   4.778   6.276
 2496SOL    HW2 8388   6.124   4.616   6.299
 2497SOL     OW 8389   0.412   0.311   2.135
 2497SOL    HW1 8390   0.453   0.375   2.199
 2497SOL    HW2 8391   0.470   0.229   2.127
 2498SOL     OW 8392   1.900   4.130   5.985
 2498SOL    HW1 8393   1.933   4.182   6.064
 2498SOL    HW2 8394   1.800   4.130   5.986
 2499SOL     OW 8395   6.346   3.761   2.187
 2499SOL    HW1 8396   6.295   3.752   2.273
 2499SOL    HW2 8397   6.400   3.845   2.189
 2500SOL     OW 8398   3.258   3.905   0.006
 2500SOL    HW1 8399   3.239   3.848   6.948
 2500SOL    HW2 8400   3.338   3.869   0.054
 2501SOL     OW 8401   5.941   5.383   6.971
 2501SOL    HW1 8402   5.990   5.467   6.950
 2501SOL    HW2 8403   5.848   5.405   7.001
 2502SOL     OW 8404   2.959   5.028   4.483
 2502SOL    HW1 8405   2.909   4.942   4.473
 2502SOL    HW2 8406   2.990   5.060   4.394
 2503SOL     OW 8407   2.205   6.566   6.340
 2503SOL    HW1 8408   2.302   6.588   6.331
 2503SOL    HW2 8409   2.191   6.503   6.416
 2504SOL     OW 8410   3.768   6.401   3.393
 2504SOL    HW1 8411   3.745   6.310   3.427
 2504SOL    HW2 8412   3.857   6.397   3.346
 2505SOL     OW 8413   0.466   5.279   3.508
 2505SOL    HW1 8414   0.437   5.189   3.540
 2505SOL    HW2 8415   0.477   5.277   3.409
 2506SOL     OW 8416   5.279   5.597   6.074
 2506SOL    HW1 8417   5.207   5.528   6.079
 2506SOL    HW2 8418   5.259   5.661   5.999
 2507SOL     OW 8419   7.000   3.253   0.984
 2507SOL    HW1 8420   0.057   3.209   0.943
 2507SOL    HW2 8421   6.928   3.186   1.000
 2508SOL     OW 8422   4.825   1.876   4.185
 2508SOL    HW1 8423   4.867   1.825   4.260
 2508SOL    HW2 8424   4.775   1.954   4.221
 2509SOL     OW 8425   0.044   4.486   5.549
 2509SOL    HW1 8426   6.975   4.521   5.567
 2509SOL    HW2 8427   0.042   4.427   5.468
 2510SOL     OW 8428   3.149   4.038   1.893
 2510SOL    HW1 8429   3.217   3.966   1.901
 2510SOL    HW2 8430   3.195   4.127   1.891
 2511SOL     OW 8431   2.034   0.365   5.106
 2511SOL    HW1 8432   2.032   0.420   5.190
 2511SOL    HW2 8433   2.031   0.426   5.027
 2512SOL     OW 8434   3.507   5.206   4.390
 2512SOL    HW1 8435   3.583   5.262   4.421
 2512SOL    HW2 8436   3.540   5.115   4.365
 2513SOL     OW 8437   2.157   5.649   5.939
 2513SOL    HW1 8438   2.150   5.678   6.034
 2513SOL    HW2 8439   2.205   5.562   5.933
 2514SOL     OW 8440   1.466   2.849   2.839
 2514SOL    HW1 8441   1.399   2.917   2.867
 2514SOL    HW2 8442   1.521   2.820   2.918
 2515SOL     OW 8443   1.152   1.397   1.234
 2515SOL    HW1 8444   1.228   1.366   1.177
 2515SOL    HW2 8445   1.090   1.320   1.251
 2516SOL     OW 8446   5.840   1.865   3.847
 2516SOL    HW1 8447   5.889   1.791   3.800
 2516SOL    HW2 8448   5.748   1.834   3.872
 2517SOL     OW 8449   1.856   1.619   3.978
 2517SOL    HW1 8450   1.758   1.637   3.990
 2517SOL    HW2 8451   1.893   1.582   4.063
 2518SOL     OW 8452   2.984   4.921   1.230
 2518SOL    HW1 8453   3.043   4.841   1.217
 2518SOL    HW2 8454   2.947   4.920   1.323
 2519SOL     OW 8455   1.157   1.186   0.607
 2519SOL    HW1 8456   1.089   1.168   0.679
 2519SOL    HW2 8457   1.186   1.100   0.566
 2520SOL     OW 8458   2.803   2.314   0.691
 2520SOL    HW1 8459   2.895   2.279   0.706
 2520SOL    HW2 8460   2.806   2.391   0.628
 2521SOL     OW 8461   4.853   1.140   5.186
 2521SOL    HW1 8462   4.791   1.108   5.114
 2521SOL    HW2 8463   4.826   1.099   5.273
 2522SOL     OW 8464   0.706   2.532   6.041
 2522SOL    HW1 8465   0.777   2.499   5.979
 2522SOL    HW2 8466   0.747   2.595   6.107
 2523SOL     OW 8467   2.051   5.042   6.933
 2523SOL    HW1 8468   1.999   4.957   6.942
 2523SOL    HW2 8469   2.148   5.020   6.921
 2524SOL     OW 8470   1.677   6.920   4.105
 2524SOL    HW1 8471   1.692   7.004   4.053
 2524SOL    HW2 8472   1.609   6.936   4.176
 2525SOL     OW 8473   6.733   2.339   4.301
 2525SOL    HW1 8474   6.697   2.288   4.379
 2525SOL    HW2 8475   6.663   2.346   4.230
 2526SOL     OW 8476   0.936   6.695   1.106
 2526SOL    HW1 8477   1.031   6.723   1.119
 2526SOL    HW2 8478   0.874   6.769   1.133
 2527SOL     OW 8479   4.555   4.887   6.660
 2527SOL    HW1 8480   4.565   4.906   6.562
 2527SOL    HW2 8481   4.593   4.962   6.713
 2528SOL     OW 8482   4.534   5.555   6.777
 2528SOL    HW1 8483   4.553   5.577   6.682
 2528SOL    HW2 8484   4.556   5.459   6.794
 2529SOL     OW 8485   0.317   6.790   6.636
 2529SOL    HW1 8486   0.228   6.812   6.675
 2529SOL    HW2 8487   0.335   6.848   6.556
 2530SOL     OW 8488   1.853   5.605   6.093
 2530SOL    HW1 8489   1.888   5.523   6.047
 2530SOL    HW2 8490   1.928   5.669   6.110
 2531SOL     OW 8491   6.222   5.457   5.598
 2531SOL    HW1 8492   6.212   5.493   5.691
 2531SOL    HW2 8493   6.187   5.363   5.595
 2532SOL     OW 8494   6.285   6.477   0.930
 2532SOL    HW1 8495   6.380   6.453   0.913
 2532SOL    HW2 8496   6.233   6.395   0.953
 2533SOL     OW 8497   5.198   0.630   3.271
 2533SOL    HW1 8498   5.231   0.652   3.362
 2533SOL    HW2 8499   5.266   0.659   3.203
 2534SOL     OW 8500   4.693   1.810   2.684
 2534SOL    HW1 8501   4.612   1.867   2.691
 2534SOL    HW2 8502   4.717   1.774   2.774
 2535SOL     OW 8503   3.659   2.780   6.064
 2535SOL    HW1 8504   3.627   2.779   6.159
 2535SOL    HW2 8505   3.604   2.846   6.011
 2536SOL     OW 8506   1.497   0.443   0.170
 2536SOL    HW1 8507   1.590   0.464   0.142
 2536SOL    HW2 8508   1.442   0.527   0.167
 2537SOL     OW 8509   4.196   0.680   6.852
 2537SOL    HW1 8510   4.100   0.706   6.856
 2537SOL    HW2 8511   4.212   0.604   6.915
 2538SOL     OW 8512   6.735   3.631   4.047
 2538SOL    HW1 8513   6.640   3.654   4.023
 2538SOL    HW2 8514   6.794   3.648   3.968
 2539SOL     OW 8515   5.089   1.705   5.331
 2539SOL    HW1 8516   5.022   1.674   5.399
 2539SOL    HW2 8517   5.147   1.628   5.304
 2540SOL     OW 8518   3.774   1.399   2.264
 2540SOL    HW1 8519   3.752   1.464   2.191
 2540SOL    HW2 8520   3.832   1.443   2.332
 2541SOL     OW 8521   3.429   6.357   5.262
 2541SOL    HW1 8522   3.483   6.304   5.327
 2541SOL    HW2 8523   3.485   6.378   5.182
 2542SOL     OW 8524   1.312   4.901   6.332
 2542SOL    HW1 8525   1.396   4.919   6.281
 2542SOL    HW2 8526   1.335   4.870   6.424
 2543SOL     OW 8527   1.822   0.938   4.094
 2543SOL    HW1 8528   1.741   0.963   4.040
 2543SOL    HW2 8529   1.897   0.913   4.033
 2544SOL     OW 8530   1.042   5.106   0.244
 2544SOL    HW1 8531   0.947   5.117   0.273
 2544SOL    HW2 8532   1.048   5.118   0.145
 2545SOL     OW 8533   2.556   6.325   2.792
 2545SOL    HW1 8534   2.559   6.413   2.745
 2545SOL    HW2 8535   2.577   6.251   2.728
 2546SOL     OW 8536   6.013   1.906   1.023
 2546SOL    HW1 8537   5.941   1.914   0.954
 2546SOL    HW2 8538   6.026   1.994   1.069
 2547SOL     OW 8539   0.191   3.803   4.932
 2547SOL    HW1 8540   0.175   3.761   5.021
 2547SOL    HW2 8541   0.169   3.738   4.859
 2548SOL     OW 8542   0.614   6.245   4.059
 2548SOL    HW1 8543   0.652   6.334   4.030
 2548SOL    HW2 8544   0.662   6.172   4.011
 2549SOL     OW 8545   0.335   1.820   0.768
 2549SOL    HW1 8546   0.320   1.908   0.723
 2549SOL    HW2 8547   0.251   1.766   0.763
 2550SOL     OW 8548   5.806   6.353   0.522
 2550SOL    HW1 8549   5.864   6.378   0.599
 2550SOL    HW2 8550   5.844   6.272   0.476
 2551SOL     OW 8551   1.636   4.217   6.544
 2551SOL    HW1 8552   1.700   4.147   6.511
 2551SOL    HW2 8553   1.546   4.200   6.504
 2552SOL     OW 8554   2.444   5.678   3.489
 2552SOL    HW1 8555   2.467   5.583   3.465
 2552SOL    HW2 8556   2.431   5.685   3.588
 2553SOL     OW 8557   3.881   3.513   6.969
 2553SOL    HW1 8558   3.909   3.422   6.939
 2553SOL    HW2 8559   3.806   3.546   6.912
 2554SOL     OW 8560   1.092   1.516   0.257
 2554SOL    HW1 8561   1.018   1.463   0.297
 2554SOL    HW2 8562   1.140   1.567   0.328
 2555SOL     OW 8563   6.206   2.388   6.723
 2555SOL    HW1 8564   6.124   2.333   6.734
 2555SOL    HW2 8565   6.185   2.484   6.742
 2556SOL     OW 8566   3.080   6.086   0.802
 2556SOL    HW1 8567   3.031   6.076   0.889
 2556SOL    HW2 8568   3.073   6.002   0.749
 2557SOL     OW 8569   2.214   4.110   6.964
 2557SOL    HW1 8570   2.214   4.071   0.034
 2557SOL    HW2 8571   2.268   4.051   6.904
 2558SOL     OW 8572   4.221   0.443   6.059
 2558SOL    HW1 8573   4.244   0.446   5.961
 2558SOL    HW2 8574   4.306   0.446   6.112
 2559SOL     OW 8575   0.403   4.975   4.983
 2559SOL    HW1 8576   0.480   4.920   5.013
 2559SOL    HW2 8577   0.330   4.915   4.951
 2560SOL     OW 8578   5.941   2.314   6.386
 2560SOL    HW1 8579   5.905   2.241   6.443
 2560SOL    HW2 8580   6.041   2.313   6.389
 2561SOL     OW 8581   2.915   5.277   5.083
 2561SOL    HW1 8582   2.908   5.374   5.060
 2561SOL    HW2 8583   2.823   5.238   5.091
 2562SOL     OW 8584   1.595   3.890   0.166
 2562SOL    HW1 8585   1.513   3.916   0.218
 2562SOL    HW2 8586   1.651   3.971   0.149
 2563SOL     OW 8587   2.530   1.144   0.013
 2563SOL    HW1 8588   2.547   1.066   6.975
 2563SOL    HW2 8589   2.507   1.224   6.980
 2564SOL     OW 8590   1.641   5.406   1.844
 2564SOL    HW1 8591   1.689   5.450   1.768
 2564SOL    HW2 8592   1.687   5.320   1.867
 2565SOL     OW 8593   1.893   0.753   1.457
 2565SOL    HW1 8594   1.797   0.754   1.428
 2565SOL    HW2 8595   1.924   0.659   1.467
 2566SOL     OW 8596   1.538   6.425   6.776
 2566SOL    HW1 8597   1.459   6.472   6.816
 2566SOL    HW2 8598   1.595   6.491   6.727
 2567SOL     OW 8599   1.460   6.101   0.055
 2567SOL    HW1 8600   1.520   6.120   7.000
 2567SOL    HW2 8601   1.370   6.139   0.038
 2568SOL     OW 8602   4.906   2.962   6.945
 2568SOL    HW1 8603   4.885   3.055   6.915
 2568SOL    HW2 8604   4.926   2.962   0.021
 2569SOL     OW 8605   3.017   0.388   3.327
 2569SOL    HW1 8606   2.980   0.480   3.316
 2569SOL    HW2 8607   3.060   0.359   3.241
 2570SOL     OW 8608   5.562   1.857   6.166
 2570SOL    HW1 8609   5.602   1.852   6.258
 2570SOL    HW2 8610   5.620   1.807   6.102
 2571SOL     OW 8611   1.232   4.286   4.349
 2571SOL    HW1 8612   1.272   4.194   4.355
 2571SOL    HW2 8613   1.189   4.298   4.260
 2572SOL     OW 8614   2.319   4.745   2.883
 2572SOL    HW1 8615   2.354   4.834   2.912
 2572SOL    HW2 8616   2.318   4.740   2.784
 2573SOL     OW 8617   1.233   0.208   1.023
 2573SOL    HW1 8618   1.281   0.143   0.963
 2573SOL    HW2 8619   1.294   0.234   1.098
 2574SOL     OW 8620   6.572   3.511   6.808
 2574SOL    HW1 8621   6.514   3.558   6.875
 2574SOL    HW2 8622   6.615   3.578   6.748
 2575SOL     OW 8623   6.978   5.713   6.048
 2575SOL    HW1 8624   6.938   5.636   6.098
 2575SOL    HW2 8625   6.993   5.686   5.953
 2576SOL     OW 8626   4.809   5.906   3.964
 2576SOL    HW1 8627   4.876   5.956   3.909
 2576SOL    HW2 8628   4.723   5.900   3.913
 2577SOL     OW 8629   2.616   4.757   2.395
 2577SOL    HW1 8630   2.686   4.737   2.325
 2577SOL    HW2 8631   2.630   4.696   2.473
 2578SOL     OW 8632   3.957   2.222   4.219
 2578SOL    HW1 8633   3.859   2.206   4.229
 2578SOL    HW2 8634   3.978   2.245   4.124
 2579SOL     OW 8635   1.153   6.343   3.498
 2579SOL    HW1 8636   1.076   6.401   3.525
 2579SOL    HW2 8637   1.125   6.247   3.499
 2580SOL     OW 8638   2.013   3.058   6.531
 2580SOL    HW1 8639   2.102   3.023   6.557
 2580SOL    HW2 8640   1.986   3.019   6.443
 2581SOL     OW 8641   3.440   0.044   5.023
 2581SOL    HW1 8642   3.365   0.003   4.970
 2581SOL    HW2 8643   3.523   7.012   5.010
 2582SOL     OW 8644   0.544   3.009   1.541
 2582SOL    HW1 8645   0.448   3.036   1.536
 2582SOL    HW2 8646   0.601   3.082   1.503
 2583SOL     OW 8647   5.857   0.065   0.893
 2583SOL    HW1 8648   5.921   0.052   0.818
 2583SOL    HW2 8649   5.846   7.001   0.942
 2584SOL     OW 8650   4.379   4.892   5.315
 2584SOL    HW1 8651   4.297   4.942   5.342
 2584SOL    HW2 8652   4.459   4.952   5.321
 2585SOL     OW 8653   3.207   5.126   6.568
 2585SOL    HW1 8654   3.118   5.083   6.551
 2585SOL    HW2 8655   3.268   5.059   6.611
 2586SOL     OW 8656   2.545   0.812   4.514
 2586SOL    HW1 8657   2.505   0.819   4.605
 2586SOL    HW2 8658   2.632   0.763   4.518
 2587SOL     OW 8659   6.679   1.363   3.406
 2587SOL    HW1 8660   6.696   1.311   3.490
 2587SOL    HW2 8661   6.644   1.453   3.430
 2588SOL     OW 8662   4.385   0.745   5.648
 2588SOL    HW1 8663   4.312   0.812   5.635
 2588SOL    HW2 8664   4.471   0.793   5.666
 2589SOL     OW 8665   1.855   6.629   6.964
 2589SOL    HW1 8666   1.854   6.529   6.970
 2589SOL    HW2 8667   1.855   6.656   6.867
 2590SOL     OW 8668   2.647   5.641   0.997
 2590SOL    HW1 8669   2.569   5.653   0.934
 2590SOL    HW2 8670   2.623   5.574   1.067
 2591SOL     OW 8671   6.027   5.634   3.792
 2591SOL    HW1 8672   6.066   5.656   3.881
 2591SOL    HW2 8673   6.063   5.547   3.760
 2592SOL     OW 8674   2.135   4.683   0.421
 2592SOL    HW1 8675   2.225   4.670   0.378
 2592SOL    HW2 8676   2.147   4.729   0.509
 2593SOL     OW 8677   3.101   4.107   0.668
 2593SOL    HW1 8678   3.068   4.202   0.663
 2593SOL    HW2 8679   3.146   4.083   0.582
 2594SOL     OW 8680   1.420   3.720   4.508
 2594SOL    HW1 8681   1.452   3.628   4.485
 2594SOL    HW2 8682   1.498   3.777   4.534
 2595SOL     OW 8683   1.684   0.911   3.243
 2595SOL    HW1 8684   1.773   0.954   3.229
 2595SOL    HW2 8685   1.664   0.850   3.167
 2596SOL     OW 8686   1.293   2.334   7.008
 2596SOL    HW1 8687   1.270   2.278   6.928
 2596SOL    HW2 8688   1.371   2.294   0.033
 2597SOL     OW 8689   6.938   5.977   6.137
 2597SOL    HW1 8690   6.971   5.984   6.231
 2597SOL    HW2 8691   6.918   5.882   6.116
 2598SOL     OW 8692   5.468   2.519   1.951
 2598SOL    HW1 8693   5.467   2.474   2.040
 2598SOL    HW2 8694   5.562   2.535   1.922
 2599SOL     OW 8695   3.164   5.986   1.893
 2599SOL    HW1 8696   3.169   6.044   1.812
 2599SOL    HW2 8697   3.112   5.904   1.873
 2600SOL     OW 8698   6.036   4.198   4.292
 2600SOL    HW1 8699   6.119   4.192   4.236
 2600SOL    HW2 8700   6.042   4.276   4.353
 2601SOL     OW 8701   0.013   1.898   3.410
 2601SOL    HW1 8702   0.096   1.912   3.356
 2601SOL    HW2 8703   6.971   1.844   3.357
 2602SOL     OW 8704   1.570   4.718   3.492
 2602SOL    HW1 8705   1.598   4.814   3.491
 2602SOL    HW2 8706   1.649   4.660   3.511
 2603SOL     OW 8707   3.297   6.795   2.812
 2603SOL    HW1 8708   3.314   6.734   2.734
 2603SOL    HW2 8709   3.216   6.851   2.794
 2604SOL     OW 8710   4.562   2.500   2.884
 2604SOL    HW1 8711   4.468   2.480   2.910
 2604SOL    HW2 8712   4.607   2.552   2.956
 2605SOL     OW 8713   1.607   3.675   1.799
 2605SOL    HW1 8714   1.683   3.723   1.755
 2605SOL    HW2 8715   1.598   3.705   1.894
 2606SOL     OW 8716   4.679   3.489   1.369
 2606SOL    HW1 8717   4.619   3.454   1.442
 2606SOL    HW2 8718   4.636   3.569   1.326
 2607SOL     OW 8719   2.605   2.250   1.380
 2607SOL    HW1 8720   2.569   2.280   1.292
 2607SOL    HW2 8721   2.705   2.257   1.379
 2608SOL     OW 8722   2.569   5.048   5.523
 2608SOL    HW1 8723   2.534   5.107   5.450
 2608SOL    HW2 8724   2.668   5.060   5.531
 2609SOL     OW 8725   0.261   2.189   0.871
 2609SOL    HW1 8726   0.255   2.150   0.779
 2609SOL    HW2 8727   0.351   2.232   0.883
 2610SOL     OW 8728   1.158   4.479   4.545
 2610SOL    HW1 8729   1.186   4.419   4.469
 2610SOL    HW2 8730   1.061   4.466   4.563
 2611SOL     OW 8731   5.362   6.756   6.536
 2611SOL    HW1 8732   5.294   6.806   6.483
 2611SOL    HW2 8733   5.327   6.664   6.557
 2612SOL     OW 8734   6.622   0.317   5.900
 2612SOL    HW1 8735   6.567   0.400   5.911
 2612SOL    HW2 8736   6.574   0.240   5.944
 2613SOL     OW 8737   0.534   6.224   6.873
 2613SOL    HW1 8738   0.612   6.262   6.923
 2613SOL    HW2 8739   0.455   6.219   6.934
 2614SOL     OW 8740   6.365   1.156   6.558
 2614SOL    HW1 8741   6.390   1.061   6.578
 2614SOL    HW2 8742   6.446   1.214   6.564
 2615SOL     OW 8743   0.731   3.451   0.264
 2615SOL    HW1 8744   0.673   3.454   0.183
 2615SOL    HW2 8745   0.674   3.431   0.344
 2616SOL     OW 8746   1.157   0.915   5.329
 2616SOL    HW1 8747   1.101   0.846   5.284
 2616SOL    HW2 8748   1.116   0.939   5.417
 2617SOL     OW 8749   5.318   0.512   1.155
 2617SOL    HW1 8750   5.354   0.605   1.165
 2617SOL    HW2 8751   5.360   0.468   1.075
 2618SOL     OW 8752   1.115   6.460   6.426
 2618SOL    HW1 8753   1.090   6.536   6.367
 2618SOL    HW2 8754   1.164   6.391   6.374
 2619SOL     OW 8755   5.326   1.138   2.368
 2619SOL    HW1 8756   5.376   1.215   2.329
 2619SOL    HW2 8757   5.264   1.171   2.439
 2620SOL     OW 8758   5.999   1.106   0.954
 2620SOL    HW1 8759   5.945   1.145   0.880
 2620SOL    HW2 8760   6.021   1.178   1.020
 2621SOL     OW 8761   1.368   6.354   1.919
 2621SOL    HW1 8762   1.394   6.320   1.828
 2621SOL    HW2 8763   1.396   6.287   1.988
 2622SOL     OW 8764   3.573   3.236   6.562
 2622SOL    HW1 8765   3.641   3.309   6.556
 2622SOL    HW2 8766   3.570   3.201   6.656
 2623SOL     OW 8767   1.365   6.493   3.422
 2623SOL    HW1 8768   1.320   6.434   3.490
 2623SOL    HW2 8769   1.442   6.539   3.465
 2624SOL     OW 8770   0.252   1.873   5.323
 2624SOL    HW1 8771   0.297   1.792   5.359
 2624SOL    HW2 8772   0.278   1.953   5.379
 2625SOL     OW 8773   2.389   4.947   6.286
 2625SOL    HW1 8774   2.332   5.024   6.256
 2625SOL    HW2 8775   2.461   4.980   6.347
 2626SOL     OW 8776   6.761   5.694   0.037
 2626SOL    HW1 8777   6.745   5.763   6.989
 2626SOL    HW2 8778   6.746   5.734   0.127
 2627SOL     OW 8779   1.889   0.289   6.048
 2627SOL    HW1 8780   1.818   0.288   6.119
 2627SOL    HW2 8781   1.873   0.367   5.987
 2628SOL     OW 8782   0.482   4.480   1.997
 2628SOL    HW1 8783   0.440   4.447   2.082
 2628SOL    HW2 8784   0.464   4.579   1.988
 2629SOL     OW 8785   3.113   3.593   2.667
 2629SOL    HW1 8786   3.212   3.592   2.682
 2629SOL    HW2 8787   3.090   3.665   2.602
 2630SOL     OW 8788   3.991   0.938   3.776
 2630SOL    HW1 8789   3.922   1.010   3.767
 2630SOL    HW2 8790   3.999   0.913   3.873
 2631SOL     OW 8791   6.368   0.134   6.838
 2631SOL    HW1 8792   6.300   0.072   6.800
 2631SOL    HW2 8793   6.322   0.211   6.883
 2632SOL     OW 8794   5.098   4.591   2.480
 2632SOL    HW1 8795   5.061   4.508   2.438
 2632SOL    HW2 8796   5.040   4.669   2.457
 2633SOL     OW 8797   0.035   3.411   6.112
 2633SOL    HW1 8798   0.088   3.496   6.110
 2633SOL    HW2 8799   0.040   3.370   6.203
 2634SOL     OW 8800   0.635   0.487   6.131
 2634SOL    HW1 8801   0.630   0.584   6.156
 2634SOL    HW2 8802   0.601   0.432   6.207
 2635SOL     OW 8803   5.254   5.197   3.307
 2635SOL    HW1 8804   5.345   5.189   3.266
 2635SOL    HW2 8805   5.258   5.260   3.384
 2636SOL     OW 8806   4.069   5.790   5.092
 2636SOL    HW1 8807   4.153   5.832   5.127
 2636SOL    HW2 8808   4.050   5.706   5.142
 2637SOL     OW 8809   1.181   1.074   3.456
 2637SOL    HW1 8810   1.108   1.065   3.387
 2637SOL    HW2 8811   1.260   1.021   3.427
 2638SOL     OW 8812   0.942   6.284   4.321
 2638SOL    HW1 8813   0.953   6.250   4.228
 2638SOL    HW2 8814   0.849   6.265   4.353
 2639SOL     OW 8815   4.330   4.852   5.032
 2639SOL    HW1 8816   4.246   4.873   4.983
 2639SOL    HW2 8817   4.403   4.913   5.001
 2640SOL     OW 8818   2.115   6.838   3.635
 2640SOL    HW1 8819   2.111   6.745   3.598
 2640SOL    HW2 8820   2.144   6.834   3.731
 2641SOL     OW 8821   6.188   2.640   6.824
 2641SOL    HW1 8822   6.176   2.589   6.909
 2641SOL    HW2 8823   6.161   2.735   6.838
 2642SOL     OW 8824   5.995   0.886   3.936
 2642SOL    HW1 8825   6.054   0.814   3.974
 2642SOL    HW2 8826   6.046   0.972   3.933
 2643SOL     OW 8827   2.242   4.662   3.701
 2643SOL    HW1 8828   2.260   4.723   3.779
 2643SOL    HW2 8829   2.258   4.711   3.616
 2644SOL     OW 8830   5.099   5.558   4.621
 2644SOL    HW1 8831   5.070   5.542   4.527
 2644SOL    HW2 8832   5.192   5.595   4.621
 2645SOL     OW 8833   4.836   5.870   3.431
 2645SOL    HW1 8834   4.748   5.861   3.385
 2645SOL    HW2 8835   4.841   5.961   3.474
 2646SOL     OW 8836   0.863   2.700   6.243
 2646SOL    HW1 8837   0.853   2.628   6.311
 2646SOL    HW2 8838   0.869   2.789   6.288
 2647SOL     OW 8839   5.341   0.728   1.827
 2647SOL    HW1 8840   5.358   0.805   1.888
 2647SOL    HW2 8841   5.406   0.655   1.846
 2648SOL     OW 8842   0.732   6.920   6.785
 2648SOL    HW1 8843   0.815   6.873   6.756
 2648SOL    HW2 8844   0.657   6.854   6.792
 2649SOL     OW 8845   5.011   1.878   3.057
 2649SOL    HW1 8846   5.007   1.975   3.031
 2649SOL    HW2 8847   5.102   1.858   3.095
 2650SOL     OW 8848   2.481   6.239   4.521
 2650SOL    HW1 8849   2.519   6.167   4.579
 2650SOL    HW2 8850   2.548   6.267   4.453
 2651SOL     OW 8851   4.061   2.124   4.539
 2651SOL    HW1 8852   4.132   2.177   4.492
 2651SOL    HW2 8853   4.090   2.028   4.543
 2652SOL     OW 8854   5.027   3.980   5.479
 2652SOL    HW1 8855   4.978   3.906   5.431
 2652SOL    HW2 8856   4.974   4.064   5.472
 2653SOL     OW 8857   2.507   5.725   0.365
 2653SOL    HW1 8858   2.447   5.715   0.286
 2653SOL    HW2 8859   2.519   5.822   0.385
 2654SOL     OW 8860   6.480   1.156   0.389
 2654SOL    HW1 8861   6.540   1.162   0.470
 2654SOL    HW2 8862   6.385   1.159   0.418
 2655SOL     OW 8863   5.018   6.638   2.433
 2655SOL    HW1 8864   5.108   6.598   2.422
 2655SOL    HW2 8865   4.990   6.634   2.529
 2656SOL     OW 8866   4.282   6.321   3.227
 2656SOL    HW1 8867   4.322   6.239   3.267
 2656SOL    HW2 8868   4.284   6.313   3.127
 2657SOL     OW 8869   0.199   3.654   0.121
 2657SOL    HW1 8870   0.160   3.616   0.204
 2657SOL    HW2 8871   0.293   3.684   0.139
 2658SOL     OW 8872   3.417   5.382   0.435
 2658SOL    HW1 8873   3.359   5.454   0.396
 2658SOL    HW2 8874   3.365   5.331   0.504
 2659SOL     OW 8875   0.281   2.274   4.960
 2659SOL    HW1 8876   0.377   2.300   4.950
 2659SOL    HW2 8877   0.275   2.177   4.984
 2660SOL     OW 8878   0.364   1.644   1.886
 2660SOL    HW1 8879   0.264   1.641   1.894
 2660SOL    HW2 8880   0.393   1.591   1.806
 2661SOL     OW 8881   1.180   1.069   1.022
 2661SOL    HW1 8882   1.092   1.091   0.979
 2661SOL    HW2 8883   1.239   1.022   0.956
 2662SOL     OW 8884   2.823   1.387   2.100
 2662SOL    HW1 8885   2.861   1.362   2.189
 2662SOL    HW2 8886   2.816   1.486   2.093
 2663SOL     OW 8887   4.273   6.919   0.330
 2663SOL    HW1 8888   4.173   6.912   0.337
 2663SOL    HW2 8889   4.314   6.877   0.411
 2664SOL     OW 8890   4.851   3.785   5.311
 2664SOL    HW1 8891   4.777   3.769   5.376
 2664SOL    HW2 8892   4.825   3.858   5.248
 2665SOL     OW 8893   2.037   3.794   4.448
 2665SOL    HW1 8894   1.994   3.849   4.519
 2665SOL    HW2 8895   2.096   3.725   4.490
 2666SOL     OW 8896   2.265   3.910   1.944
 2666SOL    HW1 8897   2.246   3.887   2.039
 2666SOL    HW2 8898   2.205   3.858   1.884
 2667SOL     OW 8899   7.019   2.978   4.847
 2667SOL    HW1 8900   6.925   2.969   4.877
 2667SOL    HW2 8901   0.030   3.070   4.867
 2668SOL     OW 8902   6.338   0.706   3.046
 2668SOL    HW1 8903   6.378   0.646   3.115
 2668SOL    HW2 8904   6.238   0.700   3.049
 2669SOL     OW 8905   2.195   0.928   0.220
 2669SOL    HW1 8906   2.272   0.907   0.281
 2669SOL    HW2 8907   2.221   0.908   0.126
 2670SOL     OW 8908   0.888   0.366   6.749
 2670SOL    HW1 8909   0.915   0.430   6.676
 2670SOL    HW2 8910   0.858   0.280   6.708
 2671SOL     OW 8911   5.340   4.661   6.139
 2671SOL    HW1 8912   5.354   4.665   6.041
 2671SOL    HW2 8913   5.254   4.615   6.159
 2672SOL     OW 8914   3.286   1.291   2.080
 2672SOL    HW1 8915   3.206   1.233   2.097
 2672SOL    HW2 8916   3.365   1.234   2.057
 2673SOL     OW 8917   3.213   0.710   2.431
 2673SOL    HW1 8918   3.239   0.798   2.471
 2673SOL    HW2 8919   3.295   0.664   2.397
 2674SOL     OW 8920   0.241   5.752   2.937
 2674SOL    HW1 8921   0.277   5.746   3.031
 2674SOL    HW2 8922   0.194   5.840   2.925
 2675SOL     OW 8923   5.226   0.808   4.079
 2675SOL    HW1 8924   5.162   0.811   4.003
 2675SOL    HW2 8925   5.193   0.745   4.149
 2676SOL     OW 8926   3.934   3.929   3.732
 2676SOL    HW1 8927   3.878   3.914   3.814
 2676SOL    HW2 8928   3.888   3.994   3.672
 2677SOL     OW 8929   2.292   5.466   1.162
 2677SOL    HW1 8930   2.204   5.470   1.115
 2677SOL    HW2 8931   2.355   5.407   1.109
 2678SOL     OW 8932   3.558   1.758   3.092
 2678SOL    HW1 8933   3.472   1.782   3.137
 2678SOL    HW2 8934   3.620   1.836   3.095
 2679SOL     OW 8935   2.164   3.087   2.636
 2679SOL    HW1 8936   2.225   3.023   2.682
 2679SOL    HW2 8937   2.177   3.081   2.538
 2680SOL     OW 8938   5.861   2.062   7.012
 2680SOL    HW1 8939   5.841   2.018   6.925
 2680SOL    HW2 8940   5.888   1.993   0.057
 2681SOL     OW 8941   1.872   2.187   3.869
 2681SOL    HW1 8942   1.904   2.094   3.849
 2681SOL    HW2 8943   1.848   2.194   3.965
 2682SOL     OW 8944   3.857   4.329   1.537
 2682SOL    HW1 8945   3.826   4.281   1.619
 2682SOL    HW2 8946   3.783   4.334   1.471
 2683SOL     OW 8947   2.368   4.261   2.092
 2683SOL    HW1 8948   2.336   4.197   2.162
 2683SOL    HW2 8949   2.382   4.212   2.006
 2684SOL     OW 8950   6.863   6.957   4.074
 2684SOL    HW1 8951   6.935   6.891   4.098
 2684SOL    HW2 8952   6.791   6.953   4.143
 2685SOL     OW 8953   0.975   5.773   6.067
 2685SOL    HW1 8954   1.008   5.691   6.021
 2685SOL    HW2 8955   0.950   5.751   6.161
 2686SOL     OW 8956   0.791   1.025   5.623
 2686SOL    HW1 8957   0.763   1.111   5.580
 2686SOL    HW2 8958   0.753   1.021   5.716
 2687SOL     OW 8959   3.993   1.761   1.479
 2687SOL    HW1 8960   4.005   1.832   1.549
 2687SOL    HW2 8961   3.998   1.671   1.521
 2688SOL     OW 8962   3.971   2.360   6.308
 2688SOL    HW1 8963   3.959   2.459   6.297
 2688SOL    HW2 8964   3.884   2.319   6.338
 2689SOL     OW 8965   1.277   3.955   3.401
 2689SOL    HW1 8966   1.326   3.907   3.473
 2689SOL    HW2 8967   1.240   4.041   3.437
 2690SOL     OW 8968   4.802   1.526   5.820
 2690SOL    HW1 8969   4.892   1.516   5.777
 2690SOL    HW2 8970   4.800   1.613   5.870
 2691SOL     OW 8971   6.427   3.585   5.478
 2691SOL    HW1 8972   6.451   3.488   5.472
 2691SOL    HW2 8973   6.370   3.610   5.400
 2692SOL     OW 8974   2.347   6.046   2.363
 2692SOL    HW1 8975   2.395   6.130   2.391
 2692SOL    HW2 8976   2.312   6.058   2.270
 2693SOL     OW 8977   1.433   6.081   3.256
 2693SOL    HW1 8978   1.488   6.155   3.296
 2693SOL    HW2 8979   1.458   6.069   3.160
 2694SOL     OW 8980   2.666   0.301   2.644
 2694SOL    HW1 8981   2.722   0.263   2.717
 2694SOL    HW2 8982   2.593   0.237   2.621
 2695SOL     OW 8983   0.241   5.401   3.577
 2695SOL    HW1 8984   0.334   5.366   3.566
 2695SOL    HW2 8985   0.213   5.447   3.493
 2696SOL     OW 8986   5.084   5.146   6.198
 2696SOL    HW1 8987   5.170   5.117   6.155
 2696SOL    HW2 8988   5.023   5.067   6.208
 2697SOL     OW 8989   4.342   2.562   6.462
 2697SOL    HW1 8990   4.327   2.660   6.447
 2697SOL    HW2 8991   4.429   2.548   6.510
 2698SOL     OW 8992   1.635   5.272   5.927
 2698SOL    HW1 8993   1.548   5.240   5.890
 2698SOL    HW2 8994   1.681   5.196   5.975
 2699SOL     OW 8995   3.099   5.987   2.151
 2699SOL    HW1 8996   3.105   5.888   2.166
 2699SOL    HW2 8997   3.133   6.009   2.059
 2700SOL     OW 8998   3.829   1.686   1.797
 2700SOL    HW1 8999   3.797   1.697   1.703
 2700SOL    HW2 9000   3.840   1.588   1.817
 2701SOL     OW 9001   5.115   2.959   5.036
 2701SOL    HW1 9002   5.097   3.037   5.096
 2701SOL    HW2 9003   5.028   2.919   5.007
 2702SOL     OW 9004   2.641   1.244   4.876
 2702SOL    HW1 9005   2.718   1.180   4.879
 2702SOL    HW2 9006   2.676   1.338   4.877
 2703SOL     OW 9007   2.431   6.795   2.203
 2703SOL    HW1 9008   2.440   6.698   2.229
 2703SOL    HW2 9009   2.366   6.839   2.265
 2704SOL     OW 9010   5.565   0.491   3.486
 2704SOL    HW1 9011   5.543   0.493   3.389
 2704SOL    HW2 9012   5.625   0.414   3.505
 2705SOL     OW 9013   0.654   0.137   5.638
 2705SOL    HW1 9014   0.681   0.047   5.604
 2705SOL    HW2 9015   0.611   0.127   5.728
 2706SOL     OW 9016   6.672   3.809   3.717
 2706SOL    HW1 9017   6.597   3.848   3.770
 2706SOL    HW2 9018   6.667   3.709   3.722
 2707SOL     OW 9019   4.933   1.214   3.136
 2707SOL    HW1 9020   4.889   1.199   3.224
 2707SOL    HW2 9021   4.918   1.309   3.108
 2708SOL     OW 9022   5.237   3.494   5.830
 2708SOL    HW1 9023   5.324   3.474   5.874
 2708SOL    HW2 9024   5.236   3.589   5.799
 2709SOL     OW 9025   5.403   1.298   5.662
 2709SOL    HW1 9026   5.422   1.277   5.566
 2709SOL    HW2 9027   5.485   1.336   5.705
 2710SOL     OW 9028   0.463   2.616   4.863
 2710SOL    HW1 9029   0.482   2.675   4.941
 2710SOL    HW2 9030   0.371   2.578   4.871
 2711SOL     OW 9031   3.914   1.149   1.733
 2711SOL    HW1 9032   3.887   1.083   1.662
 2711SOL    HW2 9033   3.884   1.116   1.822
 2712SOL     OW 9034   4.246   6.116   2.537
 2712SOL    HW1 9035   4.344   6.105   2.520
 2712SOL    HW2 9036   4.196   6.103   2.451
 2713SOL     OW 9037   3.663   4.669   5.327
 2713SOL    HW1 9038   3.596   4.686   5.399
 2713SOL    HW2 9039   3.717   4.588   5.349
 2714SOL     OW 9040   3.148   4.886   6.247
 2714SOL    HW1 9041   3.178   4.964   6.303
 2714SOL    HW2 9042   3.226   4.854   6.192
 2715SOL     OW 9043   4.409   0.257   6.529
 2715SOL    HW1 9044   4.499   0.260   6.486
 2715SOL    HW2 9045   4.339   0.247   6.459
 2716SOL     OW 9046   3.676   1.419   2.756
 2716SOL    HW1 9047   3.661   1.383   2.664
 2716SOL    HW2 9048   3.774   1.425   2.774
 2717SOL     OW 9049   0.706   1.593   1.906
 2717SOL    HW1 9050   0.738   1.540   1.828
 2717SOL    HW2 9051   0.652   1.671   1.874
 2718SOL     OW 9052   0.217   0.461   6.078
 2718SOL    HW1 9053   0.263   0.542   6.114
 2718SOL    HW2 9054   0.206   0.470   5.979
 2719SOL     OW 9055   0.989   4.602   2.849
 2719SOL    HW1 9056   0.984   4.695   2.813
 2719SOL    HW2 9057   0.929   4.593   2.928
 2720SOL     OW 9058   2.059   6.212   6.127
 2720SOL    HW1 9059   2.116   6.218   6.209
 2720SOL    HW2 9060   1.982   6.150   6.144
 2721SOL     OW 9061   2.984   6.508   1.891
 2721SOL    HW1 9062   2.977   6.606   1.909
 2721SOL    HW2 9063   3.016   6.461   1.974
 2722SOL     OW 9064   4.144   5.847   6.465
 2722SOL    HW1 9065   4.063   5.868   6.520
 2722SOL    HW2 9066   4.173   5.753   6.483
 2723SOL     OW 9067   3.164   6.030   6.732
 2723SOL    HW1 9068   3.126   6.086   6.658
 2723SOL    HW2 9069   3.167   5.934   6.703
 2724SOL     OW 9070   0.383   6.632   0.643
 2724SOL    HW1 9071   0.410   6.720   0.604
 2724SOL    HW2 9072   0.455   6.601   0.706
 2725SOL     OW 9073   5.862   3.969   4.647
 2725SOL    HW1 9074   5.835   3.980   4.552
 2725SOL    HW2 9075   5.904   4.053   4.680
 2726SOL     OW 9076   6.274   1.730   2.057
 2726SOL    HW1 9077   6.256   1.746   2.154
 2726SOL    HW2 9078   6.373   1.720   2.043
 2727SOL     OW 9079   1.550   5.352   3.726
 2727SOL    HW1 9080   1.610   5.273   3.740
 2727SOL    HW2 9081   1.527   5.393   3.815
 2728SOL     OW 9082   4.606   5.419   5.628
 2728SOL    HW1 9083   4.520   5.381   5.662
 2728SOL    HW2 9084   4.597   5.518   5.616
 2729SOL     OW 9085   5.914   0.247   6.298
 2729SOL    HW1 9086   5.923   0.315   6.226
 2729SOL    HW2 9087   5.992   0.253   6.360
 2730SOL     OW 9088   1.499   5.701   1.968
 2730SOL    HW1 9089   1.502   5.603   1.986
 2730SOL    HW2 9090   1.552   5.721   1.886
 2731SOL     OW 9091   2.915   3.744   4.323
 2731SOL    HW1 9092   2.894   3.682   4.399
 2731SOL    HW2 9093   2.947   3.831   4.359
 2732SOL     OW 9094   5.637   0.332   2.259
 2732SOL    HW1 9095   5.630   0.419   2.308
 2732SOL    HW2 9096   5.555   0.278   2.276
 2733SOL     OW 9097   1.200   6.121   0.029
 2733SOL    HW1 9098   1.133   6.091   0.098
 2733SOL    HW2 9099   1.152   6.147   6.968
 2734SOL     OW 9100   3.504   6.131   2.820
 2734SOL    HW1 9101   3.516   6.154   2.724
 2734SOL    HW2 9102   3.514   6.032   2.832
 2735SOL     OW 9103   0.397   1.302   1.566
 2735SOL    HW1 9104   0.427   1.389   1.605
 2735SOL    HW2 9105   0.311   1.314   1.516
 2736SOL     OW 9106   4.777   4.017   3.205
 2736SOL    HW1 9107   4.725   3.952   3.150
 2736SOL    HW2 9108   4.873   3.990   3.206
 2737SOL     OW 9109   3.173   0.705   5.289
 2737SOL    HW1 9110   3.095   0.670   5.342
 2737SOL    HW2 9111   3.258   0.667   5.326
 2738SOL     OW 9112   5.435   5.956   1.401
 2738SOL    HW1 9113   5.497   6.030   1.374
 2738SOL    HW2 9114   5.398   5.977   1.492
 2739SOL     OW 9115   6.669   5.316   1.553
 2739SOL    HW1 9116   6.664   5.216   1.540
 2739SOL    HW2 9117   6.589   5.347   1.604
 2740SOL     OW 9118   0.123   6.259   3.457
 2740SOL    HW1 9119   0.128   6.174   3.405
 2740SOL    HW2 9120   0.185   6.255   3.535
 2741SOL     OW 9121   1.363   0.611   5.593
 2741SOL    HW1 9122   1.407   0.546   5.655
 2741SOL    HW2 9123   1.355   0.571   5.502
 2742SOL     OW 9124   3.030   5.566   2.012
 2742SOL    HW1 9125   2.989   5.630   1.947
 2742SOL    HW2 9126   3.128   5.558   1.994
 2743SOL     OW 9127   5.391   1.863   1.991
 2743SOL    HW1 9128   5.379   1.788   1.926
 2743SOL    HW2 9129   5.308   1.918   1.994
 2744SOL     OW 9130   3.257   4.090   2.589
 2744SOL    HW1 9131   3.227   4.168   2.533
 2744SOL    HW2 9132   3.275   4.012   2.529
 2745SOL     OW 9133   0.497   6.281   0.662
 2745SOL    HW1 9134   0.508   6.370   0.704
 2745SOL    HW2 9135   0.575   6.262   0.601
 2746SOL     OW 9136   1.286   0.780   3.734
 2746SOL    HW1 9137   1.312   0.875   3.720
 2746SOL    HW2 9138   1.341   0.721   3.676
 2747SOL     OW 9139   3.886   4.888   0.986
 2747SOL    HW1 9140   3.851   4.855   0.899
 2747SOL    HW2 9141   3.874   4.818   1.056
 2748SOL     OW 9142   4.483   0.242   0.521
 2748SOL    HW1 9143   4.493   0.188   0.604
 2748SOL    HW2 9144   4.474   0.338   0.544
 2749SOL     OW 9145   3.225   2.020   0.595
 2749SOL    HW1 9146   3.147   2.052   0.649
 2749SOL    HW2 9147   3.265   2.096   0.545
 2750SOL     OW 9148   3.114   5.529   2.380
 2750SOL    HW1 9149   3.161   5.450   2.341
 2750SOL    HW2 9150   3.015   5.511   2.383
 2751SOL     OW 9151   5.635   4.848   1.099
 2751SOL    HW1 9152   5.709   4.857   1.166
 2751SOL    HW2 9153   5.554   4.895   1.133
 2752SOL     OW 9154   4.007   5.149   0.013
 2752SOL    HW1 9155   4.068   5.091   0.067
 2752SOL    HW2 9156   3.920   5.102   7.022
 2753SOL     OW 9157   5.529   5.493   5.450
 2753SOL    HW1 9158   5.532   5.454   5.542
 2753SOL    HW2 9159   5.616   5.473   5.403
 2754SOL     OW 9160   1.520   6.719   5.953
 2754SOL    HW1 9161   1.486   6.657   6.023
 2754SOL    HW2 9162   1.443   6.754   5.900
 2755SOL     OW 9163   3.074   0.683   2.171
 2755SOL    HW1 9164   3.140   0.720   2.106
 2755SOL    HW2 9165   3.100   0.711   2.264
 2756SOL     OW 9166   4.818   5.925   0.369
 2756SOL    HW1 9167   4.847   5.918   0.274
 2756SOL    HW2 9168   4.888   5.972   0.422
 2757SOL     OW 9169   0.217   5.269   1.575
 2757SOL    HW1 9170   0.203   5.364   1.547
 2757SOL    HW2 9171   0.231   5.212   1.494
 2758SOL     OW 9172   4.046   0.381   6.286
 2758SOL    HW1 9173   4.082   0.309   6.345
 2758SOL    HW2 9174   4.114   0.407   6.218
 2759SOL     OW 9175   5.319   5.561   4.845
 2759SOL    HW1 9176   5.370   5.475   4.852
 2759SOL    HW2 9177   5.355   5.615   4.768
 2760SOL     OW 9178   2.417   5.558   4.068
 2760SOL    HW1 9179   2.486   5.587   4.134
 2760SOL    HW2 9180   2.346   5.506   4.115
 2761SOL     OW 9181   1.981   5.258   3.469
 2761SOL    HW1 9182   1.927   5.306   3.400
 2761SOL    HW2 9183   2.022   5.176   3.429
 2762SOL     OW 9184   1.525   6.745   5.023
 2762SOL    HW1 9185   1.573   6.784   5.102
 2762SOL    HW2 9186   1.427   6.762   5.032
 2763SOL     OW 9187   4.883   2.147   1.988
 2763SOL    HW1 9188   4.946   2.116   1.917
 2763SOL    HW2 9189   4.914   2.236   2.022
 2764SOL     OW 9190   6.548   1.018   1.925
 2764SOL    HW1 9191   6.604   0.957   1.869
 2764SOL    HW2 9192   6.457   1.027   1.884
 2765SOL     OW 9193   5.287   1.668   2.218
 2765SOL    HW1 9194   5.291   1.767   2.202
 2765SOL    HW2 9195   5.356   1.622   2.162
 2766SOL     OW 9196   6.034   0.428   2.856
 2766SOL    HW1 9197   6.031   0.436   2.756
 2766SOL    HW2 9198   5.992   0.342   2.884
 2767SOL     OW 9199   6.283   4.642   5.593
 2767SOL    HW1 9200   6.273   4.563   5.532
 2767SOL    HW2 9201   6.262   4.614   5.687
 2768SOL     OW 9202   6.110   1.645   6.676
 2768SOL    HW1 9203   6.055   1.578   6.727
 2768SOL    HW2 9204   6.191   1.599   6.639
 2769SOL     OW 9205   1.343   4.610   1.424
 2769SOL    HW1 9206   1.325   4.562   1.338
 2769SOL    HW2 9207   1.276   4.682   1.438
 2770SOL     OW 9208   6.325   5.954   1.380
 2770SOL    HW1 9209   6.254   5.983   1.315
 2770SOL    HW2 9210   6.410   5.938   1.330
 2771SOL     OW 9211   4.856   0.840   1.288
 2771SOL    HW1 9212   4.893   0.902   1.357
 2771SOL    HW2 9213   4.773   0.879   1.248
 2772SOL     OW 9214   3.201   2.554   6.093
 2772SOL    HW1 9215   3.166   2.644   6.116
 2772SOL    HW2 9216   3.183   2.536   5.996
 2773SOL     OW 9217   3.855   4.418   6.798
 2773SOL    HW1 9218   3.807   4.380   6.877
 2773SOL    HW2 9219   3.861   4.517   6.807
 2774SOL     OW 9220   5.816   3.200   2.558
 2774SOL    HW1 9221   5.742   3.201   2.491
 2774SOL    HW2 9222   5.889   3.261   2.528
 2775SOL     OW 9223   6.795   6.385   2.153
 2775SOL    HW1 9224   6.882   6.343   2.125
 2775SOL    HW2 9225   6.811   6.449   2.228
 2776SOL     OW 9226   3.266   6.007   5.900
 2776SOL    HW1 9227   3.286   5.960   5.814
 2776SOL    HW2 9228   3.180   5.972   5.938
 2777SOL     OW 9229   3.755   1.019   3.068
 2777SOL    HW1 9230   3.692   1.071   3.124
 2777SOL    HW2 9231   3.845   1.062   3.070
 2778SOL     OW 9232   2.386   1.309   4.854
 2778SOL    HW1 9233   2.330   1.290   4.773
 2778SOL    HW2 9234   2.481   1.283   4.836
 2779SOL     OW 9235   5.845   1.117   0.295
 2779SOL    HW1 9236   5.917   1.060   0.255
 2779SOL    HW2 9237   5.760   1.064   0.300
 2780SOL     OW 9238   4.873   5.332   6.966
 2780SOL    HW1 9239   4.954   5.327   6.908
 2780SOL    HW2 9240   4.890   5.397   0.018
 2781SOL     OW 9241   4.653   4.274   0.454
 2781SOL    HW1 9242   4.553   4.282   0.448
 2781SOL    HW2 9243   4.677   4.203   0.520
 2782SOL     OW 9244   2.780   2.125   6.304
 2782SOL    HW1 9245   2.809   2.049   6.361
 2782SOL    HW2 9246   2.680   2.130   6.303
 2783SOL     OW 9247   0.217   4.778   5.358
 2783SOL    HW1 9248   0.254   4.767   5.451
 2783SOL    HW2 9249   0.118   4.788   5.363
 2784SOL     OW 9250   2.138   1.835   2.318
 2784SOL    HW1 9251   2.202   1.911   2.330
 2784SOL    HW2 9252   2.185   1.757   2.279
 2785SOL     OW 9253   6.016   1.258   1.182
 2785SOL    HW1 9254   6.032   1.353   1.155
 2785SOL    HW2 9255   6.084   1.231   1.251
 2786SOL     OW 9256   3.691   6.969   0.937
 2786SOL    HW1 9257   3.706   6.913   1.019
 2786SOL    HW2 9258   3.778   7.006   0.905
 2787SOL     OW 9259   2.215   2.515   5.242
 2787SOL    HW1 9260   2.211   2.615   5.246
 2787SOL    HW2 9261   2.292   2.483   5.297
 2788SOL     OW 9262   0.994   3.706   0.697
 2788SOL    HW1 9263   0.996   3.775   0.769
 2788SOL    HW2 9264   0.987   3.752   0.608
 2789SOL     OW 9265   0.059   1.822   4.444
 2789SOL    HW1 9266   0.001   1.887   4.494
 2789SOL    HW2 9267   0.003   1.745   4.413
 2790SOL     OW 9268   4.162   5.797   3.356
 2790SOL    HW1 9269   4.242   5.849   3.325
 2790SOL    HW2 9270   4.093   5.861   3.390
 2791SOL     OW 9271   2.243   2.967   3.648
 2791SOL    HW1 9272   2.303   2.890   3.669
 2791SOL    HW2 9273   2.254   2.993   3.552
 2792SOL     OW 9274   1.317   2.325   4.995
 2792SOL    HW1 9275   1.392   2.282   4.944
 2792SOL    HW2 9276   1.240   2.341   4.933
 2793SOL     OW 9277   5.289   1.153   3.890
 2793SOL    HW1 9278   5.351   1.230   3.902
 2793SOL    HW2 9279   5.275   1.136   3.792
 2794SOL     OW 9280   0.816   1.064   1.106
 2794SOL    HW1 9281   0.803   1.069   1.007
 2794SOL    HW2 9282   0.757   1.131   1.151
 2795SOL     OW 9283   2.380   4.120   1.843
 2795SOL    HW1 9284   2.467   4.098   1.799
 2795SOL    HW2 9285   2.337   4.035   1.876
 2796SOL     OW 9286   5.172   4.048   3.014
 2796SOL    HW1 9287   5.155   4.034   3.112
 2796SOL    HW2 9288   5.109   4.117   2.979
 2797SOL     OW 9289   4.510   4.632   4.814
 2797SOL    HW1 9290   4.491   4.728   4.798
 2797SOL    HW2 9291   4.464   4.603   4.899
 2798SOL     OW 9292   1.528   3.300   3.889
 2798SOL    HW1 9293   1.431   3.275   3.888
 2798SOL    HW2 9294   1.567   3.276   3.978
 2799SOL     OW 9295   6.544   5.426   5.528
 2799SOL    HW1 9296   6.529   5.361   5.603
 2799SOL    HW2 9297   6.577   5.376   5.448
 2800SOL     OW 9298   2.881   3.180   6.982
 2800SOL    HW1 9299   2.975   3.173   7.013
 2800SOL    HW2 9300   2.851   3.093   6.943
 2801SOL     OW 9301   4.770   5.757   2.457
 2801SOL    HW1 9302   4.806   5.784   2.368
 2801SOL    HW2 9303   4.783   5.831   2.523
 2802SOL     OW 9304   5.127   0.899   6.051
 2802SOL    HW1 9305   5.145   0.956   6.131
 2802SOL    HW2 9306   5.114   0.804   6.080
 2803SOL     OW 9307   2.124   5.761   6.209
 2803SOL    HW1 9308   2.127   5.669   6.248
 2803SOL    HW2 9309   2.079   5.823   6.272
 2804SOL     OW 9310   0.116   4.278   3.088
 2804SOL    HW1 9311   0.123   4.306   2.992
 2804SOL    HW2 9312   0.036   4.218   3.099
 2805SOL     OW 9313   5.532   4.129   6.926
 2805SOL    HW1 9314   5.600   4.199   6.948
 2805SOL    HW2 9315   5.558   4.082   6.842
 2806SOL     OW 9316   0.075   5.813   3.475
 2806SOL    HW1 9317   6.999   5.827   3.483
 2806SOL    HW2 9318   0.102   5.736   3.533
 2807SOL     OW 9319   4.094   5.187   3.810
 2807SOL    HW1 9320   4.115   5.095   3.778
 2807SOL    HW2 9321   4.073   5.246   3.732
 2808SOL     OW 9322   4.817   6.858   4.053
 2808SOL    HW1 9323   4.806   6.819   3.961
 2808SOL    HW2 9324   4.771   6.800   4.120
 2809SOL     OW 9325   5.095   3.367   0.781
 2809SOL    HW1 9326   5.195   3.363   0.783
 2809SOL    HW2 9327   5.058   3.282   0.818
 2810SOL     OW 9328   1.794   0.418   5.503
 2810SOL    HW1 9329   1.756   0.450   5.417
 2810SOL    HW2 9330   1.784   0.319   5.509
 2811SOL     OW 9331   0.179   1.054   3.716
 2811SOL    HW1 9332   0.183   1.107   3.631
 2811SOL    HW2 9333   0.207   1.112   3.793
 2812SOL     OW 9334   5.303   3.742   2.731
 2812SOL    HW1 9335   5.381   3.777   2.678
 2812SOL    HW2 9336   5.259   3.668   2.680
 2813SOL     OW 9337   6.032   1.111   6.152
 2813SOL    HW1 9338   6.103   1.133   6.220
 2813SOL    HW2 9339   6.070   1.121   6.061
 2814SOL     OW 9340   5.224   3.780   4.876
 2814SOL    HW1 9341   5.245   3.840   4.953
 2814SOL    HW2 9342   5.127   3.754   4.880
 2815SOL     OW 9343   0.222   0.806   5.489
 2815SOL    HW1 9344   0.267   0.768   5.569
 2815SOL    HW2 9345   0.278   0.790   5.408
 2816SOL     OW 9346   5.726   6.637   3.422
 2816SOL    HW1 9347   5.807   6.606   3.472
 2816SOL    HW2 9348   5.742   6.729   3.388
 2817SOL     OW 9349   1.225   2.045   1.146
 2817SOL    HW1 9350   1.285   2.117   1.180
 2817SOL    HW2 9351   1.131   2.078   1.142
 2818SOL     OW 9352   6.963   4.820   5.325
 2818SOL    HW1 9353   6.942   4.837   5.421
 2818SOL    HW2 9354   6.926   4.894   5.269
 2819SOL     OW 9355   6.956   2.927   0.377
 2819SOL    HW1 9356   6.861   2.916   0.402
 2819SOL    HW2 9357   6.984   2.852   0.316
 2820SOL     OW 9358   6.780   2.887   4.411
 2820SOL    HW1 9359   6.867   2.905   4.365
 2820SOL    HW2 9360   6.778   2.935   4.498
 2821SOL     OW 9361   1.385   3.054   4.445
 2821SOL    HW1 9362   1.318   3.127   4.455
 2821SOL    HW2 9363   1.421   3.054   4.352
 2822SOL     OW 9364   3.734   1.883   0.066
 2822SOL    HW1 9365   3.755   1.901   6.992
 2822SOL    HW2 9366   3.819   1.868   0.116
 2823SOL     OW 9367   1.647   6.563   3.480
 2823SOL    HW1 9368   1.681   6.625   3.409
 2823SOL    HW2 9369   1.722   6.508   3.515
 2824SOL     OW 9370   3.159   1.540   4.853
 2824SOL    HW1 9371   3.220   1.575   4.782
 2824SOL    HW2 9372   3.093   1.610   4.878
 2825SOL     OW 9373   6.510   5.712   1.066
 2825SOL    HW1 9374   6.529   5.786   1.130
 2825SOL    HW2 9375   6.592   5.656   1.053
 2826SOL     OW 9376   4.605   2.277   4.613
 2826SOL    HW1 9377   4.508   2.258   4.625
 2826SOL    HW2 9378   4.635   2.346   4.679
 2827SOL     OW 9379   5.945   0.706   5.375
 2827SOL    HW1 9380   5.897   0.633   5.325
 2827SOL    HW2 9381   5.948   0.683   5.472
 2828SOL     OW 9382   3.400   1.680   5.903
 2828SOL    HW1 9383   3.427   1.718   5.815
 2828SOL    HW2 9384   3.364   1.753   5.962
 2829SOL     OW 9385   1.935   6.761   6.740
 2829SOL    HW1 9386   1.951   6.858   6.756
 2829SOL    HW2 9387   2.013   6.723   6.689
 2830SOL     OW 9388   3.508   3.259   6.847
 2830SOL    HW1 9389   3.422   3.211   6.863
 2830SOL    HW2 9390   3.578   3.223   6.909
 2831SOL     OW 9391   5.725   5.953   4.366
 2831SOL    HW1 9392   5.822   5.930   4.353
 2831SOL    HW2 9393   5.699   5.931   4.460
 2832SOL     OW 9394   0.404   0.839   1.717
 2832SOL    HW1 9395   0.399   0.755   1.663
 2832SOL    HW2 9396   0.493   0.844   1.762
 2833SOL     OW 9397   6.024   3.180   1.992
 2833SOL    HW1 9398   5.949   3.135   1.945
 2833SOL    HW2 9399   6.054   3.124   2.070
 2834SOL     OW 9400   3.540   0.923   6.053
 2834SOL    HW1 9401   3.516   0.954   6.145
 2834SOL    HW2 9402   3.473   0.856   6.022
 2835SOL     OW 9403   0.909   6.088   2.429
 2835SOL    HW1 9404   0.952   6.157   2.487
 2835SOL    HW2 9405   0.827   6.053   2.475
 2836SOL     OW 9406   6.496   0.878   0.611
 2836SOL    HW1 9407   6.536   0.899   0.521
 2836SOL    HW2 9408   6.532   0.791   0.643
 2837SOL     OW 9409   5.768   3.326   3.569
 2837SOL    HW1 9410   5.680   3.371   3.553
 2837SOL    HW2 9411   5.758   3.257   3.640
 2838SOL     OW 9412   3.315   4.982   3.273
 2838SOL    HW1 9413   3.377   4.941   3.340
 2838SOL    HW2 9414   3.344   5.075   3.253
 2839SOL     OW 9415   4.983   1.878   0.946
 2839SOL    HW1 9416   5.023   1.910   1.032
 2839SOL    HW2 9417   5.022   1.790   0.922
 2840SOL     OW 9418   6.717   2.056   5.377
 2840SOL    HW1 9419   6.671   2.017   5.297
 2840SOL    HW2 9420   6.739   2.152   5.360
 2841SOL     OW 9421   0.814   5.907   1.449
 2841SOL    HW1 9422   0.843   6.002   1.459
 2841SOL    HW2 9423   0.716   5.904   1.429
 2842SOL     OW 9424   6.432   3.320   3.285
 2842SOL    HW1 9425   6.422   3.249   3.354
 2842SOL    HW2 9426   6.411   3.282   3.195
 2843SOL     OW 9427   4.104   1.964   5.053
 2843SOL    HW1 9428   4.103   2.063   5.038
 2843SOL    HW2 9429   4.014   1.934   5.084
 2844SOL     OW 9430   6.547   3.886   5.893
 2844SOL    HW1 9431   6.617   3.815   5.877
 2844SOL    HW2 9432   6.504   3.909   5.805
 2845SOL     OW 9433   6.133   4.249   5.171
 2845SOL    HW1 9434   6.132   4.214   5.265
 2845SOL    HW2 9435   6.043   4.236   5.130
 2846SOL     OW 9436   4.668   1.727   6.252
 2846SOL    HW1 9437   4.650   1.773   6.339
 2846SOL    HW2 9438   4.582   1.695   6.213
 2847SOL     OW 9439   5.145   4.689   4.301
 2847SOL    HW1 9440   5.225   4.682   4.360
 2847SOL    HW2 9441   5.109   4.782   4.305
 2848SOL     OW 9442   0.837   5.815   5.095
 2848SOL    HW1 9443   0.902   5.887   5.073
 2848SOL    HW2 9444   0.883   5.727   5.096
 2849SOL     OW 9445   2.277   2.517   1.666
 2849SOL    HW1 9446   2.227   2.567   1.595
 2849SOL    HW2 9447   2.346   2.459   1.624
 2850SOL     OW 9448   3.976   1.023   6.944
 2850SOL    HW1 9449   4.066   0.988   6.968
 2850SOL    HW2 9450   3.972   1.040   6.846
 2851SOL     OW 9451   2.077   4.554   6.310
 2851SOL    HW1 9452   2.131   4.580   6.390
 2851SOL    HW2 9453   2.137   4.543   6.231
 2852SOL     OW 9454   0.256   3.600   6.109
 2852SOL    HW1 9455   0.328   3.658   6.146
 2852SOL    HW2 9456   0.295   3.531   6.049
 2853SOL     OW 9457   3.139   3.834   1.421
 2853SOL    HW1 9458   3.235   3.858   1.410
 2853SOL    HW2 9459   3.126   3.786   1.508
 2854SOL     OW 9460   2.209   1.297   3.674
 2854SOL    HW1 9461   2.240   1.353   3.596
 2854SOL    HW2 9462   2.164   1.356   3.741
 2855SOL     OW 9463   2.890   0.783   5.391
 2855SOL    HW1 9464   2.801   0.750   5.360
 2855SOL    HW2 9465   2.940   0.822   5.314
 2856SOL     OW 9466   2.766   2.393   4.783
 2856SOL    HW1 9467   2.773   2.296   4.807
 2856SOL    HW2 9468   2.849   2.440   4.811
 2857SOL     OW 9469   3.264   3.286   2.196
 2857SOL    HW1 9470   3.352   3.321   2.163
 2857SOL    HW2 9471   3.207   3.259   2.119
 2858SOL     OW 9472   6.302   3.383   2.654
 2858SOL    HW1 9473   6.214   3.349   2.687
 2858SOL    HW2 9474   6.326   3.336   2.569
 2859SOL     OW 9475   6.213   6.430   0.594
 2859SOL    HW1 9476   6.285   6.497   0.611
 2859SOL    HW2 9477   6.133   6.452   0.650
 2860SOL     OW 9478   4.186   0.950   2.012
 2860SOL    HW1 9479   4.222   1.033   2.053
 2860SOL    HW2 9480   4.162   0.885   2.084
 2861SOL     OW 9481   3.492   5.933   5.432
 2861SOL    HW1 9482   3.451   5.917   5.521
 2861SOL    HW2 9483   3.545   5.853   5.404
 2862SOL     OW 9484   5.332   0.786   4.552
 2862SOL    HW1 9485   5.310   0.739   4.638
 2862SOL    HW2 9486   5.301   0.731   4.475
 2863SOL     OW 9487   6.113   2.041   6.772
 2863SOL    HW1 9488   6.068   1.961   6.812
 2863SOL    HW2 9489   6.062   2.123   6.796
 2864SOL     OW 9490   3.091   1.383   6.964
 2864SOL    HW1 9491   3.015   1.433   7.005
 2864SOL    HW2 9492   3.061   1.338   6.880
 2865SOL     OW 9493   4.564   4.960   4.862
 2865SOL    HW1 9494   4.599   5.036   4.807
 2865SOL    HW2 9495   4.634   4.888   4.867
 2866SOL     OW 9496   0.284   6.468   6.378
 2866SOL    HW1 9497   0.207   6.476   6.442
 2866SOL    HW2 9498   0.344   6.547   6.387
 2867SOL     OW 9499   6.670   4.242   3.872
 2867SOL    HW1 9500   6.588   4.267   3.821
 2867SOL    HW2 9501   6.654   4.256   3.970
 2868SOL     OW 9502   1.756   3.942   5.557
 2868SOL    HW1 9503   1.846   3.948   5.600
 2868SOL    HW2 9504   1.762   3.973   5.463
 2869SOL     OW 9505   6.489   1.738   2.305
 2869SOL    HW1 9506   6.476   1.646   2.344
 2869SOL    HW2 9507   6.401   1.786   2.305
 2870SOL     OW 9508   5.331   1.884   2.601
 2870SOL    HW1 9509   5.313   1.924   2.690
 2870SOL    HW2 9510   5.250   1.890   2.543
 2871SOL     OW 9511   1.662   2.021   5.815
 2871SOL    HW1 9512   1.587   2.079   5.785
 2871SOL    HW2 9513   1.631   1.959   5.887
 2872SOL     OW 9514   2.609   6.562   3.578
 2872SOL    HW1 9515   2.660   6.609   3.651
 2872SOL    HW2 9516   2.588   6.469   3.607
 2873SOL     OW 9517   6.769   5.057   1.903
 2873SOL    HW1 9518   6.710   5.120   1.953
 2873SOL    HW2 9519   6.840   5.108   1.855
 2874SOL     OW 9520   5.813   2.226   2.343
 2874SOL    HW1 9521   5.791   2.234   2.245
 2874SOL    HW2 9522   5.732   2.195   2.393
 2875SOL     OW 9523   3.388   4.827   0.172
 2875SOL    HW1 9524   3.391   4.794   0.078
 2875SOL    HW2 9525   3.339   4.915   0.175
 2876SOL     OW 9526   6.726   1.465   2.116
 2876SOL    HW1 9527   6.690   1.382   2.073
 2876SOL    HW2 9528   6.823   1.452   2.136
 2877SOL     OW 9529   2.609   3.002   5.977
 2877SOL    HW1 9530   2.620   2.984   6.075
 2877SOL    HW2 9531   2.536   3.070   5.964
 2878SOL     OW 9532   3.047   4.515   6.554
 2878SOL    HW1 9533   2.998   4.583   6.609
 2878SOL    HW2 9534   3.055   4.430   6.605
 2879SOL     OW 9535   5.022   4.993   7.002
 2879SOL    HW1 9536   4.968   5.017   6.922
 2879SOL    HW2 9537   5.099   5.056   7.010
 2880SOL     OW 9538   1.192   6.169   1.484
 2880SOL    HW1 9539   1.129   6.220   1.425
 2880SOL    HW2 9540   1.240   6.100   1.430
 2881SOL     OW 9541   6.979   6.887   0.466
 2881SOL    HW1 9542   0.017   6.872   0.388
 2881SOL    HW2 9543   6.901   6.825   0.460
 2882SOL     OW 9544   6.893   2.919   3.122
 2882SOL    HW1 9545   6.797   2.895   3.133
 2882SOL    HW2 9546   6.950   2.837   3.134
 2883SOL     OW 9547   4.010   6.890   2.157
 2883SOL    HW1 9548   3.965   6.975   2.129
 2883SOL    HW2 9549   4.016   6.887   2.257
 2884SOL     OW 9550   1.502   6.040   3.004
 2884SOL    HW1 9551   1.485   6.127   2.958
 2884SOL    HW2 9552   1.552   5.979   2.942
 2885SOL     OW 9553   0.503   2.460   3.432
 2885SOL    HW1 9554   0.454   2.398   3.371
 2885SOL    HW2 9555   0.475   2.445   3.526
 2886SOL     OW 9556   2.244   2.407   5.798
 2886SOL    HW1 9557   2.155   2.389   5.841
 2886SOL    HW2 9558   2.268   2.331   5.738
 2887SOL     OW 9559   1.929   0.683   5.170
 2887SOL    HW1 9560   2.007   0.687   5.108
 2887SOL    HW2 9561   1.848   0.721   5.125
 2888SOL     OW 9562   6.396   5.188   6.776
 2888SOL    HW1 9563   6.342   5.185   6.860
 2888SOL    HW2 9564   6.485   5.229   6.796
 2889SOL     OW 9565   0.505   0.045   2.412
 2889SOL    HW1 9566   0.418   0.012   2.448
 2889SOL    HW2 9567   0.502   0.047   2.313
 2890SOL     OW 9568   3.872   0.297   1.295
 2890SOL    HW1 9569   3.787   0.342   1.267
 2890SOL    HW2 9570   3.929   0.279   1.214
 2891SOL     OW 9571   2.641   4.994   3.858
 2891SOL    HW1 9572   2.720   4.966   3.805
 2891SOL    HW2 9573   2.671   5.033   3.946
 2892SOL     OW 9574   4.559   4.135   5.566
 2892SOL    HW1 9575   4.598   4.224   5.589
 2892SOL    HW2 9576   4.525   4.091   5.650
 2893SOL     OW 9577   1.915   0.507   5.879
 2893SOL    HW1 9578   1.997   0.560   5.900
 2893SOL    HW2 9579   1.857   0.560   5.816
 2894SOL     OW 9580   3.558   3.093   0.362
 2894SOL    HW1 9581   3.589   3.094   0.457
 2894SOL    HW2 9582   3.599   3.169   0.312
 2895SOL     OW 9583   3.364   3.642   6.401
 2895SOL    HW1 9584   3.450   3.590   6.406
 2895SOL    HW2 9585   3.287   3.579   6.404
 2896SOL     OW 9586   2.502   5.235   1.314
 2896SOL    HW1 9587   2.544   5.148   1.340
 2896SOL    HW2 9588   2.437   5.220   1.239
 2897SOL     OW 9589   2.314   6.333   3.764
 2897SOL    HW1 9590   2.276   6.270   3.832
 2897SOL    HW2 9591   2.328   6.423   3.806
 2898SOL     OW 9592   2.841   5.615   2.211
 2898SOL    HW1 9593   2.908   5.588   2.142
 2898SOL    HW2 9594   2.794   5.698   2.182
 2899SOL     OW 9595   6.941   6.680   0.234
 2899SOL    HW1 9596   6.964   6.601   0.177
 2899SOL    HW2 9597   6.844   6.702   0.223
 2900SOL     OW 9598   1.935   5.266   5.536
 2900SOL    HW1 9599   1.896   5.196   5.596
 2900SOL    HW2 9600   1.913   5.356   5.572
 2901SOL     OW 9601   2.984   1.266   1.554
 2901SOL    HW1 9602   3.061   1.328   1.567
 2901SOL    HW2 9603   2.947   1.241   1.644
 2902SOL     OW 9604   5.798   5.798   1.953
 2902SOL    HW1 9605   5.733   5.766   2.022
 2902SOL    HW2 9606   5.776   5.756   1.865
 2903SOL     OW 9607   2.522   2.065   2.190
 2903SOL    HW1 9608   2.581   2.004   2.137
 2903SOL    HW2 9609   2.487   2.017   2.270
 2904SOL     OW 9610   1.671   2.998   4.958
 2904SOL    HW1 9611   1.741   2.942   4.913
 2904SOL    HW2 9612   1.619   2.940   5.022
 2905SOL     OW 9613   1.819   2.346   1.899
 2905SOL    HW1 9614   1.886   2.363   1.827
 2905SOL    HW2 9615   1.813   2.248   1.917
 2906SOL     OW 9616   5.598   5.714   2.212
 2906SOL    HW1 9617   5.632   5.644   2.275
 2906SOL    HW2 9618   5.569   5.794   2.264
 2907SOL     OW 9619   6.290   1.012   3.860
 2907SOL    HW1 9620   6.377   1.047   3.893
 2907SOL    HW2 9621   6.220   1.084   3.865
 2908SOL     OW 9622   4.074   6.302   4.879
 2908SOL    HW1 9623   4.110   6.281   4.788
 2908SOL    HW2 9624   4.150   6.307   4.944
 2909SOL     OW 9625   1.735   5.479   4.814
 2909SOL    HW1 9626   1.823   5.525   4.803
 2909SOL    HW2 9627   1.747   5.396   4.867
 2910SOL     OW 9628   5.570   6.209   6.425
 2910SOL    HW1 9629   5.527   6.299   6.428
 2910SOL    HW2 9630   5.617   6.197   6.337
 2911SOL     OW 9631   1.593   3.969   3.123
 2911SOL    HW1 9632   1.682   4.013   3.129
 2911SOL    HW2 9633   1.579   3.910   3.202
 2912SOL     OW 9634   2.418   5.641   0.824
 2912SOL    HW1 9635   2.496   5.660   0.764
 2912SOL    HW2 9636   2.333   5.664   0.778
 2913SOL     OW 9637   1.538   3.290   2.950
 2913SOL    HW1 9638   1.461   3.291   3.014
 2913SOL    HW2 9639   1.611   3.233   2.986
 2914SOL     OW 9640   5.580   5.698   5.929
 2914SOL    HW1 9641   5.483   5.717   5.940
 2914SOL    HW2 9642   5.599   5.603   5.953
 2915SOL     OW 9643   4.702   1.339   4.219
 2915SOL    HW1 9644   4.763   1.270   4.180
 2915SOL    HW2 9645   4.626   1.355   4.157
 2916SOL     OW 9646   5.164   6.033   4.464
 2916SOL    HW1 9647   5.160   5.959   4.397
 2916SOL    HW2 9648   5.103   6.011   4.540
 2917SOL     OW 9649   4.776   0.462   2.334
 2917SOL    HW1 9650   4.810   0.455   2.241
 2917SOL    HW2 9651   4.751   0.557   2.354
 2918SOL     OW 9652   6.843   4.035   3.797
 2918SOL    HW1 9653   6.802   3.965   3.739
 2918SOL    HW2 9654   6.780   4.111   3.807
 2919SOL     OW 9655   6.466   5.990   0.241
 2919SOL    HW1 9656   6.389   6.007   0.301
 2919SOL    HW2 9657   6.549   6.031   0.280
 2920SOL     OW 9658   4.501   2.469   3.451
 2920SOL    HW1 9659   4.420   2.437   3.402
 2920SOL    HW2 9660   4.490   2.450   3.549
 2921SOL     OW 9661   1.033   0.049   2.080
 2921SOL    HW1 9662   1.129   0.051   2.109
 2921SOL    HW2 9663   0.997   6.978   2.090
 2922SOL     OW 9664   4.371   6.421   5.405
 2922SOL    HW1 9665   4.290   6.371   5.372
 2922SOL    HW2 9666   4.348   6.468   5.490
 2923SOL     OW 9667   6.427   4.340   1.834
 2923SOL    HW1 9668   6.395   4.246   1.830
 2923SOL    HW2 9669   6.370   4.393   1.896
 2924SOL     OW 9670   6.429   1.232   5.365
 2924SOL    HW1 9671   6.420   1.265   5.271
 2924SOL    HW2 9672   6.521   1.196   5.380
 2925SOL     OW 9673   5.381   4.047   1.344
 2925SOL    HW1 9674   5.374   3.988   1.264
 2925SOL    HW2 9675   5.473   4.086   1.349
 2926SOL     OW 9676   0.064   1.233   4.773
 2926SOL    HW1 9677   7.012   1.235   4.707
 2926SOL    HW2 9678   0.123   1.314   4.759
 2927SOL     OW 9679   0.393   2.590   3.019
 2927SOL    HW1 9680   0.414   2.662   2.953
 2927SOL    HW2 9681   0.450   2.510   3.001
 2928SOL     OW 9682   6.557   6.402   0.864
 2928SOL    HW1 9683   6.584   6.380   0.957
 2928SOL    HW2 9684   6.595   6.335   0.801
 2929SOL     OW 9685   0.769   6.683   6.523
 2929SOL    HW1 9686   0.792   6.730   6.438
 2929SOL    HW2 9687   0.837   6.703   6.593
 2930SOL     OW 9688   3.430   6.766   4.793
 2930SOL    HW1 9689   3.447   6.805   4.884
 2930SOL    HW2 9690   3.332   6.770   4.773
 2931SOL     OW 9691   3.795   5.935   5.828
 2931SOL    HW1 9692   3.755   6.020   5.792
 2931SOL    HW2 9693   3.868   5.958   5.892
 2932SOL     OW 9694   0.958   4.942   1.703
 2932SOL    HW1 9695   0.923   4.980   1.617
 2932SOL    HW2 9696   0.902   4.864   1.731
 2933SOL     OW 9697   4.910   2.140   3.262
 2933SOL    HW1 9698   4.915   2.177   3.169
 2933SOL    HW2 9699   4.973   2.190   3.321
 2934SOL     OW 9700   2.634   0.511   0.250
 2934SOL    HW1 9701   2.628   0.450   0.170
 2934SOL    HW2 9702   2.641   0.456   0.333
 2935SOL     OW 9703   5.905   2.372   1.336
 2935SOL    HW1 9704   5.999   2.369   1.370
 2935SOL    HW2 9705   5.850   2.431   1.396
 2936SOL     OW 9706   4.137   5.796   0.786
 2936SOL    HW1 9707   4.124   5.883   0.834
 2936SOL    HW2 9708   4.178   5.814   0.697
 2937SOL     OW 9709   3.272   4.715   0.500
 2937SOL    HW1 9710   3.260   4.645   0.571
 2937SOL    HW2 9711   3.362   4.704   0.457
 2938SOL     OW 9712   4.949   5.636   5.551
 2938SOL    HW1 9713   4.938   5.720   5.498
 2938SOL    HW2 9714   4.922   5.558   5.495
 2939SOL     OW 9715   0.554   6.321   5.685
 2939SOL    HW1 9716   0.546   6.303   5.587
 2939SOL    HW2 9717   0.600   6.243   5.729
 2940SOL     OW 9718   4.554   0.287   5.667
 2940SOL    HW1 9719   4.534   0.264   5.762
 2940SOL    HW2 9720   4.651   0.272   5.649
 2941SOL     OW 9721   1.805   1.796   4.806
 2941SOL    HW1 9722   1.788   1.758   4.716
 2941SOL    HW2 9723   1.718   1.812   4.853
 2942SOL     OW 9724   3.599   6.380   4.352
 2942SOL    HW1 9725   3.658   6.323   4.409
 2942SOL    HW2 9726   3.504   6.351   4.363
 2943SOL     OW 9727   6.160   4.214   3.469
 2943SOL    HW1 9728   6.189   4.208   3.373
 2943SOL    HW2 9729   6.108   4.298   3.483
 2944SOL     OW 9730   3.792   5.884   6.227
 2944SOL    HW1 9731   3.717   5.819   6.224
 2944SOL    HW2 9732   3.786   5.939   6.310
 2945SOL     OW 9733   3.077   3.145   3.252
 2945SOL    HW1 9734   3.136   3.223   3.272
 2945SOL    HW2 9735   3.051   3.147   3.156
 2946SOL     OW 9736   6.676   6.097   5.809
 2946SOL    HW1 9737   6.765   6.125   5.774
 2946SOL    HW2 9738   6.668   6.122   5.905
 2947SOL     OW 9739   6.500   4.642   0.164
 2947SOL    HW1 9740   6.547   4.575   0.105
 2947SOL    HW2 9741   6.423   4.598   0.209
 2948SOL     OW 9742   5.965   4.672   5.044
 2948SOL    HW1 9743   5.981   4.760   4.999
 2948SOL    HW2 9744   5.872   4.641   5.026
 2949SOL     OW 9745   1.273   6.477   0.194
 2949SOL    HW1 9746   1.211   6.400   0.181
 2949SOL    HW2 9747   1.221   6.563   0.186
 2950SOL     OW 9748   4.877   3.420   4.430
 2950SOL    HW1 9749   4.952   3.486   4.442
 2950SOL    HW2 9750   4.827   3.411   4.516
 2951SOL     OW 9751   6.558   1.382   1.531
 2951SOL    HW1 9752   6.472   1.351   1.573
 2951SOL    HW2 9753   6.559   1.356   1.435
 2952SOL     OW 9754   1.637   3.558   2.408
 2952SOL    HW1 9755   1.705   3.489   2.432
 2952SOL    HW2 9756   1.630   3.624   2.482
 2953SOL     OW 9757   5.176   1.258   2.833
 2953SOL    HW1 9758   5.268   1.226   2.809
 2953SOL    HW2 9759   5.174   1.283   2.930
 2954SOL     OW 9760   6.029   6.833   2.224
 2954SOL    HW1 9761   5.942   6.824   2.176
 2954SOL    HW2 9762   6.077   6.915   2.193
 2955SOL     OW 9763   6.765   2.938   0.650
 2955SOL    HW1 9764   6.716   2.945   0.736
 2955SOL    HW2 9765   6.853   2.985   0.657
 2956SOL     OW 9766   6.704   5.720   2.568
 2956SOL    HW1 9767   6.780   5.664   2.603
 2956SOL    HW2 9768   6.618   5.674   2.586
 2957SOL     OW 9769   1.034   3.949   1.114
 2957SOL    HW1 9770   1.014   3.891   1.035
 2957SOL    HW2 9771   1.063   4.039   1.082
 2958SOL     OW 9772   2.653   4.673   5.730
 2958SOL    HW1 9773   2.713   4.640   5.803
 2958SOL    HW2 9774   2.575   4.721   5.770
 2959SOL     OW 9775   3.921   5.425   6.835
 2959SOL    HW1 9776   3.962   5.342   6.873
 2959SOL    HW2 9777   3.837   5.402   6.787
 2960SOL     OW 9778   2.333   1.889   0.184
 2960SOL    HW1 9779   2.409   1.912   0.245
 2960SOL    HW2 9780   2.296   1.973   0.144
 2961SOL     OW 9781   5.822   2.810   4.097
 2961SOL    HW1 9782   5.820   2.845   4.004
 2961SOL    HW2 9783   5.819   2.710   4.096
 2962SOL     OW 9784   4.447   0.815   3.297
 2962SOL    HW1 9785   4.504   0.828   3.378
 2962SOL    HW2 9786   4.423   0.719   3.288
 2963SOL     OW 9787   2.226   2.937   4.518
 2963SOL    HW1 9788   2.311   2.886   4.515
 2963SOL    HW2 9789   2.206   2.963   4.612
 2964SOL     OW 9790   3.582   6.359   0.799
 2964SOL    HW1 9791   3.579   6.447   0.846
 2964SOL    HW2 9792   3.489   6.324   0.787
 2965SOL     OW 9793   0.618   2.245   6.143
 2965SOL    HW1 9794   0.671   2.325   6.115
 2965SOL    HW2 9795   0.655   2.163   6.099
 2966SOL     OW 9796   4.452   4.588   4.295
 2966SOL    HW1 9797   4.458   4.524   4.372
 2966SOL    HW2 9798   4.359   4.625   4.291
 2967SOL     OW 9799   5.551   2.073   3.954
 2967SOL    HW1 9800   5.580   2.155   4.003
 2967SOL    HW2 9801   5.479   2.097   3.889
 2968SOL     OW 9802   0.210   4.066   3.546
 2968SOL    HW1 9803   0.160   4.100   3.625
 2968SOL    HW2 9804   0.162   4.092   3.462
 2969SOL     OW 9805   4.737   1.523   5.289
 2969SOL    HW1 9806   4.659   1.462   5.275
 2969SOL    HW2 9807   4.822   1.475   5.270
 2970SOL     OW 9808   0.984   4.697   6.462
 2970SOL    HW1 9809   0.947   4.725   6.373
 2970SOL    HW2 9810   0.916   4.717   6.533
 2971SOL     OW 9811   5.346   2.970   2.798
 2971SOL    HW1 9812   5.329   3.047   2.737
 2971SOL    HW2 9813   5.315   2.993   2.890
 2972SOL     OW 9814   0.200   4.008   5.586
 2972SOL    HW1 9815   0.215   3.951   5.666
 2972SOL    HW2 9816   0.288   4.034   5.546
 2973SOL     OW 9817   5.133   6.250   4.308
 2973SOL    HW1 9818   5.128   6.239   4.209
 2973SOL    HW2 9819   5.134   6.161   4.352
 2974SOL     OW 9820   0.348   3.769   2.419
 2974SOL    HW1 9821   0.338   3.860   2.460
 2974SOL    HW2 9822   0.430   3.726   2.455
 2975SOL     OW 9823   0.599   0.979   5.155
 2975SOL    HW1 9824   0.621   1.069   5.118
 2975SOL    HW2 9825   0.646   0.967   5.243
 2976SOL     OW 9826   3.890   0.554   2.269
 2976SOL    HW1 9827   3.800   0.549   2.311
 2976SOL    HW2 9828   3.960   0.555   2.339
 2977SOL     OW 9829   3.023   6.162   4.148
 2977SOL    HW1 9830   3.099   6.191   4.207
 2977SOL    HW2 9831   3.007   6.064   4.161
 2978SOL     OW 9832   4.859   5.682   6.913
 2978SOL    HW1 9833   4.854   5.598   6.968
 2978SOL    HW2 9834   4.851   5.657   6.816
 2979SOL     OW 9835   3.446   0.926   3.100
 2979SOL    HW1 9836   3.544   0.940   3.094
 2979SOL    HW2 9837   3.427   0.830   3.124
 2980SOL     OW 9838   0.011   6.520   4.238
 2980SOL    HW1 9839   6.999   6.489   4.327
 2980SOL    HW2 9840   0.043   6.441   4.186
 2981SOL     OW 9841   2.422   0.699   5.806
 2981SOL    HW1 9842   2.517   0.730   5.807
 2981SOL    HW2 9843   2.416   0.615   5.752
 2982SOL     OW 9844   4.608   6.614   2.642
 2982SOL    HW1 9845   4.650   6.577   2.559
 2982SOL    HW2 9846   4.509   6.609   2.634
 2983SOL     OW 9847   6.317   0.513   3.766
 2983SOL    HW1 9848   6.335   0.603   3.806
 2983SOL    HW2 9849   6.238   0.520   3.705
 2984SOL     OW 9850   5.146   5.042   2.189
 2984SOL    HW1 9851   5.109   5.010   2.276
 2984SOL    HW2 9852   5.090   5.118   2.155
 2985SOL     OW 9853   6.155   2.390   2.689
 2985SOL    HW1 9854   6.167   2.292   2.671
 2985SOL    HW2 9855   6.092   2.402   2.766
 2986SOL     OW 9856   2.089   3.987   5.157
 2986SOL    HW1 9857   2.173   4.015   5.111
 2986SOL    HW2 9858   2.104   3.983   5.256
 2987SOL     OW 9859   4.320   2.284   4.577
 2987SOL    HW1 9860   4.272   2.299   4.663
 2987SOL    HW2 9861   4.262   2.315   4.501
 2988SOL     OW 9862   0.619   0.466   2.294
 2988SOL    HW1 9863   0.553   0.516   2.350
 2988SOL    HW2 9864   0.697   0.439   2.350
 2989SOL     OW 9865   6.598   4.842   1.327
 2989SOL    HW1 9866   6.612   4.786   1.409
 2989SOL    HW2 9867   6.678   4.834   1.268
 2990SOL     OW 9868   3.380   0.606   1.121
 2990SOL    HW1 9869   3.295   0.561   1.092
 2990SOL    HW2 9870   3.387   0.695   1.077
 2991SOL     OW 9871   6.346   4.270   0.155
 2991SOL    HW1 9872   6.278   4.338   0.129
 2991SOL    HW2 9873   6.328   4.241   0.249
 2992SOL     OW 9874   3.746   4.474   6.332
 2992SOL    HW1 9875   3.823   4.427   6.375
 2992SOL    HW2 9876   3.731   4.561   6.379
 2993SOL     OW 9877   1.874   5.152   1.262
 2993SOL    HW1 9878   1.786   5.120   1.295
 2993SOL    HW2 9879   1.947   5.117   1.321
 2994SOL     OW 9880   4.434   6.700   0.116
 2994SOL    HW1 9881   4.485   6.625   0.075
 2994SOL    HW2 9882   4.349   6.714   0.065
 2995SOL     OW 9883   2.524   1.517   6.031
 2995SOL    HW1 9884   2.469   1.593   6.065
 2995SOL    HW2 9885   2.566   1.469   6.108
 2996SOL     OW 9886   3.979   5.626   5.617
 2996SOL    HW1 9887   3.898   5.685   5.619
 2996SOL    HW2 9888   3.958   5.541   5.569
 2997SOL     OW 9889   5.764   6.694   0.352
 2997SOL    HW1 9890   5.696   6.622   0.366
 2997SOL    HW2 9891   5.720   6.783   0.362
 2998SOL     OW 9892   6.434   5.895   5.129
 2998SOL    HW1 9893   6.360   5.853   5.182
 2998SOL    HW2 9894   6.400   5.925   5.041
 2999SOL     OW 9895   3.340   6.613   2.629
 2999SOL    HW1 9896   3.392   6.546   2.682
 2999SOL    HW2 9897   3.353   6.595   2.531
 3000SOL     OW 9898   1.225   3.395   4.718
 3000SOL    HW1 9899   1.272   3.456   4.783
 3000SOL    HW2 9900   1.280   3.387   4.634
 3001SOL     OW 9901   4.628   0.023   5.962
 3001SOL    HW1 9902   4.643   6.990   6.044
 3001SOL    HW2 9903   4.558   7.002   5.906
 3002SOL     OW 9904   4.167   0.111   5.662
 3002SOL    HW1 9905   4.220   0.118   5.577
 3002SOL    HW2 9906   4.072   0.090   5.640
 3003SOL     OW 9907   2.301   0.278   6.438
 3003SOL    HW1 9908   2.247   0.194   6.431
 3003SOL    HW2 9909   2.393   0.257   6.471
 3004SOL     OW 9910   6.077   3.092   4.631
 3004SOL    HW1 9911   6.163   3.129   4.595
 3004SOL    HW2 9912   6.055   3.007   4.584
 3005SOL     OW 9913   4.540   2.349   1.497
 3005SOL    HW1 9914   4.616   2.290   1.527
 3005SOL    HW2 9915   4.577   2.430   1.452
 3006SOL     OW 9916   5.731   0.729   1.597
 3006SOL    HW1 9917   5.635   0.730   1.567
 3006SOL    HW2 9918   5.741   0.786   1.678
 3007SOL     OW 9919   6.454   5.418   2.398
 3007SOL    HW1 9920   6.481   5.322   2.411
 3007SOL    HW2 9921   6.403   5.426   2.312
 3008SOL     OW 9922   3.375   5.886   6.230
 3008SOL    HW1 9923   3.290   5.840   6.207
 3008SOL    HW2 9924   3.375   5.978   6.191
 3009SOL     OW 9925   2.097   0.437   3.425
 3009SOL    HW1 9926   2.077   0.501   3.351
 3009SOL    HW2 9927   2.182   0.463   3.470
 3010SOL     OW 9928   4.226   6.602   1.754
 3010SOL    HW1 9929   4.198   6.642   1.841
 3010SOL    HW2 9930   4.187   6.655   1.679
 3011SOL     OW 9931   5.578   0.957   0.167
 3011SOL    HW1 9932   5.491   0.993   0.201
 3011SOL    HW2 9933   5.623   1.027   0.111
 3012SOL     OW 9934   6.949   3.760   2.884
 3012SOL    HW1 9935   6.899   3.781   2.800
 3012SOL    HW2 9936   6.938   3.663   2.906
 3013SOL     OW 9937   5.950   4.668   2.155
 3013SOL    HW1 9938   6.001   4.743   2.112
 3013SOL    HW2 9939   6.014   4.608   2.204
 3014SOL     OW 9940   4.450   1.128   4.992
 3014SOL    HW1 9941   4.417   1.054   4.934
 3014SOL    HW2 9942   4.466   1.210   4.936
 3015SOL     OW 9943   2.900   2.659   6.975
 3015SOL    HW1 9944   2.937   2.733   6.919
 3015SOL    HW2 9945   2.899   2.687   0.048
 3016SOL     OW 9946   4.216   6.625   3.684
 3016SOL    HW1 9947   4.182   6.685   3.612
 3016SOL    HW2 9948   4.227   6.533   3.649
 3017SOL     OW 9949   6.902   5.568   1.450
 3017SOL    HW1 9950   6.992   5.594   1.485
 3017SOL    HW2 9951   6.899   5.470   1.432
 3018SOL     OW 9952   3.516   6.727   0.271
 3018SOL    HW1 9953   3.582   6.786   0.318
 3018SOL    HW2 9954   3.521   6.744   0.172
 3019SOL     OW 9955   4.716   6.992   1.943
 3019SOL    HW1 9956   4.694   6.999   2.040
 3019SOL    HW2 9957   4.634   6.968   1.892
 3020SOL     OW 9958   1.669   2.048   0.892
 3020SOL    HW1 9959   1.716   2.052   0.980
 3020SOL    HW2 9960   1.617   2.133   0.878
 3021SOL     OW 9961   2.885   1.428   6.405
 3021SOL    HW1 9962   2.785   1.428   6.397
 3021SOL    HW2 9963   2.910   1.442   6.500
 3022SOL     OW 9964   4.896   6.934   3.218
 3022SOL    HW1 9965   4.954   6.983   3.284
 3022SOL    HW2 9966   4.860   6.851   3.260
 3023SOL     OW 9967   5.032   6.353   1.995
 3023SOL    HW1 9968   5.078   6.280   2.044
 3023SOL    HW2 9969   5.076   6.367   1.906
 3024SOL     OW 9970   3.018   6.540   6.864
 3024SOL    HW1 9971   3.036   6.442   6.870
 3024SOL    HW2 9972   3.021   6.569   6.769
 3025SOL     OW 9973   2.266   2.474   1.380
 3025SOL    HW1 9974   2.348   2.436   1.423
 3025SOL    HW2 9975   2.200   2.401   1.364
 3026SOL     OW 9976   2.098   4.163   1.240
 3026SOL    HW1 9977   2.043   4.246   1.234
 3026SOL    HW2 9978   2.055   4.098   1.303
 3027SOL     OW 9979   1.131   2.067   3.553
 3027SOL    HW1 9980   1.117   1.971   3.578
 3027SOL    HW2 9981   1.217   2.099   3.593
 3028SOL     OW 9982   1.668   6.984   4.847
 3028SOL    HW1 9983   1.595   6.950   4.906
 3028SOL    HW2 9984   1.706   6.908   4.794
 3029SOL     OW 9985   5.281   6.564   5.620
 3029SOL    HW1 9986   5.224   6.594   5.544
 3029SOL    HW2 9987   5.245   6.478   5.657
 3030SOL     OW 9988   0.942   2.663   5.241
 3030SOL    HW1 9989   1.005   2.733   5.207
 3030SOL    HW2 9990   0.993   2.579   5.259
 3031SOL     OW 9991   1.074   4.947   6.628
 3031SOL    HW1 9992   1.104   4.872   6.568
 3031SOL    HW2 9993   1.006   5.003   6.580
 3032SOL     OW 9994   4.806   0.420   6.125
 3032SOL    HW1 9995   4.872   0.349   6.102
 3032SOL    HW2 9996   4.770   0.405   6.217
 3033SOL     OW 9997   5.767   3.737   6.559
 3033SOL    HW1 9998   5.674   3.728   6.596
 3033SOL    HW2 9999   5.817   3.807   6.610
 3034SOL     OW10000   2.290   0.178   4.721
 3034SOL    HW110001   2.210   0.135   4.679
 3034SOL    HW210002   2.274   0.188   4.820
 3035SOL     OW10003   6.177   0.241   0.077
 3035SOL    HW110004   6.120   0.206   0.002
 3035SOL    HW210005   6.137   0.326   0.112
 3036SOL     OW10006   1.111   4.482   6.387
 3036SOL    HW110007   1.197   4.513   6.345
 3036SOL    HW210008   1.070   4.558   6.436
 3037SOL     OW10009   6.467   6.354   5.539
 3037SOL    HW110010   6.463   6.386   5.444
 3037SOL    HW210011   6.485   6.432   5.599
 3038SOL     OW10012   5.195   6.966   5.819
 3038SOL    HW110013   5.103   6.949   5.783
 3038SOL    HW210014   5.263   6.949   5.748
 3039SOL     OW10015   0.679   4.898   1.114
 3039SOL    HW110016   0.745   4.972   1.101
 3039SOL    HW210017   0.728   4.814   1.137
 3040SOL     OW10018   2.622   3.510   6.643
 3040SOL    HW110019   2.632   3.602   6.680
 3040SOL    HW210020   2.672   3.445   6.701
 3041SOL     OW10021   1.909   2.149   5.802
 3041SOL    HW110022   1.919   2.178   5.707
 3041SOL    HW210023   1.825   2.096   5.812
 3042SOL     OW10024   4.695   0.706   1.799
 3042SOL    HW110025   4.703   0.686   1.701
 3042SOL    HW210026   4.689   0.805   1.812
 3043SOL     OW10027   0.047   5.544   0.413
 3043SOL    HW110028   0.127   5.564   0.469
 3043SOL    HW210029   0.057   5.453   0.372
 3044SOL     OW10030   3.391   4.131   6.515
 3044SOL    HW110031   3.322   4.163   6.450
 3044SOL    HW210032   3.411   4.034   6.498
 3045SOL     OW10033   5.812   2.586   3.032
 3045SOL    HW110034   5.733   2.560   2.976
 3045SOL    HW210035   5.783   2.650   3.103
 3046SOL     OW10036   2.025   2.955   5.711
 3046SOL    HW110037   2.028   2.871   5.657
 3046SOL    HW210038   1.973   3.024   5.662
 3047SOL     OW10039   6.485   4.701   2.350
 3047SOL    HW110040   6.533   4.630   2.401
 3047SOL    HW210041   6.388   4.679   2.345
 3048SOL     OW10042   3.354   2.489   1.572
 3048SOL    HW110043   3.435   2.522   1.522
 3048SOL    HW210044   3.304   2.568   1.608
 3049SOL     OW10045   0.972   0.174   2.348
 3049SOL    HW110046   1.018   0.113   2.412
 3049SOL    HW210047   0.993   0.147   2.254
 3050SOL     OW10048   4.232   5.769   4.019
 3050SOL    HW110049   4.264   5.864   4.025
 3050SOL    HW210050   4.157   5.763   3.953
 3051SOL     OW10051   2.279   4.483   6.121
 3051SOL    HW110052   2.376   4.484   6.145
 3051SOL    HW210053   2.265   4.424   6.041
 3052SOL     OW10054   4.361   6.423   2.769
 3052SOL    HW110055   4.300   6.370   2.827
 3052SOL    HW210056   4.409   6.362   2.705
 3053SOL     OW10057   5.320   6.538   0.162
 3053SOL    HW110058   5.379   6.517   0.084
 3053SOL    HW210059   5.275   6.625   0.148
 3054SOL     OW10060   0.986   3.184   6.260
 3054SOL    HW110061   0.965   3.268   6.211
 3054SOL    HW210062   1.079   3.187   6.294
 3055SOL     OW10063   6.329   6.529   3.221
 3055SOL    HW110064   6.391   6.471   3.274
 3055SOL    HW210065   6.382   6.581   3.154
 3056SOL     OW10066   6.954   0.923   0.969
 3056SOL    HW110067   6.955   0.826   0.943
 3056SOL    HW210068   6.977   0.931   1.065
 3057SOL     OW10069   6.228   5.404   2.686
 3057SOL    HW110070   6.249   5.313   2.723
 3057SOL    HW210071   6.311   5.445   2.649
 3058SOL     OW10072   6.575   4.947   1.724
 3058SOL    HW110073   6.524   4.871   1.764
 3058SOL    HW210074   6.644   4.979   1.788
 3059SOL     OW10075   1.965   2.853   4.401
 3059SOL    HW110076   2.045   2.824   4.453
 3059SOL    HW210077   1.967   2.952   4.390
 3060SOL     OW10078   6.625   6.852   0.658
 3060SOL    HW110079   6.712   6.900   0.667
 3060SOL    HW210080   6.593   6.859   0.564
 3061SOL     OW10081   0.073   7.019   6.344
 3061SOL    HW110082   0.115   0.059   6.278
 3061SOL    HW210083   0.113   6.928   6.335
 3062SOL     OW10084   2.833   6.110   0.007
 3062SOL    HW110085   2.849   6.028   0.061
 3062SOL    HW210086   2.801   6.183   0.067
 3063SOL     OW10087   2.181   4.655   1.125
 3063SOL    HW110088   2.265   4.604   1.144
 3063SOL    HW210089   2.113   4.594   1.086
 3064SOL     OW10090   6.040   3.510   3.227
 3064SOL    HW110091   6.085   3.437   3.175
 3064SOL    HW210092   6.061   3.499   3.324
 3065SOL     OW10093   1.989   1.092   0.352
 3065SOL    HW110094   1.923   1.156   0.313
 3065SOL    HW210095   2.062   1.075   0.286
 3066SOL     OW10096   5.838   4.817   1.769
 3066SOL    HW110097   5.816   4.757   1.845
 3066SOL    HW210098   5.799   4.779   1.685
 3067SOL     OW10099   5.122   6.945   3.857
 3067SOL    HW110100   5.217   6.916   3.863
 3067SOL    HW210101   5.079   6.938   3.947
 3068SOL     OW10102   5.895   4.853   0.344
 3068SOL    HW110103   5.889   4.836   0.442
 3068SOL    HW210104   5.954   4.932   0.327
 3069SOL     OW10105   0.833   5.832   2.937
 3069SOL    HW110106   0.734   5.836   2.950
 3069SOL    HW210107   0.874   5.916   2.973
 3070SOL     OW10108   4.314   1.279   4.383
 3070SOL    HW110109   4.249   1.204   4.367
 3070SOL    HW210110   4.403   1.241   4.407
 3071SOL     OW10111   6.195   6.379   3.525
 3071SOL    HW110112   6.210   6.296   3.579
 3071SOL    HW210113   6.275   6.395   3.468
 3072SOL     OW10114   0.657   0.417   2.697
 3072SOL    HW110115   0.685   0.348   2.763
 3072SOL    HW210116   0.594   0.376   2.631
 3073SOL     OW10117   1.200   3.420   5.074
 3073SOL    HW110118   1.134   3.348   5.050
 3073SOL    HW210119   1.198   3.436   5.172
 3074SOL     OW10120   4.592   2.947   5.493
 3074SOL    HW110121   4.662   2.876   5.481
 3074SOL    HW210122   4.532   2.922   5.569
 3075SOL     OW10123   2.149   5.756   1.662
 3075SOL    HW110124   2.184   5.831   1.719
 3075SOL    HW210125   2.059   5.781   1.626
 3076SOL     OW10126   0.670   0.721   4.966
 3076SOL    HW110127   0.698   0.632   5.003
 3076SOL    HW210128   0.600   0.761   5.024
 3077SOL     OW10129   5.030   5.136   3.819
 3077SOL    HW110130   5.002   5.230   3.834
 3077SOL    HW210131   4.952   5.084   3.783
 3078SOL     OW10132   1.690   3.451   1.387
 3078SOL    HW110133   1.660   3.461   1.482
 3078SOL    HW210134   1.787   3.425   1.386
 3079SOL     OW10135   6.576   2.386   5.791
 3079SOL    HW110136   6.534   2.417   5.707
 3079SOL    HW210137   6.671   2.417   5.795
 3080SOL     OW10138   6.476   5.329   0.770
 3080SOL    HW110139   6.428   5.400   0.821
 3080SOL    HW210140   6.536   5.372   0.702
 3081SOL     OW10141   6.851   5.248   5.606
 3081SOL    HW110142   6.918   5.216   5.673
 3081SOL    HW210143   6.761   5.258   5.649
 3082SOL     OW10144   3.115   0.320   2.744
 3082SOL    HW110145   3.115   0.378   2.662
 3082SOL    HW210146   3.107   0.377   2.825
 3083SOL     OW10147   3.388   0.654   1.770
 3083SOL    HW110148   3.379   0.693   1.861
 3083SOL    HW210149   3.380   0.554   1.776
 3084SOL     OW10150   5.395   6.236   4.836
 3084SOL    HW110151   5.308   6.189   4.851
 3084SOL    HW210152   5.378   6.334   4.829
 3085SOL     OW10153   0.573   5.425   2.262
 3085SOL    HW110154   0.509   5.409   2.337
 3085SOL    HW210155   0.666   5.431   2.298
 3086SOL     OW10156   5.046   1.267   3.971
 3086SOL    HW110157   5.129   1.223   3.936
 3086SOL    HW210158   5.065   1.308   4.060
 3087SOL     OW10159   6.607   2.893   3.115
 3087SOL    HW110160   6.632   2.974   3.062
 3087SOL    HW210161   6.535   2.843   3.067
 3088SOL     OW10162   3.123   4.851   5.769
 3088SOL    HW110163   3.113   4.929   5.830
 3088SOL    HW210164   3.098   4.878   5.676
 3089SOL     OW10165   1.878   2.613   0.405
 3089SOL    HW110166   1.930   2.551   0.346
 3089SOL    HW210167   1.852   2.565   0.489
 3090SOL     OW10168   1.150   1.829   0.966
 3090SOL    HW110169   1.241   1.792   0.981
 3090SOL    HW210170   1.131   1.901   1.033
 3091SOL     OW10171   2.983   6.737   0.378
 3091SOL    HW110172   2.993   6.835   0.396
 3091SOL    HW210173   2.888   6.710   0.393
 3092SOL     OW10174   4.823   6.298   0.638
 3092SOL    HW110175   4.777   6.209   0.631
 3092SOL    HW210176   4.815   6.346   0.551
 3093SOL     OW10177   5.248   5.995   3.989
 3093SOL    HW110178   5.199   5.970   4.073
 3093SOL    HW210179   5.295   6.082   4.003
 3094SOL     OW10180   2.719   5.576   5.655
 3094SOL    HW110181   2.705   5.668   5.621
 3094SOL    HW210182   2.635   5.522   5.641
 3095SOL     OW10183   3.170   4.868   5.247
 3095SOL    HW110184   3.154   4.871   5.148
 3095SOL    HW210185   3.180   4.773   5.276
 3096SOL     OW10186   1.072   0.746   6.000
 3096SOL    HW110187   1.025   0.658   5.995
 3096SOL    HW210188   1.105   0.771   5.910
 3097SOL     OW10189   1.639   3.060   6.864
 3097SOL    HW110190   1.600   2.981   6.911
 3097SOL    HW210191   1.601   3.144   6.903
 3098SOL     OW10192   3.927   2.315   0.745
 3098SOL    HW110193   3.995   2.381   0.713
 3098SOL    HW210194   3.862   2.360   0.806
 3099SOL     OW10195   1.007   5.897   5.592
 3099SOL    HW110196   1.023   5.814   5.645
 3099SOL    HW210197   1.066   5.971   5.625
 3100SOL     OW10198   0.008   0.151   0.113
 3100SOL    HW110199   0.067   0.232   0.120
 3100SOL    HW210200   0.058   0.071   0.145
 3101SOL     OW10201   4.656   7.001   0.819
 3101SOL    HW110202   4.697   0.063   0.783
 3101SOL    HW210203   4.729   6.941   0.853
 3102SOL     OW10204   1.776   4.763   1.274
 3102SOL    HW110205   1.707   4.704   1.232
 3102SOL    HW210206   1.733   4.823   1.341
 3103SOL     OW10207   3.996   3.176   2.100
 3103SOL    HW110208   3.976   3.252   2.161
 3103SOL    HW210209   3.952   3.093   2.136
 3104SOL     OW10210   6.603   5.627   3.964
 3104SOL    HW110211   6.512   5.631   4.003
 3104SOL    HW210212   6.655   5.553   4.008
 3105SOL     OW10213   6.201   6.298   4.040
 3105SOL    HW110214   6.211   6.255   4.129
 3105SOL    HW210215   6.269   6.371   4.029
 3106SOL     OW10216   6.984   2.358   4.431
 3106SOL    HW110217   6.917   2.378   4.359
 3106SOL    HW210218   6.940   2.366   4.521
 3107SOL     OW10219   2.969   0.236   4.427
 3107SOL    HW110220   3.008   0.157   4.380
 3107SOL    HW210221   3.017   0.319   4.399
 3108SOL     OW10222   3.638   0.636   3.674
 3108SOL    HW110223   3.666   0.732   3.679
 3108SOL    HW210224   3.677   0.586   3.751
 3109SOL     OW10225   4.705   5.614   3.572
 3109SOL    HW110226   4.689   5.552   3.648
 3109SOL    HW210227   4.788   5.667   3.589
 3110SOL     OW10228   0.611   2.750   2.380
 3110SOL    HW110229   0.586   2.658   2.411
 3110SOL    HW210230   0.707   2.768   2.403
 3111SOL     OW10231   6.799   4.585   3.550
 3111SOL    HW110232   6.728   4.614   3.486
 3111SOL    HW210233   6.886   4.627   3.524
 3112SOL     OW10234   3.885   3.753   6.611
 3112SOL    HW110235   3.948   3.692   6.564
 3112SOL    HW210236   3.935   3.831   6.648
 3113SOL     OW10237   3.172   6.816   3.982
 3113SOL    HW110238   3.215   6.808   4.072
 3113SOL    HW210239   3.136   6.727   3.954
 3114SOL     OW10240   5.923   5.748   1.103
 3114SOL    HW110241   5.859   5.671   1.098
 3114SOL    HW210242   5.888   5.823   1.048
 3115SOL     OW10243   2.744   3.593   1.368
 3115SOL    HW110244   2.791   3.675   1.335
 3115SOL    HW210245   2.804   3.541   1.428
 3116SOL     OW10246   0.024   1.823   6.937
 3116SOL    HW110247   0.079   1.870   7.006
 3116SOL    HW210248   6.953   1.859   6.940
 3117SOL     OW10249   4.072   3.723   5.095
 3117SOL    HW110250   4.078   3.761   5.187
 3117SOL    HW210251   4.093   3.626   5.097
 3118SOL     OW10252   5.613   4.260   0.495
 3118SOL    HW110253   5.614   4.307   0.407
 3118SOL    HW210254   5.525   4.213   0.506
 3119SOL     OW10255   1.334   4.446   5.310
 3119SOL    HW110256   1.396   4.507   5.360
 3119SOL    HW210257   1.369   4.432   5.217
 3120SOL     OW10258   3.314   5.393   5.310
 3120SOL    HW110259   3.313   5.325   5.236
 3120SOL    HW210260   3.245   5.369   5.378
 3121SOL     OW10261   0.059   6.440   2.485
 3121SOL    HW110262   0.109   6.354   2.490
 3121SOL    HW210263   0.116   6.513   2.523
 3122SOL     OW10264   2.870   5.512   0.814
 3122SOL    HW110265   2.781   5.547   0.842
 3122SOL    HW210266   2.862   5.415   0.791
 3123SOL     OW10267   3.351   6.760   4.213
 3123SOL    HW110268   3.438   6.810   4.211
 3123SOL    HW210269   3.368   6.664   4.190
 3124SOL     OW10270   3.935   0.482   6.536
 3124SOL    HW110271   3.979   0.452   6.451
 3124SOL    HW210272   3.893   0.572   6.522
 3125SOL     OW10273   0.060   1.842   5.857
 3125SOL    HW110274   0.078   1.837   5.955
 3125SOL    HW210275   6.998   1.792   5.835
 3126SOL     OW10276   4.299   5.863   0.546
 3126SOL    HW110277   4.384   5.911   0.524
 3126SOL    HW210278   4.257   5.830   0.461
 3127SOL     OW10279   0.631   1.223   3.885
 3127SOL    HW110280   0.593   1.263   3.968
 3127SOL    HW210281   0.628   1.123   3.891
 3128SOL     OW10282   1.332   2.142   0.732
 3128SOL    HW110283   1.384   2.174   0.811
 3128SOL    HW210284   1.392   2.092   0.670
 3129SOL     OW10285   0.848   3.316   4.860
 3129SOL    HW110286   0.796   3.316   4.774
 3129SOL    HW210287   0.877   3.409   4.881
 3130SOL     OW10288   1.550   5.585   3.114
 3130SOL    HW110289   1.479   5.600   3.046
 3130SOL    HW210290   1.513   5.534   3.192
 3131SOL     OW10291   6.910   3.708   3.524
 3131SOL    HW110292   7.009   3.719   3.514
 3131SOL    HW210293   6.865   3.795   3.501
 3132SOL     OW10294   5.355   6.120   5.574
 3132SOL    HW110295   5.383   6.075   5.660
 3132SOL    HW210296   5.393   6.212   5.571
 3133SOL     OW10297   2.909   1.824   3.131
 3133SOL    HW110298   2.828   1.847   3.078
 3133SOL    HW210299   2.982   1.795   3.069
 3134SOL     OW10300   4.880   3.071   2.481
 3134SOL    HW110301   4.862   2.985   2.529
 3134SOL    HW210302   4.866   3.057   2.383
 3135SOL     OW10303   3.018   1.710   3.356
 3135SOL    HW110304   2.970   1.717   3.268
 3135SOL    HW210305   2.952   1.691   3.428
 3136SOL     OW10306   5.885   6.507   5.078
 3136SOL    HW110307   5.927   6.469   5.161
 3136SOL    HW210308   5.892   6.607   5.080
 3137SOL     OW10309   6.116   1.984   4.132
 3137SOL    HW110310   6.071   1.898   4.157
 3137SOL    HW210311   6.211   1.966   4.108
 3138SOL     OW10312   5.626   1.040   5.249
 3138SOL    HW110313   5.578   0.952   5.243
 3138SOL    HW210314   5.676   1.057   5.164
 3139SOL     OW10315   4.882   6.229   5.283
 3139SOL    HW110316   4.925   6.194   5.366
 3139SOL    HW210317   4.785   6.247   5.300
 3140SOL     OW10318   6.300   6.539   6.798
 3140SOL    HW110319   6.311   6.638   6.795
 3140SOL    HW210320   6.343   6.503   6.881
 3141SOL     OW10321   1.223   4.930   0.311
 3141SOL    HW110322   1.140   4.984   0.296
 3141SOL    HW210323   1.202   4.852   0.369
 3142SOL     OW10324   4.242   6.554   0.292
 3142SOL    HW110325   4.269   6.526   0.384
 3142SOL    HW210326   4.310   6.617   0.255
 3143SOL     OW10327   6.570   1.386   0.599
 3143SOL    HW110328   6.479   1.427   0.609
 3143SOL    HW210329   6.616   1.385   0.688
 3144SOL     OW10330   1.496   3.896   6.310
 3144SOL    HW110331   1.464   3.987   6.335
 3144SOL    HW210332   1.593   3.887   6.336
 3145SOL     OW10333   3.308   6.486   4.075
 3145SOL    HW110334   3.359   6.399   4.071
 3145SOL    HW210335   3.347   6.550   4.009
 3146SOL     OW10336   2.391   0.324   3.963
 3146SOL    HW110337   2.488   0.301   3.977
 3146SOL    HW210338   2.336   0.240   3.968
 3147SOL     OW10339   4.206   3.586   0.132
 3147SOL    HW110340   4.237   3.521   0.202
 3147SOL    HW210341   4.133   3.643   0.170
 3148SOL     OW10342   3.509   5.675   4.581
 3148SOL    HW110343   3.531   5.683   4.483
 3148SOL    HW210344   3.435   5.608   4.592
 3149SOL     OW10345   3.358   6.702   5.539
 3149SOL    HW110346   3.424   6.633   5.569
 3149SOL    HW210347   3.266   6.662   5.540
 3150SOL     OW10348   6.299   0.209   4.745
 3150SOL    HW110349   6.320   0.305   4.767
 3150SOL    HW210350   6.278   0.200   4.648
 3151SOL     OW10351   3.669   0.962   6.510
 3151SOL    HW110352   3.700   0.873   6.544
 3151SOL    HW210353   3.743   1.006   6.459
 3152SOL     OW10354   1.445   5.109   0.818
 3152SOL    HW110355   1.477   5.090   0.726
 3152SOL    HW210356   1.348   5.135   0.815
 3153SOL     OW10357   6.888   4.341   2.513
 3153SOL    HW110358   6.857   4.434   2.491
 3153SOL    HW210359   6.942   4.305   2.437
 3154SOL     OW10360   5.673   2.437   6.630
 3154SOL    HW110361   5.584   2.434   6.585
 3154SOL    HW210362   5.739   2.485   6.571
 3155SOL     OW10363   5.013   6.112   0.503
 3155SOL    HW110364   5.105   6.134   0.473
 3155SOL    HW210365   4.981   6.183   0.566
 3156SOL     OW10366   3.136   4.021   3.296
 3156SOL    HW110367   3.037   4.021   3.283
 3156SOL    HW210368   3.156   4.037   3.392
 3157SOL     OW10369   2.095   3.144   4.359
 3157SOL    HW110370   2.135   3.142   4.268
 3157SOL    HW210371   2.159   3.105   4.425
 3158SOL     OW10372   4.561   6.242   0.530
 3158SOL    HW110373   4.502   6.210   0.605
 3158SOL    HW210374   4.593   6.334   0.550
 3159SOL     OW10375   5.379   4.933   0.828
 3159SOL    HW110376   5.316   4.866   0.867
 3159SOL    HW210377   5.349   4.957   0.735
 3160SOL     OW10378   5.744   4.279   6.986
 3160SOL    HW110379   5.735   4.374   7.018
 3160SOL    HW210380   5.795   4.277   6.900
 3161SOL     OW10381   0.837   2.117   2.757
 3161SOL    HW110382   0.876   2.041   2.705
 3161SOL    HW210383   0.759   2.084   2.811
 3162SOL     OW10384   6.699   6.122   6.094
 3162SOL    HW110385   6.644   6.046   6.129
 3162SOL    HW210386   6.795   6.095   6.093
 3163SOL     OW10387   2.380   3.997   5.714
 3163SOL    HW110388   2.282   3.987   5.725
 3163SOL    HW210389   2.402   4.008   5.617
 3164SOL     OW10390   5.539   5.202   6.234
 3164SOL    HW110391   5.461   5.154   6.193
 3164SOL    HW210392   5.516   5.299   6.246
 3165SOL     OW10393   0.136   2.574   1.607
 3165SOL    HW110394   0.157   2.477   1.618
 3165SOL    HW210395   0.107   2.592   1.513
 3166SOL     OW10396   5.095   2.865   5.776
 3166SOL    HW110397   5.054   2.956   5.780
 3166SOL    HW210398   5.083   2.820   5.864
 3167SOL     OW10399   0.705   4.371   2.195
 3167SOL    HW110400   0.760   4.298   2.234
 3167SOL    HW210401   0.608   4.349   2.205
 3168SOL     OW10402   5.588   3.349   0.921
 3168SOL    HW110403   5.586   3.359   1.020
 3168SOL    HW210404   5.613   3.436   0.879
 3169SOL     OW10405   1.277   1.884   5.204
 3169SOL    HW110406   1.280   1.790   5.239
 3169SOL    HW210407   1.275   1.948   5.281
 3170SOL     OW10408   4.356   0.671   6.363
 3170SOL    HW110409   4.396   0.757   6.394
 3170SOL    HW210410   4.274   0.650   6.416
 3171SOL     OW10411   6.316   6.854   3.610
 3171SOL    HW110412   6.389   6.875   3.675
 3171SOL    HW210413   6.228   6.886   3.646
 3172SOL     OW10414   6.200   6.850   5.590
 3172SOL    HW110415   6.259   6.868   5.511
 3172SOL    HW210416   6.175   6.936   5.633
 3173SOL     OW10417   1.670   1.348   1.203
 3173SOL    HW110418   1.621   1.357   1.117
 3173SOL    HW210419   1.714   1.435   1.225
 3174SOL     OW10420   1.974   3.718   5.691
 3174SOL    HW110421   2.049   3.782   5.676
 3174SOL    HW210422   1.924   3.744   5.773
 3175SOL     OW10423   0.187   6.421   0.702
 3175SOL    HW110424   0.173   6.404   0.800
 3175SOL    HW210425   0.259   6.490   0.691
 3176SOL     OW10426   0.734   4.981   6.400
 3176SOL    HW110427   0.686   4.898   6.430
 3176SOL    HW210428   0.765   5.032   6.480
 3177SOL     OW10429   6.973   0.233   5.016
 3177SOL    HW110430   6.883   0.275   5.008
 3177SOL    HW210431   7.001   0.195   4.928
 3178SOL     OW10432   1.639   3.137   1.474
 3178SOL    HW110433   1.738   3.148   1.476
 3178SOL    HW210434   1.596   3.216   1.517
 3179SOL     OW10435   1.569   2.084   3.030
 3179SOL    HW110436   1.550   2.088   2.932
 3179SOL    HW210437   1.577   1.989   3.059
 3180SOL     OW10438   5.952   0.877   5.854
 3180SOL    HW110439   5.903   0.959   5.825
 3180SOL    HW210440   6.049   0.898   5.865
 3181SOL     OW10441   0.579   2.123   3.060
 3181SOL    HW110442   0.545   2.200   3.005
 3181SOL    HW210443   0.508   2.094   3.124
 3182SOL     OW10444   1.382   4.641   5.037
 3182SOL    HW110445   1.347   4.676   5.124
 3182SOL    HW210446   1.425   4.552   5.053
 3183SOL     OW10447   3.996   3.363   1.147
 3183SOL    HW110448   4.055   3.285   1.127
 3183SOL    HW210449   4.035   3.415   1.223
 3184SOL     OW10450   2.813   1.089   2.898
 3184SOL    HW110451   2.770   1.024   2.960
 3184SOL    HW210452   2.882   1.142   2.948
 3185SOL     OW10453   6.807   6.423   5.795
 3185SOL    HW110454   6.880   6.382   5.849
 3185SOL    HW210455   6.847   6.475   5.719
 3186SOL     OW10456   3.419   0.473   1.447
 3186SOL    HW110457   3.355   0.406   1.487
 3186SOL    HW210458   3.498   0.483   1.507
 3187SOL     OW10459   3.378   4.711   6.922
 3187SOL    HW110460   3.305   4.770   6.888
 3187SOL    HW210461   3.389   4.632   6.862
 3188SOL     OW10462   4.196   6.985   3.122
 3188SOL    HW110463   4.160   6.894   3.103
 3188SOL    HW210464   4.128   0.031   3.095
 3189SOL     OW10465   0.931   0.270   1.837
 3189SOL    HW110466   1.030   0.282   1.845
 3189SOL    HW210467   0.885   0.358   1.849
 3190SOL     OW10468   0.585   6.475   1.948
 3190SOL    HW110469   0.673   6.446   1.986
 3190SOL    HW210470   0.576   6.441   1.854
 3191SOL     OW10471   3.343   0.484   0.830
 3191SOL    HW110472   3.270   0.502   0.896
 3191SOL    HW210473   3.372   0.570   0.789
 3192SOL     OW10474   6.467   2.535   3.397
 3192SOL    HW110475   6.458   2.435   3.396
 3192SOL    HW210476   6.419   2.574   3.319
 3193SOL     OW10477   4.732   3.934   0.150
 3193SOL    HW110478   4.648   3.987   0.160
 3193SOL    HW210479   4.710   3.842   0.119
 3194SOL     OW10480   1.317   4.040   5.574
 3194SOL    HW110481   1.228   3.995   5.581
 3194SOL    HW210482   1.305   4.139   5.580
 3195SOL     OW10483   0.422   3.782   3.344
 3195SOL    HW110484   0.473   3.699   3.324
 3195SOL    HW210485   0.352   3.797   3.273
 3196SOL     OW10486   0.392   6.857   5.389
 3196SOL    HW110487   0.402   6.767   5.430
 3196SOL    HW210488   0.386   6.926   5.461
 3197SOL     OW10489   1.012   4.208   3.950
 3197SOL    HW110490   0.914   4.199   3.931
 3197SOL    HW210491   1.047   4.290   3.905
 3198SOL     OW10492   6.759   1.036   0.087
 3198SOL    HW110493   6.726   1.117   0.039
 3198SOL    HW210494   6.790   1.061   0.178
 3199SOL     OW10495   3.757   2.034   2.752
 3199SOL    HW110496   3.791   1.951   2.709
 3199SOL    HW210497   3.677   2.067   2.703
 3200SOL     OW10498   6.849   2.247   0.789
 3200SOL    HW110499   6.921   2.215   0.851
 3200SOL    HW210500   6.849   2.347   0.786
 3201SOL     OW10501   4.755   4.301   3.243
 3201SOL    HW110502   4.800   4.212   3.242
 3201SOL    HW210503   4.693   4.306   3.321
 3202SOL     OW10504   2.223   5.865   1.378
 3202SOL    HW110505   2.163   5.928   1.426
 3202SOL    HW210506   2.197   5.771   1.400
 3203SOL     OW10507   6.408   0.175   1.897
 3203SOL    HW110508   6.410   0.270   1.925
 3203SOL    HW210509   6.324   0.132   1.930
 3204SOL     OW10510   5.942   5.555   1.875
 3204SOL    HW110511   5.912   5.602   1.958
 3204SOL    HW210512   5.867   5.499   1.840
 3205SOL     OW10513   1.398   4.004   2.866
 3205SOL    HW110514   1.495   3.983   2.866
 3205SOL    HW210515   1.369   4.031   2.958
 3206SOL     OW10516   1.777   6.773   0.465
 3206SOL    HW110517   1.772   6.853   0.525
 3206SOL    HW210518   1.717   6.787   0.386
 3207SOL     OW10519   0.905   0.953   3.930
 3207SOL    HW110520   0.940   1.016   3.999
 3207SOL    HW210521   0.931   0.985   3.839
 3208SOL     OW10522   6.220   0.343   5.477
 3208SOL    HW110523   6.148   0.372   5.414
 3208SOL    HW210524   6.277   0.422   5.501
 3209SOL     OW10525   2.769   0.418   3.126
 3209SOL    HW110526   2.739   0.333   3.084
 3209SOL    HW210527   2.776   0.406   3.225
 3210SOL     OW10528   6.792   4.840   3.305
 3210SOL    HW110529   6.734   4.759   3.319
 3210SOL    HW210530   6.817   4.879   3.393
 3211SOL     OW10531   1.107   4.420   2.122
 3211SOL    HW110532   1.100   4.452   2.217
 3211SOL    HW210533   1.204   4.419   2.095
 3212SOL     OW10534   5.047   2.586   5.532
 3212SOL    HW110535   5.131   2.639   5.543
 3212SOL    HW210536   4.969   2.649   5.525
 3213SOL     OW10537   5.406   6.077   1.682
 3213SOL    HW110538   5.495   6.094   1.639
 3213SOL    HW210539   5.339   6.141   1.647
 3214SOL     OW10540   4.026   4.547   5.949
 3214SOL    HW110541   3.998   4.579   5.858
 3214SOL    HW210542   4.020   4.447   5.953
 3215SOL     OW10543   5.969   1.670   0.389
 3215SOL    HW110544   6.059   1.662   0.344
 3215SOL    HW210545   5.961   1.759   0.432
 3216SOL     OW10546   5.754   6.839   4.641
 3216SOL    HW110547   5.833   6.862   4.584
 3216SOL    HW210548   5.720   6.749   4.616
 3217SOL     OW10549   6.780   4.139   0.397
 3217SOL    HW110550   6.684   4.163   0.383
 3217SOL    HW210551   6.787   4.041   0.416
 3218SOL     OW10552   3.139   1.037   1.922
 3218SOL    HW110553   3.047   1.073   1.909
 3218SOL    HW210554   3.202   1.083   1.860
 3219SOL     OW10555   6.952   6.802   3.793
 3219SOL    HW110556   6.885   6.738   3.756
 3219SOL    HW210557   6.922   6.833   3.883
 3220SOL     OW10558   5.974   2.990   5.015
 3220SOL    HW110559   6.007   2.975   5.109
 3220SOL    HW210560   5.874   2.985   5.013
 3221SOL     OW10561   3.709   6.930   2.418
 3221SOL    HW110562   3.807   6.927   2.396
 3221SOL    HW210563   3.686   7.021   2.452
 3222SOL     OW10564   6.076   3.208   2.748
 3222SOL    HW110565   6.082   3.177   2.843
 3222SOL    HW210566   5.980   3.215   2.722
 3223SOL     OW10567   2.390   4.783   4.615
 3223SOL    HW110568   2.454   4.713   4.649
 3223SOL    HW210569   2.422   4.818   4.528
 3224SOL     OW10570   3.797   5.613   1.128
 3224SOL    HW110571   3.766   5.554   1.203
 3224SOL    HW210572   3.720   5.668   1.096
 3225SOL     OW10573   1.965   2.676   1.359
 3225SOL    HW110574   1.983   2.591   1.409
 3225SOL    HW210575   2.015   2.675   1.272
 3226SOL     OW10576   0.069   0.840   4.319
 3226SOL    HW110577   0.099   0.901   4.246
 3226SOL    HW210578   0.057   0.748   4.283
 3227SOL     OW10579   2.256   1.158   5.252
 3227SOL    HW110580   2.317   1.117   5.184
 3227SOL    HW210581   2.301   1.239   5.292
 3228SOL     OW10582   5.141   3.121   4.750
 3228SOL    HW110583   5.163   3.086   4.841
 3228SOL    HW210584   5.214   3.097   4.686
 3229SOL     OW10585   3.753   2.058   5.016
 3229SOL    HW110586   3.830   2.121   5.025
 3229SOL    HW210587   3.699   2.082   4.935
 3230SOL     OW10588   1.742   0.539   4.064
 3230SOL    HW110589   1.661   0.589   4.095
 3230SOL    HW210590   1.822   0.570   4.115
 3231SOL     OW10591   5.415   5.452   0.602
 3231SOL    HW110592   5.344   5.431   0.534
 3231SOL    HW210593   5.371   5.482   0.687
 3232SOL     OW10594   2.243   4.192   3.327
 3232SOL    HW110595   2.321   4.253   3.341
 3232SOL    HW210596   2.230   4.136   3.409
 3233SOL     OW10597   1.476   4.155   1.089
 3233SOL    HW110598   1.574   4.154   1.108
 3233SOL    HW210599   1.444   4.062   1.072
 3234SOL     OW10600   6.304   1.705   4.714
 3234SOL    HW110601   6.360   1.735   4.792
 3234SOL    HW210602   6.234   1.641   4.746
 3235SOL     OW10603   5.647   0.792   2.964
 3235SOL    HW110604   5.549   0.773   2.967
 3235SOL    HW210605   5.699   0.708   2.976
 3236SOL     OW10606   0.793   2.437   1.936
 3236SOL    HW110607   0.695   2.453   1.926
 3236SOL    HW210608   0.827   2.385   1.856
 3237SOL     OW10609   3.279   6.443   4.467
 3237SOL    HW110610   3.253   6.536   4.496
 3237SOL    HW210611   3.299   6.388   4.547
 3238SOL     OW10612   5.753   6.456   6.510
 3238SOL    HW110613   5.708   6.369   6.491
 3238SOL    HW210614   5.691   6.531   6.487
 3239SOL     OW10615   0.345   6.419   5.872
 3239SOL    HW110616   0.284   6.366   5.813
 3239SOL    HW210617   0.432   6.371   5.881
 3240SOL     OW10618   0.461   1.414   4.859
 3240SOL    HW110619   0.441   1.319   4.880
 3240SOL    HW210620   0.404   1.445   4.783
 3241SOL     OW10621   4.971   0.751   5.289
 3241SOL    HW110622   4.977   0.655   5.262
 3241SOL    HW210623   4.893   0.793   5.244
 3242SOL     OW10624   2.975   6.412   0.875
 3242SOL    HW110625   3.055   6.416   0.817
 3242SOL    HW210626   3.001   6.378   0.966
 3243SOL     OW10627   3.586   5.309   0.202
 3243SOL    HW110628   3.524   5.246   0.154
 3243SOL    HW210629   3.555   5.320   0.297
 3244SOL     OW10630   1.762   6.382   5.490
 3244SOL    HW110631   1.798   6.330   5.567
 3244SOL    HW210632   1.663   6.388   5.497
 3245SOL     OW10633   2.558   2.231   5.891
 3245SOL    HW110634   2.611   2.316   5.894
 3245SOL    HW210635   2.616   2.155   5.921
 3246SOL     OW10636   5.395   6.303   3.523
 3246SOL    HW110637   5.442   6.234   3.467
 3246SOL    HW210638   5.461   6.371   3.554
 3247SOL     OW10639   6.502   1.756   4.893
 3247SOL    HW110640   6.590   1.708   4.905
 3247SOL    HW210641   6.516   1.854   4.905
 3248SOL     OW10642   5.475   3.852   2.536
 3248SOL    HW110643   5.543   3.795   2.491
 3248SOL    HW210644   5.509   3.946   2.541
 3249SOL     OW10645   2.901   4.343   5.337
 3249SOL    HW110646   2.814   4.296   5.319
 3249SOL    HW210647   2.917   4.411   5.265
 3250SOL     OW10648   4.576   6.120   1.320
 3250SOL    HW110649   4.618   6.037   1.356
 3250SOL    HW210650   4.555   6.182   1.395
 3251SOL     OW10651   3.837   1.181   3.678
 3251SOL    HW110652   3.794   1.191   3.589
 3251SOL    HW210653   3.882   1.267   3.704
 3252SOL     OW10654   3.172   2.155   3.847
 3252SOL    HW110655   3.125   2.200   3.770
 3252SOL    HW210656   3.106   2.105   3.902
 3253SOL     OW10657   4.145   3.633   0.918
 3253SOL    HW110658   4.235   3.592   0.934
 3253SOL    HW210659   4.113   3.679   1.001
 3254SOL     OW10660   4.779   4.788   2.666
 3254SOL    HW110661   4.696   4.837   2.640
 3254SOL    HW210662   4.858   4.849   2.655
 3255SOL     OW10663   3.807   4.697   1.224
 3255SOL    HW110664   3.880   4.631   1.245
 3255SOL    HW210665   3.816   4.776   1.285
 3256SOL     OW10666   5.816   6.435   6.072
 3256SOL    HW110667   5.903   6.455   6.028
 3256SOL    HW210668   5.741   6.471   6.018
 3257SOL     OW10669   2.275   2.126   0.969
 3257SOL    HW110670   2.334   2.091   0.896
 3257SOL    HW210671   2.217   2.199   0.932
 3258SOL     OW10672   5.474   6.998   1.370
 3258SOL    HW110673   5.540   6.958   1.433
 3258SOL    HW210674   5.453   0.069   1.399
 3259SOL     OW10675   6.083   6.679   3.250
 3259SOL    HW110676   6.173   6.643   3.227
 3259SOL    HW210677   6.033   6.613   3.306
 3260SOL     OW10678   1.366   3.257   0.333
 3260SOL    HW110679   1.370   3.211   0.421
 3260SOL    HW210680   1.280   3.308   0.326
 3261SOL     OW10681   4.551   0.061   3.687
 3261SOL    HW110682   4.578   0.089   3.779
 3261SOL    HW210683   4.473   7.021   3.693
 3262SOL     OW10684   4.241   1.405   4.712
 3262SOL    HW110685   4.249   1.446   4.621
 3262SOL    HW210686   4.159   1.441   4.757
 3263SOL     OW10687   3.598   5.472   2.720
 3263SOL    HW110688   3.547   5.493   2.803
 3263SOL    HW210689   3.591   5.550   2.657
 3264SOL     OW10690   4.584   4.384   5.639
 3264SOL    HW110691   4.507   4.422   5.690
 3264SOL    HW210692   4.603   4.440   5.559
 3265SOL     OW10693   5.414   0.641   6.804
 3265SOL    HW110694   5.489   0.706   6.813
 3265SOL    HW210695   5.347   0.677   6.739
 3266SOL     OW10696   0.364   2.049   6.733
 3266SOL    HW110697   0.459   2.020   6.743
 3266SOL    HW210698   0.307   1.997   6.796
 3267SOL     OW10699   5.038   2.382   1.276
 3267SOL    HW110700   5.023   2.478   1.253
 3267SOL    HW210701   5.072   2.375   1.370
 3268SOL     OW10702   1.375   4.678   6.490
 3268SOL    HW110703   1.474   4.682   6.478
 3268SOL    HW210704   1.350   4.597   6.542
 3269SOL     OW10705   4.604   3.710   0.909
 3269SOL    HW110706   4.662   3.733   0.987
 3269SOL    HW210707   4.536   3.642   0.936
 3270SOL     OW10708   0.582   5.533   4.306
 3270SOL    HW110709   0.495   5.540   4.257
 3270SOL    HW210710   0.589   5.442   4.346
 3271SOL     OW10711   5.107   1.046   1.740
 3271SOL    HW110712   5.191   1.061   1.792
 3271SOL    HW210713   5.042   0.994   1.796
 3272SOL     OW10714   4.839   0.137   7.007
 3272SOL    HW110715   4.848   0.121   0.083
 3272SOL    HW210716   4.797   0.227   6.992
 3273SOL     OW10717   1.124   6.834   3.337
 3273SOL    HW110718   1.190   6.769   3.300
 3273SOL    HW210719   1.081   6.885   3.262
 3274SOL     OW10720   3.351   2.099   6.831
 3274SOL    HW110721   3.282   2.098   6.903
 3274SOL    HW210722   3.390   2.007   6.821
 3275SOL     OW10723   4.240   0.665   0.572
 3275SOL    HW110724   4.179   0.634   0.499
 3275SOL    HW210725   4.285   0.750   0.545
 3276SOL     OW10726   2.030   6.295   0.199
 3276SOL    HW110727   2.054   6.197   0.203
 3276SOL    HW210728   1.940   6.309   0.239
 3277SOL     OW10729   0.090   6.008   5.434
 3277SOL    HW110730   0.086   6.093   5.383
 3277SOL    HW210731   0.126   6.026   5.526
 3278SOL     OW10732   0.983   1.281   0.415
 3278SOL    HW110733   1.057   1.252   0.476
 3278SOL    HW210734   0.984   1.225   0.332
 3279SOL     OW10735   2.274   6.123   1.451
 3279SOL    HW110736   2.253   6.186   1.377
 3279SOL    HW210737   2.306   6.036   1.413
 3280SOL     OW10738   2.622   5.537   4.912
 3280SOL    HW110739   2.565   5.474   4.965
 3280SOL    HW210740   2.566   5.583   4.843
 3281SOL     OW10741   2.317   6.260   0.703
 3281SOL    HW110742   2.381   6.298   0.769
 3281SOL    HW210743   2.336   6.297   0.612
 3282SOL     OW10744   2.159   5.807   2.589
 3282SOL    HW110745   2.139   5.732   2.651
 3282SOL    HW210746   2.102   5.799   2.507
 3283SOL     OW10747   1.914   0.059   4.146
 3283SOL    HW110748   1.994   7.022   4.142
 3283SOL    HW210749   1.891   0.079   4.241
 3284SOL     OW10750   1.070   4.425   5.906
 3284SOL    HW110751   1.131   4.395   5.980
 3284SOL    HW210752   1.115   4.412   5.818
 3285SOL     OW10753   0.335   2.298   4.690
 3285SOL    HW110754   0.434   2.286   4.686
 3285SOL    HW210755   0.306   2.302   4.786
 3286SOL     OW10756   4.169   4.833   5.533
 3286SOL    HW110757   4.116   4.840   5.617
 3286SOL    HW210758   4.183   4.924   5.495
 3287SOL     OW10759   0.106   4.269   1.862
 3287SOL    HW110760   0.032   4.271   1.795
 3287SOL    HW210761   0.155   4.356   1.861
 3288SOL     OW10762   1.566   6.382   6.344
 3288SOL    HW110763   1.482   6.365   6.396
 3288SOL    HW210764   1.645   6.350   6.396
 3289SOL     OW10765   1.002   5.427   4.842
 3289SOL    HW110766   0.986   5.387   4.751
 3289SOL    HW210767   1.010   5.353   4.909
 3290SOL     OW10768   0.109   4.500   3.253
 3290SOL    HW110769   0.104   4.482   3.351
 3290SOL    HW210770   0.112   4.413   3.203
 3291SOL     OW10771   1.800   6.919   1.632
 3291SOL    HW110772   1.729   6.957   1.574
 3291SOL    HW210773   1.789   6.820   1.640
 3292SOL     OW10774   0.619   5.344   4.918
 3292SOL    HW110775   0.618   5.436   4.877
 3292SOL    HW210776   0.548   5.339   4.988
 3293SOL     OW10777   6.358   0.723   2.303
 3293SOL    HW110778   6.437   0.782   2.287
 3293SOL    HW210779   6.282   0.754   2.245
 3294SOL     OW10780   0.787   0.047   0.952
 3294SOL    HW110781   0.699   0.088   0.929
 3294SOL    HW210782   0.840   0.036   0.868
 3295SOL     OW10783   1.486   2.059   6.145
 3295SOL    HW110784   1.547   1.994   6.100
 3295SOL    HW210785   1.498   2.149   6.103
 3296SOL     OW10786   0.796   6.600   2.278
 3296SOL    HW110787   0.805   6.530   2.208
 3296SOL    HW210788   0.884   6.613   2.324
 3297SOL     OW10789   2.848   1.575   6.042
 3297SOL    HW110790   2.815   1.650   6.100
 3297SOL    HW210791   2.936   1.601   6.002
 3298SOL     OW10792   6.572   4.026   2.898
 3298SOL    HW110793   6.533   3.936   2.876
 3298SOL    HW210794   6.662   4.034   2.857
 3299SOL     OW10795   1.050   0.999   5.022
 3299SOL    HW110796   1.016   0.962   4.935
 3299SOL    HW210797   1.068   0.923   5.085
 3300SOL     OW10798   0.248   0.350   4.965
 3300SOL    HW110799   0.221   0.391   5.052
 3300SOL    HW210800   0.170   0.304   4.923
 3301SOL     OW10801   0.225   3.553   2.555
 3301SOL    HW110802   0.278   3.556   2.640
 3301SOL    HW210803   0.251   3.630   2.497
 3302SOL     OW10804   1.002   5.626   5.020
 3302SOL    HW110805   0.990   5.556   4.949
 3302SOL    HW210806   1.098   5.631   5.046
 3303SOL     OW10807   3.004   3.839   3.517
 3303SOL    HW110808   2.955   3.810   3.599
 3303SOL    HW210809   2.971   3.786   3.438
 3304SOL     OW10810   1.755   0.756   3.461
 3304SOL    HW110811   1.852   0.782   3.460
 3304SOL    HW210812   1.715   0.775   3.371
 3305SOL     OW10813   0.857   2.158   0.877
 3305SOL    HW110814   0.805   2.237   0.909
 3305SOL    HW210815   0.918   2.185   0.803
 3306SOL     OW10816   0.846   3.347   1.982
 3306SOL    HW110817   0.911   3.271   1.987
 3306SOL    HW210818   0.810   3.354   1.889
 3307SOL     OW10819   0.590   6.324   1.036
 3307SOL    HW110820   0.624   6.305   1.128
 3307SOL    HW210821   0.498   6.285   1.025
 3308SOL     OW10822   5.865   6.705   0.610
 3308SOL    HW110823   5.843   6.724   0.514
 3308SOL    HW210824   5.926   6.777   0.645
 3309SOL     OW10825   1.524   5.416   2.115
 3309SOL    HW110826   1.548   5.330   2.161
 3309SOL    HW210827   1.576   5.424   2.030
 3310SOL     OW10828   1.423   6.402   2.341
 3310SOL    HW110829   1.456   6.363   2.255
 3310SOL    HW210830   1.497   6.456   2.383
 3311SOL     OW10831   4.101   6.361   1.258
 3311SOL    HW110832   4.080   6.441   1.202
 3311SOL    HW210833   4.020   6.332   1.308
 3312SOL     OW10834   2.090   3.437   6.870
 3312SOL    HW110835   1.991   3.438   6.856
 3312SOL    HW210836   2.128   3.353   6.832
 3313SOL     OW10837   6.465   6.371   5.216
 3313SOL    HW110838   6.507   6.383   5.126
 3313SOL    HW210839   6.374   6.332   5.206
 3314SOL     OW10840   0.058   3.556   6.923
 3314SOL    HW110841   0.091   3.571   7.016
 3314SOL    HW210842   0.126   3.588   6.858
 3315SOL     OW10843   6.301   3.832   3.291
 3315SOL    HW110844   6.290   3.805   3.387
 3315SOL    HW210845   6.395   3.812   3.262
 3316SOL     OW10846   4.652   1.349   0.407
 3316SOL    HW110847   4.570   1.377   0.358
 3316SOL    HW210848   4.672   1.416   0.479
 3317SOL     OW10849   4.125   2.856   1.686
 3317SOL    HW110850   4.185   2.914   1.631
 3317SOL    HW210851   4.162   2.763   1.688
 3318SOL     OW10852   2.541   5.038   4.761
 3318SOL    HW110853   2.573   4.983   4.683
 3318SOL    HW210854   2.599   5.120   4.770
 3319SOL     OW10855   6.793   6.033   6.587
 3319SOL    HW110856   6.721   6.097   6.614
 3319SOL    HW210857   6.762   5.940   6.604
 3320SOL     OW10858   0.769   0.890   6.673
 3320SOL    HW110859   0.798   0.958   6.606
 3320SOL    HW210860   0.770   0.799   6.630
 3321SOL     OW10861   3.831   3.881   4.270
 3321SOL    HW110862   3.798   3.867   4.176
 3321SOL    HW210863   3.832   3.978   4.291
 3322SOL     OW10864   4.445   2.752   1.353
 3322SOL    HW110865   4.447   2.848   1.382
 3322SOL    HW210866   4.371   2.738   1.287
 3323SOL     OW10867   2.858   4.848   6.926
 3323SOL    HW110868   2.773   4.883   6.964
 3323SOL    HW210869   2.839   4.791   6.846
 3324SOL     OW10870   6.183   3.251   1.542
 3324SOL    HW110871   6.161   3.241   1.639
 3324SOL    HW210872   6.229   3.168   1.510
 3325SOL     OW10873   0.935   3.406   6.057
 3325SOL    HW110874   0.891   3.484   6.011
 3325SOL    HW210875   0.990   3.440   6.133
 3326SOL     OW10876   6.587   0.716   1.525
 3326SOL    HW110877   6.654   0.786   1.549
 3326SOL    HW210878   6.570   0.657   1.603
 3327SOL     OW10879   4.134   6.171   1.478
 3327SOL    HW110880   4.163   6.263   1.504
 3327SOL    HW210881   4.038   6.172   1.452
 3328SOL     OW10882   5.524   0.237   3.786
 3328SOL    HW110883   5.501   0.259   3.881
 3328SOL    HW210884   5.612   0.279   3.763
 3329SOL     OW10885   5.490   0.736   6.345
 3329SOL    HW110886   5.523   0.766   6.435
 3329SOL    HW210887   5.543   0.779   6.273
 3330SOL     OW10888   0.192   6.482   3.264
 3330SOL    HW110889   0.170   6.437   3.351
 3330SOL    HW210890   0.172   6.580   3.271
 3331SOL     OW10891   1.245   3.620   2.851
 3331SOL    HW110892   1.307   3.677   2.905
 3331SOL    HW210893   1.297   3.547   2.806
 3332SOL     OW10894   3.132   5.012   0.129
 3332SOL    HW110895   3.053   5.068   0.102
 3332SOL    HW210896   3.102   4.937   0.187
 3333SOL     OW10897   2.292   3.175   1.783
 3333SOL    HW110898   2.273   3.256   1.840
 3333SOL    HW210899   2.391   3.161   1.778
 3334SOL     OW10900   1.837   2.039   1.995
 3334SOL    HW110901   1.874   1.993   2.076
 3334SOL    HW210902   1.743   2.068   2.013
 3335SOL     OW10903   3.799   4.177   5.080
 3335SOL    HW110904   3.750   4.236   5.016
 3335SOL    HW210905   3.759   4.187   5.172
 3336SOL     OW10906   4.736   5.890   5.225
 3336SOL    HW110907   4.720   5.792   5.213
 3336SOL    HW210908   4.715   5.938   5.140
 3337SOL     OW10909   3.637   2.895   2.854
 3337SOL    HW110910   3.663   2.970   2.915
 3337SOL    HW210911   3.571   2.836   2.901
 3338SOL     OW10912   2.690   3.370   1.189
 3338SOL    HW110913   2.740   3.290   1.223
 3338SOL    HW210914   2.708   3.448   1.249
 3339SOL     OW10915   1.510   0.239   6.738
 3339SOL    HW110916   1.576   0.307   6.768
 3339SOL    HW210917   1.555   0.171   6.680
 3340SOL     OW10918   3.745   0.961   5.546
 3340SOL    HW110919   3.792   0.872   5.553
 3340SOL    HW210920   3.798   1.030   5.596
 3341SOL     OW10921   1.241   4.535   1.833
 3341SOL    HW110922   1.323   4.525   1.889
 3341SOL    HW210923   1.200   4.625   1.850
 3342SOL     OW10924   6.399   0.855   2.584
 3342SOL    HW110925   6.496   0.869   2.602
 3342SOL    HW210926   6.387   0.820   2.491
 3343SOL     OW10927   4.152   5.687   0.400
 3343SOL    HW110928   4.056   5.701   0.424
 3343SOL    HW210929   4.158   5.651   0.307
 3344SOL     OW10930   1.000   3.418   1.670
 3344SOL    HW110931   1.026   3.322   1.661
 3344SOL    HW210932   1.058   3.462   1.738
 3345SOL     OW10933   5.833   5.418   1.278
 3345SOL    HW110934   5.921   5.463   1.264
 3345SOL    HW210935   5.827   5.339   1.217
 3346SOL     OW10936   1.763   0.420   0.066
 3346SOL    HW110937   1.801   0.511   0.048
 3346SOL    HW210938   1.836   0.352   0.066
 3347SOL     OW10939   0.748   3.783   5.396
 3347SOL    HW110940   0.759   3.714   5.468
 3347SOL    HW210941   0.756   3.874   5.435
 3348SOL     OW10942   3.618   4.184   6.047
 3348SOL    HW110943   3.713   4.157   6.065
 3348SOL    HW210944   3.609   4.283   6.058
 3349SOL     OW10945   2.263   5.516   2.329
 3349SOL    HW110946   2.232   5.490   2.420
 3349SOL    HW210947   2.223   5.604   2.303
 3350SOL     OW10948   1.536   4.905   4.259
 3350SOL    HW110949   1.535   4.967   4.337
 3350SOL    HW210950   1.457   4.844   4.264
 3351SOL     OW10951   5.676   1.064   1.989
 3351SOL    HW110952   5.734   1.011   1.927
 3351SOL    HW210953   5.710   1.055   2.083
 3352SOL     OW10954   5.603   1.674   6.804
 3352SOL    HW110955   5.622   1.580   6.834
 3352SOL    HW210956   5.548   1.671   6.721
 3353SOL     OW10957   3.964   0.416   0.090
 3353SOL    HW110958   3.905   0.359   0.147
 3353SOL    HW210959   3.908   0.477   0.034
 3354SOL     OW10960   2.839   3.884   6.964
 3354SOL    HW110961   2.811   3.979   6.953
 3354SOL    HW210962   2.757   3.826   6.968
 3355SOL     OW10963   1.313   0.162   4.862
 3355SOL    HW110964   1.254   0.149   4.942
 3355SOL    HW210965   1.289   0.248   4.817
 3356SOL     OW10966   2.088   0.741   6.718
 3356SOL    HW110967   2.000   0.730   6.764
 3356SOL    HW210968   2.156   0.681   6.760
 3357SOL     OW10969   3.371   3.125   2.983
 3357SOL    HW110970   3.328   3.191   3.045
 3357SOL    HW210971   3.454   3.165   2.944
 3358SOL     OW10972   0.176   0.846   1.849
 3358SOL    HW110973   0.150   0.754   1.878
 3358SOL    HW210974   0.270   0.845   1.815
 3359SOL     OW10975   1.196   6.505   4.875
 3359SOL    HW110976   1.190   6.600   4.844
 3359SOL    HW210977   1.285   6.468   4.852
 3360SOL     OW10978   1.905   4.904   3.873
 3360SOL    HW110979   1.871   4.811   3.883
 3360SOL    HW210980   1.990   4.915   3.926
 3361SOL     OW10981   6.489   6.702   5.512
 3361SOL    HW110982   6.446   6.783   5.472
 3361SOL    HW210983   6.451   6.686   5.603
 3362SOL     OW10984   3.864   0.501   3.950
 3362SOL    HW110985   3.910   0.549   4.025
 3362SOL    HW210986   3.927   0.435   3.910
 3363SOL     OW10987   5.620   4.417   0.250
 3363SOL    HW110988   5.677   4.494   0.221
 3363SOL    HW210989   5.559   4.391   0.175
 3364SOL     OW10990   1.612   3.176   2.009
 3364SOL    HW110991   1.587   3.244   1.941
 3364SOL    HW210992   1.701   3.199   2.049
 3365SOL     OW10993   0.925   3.476   3.008
 3365SOL    HW110994   0.956   3.557   2.957
 3365SOL    HW210995   0.828   3.485   3.029
 3366SOL     OW10996   5.871   3.220   4.762
 3366SOL    HW110997   5.938   3.178   4.702
 3366SOL    HW210998   5.862   3.317   4.740
 3367SOL     OW10999   3.419   2.942   3.827
 3367SOL    HW111000   3.378   2.921   3.916
 3367SOL    HW211001   3.377   3.024   3.789
 3368SOL     OW11002   3.299   0.708   2.787
 3368SOL    HW111003   3.386   0.698   2.836
 3368SOL    HW211004   3.281   0.804   2.771
 3369SOL     OW11005   5.041   2.477   0.855
 3369SOL    HW111006   5.102   2.401   0.833
 3369SOL    HW211007   5.092   2.563   0.855
 3370SOL     OW11008   0.216   5.332   2.692
 3370SOL    HW111009   0.198   5.360   2.786
 3370SOL    HW211010   0.280   5.256   2.692
 3371SOL     OW11011   1.959   3.042   1.647
 3371SOL    HW111012   2.057   3.026   1.651
 3371SOL    HW211013   1.921   2.996   1.567
 3372SOL     OW11014   5.714   3.596   3.244
 3372SOL    HW111015   5.698   3.537   3.165
 3372SOL    HW211016   5.686   3.548   3.327
 3373SOL     OW11017   0.194   4.067   1.672
 3373SOL    HW111018   0.121   3.998   1.673
 3373SOL    HW211019   0.179   4.131   1.747
 3374SOL     OW11020   0.918   6.355   3.811
 3374SOL    HW111021   0.929   6.263   3.774
 3374SOL    HW211022   0.960   6.421   3.749
 3375SOL     OW11023   0.200   5.741   6.198
 3375SOL    HW111024   0.110   5.755   6.158
 3375SOL    HW211025   0.232   5.826   6.241
 3376SOL     OW11026   3.226   3.247   4.521
 3376SOL    HW111027   3.195   3.217   4.612
 3376SOL    HW211028   3.325   3.230   4.513
 3377SOL     OW11029   6.853   5.123   4.432
 3377SOL    HW111030   6.923   5.142   4.501
 3377SOL    HW211031   6.805   5.038   4.455
 3378SOL     OW11032   1.393   5.852   1.077
 3378SOL    HW111033   1.338   5.896   1.005
 3378SOL    HW211034   1.414   5.758   1.050
 3379SOL     OW11035   6.288   4.000   4.383
 3379SOL    HW111036   6.264   4.025   4.476
 3379SOL    HW211037   6.296   4.082   4.326
 3380SOL     OW11038   2.401   4.881   0.856
 3380SOL    HW111039   2.371   4.793   0.821
 3380SOL    HW211040   2.484   4.869   0.910
 3381SOL     OW11041   2.649   3.774   6.027
 3381SOL    HW111042   2.734   3.796   5.979
 3381SOL    HW211043   2.587   3.852   6.020
 3382SOL     OW11044   6.480   4.159   6.966
 3382SOL    HW111045   6.567   4.116   6.988
 3382SOL    HW211046   6.426   4.170   0.027
 3383SOL     OW11047   3.781   5.446   0.374
 3383SOL    HW111048   3.807   5.537   0.407
 3383SOL    HW211049   3.745   5.454   0.281
 3384SOL     OW11050   2.588   3.095   6.499
 3384SOL    HW111051   2.545   3.133   6.581
 3384SOL    HW211052   2.520   3.043   6.447
 3385SOL     OW11053   6.332   2.369   4.321
 3385SOL    HW111054   6.233   2.357   4.332
 3385SOL    HW211055   6.377   2.280   4.328
 3386SOL     OW11056   0.035   5.952   4.452
 3386SOL    HW111057   6.987   5.889   4.484
 3386SOL    HW211058   0.098   5.972   4.527
 3387SOL     OW11059   6.068   1.058   3.381
 3387SOL    HW111060   6.040   0.971   3.340
 3387SOL    HW211061   5.991   1.122   3.379
 3388SOL     OW11062   6.693   3.820   0.882
 3388SOL    HW111063   6.716   3.730   0.844
 3388SOL    HW211064   6.669   3.882   0.807
 3389SOL     OW11065   5.910   5.416   6.546
 3389SOL    HW111066   5.932   5.349   6.617
 3389SOL    HW211067   5.870   5.369   6.467
 3390SOL     OW11068   2.846   5.516   0.055
 3390SOL    HW111069   2.789   5.543   6.999
 3390SOL    HW211070   2.941   5.510   0.025
 3391SOL     OW11071   4.908   4.041   4.921
 3391SOL    HW111072   4.914   3.942   4.934
 3391SOL    HW211073   4.875   4.061   4.829
 3392SOL     OW11074   4.318   6.401   6.401
 3392SOL    HW111075   4.416   6.399   6.425
 3392SOL    HW211076   4.269   6.337   6.460
 3393SOL     OW11077   3.848   6.303   0.768
 3393SOL    HW111078   3.751   6.313   0.790
 3393SOL    HW211079   3.859   6.239   0.692
 3394SOL     OW11080   3.275   5.376   1.950
 3394SOL    HW111081   3.260   5.282   1.921
 3394SOL    HW211082   3.264   5.383   2.049
 3395SOL     OW11083   2.033   6.655   2.794
 3395SOL    HW111084   2.006   6.559   2.807
 3395SOL    HW211085   1.961   6.715   2.830
 3396SOL     OW11086   4.688   0.126   3.950
 3396SOL    HW111087   4.751   0.050   3.970
 3396SOL    HW211088   4.646   0.157   4.035
 3397SOL     OW11089   2.340   5.704   0.137
 3397SOL    HW111090   2.251   5.662   0.116
 3397SOL    HW211091   2.363   5.770   0.066
 3398SOL     OW11092   6.834   1.704   5.779
 3398SOL    HW111093   6.851   1.641   5.855
 3398SOL    HW211094   6.900   1.687   5.706
 3399SOL     OW11095   6.562   5.904   2.265
 3399SOL    HW111096   6.528   5.993   2.233
 3399SOL    HW211097   6.588   5.848   2.186
 3400SOL     OW11098   3.602   3.270   5.504
 3400SOL    HW111099   3.557   3.204   5.443
 3400SOL    HW211100   3.551   3.356   5.502
 3401SOL     OW11101   0.156   3.664   4.203
 3401SOL    HW111102   0.194   3.723   4.273
 3401SOL    HW211103   0.133   3.718   4.122
 3402SOL     OW11104   6.171   3.661   0.799
 3402SOL    HW111105   6.185   3.601   0.877
 3402SOL    HW211106   6.137   3.608   0.721
 3403SOL     OW11107   4.989   6.664   6.582
 3403SOL    HW111108   5.028   6.745   6.626
 3403SOL    HW211109   4.928   6.692   6.508
 3404SOL     OW11110   5.060   5.444   3.654
 3404SOL    HW111111   4.976   5.416   3.702
 3404SOL    HW211112   5.036   5.510   3.582
 3405SOL     OW11113   4.010   6.137   0.050
 3405SOL    HW111114   4.070   6.187   0.113
 3405SOL    HW211115   4.034   6.040   0.051
 3406SOL     OW11116   3.430   5.311   1.510
 3406SOL    HW111117   3.465   5.351   1.425
 3406SOL    HW211118   3.336   5.279   1.495
 3407SOL     OW11119   0.807   3.787   6.796
 3407SOL    HW111120   0.808   3.887   6.798
 3407SOL    HW211121   0.898   3.752   6.774
 3408SOL     OW11122   4.654   0.241   3.492
 3408SOL    HW111123   4.574   0.292   3.460
 3408SOL    HW211124   4.624   0.157   3.538
 3409SOL     OW11125   3.899   1.412   6.768
 3409SOL    HW111126   3.917   1.510   6.753
 3409SOL    HW211127   3.986   1.364   6.776
 3410SOL     OW11128   6.429   0.643   2.814
 3410SOL    HW111129   6.391   0.668   2.903
 3410SOL    HW211130   6.444   0.725   2.760
 3411SOL     OW11131   5.984   2.840   5.671
 3411SOL    HW111132   5.920   2.887   5.611
 3411SOL    HW211133   6.053   2.905   5.703
 3412SOL     OW11134   5.573   3.420   2.578
 3412SOL    HW111135   5.481   3.428   2.542
 3412SOL    HW211136   5.632   3.374   2.511
 3413SOL     OW11137   0.020   1.826   0.475
 3413SOL    HW111138   0.040   1.896   0.406
 3413SOL    HW211139   7.018   1.740   0.428
 3414SOL     OW11140   3.698   3.536   1.931
 3414SOL    HW111141   3.610   3.496   1.904
 3414SOL    HW211142   3.765   3.463   1.943
 3415SOL     OW11143   2.184   1.674   5.423
 3415SOL    HW111144   2.140   1.613   5.489
 3415SOL    HW211145   2.229   1.749   5.472
 3416SOL     OW11146   6.468   6.858   6.391
 3416SOL    HW111147   6.470   6.808   6.478
 3416SOL    HW211148   6.543   6.925   6.390
 3417SOL     OW11149   6.357   0.239   2.598
 3417SOL    HW111150   6.341   0.140   2.591
 3417SOL    HW211151   6.367   0.264   2.694
 3418SOL     OW11152   3.860   5.354   0.799
 3418SOL    HW111153   3.905   5.442   0.815
 3418SOL    HW211154   3.927   5.280   0.813
 3419SOL     OW11155   2.546   4.558   5.026
 3419SOL    HW111156   2.636   4.601   5.025
 3419SOL    HW211157   2.537   4.503   5.109
 3420SOL     OW11158   4.797   1.282   2.461
 3420SOL    HW111159   4.785   1.343   2.540
 3420SOL    HW211160   4.889   1.293   2.424
 3421SOL     OW11161   0.046   2.032   5.053
 3421SOL    HW111162   0.086   2.006   4.965
 3421SOL    HW211163   0.053   1.956   5.117
 3422SOL     OW11164   2.972   6.573   1.293
 3422SOL    HW111165   2.956   6.611   1.384
 3422SOL    HW211166   2.927   6.630   1.225
 3423SOL     OW11167   2.828   4.209   5.635
 3423SOL    HW111168   2.782   4.133   5.680
 3423SOL    HW211169   2.815   4.201   5.536
 3424SOL     OW11170   5.083   1.042   2.204
 3424SOL    HW111171   5.127   1.131   2.215
 3424SOL    HW211172   5.094   0.988   2.288
 3425SOL     OW11173   6.415   3.357   6.207
 3425SOL    HW111174   6.463   3.386   6.125
 3425SOL    HW211175   6.318   3.345   6.186
 3426SOL     OW11176   5.935   4.282   0.158
 3426SOL    HW111177   5.890   4.278   0.068
 3426SOL    HW211178   6.032   4.305   0.145
 3427SOL     OW11179   1.747   1.916   6.701
 3427SOL    HW111180   1.724   1.923   6.798
 3427SOL    HW211181   1.846   1.922   6.689
 3428SOL     OW11182   5.276   0.127   4.878
 3428SOL    HW111183   5.346   0.173   4.823
 3428SOL    HW211184   5.291   0.028   4.874
 3429SOL     OW11185   4.323   0.224   0.875
 3429SOL    HW111186   4.340   0.133   0.839
 3429SOL    HW211187   4.245   0.265   0.827
 3430SOL     OW11188   2.466   4.206   6.283
 3430SOL    HW111189   2.420   4.244   6.363
 3430SOL    HW211190   2.399   4.157   6.227
 3431SOL     OW11191   0.824   4.478   2.472
 3431SOL    HW111192   0.802   4.398   2.417
 3431SOL    HW211193   0.761   4.484   2.549
 3432SOL     OW11194   0.511   4.730   0.218
 3432SOL    HW111195   0.502   4.633   0.193
 3432SOL    HW211196   0.597   4.743   0.267
 3433SOL     OW11197   1.291   0.921   0.211
 3433SOL    HW111198   1.262   0.999   0.156
 3433SOL    HW211199   1.391   0.920   0.216
 3434SOL     OW11200   3.641   2.595   1.745
 3434SOL    HW111201   3.589   2.588   1.660
 3434SOL    HW211202   3.651   2.504   1.785
 3435SOL     OW11203   1.725   2.328   1.115
 3435SOL    HW111204   1.712   2.342   1.213
 3435SOL    HW211205   1.739   2.230   1.097
 3436SOL     OW11206   3.589   6.943   6.391
 3436SOL    HW111207   3.628   6.957   6.482
 3436SOL    HW211208   3.648   6.986   6.323
 3437SOL     OW11209   1.389   6.587   6.949
 3437SOL    HW111210   1.346   6.544   0.005
 3437SOL    HW211211   1.460   6.651   6.980
 3438SOL     OW11212   2.495   4.167   0.785
 3438SOL    HW111213   2.398   4.155   0.806
 3438SOL    HW211214   2.509   4.153   0.687
 3439SOL     OW11215   2.936   6.329   0.512
 3439SOL    HW111216   2.972   6.388   0.440
 3439SOL    HW211217   2.933   6.380   0.598
 3440SOL     OW11218   3.452   3.485   5.470
 3440SOL    HW111219   3.367   3.445   5.437
 3440SOL    HW211220   3.435   3.578   5.503
 3441SOL     OW11221   6.738   4.905   4.520
 3441SOL    HW111222   6.661   4.846   4.545
 3441SOL    HW211223   6.813   4.892   4.585
 3442SOL     OW11224   1.743   2.790   1.007
 3442SOL    HW111225   1.682   2.730   1.060
 3442SOL    HW211226   1.768   2.870   1.062
 3443SOL     OW11227   0.598   5.805   2.313
 3443SOL    HW111228   0.667   5.821   2.242
 3443SOL    HW211229   0.575   5.708   2.315
 3444SOL     OW11230   6.725   3.699   5.863
 3444SOL    HW111231   6.698   3.683   5.768
 3444SOL    HW211232   6.823   3.717   5.868
 3445SOL     OW11233   6.164   4.536   4.603
 3445SOL    HW111234   6.196   4.613   4.549
 3445SOL    HW211235   6.242   4.478   4.628
 3446SOL     OW11236   4.721   1.510   0.645
 3446SOL    HW111237   4.629   1.543   0.662
 3446SOL    HW211238   4.756   1.464   0.727
 3447SOL     OW11239   5.520   0.882   6.635
 3447SOL    HW111240   5.584   0.807   6.616
 3447SOL    HW211241   5.568   0.969   6.629
 3448SOL     OW11242   0.864   4.747   5.419
 3448SOL    HW111243   0.900   4.788   5.335
 3448SOL    HW211244   0.790   4.684   5.396
 3449SOL     OW11245   0.449   4.021   5.482
 3449SOL    HW111246   0.433   4.027   5.384
 3449SOL    HW211247   0.535   4.066   5.505
 3450SOL     OW11248   2.710   6.857   2.194
 3450SOL    HW111249   2.615   6.848   2.223
 3450SOL    HW211250   2.759   6.916   2.259
 3451SOL     OW11251   1.962   2.432   1.040
 3451SOL    HW111252   1.969   2.456   0.943
 3451SOL    HW211253   1.867   2.412   1.063
 3452SOL     OW11254   4.581   1.459   5.645
 3452SOL    HW111255   4.664   1.467   5.700
 3452SOL    HW211256   4.576   1.536   5.582
 3453SOL     OW11257   4.066   6.531   6.423
 3453SOL    HW111258   4.145   6.504   6.367
 3453SOL    HW211259   4.098   6.569   6.509
 3454SOL     OW11260   0.316   3.464   2.189
 3454SOL    HW111261   0.251   3.392   2.164
 3454SOL    HW211262   0.383   3.429   2.254
 3455SOL     OW11263   0.430   3.778   6.270
 3455SOL    HW111264   0.427   3.704   6.336
 3455SOL    HW211265   0.396   3.862   6.313
 3456SOL     OW11266   4.716   5.566   3.958
 3456SOL    HW111267   4.624   5.596   3.936
 3456SOL    HW211268   4.781   5.606   3.893
 3457SOL     OW11269   4.112   4.729   0.049
 3457SOL    HW111270   4.119   4.806   0.113
 3457SOL    HW211271   4.165   4.749   6.989
 3458SOL     OW11272   4.254   1.407   1.967
 3458SOL    HW111273   4.205   1.419   2.053
 3458SOL    HW211274   4.291   1.495   1.937
 3459SOL     OW11275   5.600   6.006   1.972
 3459SOL    HW111276   5.623   6.103   1.983
 3459SOL    HW211277   5.681   5.956   1.942
 3460SOL     OW11278   3.893   1.909   5.225
 3460SOL    HW111279   3.848   1.829   5.264
 3460SOL    HW211280   3.826   1.966   5.177
 3461SOL     OW11281   4.790   5.292   4.332
 3461SOL    HW111282   4.787   5.392   4.330
 3461SOL    HW211283   4.884   5.261   4.313
 3462SOL     OW11284   0.643   4.114   6.305
 3462SOL    HW111285   0.657   4.051   6.381
 3462SOL    HW211286   0.583   4.071   6.237
 3463SOL     OW11287   5.424   3.664   0.460
 3463SOL    HW111288   5.516   3.685   0.426
 3463SOL    HW211289   5.356   3.702   0.398
 3464SOL     OW11290   0.319   4.429   4.015
 3464SOL    HW111291   0.345   4.426   4.111
 3464SOL    HW211292   0.366   4.506   3.971
 3465SOL     OW11293   0.713   2.225   2.410
 3465SOL    HW111294   0.777   2.252   2.482
 3465SOL    HW211295   0.659   2.147   2.442
 3466SOL     OW11296   6.944   3.459   4.466
 3466SOL    HW111297   6.953   3.557   4.480
 3466SOL    HW211298   0.008   3.422   4.432
 3467SOL     OW11299   1.976   2.257   5.538
 3467SOL    HW111300   2.062   2.219   5.505
 3467SOL    HW211301   1.992   2.349   5.575
 3468SOL     OW11302   4.974   6.497   1.744
 3468SOL    HW111303   4.933   6.582   1.777
 3468SOL    HW211304   5.059   6.518   1.696
 3469SOL     OW11305   5.570   4.054   1.056
 3469SOL    HW111306   5.623   3.985   1.007
 3469SOL    HW211307   5.481   4.016   1.082
 3470SOL     OW11308   6.703   5.170   1.177
 3470SOL    HW111309   6.802   5.180   1.168
 3470SOL    HW211310   6.681   5.138   1.269
 3471SOL     OW11311   3.904   0.022   4.688
 3471SOL    HW111312   3.995   7.004   4.687
 3471SOL    HW211313   3.898   0.089   4.762
 3472SOL     OW11314   4.165   0.911   5.043
 3472SOL    HW111315   4.152   1.009   5.058
 3472SOL    HW211316   4.244   0.896   4.983
 3473SOL     OW11317   4.037   0.177   3.967
 3473SOL    HW111318   4.096   0.256   3.957
 3473SOL    HW211319   4.072   0.102   3.911
 3474SOL     OW11320   4.828   4.525   0.943
 3474SOL    HW111321   4.796   4.430   0.946
 3474SOL    HW211322   4.922   4.527   0.910
 3475SOL     OW11323   1.877   5.877   4.787
 3475SOL    HW111324   1.916   5.967   4.772
 3475SOL    HW211325   1.778   5.885   4.799
 3476SOL     OW11326   4.493   1.592   5.008
 3476SOL    HW111327   4.412   1.632   5.050
 3476SOL    HW211328   4.549   1.664   4.967
 3477SOL     OW11329   4.311   5.583   1.748
 3477SOL    HW111330   4.398   5.619   1.782
 3477SOL    HW211331   4.237   5.642   1.778
 3478SOL     OW11332   4.151   4.100   0.125
 3478SOL    HW111333   4.185   4.008   0.141
 3478SOL    HW211334   4.188   4.135   0.039
 3479SOL     OW11335   1.319   0.260   1.332
 3479SOL    HW111336   1.297   0.178   1.385
 3479SOL    HW211337   1.281   0.340   1.378
 3480SOL     OW11338   1.258   6.856   3.984
 3480SOL    HW111339   1.238   6.762   3.957
 3480SOL    HW211340   1.291   6.857   4.079
 3481SOL     OW11341   1.585   6.121   6.836
 3481SOL    HW111342   1.522   6.063   6.784
 3481SOL    HW211343   1.609   6.201   6.782
 3482SOL     OW11344   0.813   2.227   2.164
 3482SOL    HW111345   0.765   2.301   2.117
 3482SOL    HW211346   0.760   2.197   2.243
 3483SOL     OW11347   3.616   1.702   0.538
 3483SOL    HW111348   3.579   1.694   0.445
 3483SOL    HW211349   3.596   1.618   0.589
 3484SOL     OW11350   4.160   3.510   3.627
 3484SOL    HW111351   4.177   3.543   3.720
 3484SOL    HW211352   4.170   3.411   3.625
 3485SOL     OW11353   6.048   1.946   5.277
 3485SOL    HW111354   5.955   1.983   5.276
 3485SOL    HW211355   6.113   2.019   5.257
 3486SOL     OW11356   4.962   0.608   2.652
 3486SOL    HW111357   4.968   0.668   2.732
 3486SOL    HW211358   5.042   0.623   2.594
 3487SOL     OW11359   0.831   0.746   0.914
 3487SOL    HW111360   0.918   0.731   0.867
 3487SOL    HW211361   0.775   0.809   0.861
 3488SOL     OW11362   6.673   3.426   4.568
 3488SOL    HW111363   6.765   3.422   4.530
 3488SOL    HW211364   6.672   3.385   4.659
 3489SOL     OW11365   2.442   5.353   0.453
 3489SOL    HW111366   2.464   5.258   0.475
 3489SOL    HW211367   2.497   5.383   0.375
 3490SOL     OW11368   4.161   3.154   1.097
 3490SOL    HW111369   4.083   3.098   1.070
 3490SOL    HW211370   4.246   3.112   1.065
 3491SOL     OW11371   6.749   3.473   5.678
 3491SOL    HW111372   6.714   3.557   5.637
 3491SOL    HW211373   6.673   3.420   5.716
 3492SOL     OW11374   5.923   4.662   6.841
 3492SOL    HW111375   5.988   4.672   6.766
 3492SOL    HW211376   5.920   4.747   6.894
 3493SOL     OW11377   6.851   4.799   1.801
 3493SOL    HW111378   6.848   4.869   1.872
 3493SOL    HW211379   6.879   4.712   1.841
 3494SOL     OW11380   2.876   6.695   1.073
 3494SOL    HW111381   2.916   6.671   0.985
 3494SOL    HW211382   2.912   6.784   1.103
 3495SOL     OW11383   5.582   3.988   6.687
 3495SOL    HW111384   5.576   3.891   6.710
 3495SOL    HW211385   5.674   4.008   6.652
 3496SOL     OW11386   0.357   4.961   0.745
 3496SOL    HW111387   0.400   4.912   0.820
 3496SOL    HW211388   0.385   4.921   0.658
 3497SOL     OW11389   4.198   6.756   4.439
 3497SOL    HW111390   4.181   6.657   4.439
 3497SOL    HW211391   4.158   6.796   4.522
 3498SOL     OW11392   1.106   1.995   0.575
 3498SOL    HW111393   1.169   2.059   0.619
 3498SOL    HW211394   1.058   1.942   0.645
 3499SOL     OW11395   0.532   4.437   4.524
 3499SOL    HW111396   0.574   4.527   4.539
 3499SOL    HW211397   0.531   4.386   4.610
 3500SOL     OW11398   6.122   3.491   0.591
 3500SOL    HW111399   6.171   3.405   0.604
 3500SOL    HW211400   6.068   3.487   0.507
 3501SOL     OW11401   0.805   4.078   3.006
 3501SOL    HW111402   0.876   4.054   3.073
 3501SOL    HW211403   0.847   4.097   2.918
 3502SOL     OW11404   0.638   5.095   1.917
 3502SOL    HW111405   0.552   5.132   1.951
 3502SOL    HW211406   0.661   5.012   1.968
 3503SOL     OW11407   3.599   0.212   3.679
 3503SOL    HW111408   3.688   0.253   3.659
 3503SOL    HW211409   3.531   0.244   3.614
 3504SOL     OW11410   2.367   2.639   3.283
 3504SOL    HW111411   2.285   2.582   3.271
 3504SOL    HW211412   2.449   2.581   3.278
 3505SOL     OW11413   4.518   6.506   4.777
 3505SOL    HW111414   4.557   6.472   4.691
 3505SOL    HW211415   4.472   6.593   4.761
 3506SOL     OW11416   5.723   5.189   2.605
 3506SOL    HW111417   5.661   5.115   2.580
 3506SOL    HW211418   5.760   5.232   2.523
 3507SOL     OW11419   0.202   0.171   6.171
 3507SOL    HW111420   0.203   0.261   6.128
 3507SOL    HW211421   0.203   0.100   6.101
 3508SOL     OW11422   6.105   4.086   6.948
 3508SOL    HW111423   6.034   4.152   6.925
 3508SOL    HW211424   6.194   4.132   6.951
 3509SOL     OW11425   6.034   0.697   0.049
 3509SOL    HW111426   6.027   0.792   0.018
 3509SOL    HW211427   5.947   0.669   0.090
 3510SOL     OW11428   1.892   2.153   2.358
 3510SOL    HW111429   1.975   2.139   2.412
 3510SOL    HW211430   1.812   2.144   2.418
 3511SOL     OW11431   0.615   1.052   4.780
 3511SOL    HW111432   0.659   1.140   4.798
 3511SOL    HW211433   0.516   1.062   4.791
 3512SOL     OW11434   3.221   2.870   1.182
 3512SOL    HW111435   3.189   2.842   1.091
 3512SOL    HW211436   3.171   2.819   1.251
 3513SOL     OW11437   5.119   4.460   1.164
 3513SOL    HW111438   5.066   4.512   1.231
 3513SOL    HW211439   5.178   4.395   1.212
 3514SOL     OW11440   1.858   6.822   1.977
 3514SOL    HW111441   1.812   6.906   1.950
 3514SOL    HW211442   1.905   6.783   1.898
 3515SOL     OW11443   3.966   6.322   3.831
 3515SOL    HW111444   3.894   6.290   3.893
 3515SOL    HW211445   3.927   6.385   3.765
 3516SOL     OW11446   2.005   1.622   0.494
 3516SOL    HW111447   2.024   1.670   0.408
 3516SOL    HW211448   1.958   1.536   0.475
 3517SOL     OW11449   0.388   0.724   6.736
 3517SOL    HW111450   0.379   0.624   6.742
 3517SOL    HW211451   0.347   0.756   6.650
 3518SOL     OW11452   4.646   3.832   5.487
 3518SOL    HW111453   4.582   3.886   5.431
 3518SOL    HW211454   4.595   3.762   5.536
 3519SOL     OW11455   3.147   6.553   0.685
 3519SOL    HW111456   3.083   6.630   0.685
 3519SOL    HW211457   3.217   6.568   0.615
 3520SOL     OW11458   3.869   4.924   1.368
 3520SOL    HW111459   3.817   4.930   1.453
 3520SOL    HW211460   3.966   4.937   1.386
 3521SOL     OW11461   6.226   2.314   6.447
 3521SOL    HW111462   6.201   2.321   6.543
 3521SOL    HW211463   6.324   2.330   6.436
 3522SOL     OW11464   2.925   0.935   0.485
 3522SOL    HW111465   2.830   0.920   0.460
 3522SOL    HW211466   2.963   0.852   0.525
 3523SOL     OW11467   2.605   4.478   5.298
 3523SOL    HW111468   2.606   4.452   5.394
 3523SOL    HW211469   2.698   4.473   5.261
 3524SOL     OW11470   2.418   0.335   2.301
 3524SOL    HW111471   2.501   0.311   2.250
 3524SOL    HW211472   2.435   0.418   2.354
 3525SOL     OW11473   1.473   4.085   2.562
 3525SOL    HW111474   1.487   4.056   2.657
 3525SOL    HW211475   1.485   4.184   2.556
 3526SOL     OW11476   4.155   6.762   3.473
 3526SOL    HW111477   4.172   6.781   3.376
 3526SOL    HW211478   4.058   6.774   3.493
 3527SOL     OW11479   5.274   3.044   6.251
 3527SOL    HW111480   5.359   3.096   6.258
 3527SOL    HW211481   5.281   2.979   6.175
 3528SOL     OW11482   1.525   6.821   4.600
 3528SOL    HW111483   1.454   6.884   4.633
 3528SOL    HW211484   1.545   6.754   4.671
 3529SOL     OW11485   3.780   6.367   0.140
 3529SOL    HW111486   3.794   6.396   0.235
 3529SOL    HW211487   3.830   6.283   0.123
 3530SOL     OW11488   2.140   6.780   3.092
 3530SOL    HW111489   2.213   6.822   3.038
 3530SOL    HW211490   2.087   6.852   3.137
 3531SOL     OW11491   5.181   4.377   0.229
 3531SOL    HW111492   5.167   4.278   0.222
 3531SOL    HW211493   5.095   4.423   0.209
 3532SOL     OW11494   1.967   6.582   0.404
 3532SOL    HW111495   2.011   6.553   0.319
 3532SOL    HW211496   1.917   6.667   0.388
 3533SOL     OW11497   1.595   0.951   3.886
 3533SOL    HW111498   1.568   0.953   3.790
 3533SOL    HW211499   1.594   1.044   3.922
 3534SOL     OW11500   5.166   0.558   5.025
 3534SOL    HW111501   5.244   0.495   5.032
 3534SOL    HW211502   5.085   0.516   5.066
 3535SOL     OW11503   4.963   6.485   6.991
 3535SOL    HW111504   4.919   6.438   0.045
 3535SOL    HW211505   4.893   6.522   6.930
 3536SOL     OW11506   0.812   3.748   2.709
 3536SOL    HW111507   0.870   3.729   2.629
 3536SOL    HW211508   0.718   3.724   2.688
 3537SOL     OW11509   2.844   4.477   1.317
 3537SOL    HW111510   2.872   4.529   1.397
 3537SOL    HW211511   2.748   4.450   1.327
 3538SOL     OW11512   4.167   0.809   3.380
 3538SOL    HW111513   4.109   0.776   3.305
 3538SOL    HW211514   4.261   0.818   3.348
 3539SOL     OW11515   5.435   5.839   6.488
 3539SOL    HW111516   5.374   5.838   6.409
 3539SOL    HW211517   5.530   5.836   6.457
 3540SOL     OW11518   2.949   4.822   6.074
 3540SOL    HW111519   3.018   4.799   6.142
 3540SOL    HW211520   2.969   4.911   6.034
 3541SOL     OW11521   1.321   2.548   1.752
 3541SOL    HW111522   1.286   2.632   1.711
 3541SOL    HW211523   1.413   2.530   1.719
 3542SOL     OW11524   5.942   1.836   6.567
 3542SOL    HW111525   5.900   1.823   6.477
 3542SOL    HW211526   5.991   1.753   6.594
 3543SOL     OW11527   0.510   2.184   4.122
 3543SOL    HW111528   0.570   2.160   4.045
 3543SOL    HW211529   0.469   2.274   4.105
 3544SOL     OW11530   2.997   4.476   0.207
 3544SOL    HW111531   3.058   4.509   0.134
 3544SOL    HW211532   3.034   4.391   0.245
 3545SOL     OW11533   4.084   6.743   0.596
 3545SOL    HW111534   4.183   6.755   0.587
 3545SOL    HW211535   4.041   6.751   0.506
 3546SOL     OW11536   6.603   4.132   1.358
 3546SOL    HW111537   6.631   4.222   1.325
 3546SOL    HW211538   6.560   4.082   1.283
 3547SOL     OW11539   0.938   3.981   4.875
 3547SOL    HW111540   0.874   3.905   4.862
 3547SOL    HW211541   1.003   3.982   4.800
 3548SOL     OW11542   6.128   0.084   6.147
 3548SOL    HW111543   6.076   0.061   6.230
 3548SOL    HW211544   6.226   0.075   6.166
 3549SOL     OW11545   2.385   6.268   6.722
 3549SOL    HW111546   2.435   6.211   6.787
 3549SOL    HW211547   2.289   6.241   6.721
 3550SOL     OW11548   5.620   1.033   5.634
 3550SOL    HW111549   5.693   1.047   5.700
 3550SOL    HW211550   5.598   1.120   5.590
 3551SOL     OW11551   5.148   1.963   4.839
 3551SOL    HW111552   5.148   1.951   4.939
 3551SOL    HW211553   5.230   2.014   4.812
 3552SOL     OW11554   6.338   0.285   3.914
 3552SOL    HW111555   6.434   0.292   3.942
 3552SOL    HW211556   6.314   0.362   3.855
 3553SOL     OW11557   6.016   5.822   6.753
 3553SOL    HW111558   6.066   5.888   6.809
 3553SOL    HW211559   5.945   5.869   6.701
 3554SOL     OW11560   4.676   4.332   0.176
 3554SOL    HW111561   4.644   4.332   0.271
 3554SOL    HW211562   4.603   4.297   0.117
 3555SOL     OW11563   2.747   1.540   5.175
 3555SOL    HW111564   2.699   1.455   5.194
 3555SOL    HW211565   2.749   1.597   5.257
 3556SOL     OW11566   5.467   1.061   0.513
 3556SOL    HW111567   5.376   1.022   0.502
 3556SOL    HW211568   5.475   1.145   0.460
 3557SOL     OW11569   5.731   6.690   1.810
 3557SOL    HW111570   5.823   6.684   1.769
 3557SOL    HW211571   5.677   6.758   1.760
 3558SOL     OW11572   3.646   5.535   2.324
 3558SOL    HW111573   3.719   5.466   2.332
 3558SOL    HW211574   3.644   5.590   2.407
 3559SOL     OW11575   3.917   6.581   6.699
 3559SOL    HW111576   3.825   6.551   6.676
 3559SOL    HW211577   3.960   6.514   6.760
 3560SOL     OW11578   1.650   5.396   4.273
 3560SOL    HW111579   1.564   5.414   4.320
 3560SOL    HW211580   1.688   5.483   4.239
 3561SOL     OW11581   4.745   3.461   5.483
 3561SOL    HW111582   4.674   3.490   5.419
 3561SOL    HW211583   4.834   3.493   5.451
 3562SOL     OW11584   2.839   1.571   0.452
 3562SOL    HW111585   2.926   1.554   0.406
 3562SOL    HW211586   2.850   1.559   0.550
 3563SOL     OW11587   6.718   2.566   6.509
 3563SOL    HW111588   6.776   2.519   6.443
 3563SOL    HW211589   6.774   2.630   6.562
 3564SOL     OW11590   6.399   3.706   2.576
 3564SOL    HW111591   6.419   3.615   2.612
 3564SOL    HW211592   6.322   3.700   2.513
 3565SOL     OW11593   4.964   5.944   6.166
 3565SOL    HW111594   4.909   5.992   6.235
 3565SOL    HW211595   4.904   5.887   6.110
 3566SOL     OW11596   1.267   1.161   5.291
 3566SOL    HW111597   1.231   1.069   5.308
 3566SOL    HW211598   1.360   1.154   5.254
 3567SOL     OW11599   6.824   3.775   6.892
 3567SOL    HW111600   6.905   3.724   6.920
 3567SOL    HW211601   6.848   3.840   6.820
 3568SOL     OW11602   5.261   3.750   5.738
 3568SOL    HW111603   5.345   3.775   5.786
 3568SOL    HW211604   5.254   3.801   5.653
 3569SOL     OW11605   1.638   0.311   3.514
 3569SOL    HW111606   1.603   0.399   3.546
 3569SOL    HW211607   1.720   0.326   3.458
 3570SOL     OW11608   5.672   1.490   4.430
 3570SOL    HW111609   5.733   1.452   4.500
 3570SOL    HW211610   5.577   1.478   4.459
 3571SOL     OW11611   6.623   6.459   4.994
 3571SOL    HW111612   6.689   6.406   4.941
 3571SOL    HW211613   6.648   6.556   4.992
 3572SOL     OW11614   6.143   6.429   5.700
 3572SOL    HW111615   6.047   6.404   5.707
 3572SOL    HW211616   6.190   6.366   5.638
 3573SOL     OW11617   0.725   2.027   1.769
 3573SOL    HW111618   0.694   2.046   1.862
 3573SOL    HW211619   0.670   2.080   1.704
 3574SOL     OW11620   6.180   3.712   0.310
 3574SOL    HW111621   6.119   3.648   0.358
 3574SOL    HW211622   6.164   3.707   0.212
 3575SOL     OW11623   6.220   5.756   1.897
 3575SOL    HW111624   6.139   5.735   1.843
 3575SOL    HW211625   6.222   5.855   1.917
 3576SOL     OW11626   7.002   0.838   6.644
 3576SOL    HW111627   6.932   0.768   6.630
 3576SOL    HW211628   6.996   0.874   6.737
 3577SOL     OW11629   2.573   3.980   6.670
 3577SOL    HW111630   2.595   4.004   6.764
 3577SOL    HW211631   2.526   3.891   6.669
 3578SOL     OW11632   3.579   4.390   1.731
 3578SOL    HW111633   3.579   4.387   1.631
 3578SOL    HW211634   3.552   4.481   1.761
 3579SOL     OW11635   1.826   4.503   4.658
 3579SOL    HW111636   1.843   4.581   4.598
 3579SOL    HW211637   1.727   4.487   4.665
 3580SOL     OW11638   6.961   2.989   1.439
 3580SOL    HW111639   6.912   2.940   1.367
 3580SOL    HW211640   7.011   3.066   1.401
 3581SOL     OW11641   5.827   1.225   3.353
 3581SOL    HW111642   5.839   1.288   3.429
 3581SOL    HW211643   5.741   1.175   3.364
 3582SOL     OW11644   0.130   0.331   5.372
 3582SOL    HW111645   0.190   0.292   5.302
 3582SOL    HW211646   0.035   0.307   5.351
 3583SOL     OW11647   1.682   5.172   1.527
 3583SOL    HW111648   1.589   5.172   1.563
 3583SOL    HW211649   1.742   5.222   1.589
 3584SOL     OW11650   5.699   0.192   5.751
 3584SOL    HW111651   5.719   0.191   5.849
 3584SOL    HW211652   5.632   0.263   5.731
 3585SOL     OW11653   2.399   4.848   3.865
 3585SOL    HW111654   2.464   4.920   3.843
 3585SOL    HW211655   2.447   4.768   3.900
 3586SOL     OW11656   1.140   1.112   6.198
 3586SOL    HW111657   1.140   1.206   6.165
 3586SOL    HW211658   1.052   1.069   6.175
 3587SOL     OW11659   3.809   6.783   6.872
 3587SOL    HW111660   3.857   6.725   6.806
 3587SOL    HW211661   3.807   6.877   6.837
 3588SOL     OW11662   2.022   1.352   5.079
 3588SOL    HW111663   2.066   1.311   4.999
 3588SOL    HW211664   1.939   1.300   5.101
 3589SOL     OW11665   3.302   0.686   4.805
 3589SOL    HW111666   3.231   0.739   4.759
 3589SOL    HW211667   3.391   0.703   4.762
 3590SOL     OW11668   1.164   5.021   6.857
 3590SOL    HW111669   1.072   5.036   6.893
 3590SOL    HW211670   1.158   4.975   6.769
 3591SOL     OW11671   5.365   2.317   5.861
 3591SOL    HW111672   5.380   2.311   5.763
 3591SOL    HW211673   5.437   2.268   5.910
 3592SOL     OW11674   5.375   2.334   1.716
 3592SOL    HW111675   5.310   2.268   1.755
 3592SOL    HW211676   5.394   2.405   1.784
 3593SOL     OW11677   0.809   5.094   4.294
 3593SOL    HW111678   0.724   5.103   4.347
 3593SOL    HW211679   0.797   5.022   4.225
 3594SOL     OW11680   4.166   1.643   5.006
 3594SOL    HW111681   4.176   1.742   5.018
 3594SOL    HW211682   4.104   1.626   4.929
 3595SOL     OW11683   1.784   6.117   6.270
 3595SOL    HW111684   1.812   6.188   6.334
 3595SOL    HW211685   1.710   6.151   6.212
 3596SOL     OW11686   0.155   3.712   3.660
 3596SOL    HW111687   0.210   3.795   3.652
 3596SOL    HW211688   0.191   3.655   3.734
 3597SOL     OW11689   3.877   6.792   3.760
 3597SOL    HW111690   3.787   6.834   3.743
 3597SOL    HW211691   3.876   6.746   3.848
 3598SOL     OW11692   1.684   0.512   0.428
 3598SOL    HW111693   1.657   0.422   0.393
 3598SOL    HW211694   1.761   0.503   0.491
 3599SOL     OW11695   6.653   1.586   4.181
 3599SOL    HW111696   6.629   1.548   4.092
 3599SOL    HW211697   6.615   1.528   4.253
 3600SOL     OW11698   6.887   0.718   1.258
 3600SOL    HW111699   6.824   0.674   1.194
 3600SOL    HW211700   6.952   0.651   1.293
 3601SOL     OW11701   5.971   3.223   5.541
 3601SOL    HW111702   5.908   3.147   5.524
 3601SOL    HW211703   6.007   3.216   5.634
 3602SOL     OW11704   2.514   1.975   0.873
 3602SOL    HW111705   2.500   1.907   0.945
 3602SOL    HW211706   2.601   1.958   0.827
 3603SOL     OW11707   4.298   5.187   4.569
 3603SOL    HW111708   4.366   5.260   4.559
 3603SOL    HW211709   4.274   5.176   4.665
 3604SOL     OW11710   0.040   4.177   3.731
 3604SOL    HW111711   7.011   4.259   3.708
 3604SOL    HW211712   6.999   4.103   3.752
 3605SOL     OW11713   6.007   2.857   6.553
 3605SOL    HW111714   5.998   2.957   6.552
 3605SOL    HW211715   5.958   2.820   6.631
 3606SOL     OW11716   1.730   4.040   3.821
 3606SOL    HW111717   1.780   4.100   3.883
 3606SOL    HW211718   1.790   4.013   3.745
 3607SOL     OW11719   4.300   6.975   0.066
 3607SOL    HW111720   4.226   6.968   7.020
 3607SOL    HW211721   4.263   6.954   0.156
 3608SOL     OW11722   0.379   2.824   2.523
 3608SOL    HW111723   0.311   2.876   2.471
 3608SOL    HW211724   0.444   2.783   2.460
 3609SOL     OW11725   6.533   0.131   4.843
 3609SOL    HW111726   6.445   0.141   4.796
 3609SOL    HW211727   6.571   0.041   4.824
 3610SOL     OW11728   1.622   5.706   5.329
 3610SOL    HW111729   1.639   5.707   5.427
 3610SOL    HW211730   1.607   5.799   5.296
 3611SOL     OW11731   4.187   5.076   5.390
 3611SOL    HW111732   4.164   5.105   5.297
 3611SOL    HW211733   4.163   5.149   5.454
 3612SOL     OW11734   1.760   6.362   0.551
 3612SOL    HW111735   1.708   6.401   0.627
 3612SOL    HW211736   1.843   6.417   0.536
 3613SOL     OW11737   4.914   4.932   6.228
 3613SOL    HW111738   4.845   4.871   6.267
 3613SOL    HW211739   5.005   4.899   6.251
 3614SOL     OW11740   3.773   3.641   4.364
 3614SOL    HW111741   3.803   3.734   4.343
 3614SOL    HW211742   3.697   3.616   4.303
 3615SOL     OW11743   6.200   6.236   6.496
 3615SOL    HW111744   6.240   6.308   6.439
 3615SOL    HW211745   6.216   6.147   6.454
 3616SOL     OW11746   6.279   0.793   4.934
 3616SOL    HW111747   6.306   0.867   4.872
 3616SOL    HW211748   6.359   0.741   4.961
 3617SOL     OW11749   6.754   0.135   0.069
 3617SOL    HW111750   6.686   0.201   0.101
 3617SOL    HW211751   6.845   0.175   0.077
 3618SOL     OW11752   2.747   0.152   6.105
 3618SOL    HW111753   2.659   0.149   6.153
 3618SOL    HW211754   2.783   0.246   6.107
 3619SOL     OW11755   5.258   4.001   4.231
 3619SOL    HW111756   5.177   4.025   4.178
 3619SOL    HW211757   5.302   3.921   4.190
 3620SOL     OW11758   6.031   0.895   4.978
 3620SOL    HW111759   6.007   0.968   4.914
 3620SOL    HW211760   6.118   0.853   4.950
 3621SOL     OW11761   1.388   3.473   5.795
 3621SOL    HW111762   1.429   3.563   5.804
 3621SOL    HW211763   1.410   3.418   5.875
 3622SOL     OW11764   0.379   3.571   0.975
 3622SOL    HW111765   0.313   3.646   0.974
 3622SOL    HW211766   0.340   3.493   1.023
 3623SOL     OW11767   0.208   5.460   4.307
 3623SOL    HW111768   0.210   5.477   4.208
 3623SOL    HW211769   0.182   5.545   4.354
 3624SOL     OW11770   1.857   1.311   1.898
 3624SOL    HW111771   1.774   1.263   1.870
 3624SOL    HW211772   1.832   1.397   1.943
 3625SOL     OW11773   0.589   3.281   4.706
 3625SOL    HW111774   0.540   3.279   4.619
 3625SOL    HW211775   0.578   3.193   4.752
 3626SOL     OW11776   2.690   3.882   5.258
 3626SOL    HW111777   2.599   3.923   5.247
 3626SOL    HW211778   2.693   3.829   5.342
 3627SOL     OW11779   3.283   3.151   3.716
 3627SOL    HW111780   3.368   3.204   3.718
 3627SOL    HW211781   3.227   3.180   3.638
 3628SOL     OW11782   2.994   5.554   3.109
 3628SOL    HW111783   2.964   5.502   3.029
 3628SOL    HW211784   2.994   5.652   3.088
 3629SOL     OW11785   5.779   2.278   4.871
 3629SOL    HW111786   5.776   2.254   4.774
 3629SOL    HW211787   5.715   2.353   4.889
 3630SOL     OW11788   5.610   1.652   4.668
 3630SOL    HW111789   5.558   1.591   4.608
 3630SOL    HW211790   5.673   1.707   4.612
 3631SOL     OW11791   2.294   0.495   4.157
 3631SOL    HW111792   2.222   0.457   4.215
 3631SOL    HW211793   2.322   0.426   4.090
 3632SOL     OW11794   3.978   0.090   6.614
 3632SOL    HW111795   3.922   0.173   6.611
 3632SOL    HW211796   4.067   0.112   6.653
 3633SOL     OW11797   1.737   3.044   5.893
 3633SOL    HW111798   1.685   2.963   5.864
 3633SOL    HW211799   1.829   3.015   5.921
 3634SOL     OW11800   3.087   6.164   5.662
 3634SOL    HW111801   3.119   6.069   5.659
 3634SOL    HW211802   3.019   6.173   5.734
 3635SOL     OW11803   1.988   0.937   5.003
 3635SOL    HW111804   1.915   0.879   4.966
 3635SOL    HW211805   2.045   0.884   5.064
 3636SOL     OW11806   1.566   5.328   6.256
 3636SOL    HW111807   1.496   5.369   6.314
 3636SOL    HW211808   1.523   5.291   6.173
 3637SOL     OW11809   5.361   1.604   1.864
 3637SOL    HW111810   5.268   1.601   1.827
 3637SOL    HW211811   5.426   1.575   1.794
 3638SOL     OW11812   6.247   4.523   3.709
 3638SOL    HW111813   6.266   4.465   3.789
 3638SOL    HW211814   6.334   4.555   3.671
 3639SOL     OW11815   2.942   5.236   0.083
 3639SOL    HW111816   3.008   5.306   0.110
 3639SOL    HW211817   2.856   5.280   0.059
 3640SOL     OW11818   3.044   6.183   1.398
 3640SOL    HW111819   2.991   6.204   1.317
 3640SOL    HW211820   3.134   6.226   1.391
 3641SOL     OW11821   2.572   0.008   4.876
 3641SOL    HW111822   2.511   6.976   4.819
 3641SOL    HW211823   2.658   6.982   4.889
 3642SOL     OW11824   6.181   7.009   3.007
 3642SOL    HW111825   6.130   6.974   2.929
 3642SOL    HW211826   6.127   0.058   3.052
 3643SOL     OW11827   3.288   4.465   6.103
 3643SOL    HW111828   3.205   4.418   6.133
 3643SOL    HW211829   3.343   4.404   6.046
 3644SOL     OW11830   6.942   0.407   0.245
 3644SOL    HW111831   6.976   0.324   0.289
 3644SOL    HW211832   6.844   0.416   0.261
 3645SOL     OW11833   3.790   6.498   2.761
 3645SOL    HW111834   3.692   6.514   2.750
 3645SOL    HW211835   3.839   6.538   2.684
 3646SOL     OW11836   6.488   5.524   4.196
 3646SOL    HW111837   6.409   5.570   4.237
 3646SOL    HW211838   6.539   5.476   4.267
 3647SOL     OW11839   2.045   2.457   1.768
 3647SOL    HW111840   2.142   2.450   1.745
 3647SOL    HW211841   2.019   2.553   1.774
 3648SOL     OW11842   3.017   5.892   3.336
 3648SOL    HW111843   3.002   5.807   3.385
 3648SOL    HW211844   2.942   5.907   3.271
 3649SOL     OW11845   3.092   3.538   2.266
 3649SOL    HW111846   3.026   3.603   2.304
 3649SOL    HW211847   3.046   3.453   2.242
 3650SOL     OW11848   6.275   6.714   1.523
 3650SOL    HW111849   6.327   6.648   1.468
 3650SOL    HW211850   6.213   6.665   1.583
 3651SOL     OW11851   1.846   6.037   2.431
 3651SOL    HW111852   1.764   6.082   2.396
 3651SOL    HW211853   1.824   5.943   2.456
 3652SOL     OW11854   4.371   4.986   3.424
 3652SOL    HW111855   4.394   4.891   3.404
 3652SOL    HW211856   4.272   4.995   3.435
 3653SOL     OW11857   0.234   2.806   4.282
 3653SOL    HW111858   0.194   2.727   4.236
 3653SOL    HW211859   0.231   2.792   4.381
 3654SOL     OW11860   1.545   6.203   1.398
 3654SOL    HW111861   1.502   6.175   1.312
 3654SOL    HW211862   1.540   6.302   1.408
 3655SOL     OW11863   0.946   0.387   4.032
 3655SOL    HW111864   0.885   0.426   3.962
 3655SOL    HW211865   0.915   0.295   4.056
 3656SOL     OW11866   2.553   1.861   2.525
 3656SOL    HW111867   2.634   1.920   2.523
 3656SOL    HW211868   2.550   1.813   2.613
 3657SOL     OW11869   3.686   5.229   1.896
 3657SOL    HW111870   3.666   5.205   1.800
 3657SOL    HW211871   3.775   5.190   1.922
 3658SOL     OW11872   1.747   5.461   5.746
 3658SOL    HW111873   1.694   5.393   5.797
 3658SOL    HW211874   1.685   5.513   5.686
 3659SOL     OW11875   1.229   4.428   0.348
 3659SOL    HW111876   1.205   4.334   0.324
 3659SOL    HW211877   1.229   4.485   0.266
 3660SOL     OW11878   4.579   5.332   1.135
 3660SOL    HW111879   4.524   5.403   1.178
 3660SOL    HW211880   4.612   5.365   1.046
 3661SOL     OW11881   5.443   1.449   0.599
 3661SOL    HW111882   5.375   1.521   0.584
 3661SOL    HW211883   5.535   1.487   0.588
 3662SOL     OW11884   2.590   6.249   5.284
 3662SOL    HW111885   2.532   6.317   5.239
 3662SOL    HW211886   2.615   6.281   5.375
 3663SOL     OW11887   0.962   3.925   6.004
 3663SOL    HW111888   0.864   3.936   5.986
 3663SOL    HW211889   0.991   3.992   6.072
 3664SOL     OW11890   3.868   1.152   0.882
 3664SOL    HW111891   3.858   1.057   0.913
 3664SOL    HW211892   3.812   1.212   0.939
 3665SOL     OW11893   1.158   6.519   5.735
 3665SOL    HW111894   1.134   6.523   5.832
 3665SOL    HW211895   1.117   6.436   5.695
 3666SOL     OW11896   0.605   5.494   3.624
 3666SOL    HW111897   0.606   5.475   3.723
 3666SOL    HW211898   0.535   5.439   3.580
 3667SOL     OW11899   6.716   1.750   6.436
 3667SOL    HW111900   6.704   1.710   6.527
 3667SOL    HW211901   6.626   1.773   6.398
 3668SOL     OW11902   1.595   6.112   1.915
 3668SOL    HW111903   1.688   6.109   1.878
 3668SOL    HW211904   1.534   6.061   1.855
 3669SOL     OW11905   6.444   2.264   3.412
 3669SOL    HW111906   6.483   2.174   3.392
 3669SOL    HW211907   6.349   2.253   3.443
 3670SOL     OW11908   2.208   5.399   5.875
 3670SOL    HW111909   2.243   5.311   5.844
 3670SOL    HW211910   2.109   5.391   5.893
 3671SOL     OW11911   0.937   0.822   3.480
 3671SOL    HW111912   0.845   0.856   3.496
 3671SOL    HW211913   0.962   0.757   3.552
 3672SOL     OW11914   6.905   0.130   0.856
 3672SOL    HW111915   6.995   0.092   0.880
 3672SOL    HW211916   6.887   0.116   0.759
 3673SOL     OW11917   4.450   0.288   6.807
 3673SOL    HW111918   4.441   0.380   6.845
 3673SOL    HW211919   4.442   0.292   6.707
 3674SOL     OW11920   1.178   6.481   0.999
 3674SOL    HW111921   1.130   6.394   1.005
 3674SOL    HW211922   1.206   6.498   0.905
 3675SOL     OW11923   1.813   1.747   4.494
 3675SOL    HW111924   1.754   1.825   4.474
 3675SOL    HW211925   1.906   1.779   4.514
 3676SOL     OW11926   2.392   5.330   3.008
 3676SOL    HW111927   2.389   5.282   2.921
 3676SOL    HW211928   2.309   5.311   3.060
 3677SOL     OW11929   6.331   6.725   4.025
 3677SOL    HW111930   6.268   6.802   4.015
 3677SOL    HW211931   6.425   6.757   4.009
 3678SOL     OW11932   1.291   1.655   3.782
 3678SOL    HW111933   1.365   1.589   3.766
 3678SOL    HW211934   1.328   1.737   3.824
 3679SOL     OW11935   0.147   1.378   1.451
 3679SOL    HW111936   0.052   1.349   1.451
 3679SOL    HW211937   0.157   1.463   1.400
 3680SOL     OW11938   6.981   3.919   4.845
 3680SOL    HW111939   0.044   3.877   4.875
 3680SOL    HW211940   6.904   3.880   4.897
 3681SOL     OW11941   5.840   6.185   4.524
 3681SOL    HW111942   5.776   6.242   4.576
 3681SOL    HW211943   5.845   6.094   4.566
 3682SOL     OW11944   0.846   2.198   6.403
 3682SOL    HW111945   0.860   2.174   6.307
 3682SOL    HW211946   0.859   2.296   6.415
 3683SOL     OW11947   5.562   5.851   3.388
 3683SOL    HW111948   5.495   5.884   3.321
 3683SOL    HW211949   5.654   5.877   3.358
 3684SOL     OW11950   1.589   3.356   0.580
 3684SOL    HW111951   1.504   3.303   0.581
 3684SOL    HW211952   1.660   3.303   0.533
 3685SOL     OW11953   6.429   6.821   6.706
 3685SOL    HW111954   6.488   6.862   6.775
 3685SOL    HW211955   6.334   6.845   6.726
 3686SOL     OW11956   5.726   4.592   1.112
 3686SOL    HW111957   5.643   4.599   1.167
 3686SOL    HW211958   5.767   4.683   1.101
 3687SOL     OW11959   2.904   1.228   6.839
 3687SOL    HW111960   2.844   1.304   6.862
 3687SOL    HW211961   2.877   1.189   6.751
 3688SOL     OW11962   0.508   3.470   6.812
 3688SOL    HW111963   0.541   3.381   6.782
 3688SOL    HW211964   0.412   3.481   6.786
 3689SOL     OW11965   2.683   0.720   3.545
 3689SOL    HW111966   2.632   0.785   3.602
 3689SOL    HW211967   2.687   0.755   3.451
 3690SOL     OW11968   5.544   6.358   5.353
 3690SOL    HW111969   5.549   6.360   5.453
 3690SOL    HW211970   5.448   6.347   5.325
 3691SOL     OW11971   3.489   2.607   0.173
 3691SOL    HW111972   3.409   2.626   0.116
 3691SOL    HW211973   3.466   2.625   0.269
 3692SOL     OW11974   1.765   0.169   6.380
 3692SOL    HW111975   1.682   0.203   6.335
 3692SOL    HW211976   1.771   0.070   6.368
 3693SOL     OW11977   2.893   2.265   3.328
 3693SOL    HW111978   2.958   2.322   3.278
 3693SOL    HW211979   2.864   2.188   3.271
 3694SOL     OW11980   2.381   5.756   2.894
 3694SOL    HW111981   2.285   5.762   2.918
 3694SOL    HW211982   2.415   5.846   2.869
 3695SOL     OW11983   1.578   2.124   1.945
 3695SOL    HW111984   1.503   2.176   1.906
 3695SOL    HW211985   1.575   2.030   1.911
 3696SOL     OW11986   2.811   6.398   5.788
 3696SOL    HW111987   2.893   6.451   5.809
 3696SOL    HW211988   2.830   6.301   5.802
 3697SOL     OW11989   5.685   6.988   4.106
 3697SOL    HW111990   5.675   6.896   4.143
 3697SOL    HW211991   5.630   6.996   4.022
 3698SOL     OW11992   2.873   6.976   5.749
 3698SOL    HW111993   2.899   7.001   5.655
 3698SOL    HW211994   2.919   0.016   5.813
 3699SOL     OW11995   1.152   3.768   2.139
 3699SOL    HW111996   1.137   3.766   2.040
 3699SOL    HW211997   1.126   3.679   2.178
 3700SOL     OW11998   0.594   0.010   4.219
 3700SOL    HW111999   0.549   0.016   4.130
 3700SOL    HW212000   0.626   6.938   4.233
 3701SOL     OW12001   5.763   0.686   3.480
 3701SOL    HW112002   5.775   0.756   3.550
 3701SOL    HW212003   5.679   0.635   3.498
 3702SOL     OW12004   3.817   0.704   0.258
 3702SOL    HW112005   3.843   0.799   0.280
 3702SOL    HW212006   3.859   0.642   0.325
 3703SOL     OW12007   4.314   4.748   6.558
 3703SOL    HW112008   4.360   4.837   6.567
 3703SOL    HW212009   4.220   4.762   6.529
 3704SOL     OW12010   2.239   0.459   1.717
 3704SOL    HW112011   2.166   0.513   1.759
 3704SOL    HW212012   2.316   0.519   1.697
 3705SOL     OW12013   5.497   0.953   4.387
 3705SOL    HW112014   5.454   0.969   4.298
 3705SOL    HW212015   5.442   0.889   4.441
 3706SOL     OW12016   1.986   1.906   3.966
 3706SOL    HW112017   1.947   1.818   3.938
 3706SOL    HW212018   2.076   1.917   3.923
 3707SOL     OW12019   4.274   2.768   5.333
 3707SOL    HW112020   4.202   2.707   5.300
 3707SOL    HW212021   4.234   2.837   5.394
 3708SOL     OW12022   6.155   6.752   6.028
 3708SOL    HW112023   6.147   6.761   6.127
 3708SOL    HW212024   6.138   6.657   6.001
 3709SOL     OW12025   4.611   0.284   0.219
 3709SOL    HW112026   4.604   0.312   0.124
 3709SOL    HW212027   4.700   0.240   0.235
 3710SOL     OW12028   6.970   5.114   1.128
 3710SOL    HW112029   0.004   5.059   1.189
 3710SOL    HW212030   6.918   5.054   1.067
 3711SOL     OW12031   6.895   5.341   3.073
 3711SOL    HW112032   6.940   5.352   2.984
 3711SOL    HW212033   6.937   5.265   3.122
 3712SOL     OW12034   2.260   0.017   0.684
 3712SOL    HW112035   2.193   6.993   0.626
 3712SOL    HW212036   2.304   0.090   0.632
 3713SOL     OW12037   3.994   5.677   6.185
 3713SOL    HW112038   4.053   5.724   6.120
 3713SOL    HW212039   3.952   5.744   6.246
 3714SOL     OW12040   3.896   1.138   5.270
 3714SOL    HW112041   3.859   1.046   5.272
 3714SOL    HW212042   3.849   1.193   5.201
 3715SOL     OW12043   5.352   3.748   4.177
 3715SOL    HW112044   5.424   3.775   4.241
 3715SOL    HW212045   5.341   3.648   4.180
 3716SOL     OW12046   0.294   1.394   4.342
 3716SOL    HW112047   0.197   1.388   4.366
 3716SOL    HW212048   0.314   1.485   4.307
 3717SOL     OW12049   5.114   0.057   6.993
 3717SOL    HW112050   5.032   0.111   7.012
 3717SOL    HW212051   5.179   0.111   6.940
 3718SOL     OW12052   0.383   5.872   0.561
 3718SOL    HW112053   0.370   5.959   0.512
 3718SOL    HW212054   0.459   5.882   0.625
 3719SOL     OW12055   3.900   4.849   5.393
 3719SOL    HW112056   3.823   4.786   5.381
 3719SOL    HW212057   3.983   4.807   5.357
 3720SOL     OW12058   0.035   1.669   5.639
 3720SOL    HW112059   0.095   1.725   5.696
 3720SOL    HW212060   0.084   1.588   5.608
 3721SOL     OW12061   4.207   3.236   0.741
 3721SOL    HW112062   4.201   3.288   0.655
 3721SOL    HW212063   4.192   3.298   0.818
 3722SOL     OW12064   6.165   5.763   2.225
 3722SOL    HW112065   6.236   5.789   2.160
 3722SOL    HW212066   6.123   5.677   2.196
 3723SOL     OW12067   4.332   0.946   0.574
 3723SOL    HW112068   4.414   0.997   0.601
 3723SOL    HW212069   4.259   0.961   0.641
 3724SOL     OW12070   0.074   5.567   5.287
 3724SOL    HW112071   0.013   5.542   5.362
 3724SOL    HW212072   0.118   5.654   5.306
 3725SOL     OW12073   6.636   0.034   0.890
 3725SOL    HW112074   6.718   0.087   0.870
 3725SOL    HW212075   6.592   0.070   0.972
 3726SOL     OW12076   5.471   3.126   1.450
 3726SOL    HW112077   5.420   3.067   1.387
 3726SOL    HW212078   5.563   3.141   1.414
 3727SOL     OW12079   2.329   2.965   5.571
 3727SOL    HW112080   2.247   3.015   5.541
 3727SOL    HW212081   2.351   2.895   5.503
 3728SOL     OW12082   0.607   3.257   6.601
 3728SOL    HW112083   0.545   3.284   6.528
 3728SOL    HW212084   0.692   3.310   6.593
 3729SOL     OW12085   0.573   2.846   3.239
 3729SOL    HW112086   0.505   2.904   3.285
 3729SOL    HW212087   0.551   2.750   3.255
 3730SOL     OW12088   2.487   0.740   0.263
 3730SOL    HW112089   2.445   0.760   0.352
 3730SOL    HW212090   2.549   0.662   0.273
 3731SOL     OW12091   3.205   6.531   6.276
 3731SOL    HW112092   3.304   6.533   6.258
 3731SOL    HW212093   3.182   6.599   6.345
 3732SOL     OW12094   2.188   3.894   4.842
 3732SOL    HW112095   2.190   3.806   4.890
 3732SOL    HW212096   2.217   3.966   4.905
 3733SOL     OW12097   2.463   3.615   1.213
 3733SOL    HW112098   2.435   3.703   1.175
 3733SOL    HW212099   2.463   3.546   1.140
 3734SOL     OW12100   5.242   0.301   2.812
 3734SOL    HW112101   5.271   0.222   2.757
 3734SOL    HW212102   5.315   0.325   2.876
 3735SOL     OW12103   3.502   1.779   1.986
 3735SOL    HW112104   3.422   1.726   2.016
 3735SOL    HW212105   3.475   1.874   1.971
 3736SOL     OW12106   4.970   1.259   6.456
 3736SOL    HW112107   4.954   1.243   6.554
 3736SOL    HW212108   4.898   1.318   6.420
 3737SOL     OW12109   4.476   6.943   3.440
 3737SOL    HW112110   4.569   6.952   3.477
 3737SOL    HW212111   4.480   6.895   3.352
 3738SOL     OW12112   0.449   6.963   4.005
 3738SOL    HW112113   0.452   0.033   3.967
 3738SOL    HW212114   0.410   6.901   3.937
 3739SOL     OW12115   0.657   3.777   2.083
 3739SOL    HW112116   0.647   3.843   2.009
 3739SOL    HW212117   0.575   3.720   2.090
 3740SOL     OW12118   4.974   1.323   6.739
 3740SOL    HW112119   4.968   1.281   6.829
 3740SOL    HW212120   4.945   1.418   6.744
 3741SOL     OW12121   3.788   2.305   6.581
 3741SOL    HW112122   3.880   2.295   6.619
 3741SOL    HW212123   3.744   2.215   6.576
 3742SOL     OW12124   2.898   3.619   5.480
 3742SOL    HW112125   2.987   3.645   5.518
 3742SOL    HW212126   2.902   3.623   5.380
 3743SOL     OW12127   0.698   5.655   6.186
 3743SOL    HW112128   0.682   5.753   6.178
 3743SOL    HW212129   0.610   5.607   6.186
 3744SOL     OW12130   6.966   5.965   3.232
 3744SOL    HW112131   0.032   6.003   3.258
 3744SOL    HW212132   6.893   6.013   3.282
 3745SOL     OW12133   5.018   5.836   1.672
 3745SOL    HW112134   4.959   5.805   1.746
 3745SOL    HW212135   5.114   5.827   1.699
 3746SOL     OW12136   4.135   1.832   2.420
 3746SOL    HW112137   4.234   1.825   2.410
 3746SOL    HW212138   4.113   1.916   2.469
 3747SOL     OW12139   2.864   6.990   0.397
 3747SOL    HW112140   2.777   6.958   0.433
 3747SOL    HW212141   2.857   7.003   0.298
 3748SOL     OW12142   6.120   0.884   2.305
 3748SOL    HW112143   6.112   0.955   2.236
 3748SOL    HW212144   6.036   0.880   2.360
 3749SOL     OW12145   1.237   0.168   5.329
 3749SOL    HW112146   1.308   0.237   5.337
 3749SOL    HW212147   1.152   0.202   5.370
 3750SOL     OW12148   0.239   4.324   6.560
 3750SOL    HW112149   0.196   4.257   6.500
 3750SOL    HW212150   0.242   4.288   6.654
 3751SOL     OW12151   1.382   3.867   1.785
 3751SOL    HW112152   1.301   3.917   1.814
 3751SOL    HW212153   1.416   3.811   1.860
 3752SOL     OW12154   5.329   6.525   6.757
 3752SOL    HW112155   5.243   6.474   6.760
 3752SOL    HW212156   5.404   6.465   6.785
 3753SOL     OW12157   0.020   0.605   3.733
 3753SOL    HW112158   0.004   0.521   3.681
 3753SOL    HW212159   0.079   0.666   3.680
 3754SOL     OW12160   2.577   1.603   0.827
 3754SOL    HW112161   2.528   1.517   0.811
 3754SOL    HW212162   2.584   1.619   0.926
 3755SOL     OW12163   3.232   4.919   4.256
 3755SOL    HW112164   3.205   5.013   4.236
 3755SOL    HW212165   3.188   4.857   4.191
 3756SOL     OW12166   1.776   6.303   0.284
 3756SOL    HW112167   1.764   6.318   0.382
 3756SOL    HW212168   1.700   6.344   0.234
 3757SOL     OW12169   6.878   4.560   1.159
 3757SOL    HW112170   6.946   4.559   1.232
 3757SOL    HW212171   6.855   4.655   1.136
 3758SOL     OW12172   2.405   6.847   3.854
 3758SOL    HW112173   2.309   6.873   3.858
 3758SOL    HW212174   2.454   6.884   3.933
 3759SOL     OW12175   5.364   0.096   4.081
 3759SOL    HW112176   5.267   0.118   4.076
 3759SOL    HW212177   5.414   0.175   4.117
 3760SOL     OW12178   1.372   1.167   3.124
 3760SOL    HW112179   1.429   1.230   3.177
 3760SOL    HW212180   1.280   1.205   3.115
 3761SOL     OW12181   4.847   0.892   4.730
 3761SOL    HW112182   4.924   0.837   4.764
 3761SOL    HW212183   4.763   0.838   4.738
 3762SOL     OW12184   6.943   3.045   3.597
 3762SOL    HW112185   6.985   3.120   3.545
 3762SOL    HW212186   6.845   3.061   3.605
 3763SOL     OW12187   0.505   4.440   6.987
 3763SOL    HW112188   0.522   4.469   0.059
 3763SOL    HW212189   0.516   4.341   6.980
 3764SOL     OW12190   2.789   0.652   2.773
 3764SOL    HW112191   2.886   0.675   2.763
 3764SOL    HW212192   2.736   0.695   2.700
 3765SOL     OW12193   5.587   2.793   2.719
 3765SOL    HW112194   5.512   2.859   2.730
 3765SOL    HW212195   5.666   2.839   2.678
 3766SOL     OW12196   1.306   3.497   2.127
 3766SOL    HW112197   1.333   3.415   2.177
 3766SOL    HW212198   1.358   3.576   2.161
 3767SOL     OW12199   1.266   5.450   6.159
 3767SOL    HW112200   1.238   5.360   6.127
 3767SOL    HW212201   1.295   5.445   6.254
 3768SOL     OW12202   1.344   0.195   2.457
 3768SOL    HW112203   1.303   0.211   2.368
 3768SOL    HW212204   1.377   0.101   2.462
 3769SOL     OW12205   5.226   5.626   4.174
 3769SOL    HW112206   5.231   5.528   4.154
 3769SOL    HW212207   5.318   5.663   4.186
 3770SOL     OW12208   2.040   0.966   1.538
 3770SOL    HW112209   1.974   0.893   1.517
 3770SOL    HW212210   1.993   1.054   1.535
 3771SOL     OW12211   6.361   5.686   5.512
 3771SOL    HW112212   6.372   5.603   5.568
 3771SOL    HW212213   6.330   5.661   5.421
 3772SOL     OW12214   1.281   5.975   1.280
 3772SOL    HW112215   1.320   5.902   1.224
 3772SOL    HW212216   1.307   6.064   1.242
 3773SOL     OW12217   4.926   4.984   6.520
 3773SOL    HW112218   4.984   5.044   6.466
 3773SOL    HW212219   4.830   5.001   6.497
 3774SOL     OW12220   6.586   5.197   2.047
 3774SOL    HW112221   6.511   5.209   1.982
 3774SOL    HW212222   6.558   5.135   2.120
 3775SOL     OW12223   4.545   5.309   5.113
 3775SOL    HW112224   4.507   5.401   5.107
 3775SOL    HW212225   4.644   5.313   5.121
 3776SOL     OW12226   3.761   2.766   5.673
 3776SOL    HW112227   3.778   2.848   5.728
 3776SOL    HW212228   3.718   2.696   5.730
 3777SOL     OW12229   3.081   4.922   4.698
 3777SOL    HW112230   3.034   4.969   4.624
 3777SOL    HW212231   3.014   4.881   4.760
 3778SOL     OW12232   3.408   5.472   6.739
 3778SOL    HW112233   3.315   5.439   6.752
 3778SOL    HW212234   3.420   5.560   6.784
 3779SOL     OW12235   0.104   4.815   0.120
 3779SOL    HW112236   0.197   4.851   0.123
 3779SOL    HW212237   0.102   4.723   0.160
 3780SOL     OW12238   5.612   4.162   1.688
 3780SOL    HW112239   5.644   4.087   1.745
 3780SOL    HW212240   5.512   4.162   1.685
 3781SOL     OW12241   2.610   6.059   4.659
 3781SOL    HW112242   2.610   5.977   4.716
 3781SOL    HW212243   2.673   6.126   4.698
 3782SOL     OW12244   4.466   4.962   1.499
 3782SOL    HW112245   4.540   4.897   1.516
 3782SOL    HW212246   4.428   4.992   1.586
 3783SOL     OW12247   4.957   5.308   4.729
 3783SOL    HW112248   5.031   5.364   4.692
 3783SOL    HW212249   4.984   5.270   4.817
 3784SOL     OW12250   5.928   2.416   4.571
 3784SOL    HW112251   5.828   2.412   4.578
 3784SOL    HW212252   5.961   2.498   4.618
 3785SOL     OW12253   1.565   2.932   3.235
 3785SOL    HW112254   1.477   2.927   3.283
 3785SOL    HW212255   1.588   2.842   3.199
 3786SOL     OW12256   2.127   3.458   4.663
 3786SOL    HW112257   2.137   3.368   4.705
 3786SOL    HW212258   2.179   3.525   4.715
 3787SOL     OW12259   5.061   6.964   4.139
 3787SOL    HW112260   4.985   6.916   4.096
 3787SOL    HW212261   5.083   6.919   4.226
 3788SOL     OW12262   5.110   2.438   5.262
 3788SOL    HW112263   5.125   2.376   5.185
 3788SOL    HW212264   5.030   2.495   5.243
 3789SOL     OW12265   2.376   2.713   1.825
 3789SOL    HW112266   2.389   2.678   1.918
 3789SOL    HW212267   2.338   2.640   1.767
 3790SOL     OW12268   0.305   6.467   1.951
 3790SOL    HW112269   0.403   6.481   1.941
 3790SOL    HW212270   0.288   6.403   2.026
 3791SOL     OW12271   4.971   1.267   6.138
 3791SOL    HW112272   4.976   1.264   6.238
 3791SOL    HW212273   4.889   1.318   6.111
 3792SOL     OW12274   6.811   0.467   4.560
 3792SOL    HW112275   6.713   0.447   4.560
 3792SOL    HW212276   6.857   0.411   4.490
 3793SOL     OW12277   4.390   4.816   0.222
 3793SOL    HW112278   4.368   4.747   0.291
 3793SOL    HW212279   4.465   4.783   0.165
 3794SOL     OW12280   0.623   4.402   6.032
 3794SOL    HW112281   0.622   4.407   6.132
 3794SOL    HW212282   0.696   4.340   6.002
 3795SOL     OW12283   2.872   5.832   1.482
 3795SOL    HW112284   2.802   5.890   1.442
 3795SOL    HW212285   2.957   5.885   1.493
 3796SOL     OW12286   4.192   1.160   0.121
 3796SOL    HW112287   4.219   1.145   0.025
 3796SOL    HW212288   4.094   1.143   0.130
 3797SOL     OW12289   0.621   4.311   1.656
 3797SOL    HW112290   0.637   4.234   1.595
 3797SOL    HW212291   0.610   4.278   1.750
 3798SOL     OW12292   1.671   5.695   3.527
 3798SOL    HW112293   1.633   5.728   3.614
 3798SOL    HW212294   1.645   5.758   3.453
 3799SOL     OW12295   6.944   0.928   3.214
 3799SOL    HW112296   6.981   0.954   3.124
 3799SOL    HW212297   6.866   0.986   3.235
 3800SOL     OW12298   5.591   2.559   2.883
 3800SOL    HW112299   5.592   2.651   2.843
 3800SOL    HW212300   5.524   2.503   2.835
 3801SOL     OW12301   6.223   1.750   0.947
 3801SOL    HW112302   6.163   1.679   0.911
 3801SOL    HW212303   6.170   1.814   1.003
 3802SOL     OW12304   6.077   3.546   1.809
 3802SOL    HW112305   6.078   3.535   1.909
 3802SOL    HW212306   6.043   3.637   1.786
 3803SOL     OW12307   3.443   3.753   4.370
 3803SOL    HW112308   3.478   3.659   4.375
 3803SOL    HW212309   3.393   3.774   4.453
 3804SOL     OW12310   4.117   5.973   3.641
 3804SOL    HW112311   4.151   6.033   3.714
 3804SOL    HW212312   4.090   6.029   3.562
 3805SOL     OW12313   2.483   2.455   6.883
 3805SOL    HW112314   2.544   2.482   6.809
 3805SOL    HW212315   2.391   2.492   6.865
 3806SOL     OW12316   2.649   5.000   1.388
 3806SOL    HW112317   2.618   4.911   1.420
 3806SOL    HW212318   2.664   5.061   1.466
 3807SOL     OW12319   1.583   3.834   3.893
 3807SOL    HW112320   1.596   3.830   3.992
 3807SOL    HW212321   1.650   3.895   3.853
 3808SOL     OW12322   2.455   6.380   6.208
 3808SOL    HW112323   2.516   6.443   6.159
 3808SOL    HW212324   2.465   6.393   6.306
 3809SOL     OW12325   5.198   2.045   1.511
 3809SOL    HW112326   5.277   2.031   1.569
 3809SOL    HW212327   5.213   2.001   1.422
 3810SOL     OW12328   5.214   1.980   2.233
 3810SOL    HW112329   5.207   1.982   2.333
 3810SOL    HW212330   5.221   2.073   2.198
 3811SOL     OW12331   0.473   5.820   5.292
 3811SOL    HW112332   0.528   5.832   5.375
 3811SOL    HW212333   0.496   5.733   5.249
 3812SOL     OW12334   4.849   5.645   0.405
 3812SOL    HW112335   4.891   5.735   0.396
 3812SOL    HW212336   4.763   5.643   0.354
 3813SOL     OW12337   6.141   4.445   0.068
 3813SOL    HW112338   6.153   4.466   6.993
 3813SOL    HW212339   6.121   4.530   0.118
 3814SOL     OW12340   0.177   0.509   5.169
 3814SOL    HW112341   0.160   0.477   5.263
 3814SOL    HW212342   0.091   0.537   5.127
 3815SOL     OW12343   6.268   3.694   5.695
 3815SOL    HW112344   6.330   3.684   5.772
 3815SOL    HW212345   6.309   3.654   5.613
 3816SOL     OW12346   6.706   6.231   1.406
 3816SOL    HW112347   6.806   6.226   1.414
 3816SOL    HW212348   6.664   6.193   1.488
 3817SOL     OW12349   4.911   3.692   1.955
 3817SOL    HW112350   4.862   3.764   1.906
 3817SOL    HW212351   4.877   3.603   1.924
 3818SOL     OW12352   5.861   6.244   2.566
 3818SOL    HW112353   5.870   6.197   2.478
 3818SOL    HW212354   5.777   6.298   2.566
 3819SOL     OW12355   6.031   3.997   3.915
 3819SOL    HW112356   6.125   4.030   3.919
 3819SOL    HW212357   5.975   4.061   3.862
 3820SOL     OW12358   2.655   6.142   5.002
 3820SOL    HW112359   2.645   6.157   5.100
 3820SOL    HW212360   2.730   6.198   4.967
 3821SOL     OW12361   1.221   0.435   0.287
 3821SOL    HW112362   1.132   0.390   0.279
 3821SOL    HW212363   1.291   0.366   0.308
 3822SOL     OW12364   4.445   0.328   2.079
 3822SOL    HW112365   4.484   0.320   2.171
 3822SOL    HW212366   4.517   0.354   2.015
 3823SOL     OW12367   5.818   5.994   6.652
 3823SOL    HW112368   5.869   6.066   6.603
 3823SOL    HW212369   5.735   6.034   6.692
 3824SOL     OW12370   2.379   2.991   0.152
 3824SOL    HW112371   2.344   3.062   0.090
 3824SOL    HW212372   2.303   2.937   0.187
 3825SOL     OW12373   0.971   4.669   5.650
 3825SOL    HW112374   1.070   4.684   5.642
 3825SOL    HW212375   0.925   4.708   5.570
 3826SOL     OW12376   5.700   4.573   3.941
 3826SOL    HW112377   5.735   4.664   3.919
 3826SOL    HW212378   5.745   4.539   4.023
 3827SOL     OW12379   0.536   2.226   0.651
 3827SOL    HW112380   0.582   2.141   0.625
 3827SOL    HW212381   0.601   2.302   0.644
 3828SOL     OW12382   3.752   3.410   3.571
 3828SOL    HW112383   3.757   3.508   3.588
 3828SOL    HW212384   3.762   3.393   3.473
 3829SOL     OW12385   1.171   3.497   1.880
 3829SOL    HW112386   1.212   3.472   1.968
 3829SOL    HW212387   1.126   3.586   1.889
 3830SOL     OW12388   5.763   0.834   4.068
 3830SOL    HW112389   5.857   0.844   4.034
 3830SOL    HW212390   5.709   0.913   4.038
 3831SOL     OW12391   4.935   1.976   3.848
 3831SOL    HW112392   4.838   1.996   3.860
 3831SOL    HW212393   4.948   1.920   3.766
 3832SOL     OW12394   6.754   1.115   3.250
 3832SOL    HW112395   6.727   1.175   3.325
 3832SOL    HW212396   6.728   1.156   3.163
 3833SOL     OW12397   2.029   1.608   5.190
 3833SOL    HW112398   2.084   1.632   5.270
 3833SOL    HW212399   2.022   1.509   5.182
 3834SOL     OW12400   4.918   3.592   0.986
 3834SOL    HW112401   4.984   3.641   0.929
 3834SOL    HW212402   4.867   3.657   1.042
 3835SOL     OW12403   4.007   5.613   4.878
 3835SOL    HW112404   3.944   5.597   4.955
 3835SOL    HW212405   4.047   5.704   4.887
 3836SOL     OW12406   0.231   6.356   5.624
 3836SOL    HW112407   0.289   6.284   5.586
 3836SOL    HW212408   0.141   6.352   5.582
 3837SOL     OW12409   4.472   4.771   5.580
 3837SOL    HW112410   4.403   4.790   5.509
 3837SOL    HW212411   4.442   4.693   5.635
 3838SOL     OW12412   0.953   1.306   3.978
 3838SOL    HW112413   1.025   1.375   3.978
 3838SOL    HW212414   0.887   1.325   4.051
 3839SOL     OW12415   5.133   0.899   3.700
 3839SOL    HW112416   5.074   0.918   3.622
 3839SOL    HW212417   5.078   0.887   3.782
 3840SOL     OW12418   2.719   1.625   6.768
 3840SOL    HW112419   2.710   1.724   6.777
 3840SOL    HW212420   2.655   1.593   6.697
 3841SOL     OW12421   5.984   4.421   4.438
 3841SOL    HW112422   6.047   4.445   4.512
 3841SOL    HW212423   5.949   4.504   4.396
 3842SOL     OW12424   1.359   3.768   4.935
 3842SOL    HW112425   1.422   3.705   4.891
 3842SOL    HW212426   1.265   3.739   4.919
 3843SOL     OW12427   4.881   2.449   0.124
 3843SOL    HW112428   4.818   2.371   0.132
 3843SOL    HW212429   4.945   2.431   0.049
 3844SOL     OW12430   0.185   0.227   1.382
 3844SOL    HW112431   0.096   0.256   1.347
 3844SOL    HW212432   0.235   0.179   1.310
 3845SOL     OW12433   2.201   5.549   0.647
 3845SOL    HW112434   2.284   5.513   0.606
 3845SOL    HW212435   2.125   5.486   0.630
 3846SOL     OW12436   0.828   2.883   2.768
 3846SOL    HW112437   0.813   2.816   2.841
 3846SOL    HW212438   0.843   2.973   2.807
 3847SOL     OW12439   6.546   2.054   6.575
 3847SOL    HW112440   6.557   2.071   6.673
 3847SOL    HW212441   6.455   2.017   6.558
 3848SOL     OW12442   5.628   3.851   2.877
 3848SOL    HW112443   5.666   3.762   2.901
 3848SOL    HW212444   5.529   3.843   2.865
 3849SOL     OW12445   6.786   4.819   6.418
 3849SOL    HW112446   6.702   4.766   6.401
 3849SOL    HW212447   6.801   4.826   6.517
 3850SOL     OW12448   2.877   2.318   1.416
 3850SOL    HW112449   2.937   2.322   1.496
 3850SOL    HW212450   2.915   2.252   1.350
 3851SOL     OW12451   0.347   5.728   2.183
 3851SOL    HW112452   0.403   5.787   2.241
 3851SOL    HW212453   0.376   5.633   2.196
 3852SOL     OW12454   2.259   6.359   5.422
 3852SOL    HW112455   2.175   6.376   5.474
 3852SOL    HW212456   2.315   6.293   5.472
 3853SOL     OW12457   2.790   0.094   3.154
 3853SOL    HW112458   2.796   7.019   3.132
 3853SOL    HW212459   2.880   0.128   3.180
 3854SOL     OW12460   1.631   1.990   2.260
 3854SOL    HW112461   1.576   1.912   2.230
 3854SOL    HW212462   1.725   1.959   2.277
 3855SOL     OW12463   3.345   6.677   0.489
 3855SOL    HW112464   3.425   6.618   0.482
 3855SOL    HW212465   3.334   6.729   0.405
 3856SOL     OW12466   0.245   2.273   6.865
 3856SOL    HW112467   0.266   2.206   6.794
 3856SOL    HW212468   0.266   2.234   6.955
 3857SOL     OW12469   2.180   0.338   5.997
 3857SOL    HW112470   2.089   0.302   6.016
 3857SOL    HW212471   2.186   0.432   6.030
 3858SOL     OW12472   4.392   0.429   4.332
 3858SOL    HW112473   4.363   0.517   4.295
 3858SOL    HW212474   4.311   0.375   4.356
 3859SOL     OW12475   6.307   0.110   2.276
 3859SOL    HW112476   6.214   0.077   2.265
 3859SOL    HW212477   6.369   0.033   2.291
 3860SOL     OW12478   1.227   6.558   4.012
 3860SOL    HW112479   1.234   6.530   3.917
 3860SOL    HW212480   1.277   6.493   4.070
 3861SOL     OW12481   2.803   5.943   1.753
 3861SOL    HW112482   2.713   5.958   1.793
 3861SOL    HW212483   2.795   5.941   1.653
 3862SOL     OW12484   2.016   0.147   3.853
 3862SOL    HW112485   1.992   0.227   3.799
 3862SOL    HW212486   1.961   0.144   3.936
 3863SOL     OW12487   3.739   0.206   0.496
 3863SOL    HW112488   3.649   0.162   0.492
 3863SOL    HW212489   3.770   0.226   0.403
 3864SOL     OW12490   2.476   0.282   5.041
 3864SOL    HW112491   2.535   0.352   5.000
 3864SOL    HW212492   2.496   0.275   5.139
 3865SOL     OW12493   3.514   0.889   0.601
 3865SOL    HW112494   3.586   0.938   0.551
 3865SOL    HW212495   3.426   0.907   0.559
 3866SOL     OW12496   2.577   2.210   6.586
 3866SOL    HW112497   2.668   2.233   6.621
 3866SOL    HW212498   2.565   2.249   6.495
 3867SOL     OW12499   0.566   3.507   1.800
 3867SOL    HW112500   0.587   3.411   1.782
 3867SOL    HW212501   0.538   3.518   1.895
 3868SOL     OW12502   4.500   0.502   0.388
 3868SOL    HW112503   4.400   0.498   0.385
 3868SOL    HW212504   4.538   0.437   0.323
 3869SOL     OW12505   5.933   2.425   3.381
 3869SOL    HW112506   5.965   2.386   3.295
 3869SOL    HW212507   5.984   2.508   3.402
 3870SOL     OW12508   0.402   0.431   4.375
 3870SOL    HW112509   0.474   0.362   4.374
 3870SOL    HW212510   0.323   0.396   4.425
 3871SOL     OW12511   2.794   4.787   4.472
 3871SOL    HW112512   2.744   4.702   4.489
 3871SOL    HW212513   2.847   4.778   4.387
 3872SOL     OW12514   2.654   3.748   5.469
 3872SOL    HW112515   2.741   3.702   5.488
 3872SOL    HW212516   2.586   3.680   5.442
 3873SOL     OW12517   4.676   1.798   0.280
 3873SOL    HW112518   4.696   1.810   0.377
 3873SOL    HW212519   4.609   1.866   0.250
 3874SOL     OW12520   2.997   0.962   6.813
 3874SOL    HW112521   3.016   1.005   6.725
 3874SOL    HW212522   2.969   1.032   6.879
 3875SOL     OW12523   1.500   2.320   6.041
 3875SOL    HW112524   1.439   2.398   6.033
 3875SOL    HW212525   1.585   2.337   5.991
 3876SOL     OW12526   4.114   5.155   1.198
 3876SOL    HW112527   4.113   5.059   1.226
 3876SOL    HW212528   4.155   5.211   1.270
 3877SOL     OW12529   6.567   1.692   7.017
 3877SOL    HW112530   6.552   1.760   0.066
 3877SOL    HW212531   6.491   1.694   6.952
 3878SOL     OW12532   4.683   0.623   4.323
 3878SOL    HW112533   4.648   0.560   4.254
 3878SOL    HW212534   4.643   0.713   4.309
 3879SOL     OW12535   5.366   5.289   0.291
 3879SOL    HW112536   5.406   5.323   0.206
 3879SOL    HW212537   5.433   5.233   0.339
 3880SOL     OW12538   4.561   4.514   4.056
 3880SOL    HW112539   4.634   4.580   4.043
 3880SOL    HW212540   4.524   4.522   4.148
 3881SOL     OW12541   0.762   4.303   0.637
 3881SOL    HW112542   0.850   4.268   0.667
 3881SOL    HW212543   0.699   4.306   0.715
 3882SOL     OW12544   0.804   1.803   0.003
 3882SOL    HW112545   0.900   1.774   0.006
 3882SOL    HW212546   0.793   1.886   0.058
 3883SOL     OW12547   5.103   6.289   2.723
 3883SOL    HW112548   5.025   6.349   2.740
 3883SOL    HW212549   5.163   6.289   2.803
 3884SOL     OW12550   0.796   4.822   2.025
 3884SOL    HW112551   0.783   4.785   1.933
 3884SOL    HW212552   0.814   4.747   2.088
 3885SOL     OW12553   5.484   5.948   2.903
 3885SOL    HW112554   5.495   5.856   2.865
 3885SOL    HW212555   5.510   5.947   2.999
 3886SOL     OW12556   3.890   6.368   5.848
 3886SOL    HW112557   3.963   6.314   5.891
 3886SOL    HW212558   3.805   6.352   5.897
 3887SOL     OW12559   0.274   6.352   2.193
 3887SOL    HW112560   0.343   6.410   2.236
 3887SOL    HW212561   0.247   6.280   2.257
 3888SOL     OW12562   6.099   5.704   4.045
 3888SOL    HW112563   6.146   5.770   3.987
 3888SOL    HW212564   6.144   5.700   4.134
 3889SOL     OW12565   4.956   3.429   6.584
 3889SOL    HW112566   4.942   3.527   6.569
 3889SOL    HW212567   4.978   3.413   6.680
 3890SOL     OW12568   5.346   3.010   4.141
 3890SOL    HW112569   5.431   2.959   4.155
 3890SOL    HW212570   5.332   3.075   4.216
 3891SOL     OW12571   6.352   5.397   3.351
 3891SOL    HW112572   6.279   5.464   3.347
 3891SOL    HW212573   6.313   5.305   3.359
 3892SOL     OW12574   0.079   2.217   1.458
 3892SOL    HW112575   0.080   2.270   1.374
 3892SOL    HW212576   0.067   2.120   1.437
 3893SOL     OW12577   4.055   3.497   1.370
 3893SOL    HW112578   3.988   3.505   1.444
 3893SOL    HW212579   4.144   3.475   1.408
 3894SOL     OW12580   4.444   0.447   6.212
 3894SOL    HW112581   4.411   0.491   6.296
 3894SOL    HW212582   4.533   0.405   6.230
 3895SOL     OW12583   2.172   6.930   4.225
 3895SOL    HW112584   2.258   6.918   4.274
 3895SOL    HW212585   2.105   6.864   4.260
 3896SOL     OW12586   1.387   1.050   6.950
 3896SOL    HW112587   1.414   0.972   7.007
 3896SOL    HW212588   1.454   1.063   6.877
 3897SOL     OW12589   4.673   6.153   1.669
 3897SOL    HW112590   4.644   6.237   1.623
 3897SOL    HW212591   4.604   6.082   1.655
 3898SOL     OW12592   4.404   2.705   6.981
 3898SOL    HW112593   4.392   2.707   0.058
 3898SOL    HW212594   4.408   2.798   6.946
 3899SOL     OW12595   3.417   6.395   6.585
 3899SOL    HW112596   3.462   6.314   6.548
 3899SOL    HW212597   3.337   6.418   6.530
 3900SOL     OW12598   5.044   3.899   3.237
 3900SOL    HW112599   5.097   3.851   3.307
 3900SOL    HW212600   5.004   3.832   3.174
 3901SOL     OW12601   2.595   0.320   0.040
 3901SOL    HW112602   2.551   0.350   6.977
 3901SOL    HW212603   2.679   0.271   0.019
 3902SOL     OW12604   6.323   3.065   2.829
 3902SOL    HW112605   6.382   2.990   2.799
 3902SOL    HW212606   6.278   3.105   2.750
 3903SOL     OW12607   3.656   5.366   6.769
 3903SOL    HW112608   3.566   5.403   6.747
 3903SOL    HW212609   3.651   5.315   6.856
 3904SOL     OW12610   0.998   0.284   0.262
 3904SOL    HW112611   0.925   0.285   0.330
 3904SOL    HW212612   0.958   0.292   0.170
 3905SOL     OW12613   6.843   5.919   5.408
 3905SOL    HW112614   6.932   5.964   5.415
 3905SOL    HW212615   6.845   5.834   5.461
 3906SOL     OW12616   6.062   6.610   5.493
 3906SOL    HW112617   6.096   6.696   5.532
 3906SOL    HW212618   6.061   6.540   5.564
 3907SOL     OW12619   5.929   1.402   4.265
 3907SOL    HW112620   5.860   1.421   4.334
 3907SOL    HW212621   5.887   1.406   4.174
 3908SOL     OW12622   1.728   2.199   5.482
 3908SOL    HW112623   1.736   2.120   5.422
 3908SOL    HW212624   1.819   2.227   5.514
 3909SOL     OW12625   6.039   5.443   4.102
 3909SOL    HW112626   6.045   5.530   4.053
 3909SOL    HW212627   6.043   5.460   4.201
 3910SOL     OW12628   3.761   3.638   3.078
 3910SOL    HW112629   3.813   3.655   3.162
 3910SOL    HW212630   3.717   3.722   3.048
 3911SOL     OW12631   6.064   1.827   5.528
 3911SOL    HW112632   6.060   1.911   5.583
 3911SOL    HW212633   6.093   1.850   5.435
 3912SOL     OW12634   5.555   2.163   6.007
 3912SOL    HW112635   5.510   2.156   6.096
 3912SOL    HW212636   5.553   2.073   5.962
 3913SOL     OW12637   1.001   6.699   0.695
 3913SOL    HW112638   1.059   6.653   0.763
 3913SOL    HW212639   1.012   6.654   0.606
 3914SOL     OW12640   3.081   6.145   6.494
 3914SOL    HW112641   3.059   6.238   6.467
 3914SOL    HW212642   3.178   6.127   6.479
 3915SOL     OW12643   6.053   5.322   1.781
 3915SOL    HW112644   6.126   5.305   1.715
 3915SOL    HW212645   6.049   5.420   1.802
 3916SOL     OW12646   1.679   0.240   2.937
 3916SOL    HW112647   1.761   0.276   2.981
 3916SOL    HW212648   1.599   0.293   2.966
 3917SOL     OW12649   2.090   0.076   0.001
 3917SOL    HW112650   2.023   0.053   6.953
 3917SOL    HW212651   2.154   0.000   0.013
 3918SOL     OW12652   5.086   4.337   1.731
 3918SOL    HW112653   5.023   4.263   1.755
 3918SOL    HW212654   5.036   4.410   1.686
 3919SOL     OW12655   3.262   6.856   0.294
 3919SOL    HW112656   3.231   6.811   0.211
 3919SOL    HW212657   3.361   6.867   0.292
 3920SOL     OW12658   2.048   2.183   7.004
 3920SOL    HW112659   2.079   2.094   0.013
 3920SOL    HW212660   2.097   2.255   0.032
 3921SOL     OW12661   1.376   3.575   1.635
 3921SOL    HW112662   1.453   3.620   1.681
 3921SOL    HW212663   1.292   3.591   1.687
 3922SOL     OW12664   0.988   4.728   1.135
 3922SOL    HW112665   1.064   4.792   1.124
 3922SOL    HW212666   0.952   4.735   1.227
 3923SOL     OW12667   0.118   0.491   6.896
 3923SOL    HW112668   0.084   0.538   6.977
 3923SOL    HW212669   0.056   0.417   6.872
 3924SOL     OW12670   6.746   4.594   4.425
 3924SOL    HW112671   6.773   4.505   4.462
 3924SOL    HW212672   6.661   4.624   4.470
 3925SOL     OW12673   1.975   5.301   2.120
 3925SOL    HW112674   2.058   5.256   2.153
 3925SOL    HW212675   1.947   5.261   2.033
 3926SOL     OW12676   4.723   4.204   2.249
 3926SOL    HW112677   4.651   4.144   2.284
 3926SOL    HW212678   4.687   4.258   2.173
 3927SOL     OW12679   0.363   3.402   5.957
 3927SOL    HW112680   0.434   3.403   6.028
 3927SOL    HW212681   0.360   3.311   5.914
 3928SOL     OW12682   5.463   5.334   6.781
 3928SOL    HW112683   5.440   5.356   6.687
 3928SOL    HW212684   5.462   5.235   6.794
 3929SOL     OW12685   0.898   1.396   5.086
 3929SOL    HW112686   0.853   1.323   5.137
 3929SOL    HW212687   0.852   1.483   5.105
 3930SOL     OW12688   2.279   1.493   3.501
 3930SOL    HW112689   2.338   1.477   3.422
 3930SOL    HW212690   2.296   1.585   3.538
 3931SOL     OW12691   6.056   1.854   1.291
 3931SOL    HW112692   6.091   1.935   1.338
 3931SOL    HW212693   6.036   1.878   1.196
 3932SOL     OW12694   0.940   2.264   4.660
 3932SOL    HW112695   0.896   2.240   4.574
 3932SOL    HW212696   0.901   2.209   4.734
 3933SOL     OW12697   1.260   6.660   6.232
 3933SOL    HW112698   1.237   6.722   6.157
 3933SOL    HW212699   1.344   6.611   6.210
 3934SOL     OW12700   5.709   0.483   6.118
 3934SOL    HW112701   5.801   0.447   6.101
 3934SOL    HW212702   5.710   0.582   6.111
 3935SOL     OW12703   4.602   0.842   0.897
 3935SOL    HW112704   4.528   0.776   0.907
 3935SOL    HW212705   4.682   0.797   0.856
 3936SOL     OW12706   6.843   5.453   3.523
 3936SOL    HW112707   6.782   5.525   3.490
 3936SOL    HW212708   6.837   5.448   3.623
 3937SOL     OW12709   0.646   1.132   2.806
 3937SOL    HW112710   0.686   1.139   2.714
 3937SOL    HW212711   0.594   1.215   2.826
 3938SOL     OW12712   0.177   1.506   2.970
 3938SOL    HW112713   0.239   1.493   2.892
 3938SOL    HW212714   0.196   1.435   3.039
 3939SOL     OW12715   2.825   1.661   2.106
 3939SOL    HW112716   2.761   1.726   2.066
 3939SOL    HW212717   2.855   1.694   2.195
 3940SOL     OW12718   3.596   3.830   1.299
 3940SOL    HW112719   3.681   3.783   1.323
 3940SOL    HW212720   3.531   3.764   1.260
 3941SOL     OW12721   4.071   4.227   6.117
 3941SOL    HW112722   4.003   4.164   6.152
 3941SOL    HW212723   4.096   4.293   6.188
 3942SOL     OW12724   6.412   6.364   6.328
 3942SOL    HW112725   6.421   6.383   6.426
 3942SOL    HW212726   6.501   6.369   6.284
 3943SOL     OW12727   0.543   3.712   4.518
 3943SOL    HW112728   0.589   3.652   4.584
 3943SOL    HW212729   0.597   3.795   4.506
 3944SOL     OW12730   5.239   2.793   4.516
 3944SOL    HW112731   5.273   2.708   4.475
 3944SOL    HW212732   5.267   2.870   4.459
 3945SOL     OW12733   6.757   0.995   1.378
 3945SOL    HW112734   6.688   0.959   1.315
 3945SOL    HW212735   6.842   0.944   1.367
 3946SOL     OW12736   4.397   4.717   3.304
 3946SOL    HW112737   4.311   4.724   3.253
 3946SOL    HW212738   4.474   4.728   3.241
 3947SOL     OW12739   5.596   5.800   0.293
 3947SOL    HW112740   5.545   5.857   0.228
 3947SOL    HW212741   5.534   5.772   0.367
 3948SOL     OW12742   5.858   4.716   1.523
 3948SOL    HW112743   5.946   4.676   1.498
 3948SOL    HW212744   5.785   4.651   1.501
 3949SOL     OW12745   4.399   5.949   3.404
 3949SOL    HW112746   4.437   6.042   3.402
 3949SOL    HW212747   4.468   5.884   3.375
 3950SOL     OW12748   1.906   5.654   1.144
 3950SOL    HW112749   1.952   5.724   1.089
 3950SOL    HW212750   1.834   5.611   1.089
 3951SOL     OW12751   5.469   0.499   1.909
 3951SOL    HW112752   5.422   0.423   1.863
 3951SOL    HW212753   5.499   0.470   2.000
 3952SOL     OW12754   6.438   2.730   0.851
 3952SOL    HW112755   6.451   2.646   0.903
 3952SOL    HW212756   6.360   2.780   0.887
 3953SOL     OW12757   3.994   3.962   2.071
 3953SOL    HW112758   4.048   4.045   2.086
 3953SOL    HW212759   3.947   3.937   2.156
 3954SOL     OW12760   3.840   4.596   5.663
 3954SOL    HW112761   3.910   4.666   5.660
 3954SOL    HW212762   3.832   4.552   5.573
 3955SOL     OW12763   3.578   0.515   5.489
 3955SOL    HW112764   3.605   0.429   5.446
 3955SOL    HW212765   3.521   0.567   5.425
 3956SOL     OW12766   1.443   0.891   1.982
 3956SOL    HW112767   1.366   0.839   2.018
 3956SOL    HW212768   1.426   0.989   1.993
 3957SOL     OW12769   3.708   0.320   4.559
 3957SOL    HW112770   3.623   0.349   4.602
 3957SOL    HW212771   3.699   0.226   4.527
 3958SOL     OW12772   6.122   1.690   5.248
 3958SOL    HW112773   6.088   1.784   5.250
 3958SOL    HW212774   6.202   1.685   5.188
 3959SOL     OW12775   4.817   5.193   0.705
 3959SOL    HW112776   4.802   5.245   0.620
 3959SOL    HW212777   4.753   5.117   0.709
 3960SOL     OW12778   5.448   2.046   4.760
 3960SOL    HW112779   5.476   1.984   4.687
 3960SOL    HW212780   5.422   2.134   4.721
 3961SOL     OW12781   5.565   6.493   3.595
 3961SOL    HW112782   5.585   6.537   3.682
 3961SOL    HW212783   5.598   6.551   3.520
 3962SOL     OW12784   6.869   5.469   5.415
 3962SOL    HW112785   6.895   5.438   5.506
 3962SOL    HW212786   6.803   5.404   5.376
 3963SOL     OW12787   4.754   6.641   1.616
 3963SOL    HW112788   4.677   6.578   1.620
 3963SOL    HW212789   4.758   6.694   1.700
 3964SOL     OW12790   4.892   3.616   3.345
 3964SOL    HW112791   4.894   3.616   3.445
 3964SOL    HW212792   4.939   3.535   3.310
 3965SOL     OW12793   5.007   3.844   4.546
 3965SOL    HW112794   4.924   3.888   4.511
 3965SOL    HW212795   5.085   3.906   4.534
 3966SOL     OW12796   2.699   5.853   6.680
 3966SOL    HW112797   2.694   5.945   6.719
 3966SOL    HW212798   2.677   5.857   6.583
 3967SOL     OW12799   2.339   5.013   2.932
 3967SOL    HW112800   2.260   5.032   2.990
 3967SOL    HW212801   2.415   4.982   2.988
 3968SOL     OW12802   4.386   0.650   0.895
 3968SOL    HW112803   4.305   0.694   0.856
 3968SOL    HW212804   4.361   0.599   0.977
 3969SOL     OW12805   1.970   5.981   2.035
 3969SOL    HW112806   1.930   5.986   1.943
 3969SOL    HW212807   1.943   5.895   2.079
 3970SOL     OW12808   5.297   6.485   2.377
 3970SOL    HW112809   5.366   6.414   2.363
 3970SOL    HW212810   5.250   6.503   2.290
 3971SOL     OW12811   2.838   5.530   4.068
 3971SOL    HW112812   2.787   5.583   4.136
 3971SOL    HW212813   2.808   5.556   3.976
 3972SOL     OW12814   2.323   4.199   0.268
 3972SOL    HW112815   2.262   4.137   0.316
 3972SOL    HW212816   2.315   4.291   0.307
 3973SOL     OW12817   1.292   5.776   0.679
 3973SOL    HW112818   1.391   5.788   0.669
 3973SOL    HW212819   1.249   5.778   0.589
 3974SOL     OW12820   2.147   0.631   5.927
 3974SOL    HW112821   2.174   0.711   5.980
 3974SOL    HW212822   2.225   0.598   5.874
 3975SOL     OW12823   5.141   2.099   6.211
 3975SOL    HW112824   5.115   2.171   6.146
 3975SOL    HW212825   5.132   2.133   6.304
 3976SOL     OW12826   1.910   5.536   2.358
 3976SOL    HW112827   1.974   5.460   2.350
 3976SOL    HW212828   1.897   5.577   2.267
 3977SOL     OW12829   0.455   3.569   6.494
 3977SOL    HW112830   0.356   3.584   6.491
 3977SOL    HW212831   0.493   3.608   6.578
 3978SOL     OW12832   0.048   4.548   3.899
 3978SOL    HW112833   6.993   4.485   3.896
 3978SOL    HW212834   0.119   4.511   3.960
 3979SOL     OW12835   3.400   0.285   6.175
 3979SOL    HW112836   3.498   0.273   6.194
 3979SOL    HW212837   3.367   0.366   6.223
 3980SOL     OW12838   5.716   6.195   6.188
 3980SOL    HW112839   5.731   6.286   6.149
 3980SOL    HW212840   5.804   6.148   6.199
 3981SOL     OW12841   4.791   6.788   0.459
 3981SOL    HW112842   4.794   6.709   0.519
 3981SOL    HW212843   4.885   6.818   0.439
 3982SOL     OW12844   2.690   6.816   2.629
 3982SOL    HW112845   2.632   6.875   2.573
 3982SOL    HW212846   2.751   6.872   2.684
 3983SOL     OW12847   4.399   5.758   3.629
 3983SOL    HW112848   4.374   5.663   3.649
 3983SOL    HW212849   4.349   5.789   3.549
 3984SOL     OW12850   6.633   2.269   2.645
 3984SOL    HW112851   6.584   2.204   2.587
 3984SOL    HW212852   6.571   2.339   2.677
 3985SOL     OW12853   3.160   5.738   6.112
 3985SOL    HW112854   3.138   5.643   6.134
 3985SOL    HW212855   3.080   5.784   6.074
 3986SOL     OW12856   5.269   1.223   1.908
 3986SOL    HW112857   5.304   1.276   1.831
 3986SOL    HW212858   5.234   1.286   1.978
 3987SOL     OW12859   3.064   4.896   5.521
 3987SOL    HW112860   3.099   4.895   5.428
 3987SOL    HW212861   2.976   4.847   5.525
 3988SOL     OW12862   4.630   5.605   0.251
 3988SOL    HW112863   4.589   5.615   0.160
 3988SOL    HW212864   4.565   5.560   0.312
 3989SOL     OW12865   6.634   2.125   6.814
 3989SOL    HW112866   6.553   2.171   6.852
 3989SOL    HW212867   6.715   2.181   6.832
 3990SOL     OW12868   5.226   2.608   1.792
 3990SOL    HW112869   5.157   2.652   1.849
 3990SOL    HW212870   5.308   2.592   1.848
 3991SOL     OW12871   0.296   0.740   3.370
 3991SOL    HW112872   0.360   0.670   3.402
 3991SOL    HW212873   0.340   0.793   3.297
 3992SOL     OW12874   3.005   2.728   1.294
 3992SOL    HW112875   3.049   2.644   1.262
 3992SOL    HW212876   2.931   2.705   1.357
 3993SOL     OW12877   1.465   3.289   1.620
 3993SOL    HW112878   1.413   3.204   1.623
 3993SOL    HW212879   1.402   3.367   1.627
 3994SOL     OW12880   2.898   6.865   5.418
 3994SOL    HW112881   2.984   6.864   5.367
 3994SOL    HW212882   2.879   6.958   5.449
 3995SOL     OW12883   1.358   2.928   4.840
 3995SOL    HW112884   1.400   2.841   4.868
 3995SOL    HW212885   1.402   2.960   4.756
 3996SOL     OW12886   0.100   6.603   5.054
 3996SOL    HW112887   0.186   6.561   5.025
 3996SOL    HW212888   0.116   6.664   5.131
 3997SOL     OW12889   5.696   0.477   4.673
 3997SOL    HW112890   5.723   0.457   4.579
 3997SOL    HW212891   5.679   0.575   4.683
 3998SOL     OW12892   4.469   2.488   3.736
 3998SOL    HW112893   4.540   2.446   3.792
 3998SOL    HW212894   4.484   2.586   3.730
 3999SOL     OW12895   6.181   1.799   4.959
 3999SOL    HW112896   6.220   1.714   4.995
 3999SOL    HW212897   6.233   1.877   4.993
 4000SOL     OW12898   3.900   0.043   3.585
 4000SOL    HW112899   3.831   7.000   3.616
 4000SOL    HW212900   3.990   0.014   3.617
 4001SOL     OW12901   0.883   2.400   2.943
 4001SOL    HW112902   0.963   2.427   2.888
 4001SOL    HW212903   0.908   2.326   3.005
 4002SOL     OW12904   2.039   3.515   2.046
 4002SOL    HW112905   1.964   3.469   1.997
 4002SOL    HW212906   2.122   3.460   2.039
 4003SOL     OW12907   3.530   0.785   4.710
 4003SOL    HW112908   3.466   0.861   4.695
 4003SOL    HW212909   3.554   0.744   4.622
 4004SOL     OW12910   6.596   1.888   5.175
 4004SOL    HW112911   6.675   1.829   5.191
 4004SOL    HW212912   6.522   1.861   5.236
 4005SOL     OW12913   5.338   5.062   6.113
 4005SOL    HW112914   5.401   5.001   6.160
 4005SOL    HW212915   5.317   5.026   6.022
 4006SOL     OW12916   3.679   5.725   2.139
 4006SOL    HW112917   3.676   5.655   2.210
 4006SOL    HW212918   3.710   5.683   2.053
 4007SOL     OW12919   6.522   2.330   6.487
 4007SOL    HW112920   6.569   2.244   6.507
 4007SOL    HW212921   6.582   2.406   6.510
 4008SOL     OW12922   2.428   2.437   5.425
 4008SOL    HW112923   2.372   2.502   5.475
 4008SOL    HW212924   2.525   2.459   5.440
 4009SOL     OW12925   4.059   3.502   2.505
 4009SOL    HW112926   4.103   3.427   2.555
 4009SOL    HW212927   4.006   3.465   2.429
 4010SOL     OW12928   2.387   3.177   6.691
 4010SOL    HW112929   2.441   3.158   6.773
 4010SOL    HW212930   2.297   3.135   6.701
 4011SOL     OW12931   0.986   2.150   1.212
 4011SOL    HW112932   0.955   2.237   1.251
 4011SOL    HW212933   0.929   2.126   1.134
 4012SOL     OW12934   6.293   3.735   3.818
 4012SOL    HW112935   6.354   3.811   3.795
 4012SOL    HW212936   6.341   3.670   3.877
 4013SOL     OW12937   4.683   2.658   3.329
 4013SOL    HW112938   4.615   2.596   3.367
 4013SOL    HW212939   4.689   2.645   3.230
 4014SOL     OW12940   5.287   5.850   2.684
 4014SOL    HW112941   5.358   5.879   2.748
 4014SOL    HW212942   5.329   5.808   2.603
 4015SOL     OW12943   4.847   3.692   6.473
 4015SOL    HW112944   4.842   3.709   6.375
 4015SOL    HW212945   4.881   3.775   6.519
 4016SOL     OW12946   3.188   6.466   5.327
 4016SOL    HW112947   3.261   6.422   5.273
 4016SOL    HW212948   3.204   6.449   5.424
 4017SOL     OW12949   6.810   5.888   6.854
 4017SOL    HW112950   6.897   5.858   6.814
 4017SOL    HW212951   6.735   5.868   6.791
 4018SOL     OW12952   2.759   5.876   0.841
 4018SOL    HW112953   2.722   5.955   0.891
 4018SOL    HW212954   2.774   5.800   0.904
 4019SOL     OW12955   5.451   4.928   3.446
 4019SOL    HW112956   5.385   4.974   3.505
 4019SOL    HW212957   5.481   4.991   3.374
 4020SOL     OW12958   5.329   2.085   5.199
 4020SOL    HW112959   5.392   2.046   5.132
 4020SOL    HW212960   5.366   2.171   5.234
 4021SOL     OW12961   3.724   4.717   6.483
 4021SOL    HW112962   3.731   4.715   6.583
 4021SOL    HW212963   3.642   4.767   6.456
 4022SOL     OW12964   5.156   0.374   1.335
 4022SOL    HW112965   5.226   0.407   1.271
 4022SOL    HW212966   5.180   0.403   1.428
 4023SOL     OW12967   6.940   0.576   5.916
 4023SOL    HW112968   6.993   0.492   5.910
 4023SOL    HW212969   6.843   0.555   5.928
 4024SOL     OW12970   3.636   4.934   4.316
 4024SOL    HW112971   3.608   4.889   4.401
 4024SOL    HW212972   3.734   4.920   4.302
 4025SOL     OW12973   1.669   4.525   2.765
 4025SOL    HW112974   1.610   4.463   2.714
 4025SOL    HW212975   1.684   4.489   2.857
 4026SOL     OW12976   5.187   6.623   4.181
 4026SOL    HW112977   5.211   6.554   4.249
 4026SOL    HW212978   5.256   6.625   4.109
 4027SOL     OW12979   4.335   5.286   1.662
 4027SOL    HW112980   4.317   5.380   1.690
 4027SOL    HW212981   4.434   5.272   1.654
 4028SOL     OW12982   2.778   6.942   3.857
 4028SOL    HW112983   2.727   6.979   3.934
 4028SOL    HW212984   2.871   6.978   3.858
 4029SOL     OW12985   2.298   4.166   4.122
 4029SOL    HW112986   2.260   4.256   4.144
 4029SOL    HW212987   2.358   4.136   4.196
 4030SOL     OW12988   1.109   1.404   6.179
 4030SOL    HW112989   1.067   1.386   6.268
 4030SOL    HW212990   1.054   1.470   6.128
 4031SOL     OW12991   4.752   5.491   4.718
 4031SOL    HW112992   4.813   5.412   4.716
 4031SOL    HW212993   4.805   5.573   4.744
 4032SOL     OW12994   5.099   0.001   4.607
 4032SOL    HW112995   5.016   0.034   4.652
 4032SOL    HW212996   5.139   0.074   4.552
 4033SOL     OW12997   3.192   3.613   4.974
 4033SOL    HW112998   3.242   3.699   4.976
 4033SOL    HW212999   3.108   3.625   4.921
 4034SOL     OW13000   6.374   2.230   3.899
 4034SOL    HW113001   6.425   2.264   3.820
 4034SOL    HW213002   6.405   2.138   3.922
 4035SOL     OW13003   0.251   5.688   0.843
 4035SOL    HW113004   0.346   5.718   0.842
 4035SOL    HW213005   0.247   5.592   0.872
 4036SOL     OW13006   6.674   6.524   3.387
 4036SOL    HW113007   6.647   6.559   3.298
 4036SOL    HW213008   6.644   6.430   3.398
 4037SOL     OW13009   6.468   4.607   6.129
 4037SOL    HW113010   6.483   4.706   6.126
 4037SOL    HW213011   6.496   4.571   6.218
 4038SOL     OW13012   6.365   4.850   3.928
 4038SOL    HW113013   6.296   4.841   3.856
 4038SOL    HW213014   6.453   4.820   3.893
 4039SOL     OW13015   4.457   5.926   0.895
 4039SOL    HW113016   4.431   5.856   0.962
 4039SOL    HW213017   4.552   5.954   0.912
 4040SOL     OW13018   3.748   6.129   1.200
 4040SOL    HW113019   3.783   6.157   1.111
 4040SOL    HW213020   3.784   6.190   1.271
 4041SOL     OW13021   1.524   0.134   3.679
 4041SOL    HW113022   1.425   0.121   3.672
 4041SOL    HW213023   1.552   0.212   3.623
 4042SOL     OW13024   6.025   5.143   2.552
 4042SOL    HW113025   6.124   5.152   2.561
 4042SOL    HW213026   5.996   5.057   2.596
 4043SOL     OW13027   6.341   3.557   2.010
 4043SOL    HW113028   6.377   3.573   1.918
 4043SOL    HW213029   6.355   3.639   2.066
 4044SOL     OW13030   6.833   5.908   3.571
 4044SOL    HW113031   6.783   5.958   3.500
 4044SOL    HW213032   6.773   5.895   3.650
 4045SOL     OW13033   2.071   4.782   5.548
 4045SOL    HW113034   2.101   4.876   5.562
 4045SOL    HW213035   2.130   4.720   5.601
 4046SOL     OW13036   0.740   3.049   0.855
 4046SOL    HW113037   0.796   3.001   0.923
 4046SOL    HW213038   0.752   3.006   0.765
 4047SOL     OW13039   3.052   4.041   1.627
 4047SOL    HW113040   3.047   4.028   1.727
 4047SOL    HW213041   3.041   3.952   1.582
 4048SOL     OW13042   4.726   1.915   0.880
 4048SOL    HW113043   4.822   1.896   0.899
 4048SOL    HW213044   4.709   2.013   0.891
 4049SOL     OW13045   6.753   1.089   5.889
 4049SOL    HW113046   6.790   1.012   5.941
 4049SOL    HW213047   6.799   1.095   5.801
 4050SOL     OW13048   1.976   0.292   1.293
 4050SOL    HW113049   1.920   0.215   1.325
 4050SOL    HW213050   2.063   0.292   1.342
 4051SOL     OW13051   1.666   4.262   0.899
 4051SOL    HW113052   1.694   4.357   0.887
 4051SOL    HW213053   1.600   4.255   0.974
 4052SOL     OW13054   1.440   6.316   1.655
 4052SOL    HW113055   1.450   6.236   1.596
 4052SOL    HW213056   1.454   6.399   1.601
 4053SOL     OW13057   3.016   4.891   3.230
 4053SOL    HW113058   2.987   4.981   3.261
 4053SOL    HW213059   3.116   4.887   3.226
 4054SOL     OW13060   5.329   1.780   6.752
 4054SOL    HW113061   5.281   1.848   6.698
 4054SOL    HW213062   5.331   1.809   6.848
 4055SOL     OW13063   4.364   2.465   0.601
 4055SOL    HW113064   4.418   2.389   0.566
 4055SOL    HW213065   4.401   2.551   0.568
 4056SOL     OW13066   3.942   3.015   1.016
 4056SOL    HW113067   3.879   3.081   0.975
 4056SOL    HW213068   3.895   2.966   1.090
 4057SOL     OW13069   6.422   2.449   0.115
 4057SOL    HW113070   6.324   2.464   0.099
 4057SOL    HW213071   6.433   2.370   0.176
 4058SOL     OW13072   1.766   0.819   4.914
 4058SOL    HW113073   1.705   0.740   4.910
 4058SOL    HW213074   1.747   0.879   4.836
 4059SOL     OW13075   6.162   1.331   4.982
 4059SOL    HW113076   6.183   1.233   4.987
 4059SOL    HW213077   6.066   1.345   5.003
 4060SOL     OW13078   3.797   6.190   4.889
 4060SOL    HW113079   3.854   6.271   4.879
 4060SOL    HW213080   3.812   6.149   4.979
 4061SOL     OW13081   2.546   3.086   1.733
 4061SOL    HW113082   2.604   3.005   1.746
 4061SOL    HW213083   2.537   3.105   1.635
 4062SOL     OW13084   3.697   6.302   3.130
 4062SOL    HW113085   3.720   6.329   3.224
 4062SOL    HW213086   3.599   6.315   3.114
 4063SOL     OW13087   2.336   5.350   6.188
 4063SOL    HW113088   2.383   5.378   6.104
 4063SOL    HW213089   2.290   5.263   6.173
 4064SOL     OW13090   6.181   0.259   4.483
 4064SOL    HW113091   6.228   0.311   4.411
 4064SOL    HW213092   6.122   0.320   4.536
 4065SOL     OW13093   6.044   5.111   0.169
 4065SOL    HW113094   5.957   5.159   0.172
 4065SOL    HW213095   6.113   5.163   0.220
 4066SOL     OW13096   6.408   4.848   2.120
 4066SOL    HW113097   6.374   4.781   2.186
 4066SOL    HW213098   6.355   4.841   2.035
 4067SOL     OW13099   6.080   0.779   1.626
 4067SOL    HW113100   6.043   0.780   1.533
 4067SOL    HW213101   6.176   0.754   1.624
 4068SOL     OW13102   5.651   1.248   4.684
 4068SOL    HW113103   5.674   1.211   4.594
 4068SOL    HW213104   5.558   1.220   4.709
 4069SOL     OW13105   6.585   5.898   1.281
 4069SOL    HW113106   6.672   5.856   1.254
 4069SOL    HW213107   6.591   5.928   1.376
 4070SOL     OW13108   0.451   3.683   2.995
 4070SOL    HW113109   0.360   3.713   2.965
 4070SOL    HW213110   0.506   3.762   3.021
 4071SOL     OW13111   2.457   0.518   3.798
 4071SOL    HW113112   2.556   0.506   3.790
 4071SOL    HW213113   2.421   0.448   3.860
 4072SOL     OW13114   0.846   0.184   4.321
 4072SOL    HW113115   0.794   0.144   4.246
 4072SOL    HW213116   0.937   0.142   4.325
 4073SOL     OW13117   3.192   5.154   1.494
 4073SOL    HW113118   3.103   5.125   1.531
 4073SOL    HW213119   3.234   5.077   1.446
 4074SOL     OW13120   0.790   2.853   0.623
 4074SOL    HW113121   0.713   2.837   0.561
 4074SOL    HW213122   0.820   2.766   0.662
 4075SOL     OW13123   4.962   0.916   3.908
 4075SOL    HW113124   4.928   0.837   3.960
 4075SOL    HW213125   4.929   1.001   3.951
 4076SOL     OW13126   1.400   2.207   3.246
 4076SOL    HW113127   1.432   2.185   3.153
 4076SOL    HW213128   1.424   2.302   3.267
 4077SOL     OW13129   2.780   1.267   0.964
 4077SOL    HW113130   2.863   1.316   0.937
 4077SOL    HW213131   2.730   1.322   1.032
 4078SOL     OW13132   5.387   4.245   2.417
 4078SOL    HW113133   5.321   4.296   2.472
 4078SOL    HW213134   5.437   4.181   2.476
 4079SOL     OW13135   6.392   0.745   4.431
 4079SOL    HW113136   6.485   0.724   4.460
 4079SOL    HW213137   6.343   0.791   4.505
 4080SOL     OW13138   3.547   2.889   2.561
 4080SOL    HW113139   3.470   2.951   2.545
 4080SOL    HW213140   3.577   2.899   2.656
 4081SOL     OW13141   2.444   2.423   6.412
 4081SOL    HW113142   2.458   2.518   6.439
 4081SOL    HW213143   2.507   2.400   6.337
 4082SOL     OW13144   1.477   2.280   5.579
 4082SOL    HW113145   1.469   2.267   5.678
 4082SOL    HW213146   1.567   2.249   5.549
 4083SOL     OW13147   6.059   5.467   2.963
 4083SOL    HW113148   6.052   5.391   3.028
 4083SOL    HW213149   6.089   5.549   3.011
 4084SOL     OW13150   4.595   0.700   2.437
 4084SOL    HW113151   4.611   0.712   2.535
 4084SOL    HW213152   4.503   0.731   2.414
 4085SOL     OW13153   2.923   4.847   2.523
 4085SOL    HW113154   2.896   4.861   2.427
 4085SOL    HW213155   3.018   4.815   2.526
 4086SOL     OW13156   6.413   4.901   4.855
 4086SOL    HW113157   6.411   4.805   4.883
 4086SOL    HW213158   6.479   4.951   4.912
 4087SOL     OW13159   1.820   0.298   1.859
 4087SOL    HW113160   1.767   0.366   1.910
 4087SOL    HW213161   1.916   0.304   1.886
 4088SOL     OW13162   6.967   2.280   5.726
 4088SOL    HW113163   6.984   2.235   5.814
 4088SOL    HW213164   7.000   2.222   5.652
 4089SOL     OW13165   0.924   0.913   2.696
 4089SOL    HW113166   0.846   0.854   2.676
 4089SOL    HW213167   0.906   1.005   2.664
 4090SOL     OW13168   2.517   2.578   5.819
 4090SOL    HW113169   2.482   2.669   5.800
 4090SOL    HW213170   2.455   2.509   5.781
 4091SOL     OW13171   3.398   5.724   1.825
 4091SOL    HW113172   3.373   5.643   1.771
 4091SOL    HW213173   3.455   5.784   1.770
 4092SOL     OW13174   4.820   2.320   5.744
 4092SOL    HW113175   4.859   2.231   5.721
 4092SOL    HW213176   4.893   2.382   5.772
 4093SOL     OW13177   5.494   4.236   3.596
 4093SOL    HW113178   5.552   4.160   3.625
 4093SOL    HW213179   5.492   4.306   3.667
 4094SOL     OW13180   0.255   6.062   6.983
 4094SOL    HW113181   0.308   6.101   0.036
 4094SOL    HW213182   0.179   6.009   7.020
 4095SOL     OW13183   1.211   5.220   0.809
 4095SOL    HW113184   1.234   5.276   0.730
 4095SOL    HW213185   1.114   5.195   0.806
 4096SOL     OW13186   0.841   0.486   6.394
 4096SOL    HW113187   0.913   0.418   6.386
 4096SOL    HW213188   0.872   0.573   6.355
 4097SOL     OW13189   6.585   4.010   4.951
 4097SOL    HW113190   6.600   3.976   4.858
 4097SOL    HW213191   6.563   3.934   5.012
 4098SOL     OW13192   0.828   5.287   1.914
 4098SOL    HW113193   0.755   5.222   1.931
 4098SOL    HW213194   0.790   5.369   1.871
 4099SOL     OW13195   6.089   3.767   5.457
 4099SOL    HW113196   6.002   3.720   5.443
 4099SOL    HW213197   6.115   3.761   5.553
 4100SOL     OW13198   1.947   1.770   2.855
 4100SOL    HW113199   1.881   1.839   2.824
 4100SOL    HW213200   2.028   1.816   2.892
 4101SOL     OW13201   6.536   5.458   0.022
 4101SOL    HW113202   6.556   5.540   0.075
 4101SOL    HW213203   6.541   5.378   0.082
 4102SOL     OW13204   1.037   6.044   0.489
 4102SOL    HW113205   0.996   6.061   0.399
 4102SOL    HW213206   1.118   6.102   0.501
 4103SOL     OW13207   2.076   6.526   3.228
 4103SOL    HW113208   2.098   6.556   3.322
 4103SOL    HW213209   2.134   6.576   3.164
 4104SOL     OW13210   1.945   5.940   5.078
 4104SOL    HW113211   1.944   5.874   5.154
 4104SOL    HW213212   1.930   5.891   4.992
 4105SOL     OW13213   4.083   0.607   2.482
 4105SOL    HW113214   4.010   0.659   2.528
 4105SOL    HW213215   4.124   0.543   2.548
 4106SOL     OW13216   1.135   0.748   2.705
 4106SOL    HW113217   1.052   0.803   2.701
 4106SOL    HW213218   1.113   0.652   2.689
 4107SOL     OW13219   1.500   0.934   1.264
 4107SOL    HW113220   1.524   0.914   1.169
 4107SOL    HW213221   1.547   0.869   1.324
 4108SOL     OW13222   6.183   6.129   5.974
 4108SOL    HW113223   6.231   6.064   5.915
 4108SOL    HW213224   6.246   6.200   6.004
 4109SOL     OW13225   5.395   6.235   3.995
 4109SOL    HW113226   5.363   6.251   3.901
 4109SOL    HW213227   5.420   6.322   4.037
 4110SOL     OW13228   5.211   2.768   0.390
 4110SOL    HW113229   5.122   2.724   0.391
 4110SOL    HW213230   5.211   2.844   0.325
 4111SOL     OW13231   5.867   4.669   4.402
 4111SOL    HW113232   5.771   4.690   4.383
 4111SOL    HW213233   5.887   4.689   4.497
 4112SOL     OW13234   4.214   6.072   4.124
 4112SOL    HW113235   4.277   6.024   4.186
 4112SOL    HW213236   4.120   6.058   4.155
 4113SOL     OW13237   4.123   5.511   4.504
 4113SOL    HW113238   4.033   5.473   4.483
 4113SOL    HW213239   4.184   5.499   4.426
 4114SOL     OW13240   0.079   0.957   1.606
 4114SOL    HW113241   0.115   0.904   1.682
 4114SOL    HW213242   7.011   0.994   1.630
 4115SOL     OW13243   4.626   5.878   3.770
 4115SOL    HW113244   4.561   5.951   3.753
 4115SOL    HW213245   4.620   5.810   3.696
 4116SOL     OW13246   5.035   3.422   2.924
 4116SOL    HW113247   5.125   3.395   2.888
 4116SOL    HW213248   4.965   3.405   2.855
 4117SOL     OW13249   1.324   1.082   3.728
 4117SOL    HW113250   1.267   1.083   3.646
 4117SOL    HW213251   1.389   1.158   3.725
 4118SOL     OW13252   0.954   6.563   0.458
 4118SOL    HW113253   0.867   6.556   0.507
 4118SOL    HW213254   0.955   6.498   0.382
 4119SOL     OW13255   0.342   0.686   4.471
 4119SOL    HW113256   0.307   0.687   4.565
 4119SOL    HW213257   0.353   0.591   4.440
 4120SOL     OW13258   2.222   1.283   6.253
 4120SOL    HW113259   2.289   1.210   6.245
 4120SOL    HW213260   2.159   1.263   6.328
 4121SOL     OW13261   6.805   0.507   2.258
 4121SOL    HW113262   6.780   0.485   2.352
 4121SOL    HW213263   6.739   0.572   2.220
 4122SOL     OW13264   0.662   4.705   2.864
 4122SOL    HW113265   0.622   4.619   2.834
 4122SOL    HW213266   0.638   4.723   2.959
 4123SOL     OW13267   5.050   4.607   1.376
 4123SOL    HW113268   4.995   4.663   1.314
 4123SOL    HW213269   5.126   4.661   1.412
 4124SOL     OW13270   6.337   6.223   0.166
 4124SOL    HW113271   6.384   6.137   0.149
 4124SOL    HW213272   6.371   6.264   0.251
 4125SOL     OW13273   6.399   2.896   0.372
 4125SOL    HW113274   6.362   2.842   0.447
 4125SOL    HW213275   6.408   2.839   0.290
 4126SOL     OW13276   0.606   3.374   3.891
 4126SOL    HW113277   0.550   3.291   3.891
 4126SOL    HW213278   0.559   3.447   3.941
 4127SOL     OW13279   5.029   2.451   3.901
 4127SOL    HW113280   5.005   2.493   3.988
 4127SOL    HW213281   5.027   2.520   3.829
 4128SOL     OW13282   6.808   2.794   6.686
 4128SOL    HW113283   6.761   2.860   6.628
 4128SOL    HW213284   6.773   2.801   6.779
 4129SOL     OW13285   3.506   1.789   1.229
 4129SOL    HW113286   3.595   1.771   1.271
 4129SOL    HW213287   3.436   1.797   1.300
 4130SOL     OW13288   6.067   3.230   0.440
 4130SOL    HW113289   6.029   3.194   0.525
 4130SOL    HW213290   6.167   3.222   0.442
 4131SOL     OW13291   5.485   0.208   3.206
 4131SOL    HW113292   5.484   0.202   3.106
 4131SOL    HW213293   5.493   0.115   3.244
 4132SOL     OW13294   6.644   5.165   3.217
 4132SOL    HW113295   6.744   5.157   3.214
 4132SOL    HW213296   6.612   5.146   3.309
 4133SOL     OW13297   5.675   6.742   2.750
 4133SOL    HW113298   5.585   6.740   2.707
 4133SOL    HW213299   5.668   6.711   2.845
 4134SOL     OW13300   1.568   3.494   1.160
 4134SOL    HW113301   1.492   3.428   1.154
 4134SOL    HW213302   1.623   3.474   1.241
 4135SOL     OW13303   6.300   1.171   1.308
 4135SOL    HW113304   6.301   1.072   1.324
 4135SOL    HW213305   6.353   1.192   1.226
 4136SOL     OW13306   0.458   4.820   0.973
 4136SOL    HW113307   0.537   4.858   1.021
 4136SOL    HW213308   0.376   4.830   1.030
 4137SOL     OW13309   0.865   2.481   6.443
 4137SOL    HW113310   0.774   2.497   6.482
 4137SOL    HW213311   0.931   2.541   6.487
 4138SOL     OW13312   4.233   0.138   6.708
 4138SOL    HW113313   4.249   0.042   6.730
 4138SOL    HW213314   4.304   0.170   6.645
 4139SOL     OW13315   2.168   3.924   2.894
 4139SOL    HW113316   2.154   3.825   2.894
 4139SOL    HW213317   2.136   3.962   2.807
 4140SOL     OW13318   2.553   0.290   6.601
 4140SOL    HW113319   2.552   0.370   6.663
 4140SOL    HW213320   2.615   0.309   6.524
 4141SOL     OW13321   5.269   0.928   6.350
 4141SOL    HW113322   5.335   1.001   6.330
 4141SOL    HW213323   5.317   0.839   6.347
 4142SOL     OW13324   6.504   4.894   2.610
 4142SOL    HW113325   6.535   4.834   2.683
 4142SOL    HW213326   6.543   4.864   2.523
 4143SOL     OW13327   6.348   3.847   6.475
 4143SOL    HW113328   6.384   3.921   6.418
 4143SOL    HW213329   6.400   3.763   6.459
 4144SOL     OW13330   4.913   1.659   1.553
 4144SOL    HW113331   4.878   1.658   1.646
 4144SOL    HW213332   4.946   1.751   1.531
 4145SOL     OW13333   6.734   0.480   1.704
 4145SOL    HW113334   6.766   0.392   1.739
 4145SOL    HW213335   6.808   0.524   1.654
 4146SOL     OW13336   5.143   6.897   1.213
 4146SOL    HW113337   5.108   6.983   1.250
 4146SOL    HW213338   5.224   6.868   1.264
 4147SOL     OW13339   4.602   5.061   6.862
 4147SOL    HW113340   4.511   5.048   6.901
 4147SOL    HW213341   4.670   5.061   6.936
 4148SOL     OW13342   2.914   1.317   5.328
 4148SOL    HW113343   2.847   1.289   5.259
 4148SOL    HW213344   2.868   1.369   5.400
 4149SOL     OW13345   1.332   3.704   6.421
 4149SOL    HW113346   1.395   3.765   6.373
 4149SOL    HW213347   1.358   3.699   6.517
 4150SOL     OW13348   5.630   1.396   0.077
 4150SOL    HW113349   5.614   1.415   7.002
 4150SOL    HW213350   5.544   1.403   0.127
 4151SOL     OW13351   2.489   5.700   4.744
 4151SOL    HW113352   2.471   5.758   4.665
 4151SOL    HW213353   2.473   5.751   4.828
 4152SOL     OW13354   2.606   4.336   1.282
 4152SOL    HW113355   2.521   4.307   1.239
 4152SOL    HW213356   2.611   4.298   1.374
 4153SOL     OW13357   6.483   5.901   1.794
 4153SOL    HW113358   6.432   5.974   1.840
 4153SOL    HW213359   6.562   5.940   1.747
 4154SOL     OW13360   1.010   6.716   4.099
 4154SOL    HW113361   1.028   6.764   4.185
 4154SOL    HW213362   1.078   6.643   4.086
 4155SOL     OW13363   0.053   0.598   1.921
 4155SOL    HW113364   0.141   0.554   1.937
 4155SOL    HW213365   7.003   0.545   1.966
 4156SOL     OW13366   7.016   5.190   6.091
 4156SOL    HW113367   0.047   5.127   6.147
 4156SOL    HW213368   6.943   5.140   6.044
 4157SOL     OW13369   5.643   5.760   1.353
 4157SOL    HW113370   5.625   5.694   1.281
 4157SOL    HW213371   5.575   5.833   1.350
 4158SOL     OW13372   0.912   2.975   1.100
 4158SOL    HW113373   0.967   3.058   1.107
 4158SOL    HW213374   0.902   2.933   1.190
 4159SOL     OW13375   2.778   0.550   4.391
 4159SOL    HW113376   2.866   0.505   4.381
 4159SOL    HW213377   2.722   0.532   4.311
 4160SOL     OW13378   0.821   6.779   6.253
 4160SOL    HW113379   0.810   6.866   6.206
 4160SOL    HW213380   0.790   6.704   6.195
 4161SOL     OW13381   3.202   3.384   2.883
 4161SOL    HW113382   3.185   3.330   2.800
 4161SOL    HW213383   3.138   3.357   2.954
 4162SOL     OW13384   5.204   5.268   1.505
 4162SOL    HW113385   5.252   5.225   1.582
 4162SOL    HW213386   5.208   5.208   1.425
 4163SOL     OW13387   4.065   6.122   1.950
 4163SOL    HW113388   3.995   6.131   1.878
 4163SOL    HW213389   4.155   6.143   1.912
 4164SOL     OW13390   6.863   1.305   6.183
 4164SOL    HW113391   6.771   1.267   6.196
 4164SOL    HW213392   6.931   1.237   6.211
 4165SOL     OW13393   3.817   1.060   4.607
 4165SOL    HW113394   3.858   1.151   4.602
 4165SOL    HW213395   3.848   1.014   4.691
 4166SOL     OW13396   6.039   2.188   1.121
 4166SOL    HW113397   6.018   2.257   1.190
 4166SOL    HW213398   6.124   2.213   1.074
 4167SOL     OW13399   3.798   5.348   4.518
 4167SOL    HW113400   3.794   5.251   4.542
 4167SOL    HW213401   3.769   5.402   4.597
 4168SOL     OW13402   4.722   3.872   0.446
 4168SOL    HW113403   4.811   3.830   0.464
 4168SOL    HW213404   4.689   3.842   0.356
 4169SOL     OW13405   5.327   2.803   6.029
 4169SOL    HW113406   5.349   2.776   6.122
 4169SOL    HW213407   5.341   2.725   5.967
 4170SOL     OW13408   0.543   2.321   4.971
 4170SOL    HW113409   0.599   2.389   5.018
 4170SOL    HW213410   0.568   2.317   4.875
 4171SOL     OW13411   0.972   1.821   6.727
 4171SOL    HW113412   0.991   1.886   6.801
 4171SOL    HW213413   1.040   1.747   6.730
 4172SOL     OW13414   2.886   3.217   0.709
 4172SOL    HW113415   2.852   3.254   0.796
 4172SOL    HW213416   2.808   3.184   0.656
 4173SOL     OW13417   5.129   1.602   6.347
 4173SOL    HW113418   5.156   1.612   6.251
 4173SOL    HW213419   5.030   1.613   6.354
 4174SOL     OW13420   4.364   0.056   4.576
 4174SOL    HW113421   4.460   0.039   4.595
 4174SOL    HW213422   4.339   0.015   4.488
 4175SOL     OW13423   1.004   4.345   6.664
 4175SOL    HW113424   1.029   4.377   6.572
 4175SOL    HW213425   0.935   4.405   6.702
 4176SOL     OW13426   5.415   6.424   6.379
 4176SOL    HW113427   5.330   6.468   6.406
 4176SOL    HW213428   5.491   6.489   6.390
 4177SOL     OW13429   4.458   4.474   2.831
 4177SOL    HW113430   4.514   4.448   2.752
 4177SOL    HW213431   4.365   4.493   2.802
 4178SOL     OW13432   4.008   5.838   1.239
 4178SOL    HW113433   4.048   5.773   1.174
 4178SOL    HW213434   4.044   5.929   1.221
 4179SOL     OW13435   4.492   2.921   6.842
 4179SOL    HW113436   4.574   2.890   6.794
 4179SOL    HW213437   4.519   2.987   6.913
 4180SOL     OW13438   4.156   3.359   0.505
 4180SOL    HW113439   4.233   3.392   0.450
 4180SOL    HW213440   4.072   3.402   0.474
 4181SOL     OW13441   4.987   6.975   5.641
 4181SOL    HW113442   4.962   6.882   5.611
 4181SOL    HW213443   4.915   7.011   5.700
 4182SOL     OW13444   0.839   6.227   4.853
 4182SOL    HW113445   0.894   6.146   4.874
 4182SOL    HW213446   0.743   6.201   4.842
 4183SOL     OW13447   4.201   1.953   0.744
 4183SOL    HW113448   4.222   2.033   0.800
 4183SOL    HW213449   4.123   1.904   0.784
 4184SOL     OW13450   3.867   5.609   3.792
 4184SOL    HW113451   3.883   5.514   3.767
 4184SOL    HW213452   3.779   5.618   3.839
 4185SOL     OW13453   4.877   3.625   3.606
 4185SOL    HW113454   4.853   3.718   3.633
 4185SOL    HW213455   4.837   3.560   3.671
 4186SOL     OW13456   1.855   5.702   0.425
 4186SOL    HW113457   1.827   5.669   0.515
 4186SOL    HW213458   1.779   5.693   0.361
 4187SOL     OW13459   1.604   3.336   6.730
 4187SOL    HW113460   1.622   3.427   6.693
 4187SOL    HW213461   1.644   3.267   6.671
 4188SOL     OW13462   4.561   0.080   6.993
 4188SOL    HW113463   4.660   0.088   6.982
 4188SOL    HW213464   4.515   0.133   6.921
 4189SOL     OW13465   4.569   5.519   3.334
 4189SOL    HW113466   4.609   5.554   3.419
 4189SOL    HW213467   4.534   5.427   3.350
 4190SOL     OW13468   6.678   6.330   1.116
 4190SOL    HW113469   6.656   6.280   1.200
 4190SOL    HW213470   6.766   6.377   1.127
 4191SOL     OW13471   4.633   3.252   6.276
 4191SOL    HW113472   4.546   3.217   6.241
 4191SOL    HW213473   4.615   3.322   6.345
 4192SOL     OW13474   1.511   3.602   0.011
 4192SOL    HW113475   1.590   3.656   7.005
 4192SOL    HW213476   1.511   3.590   0.110
 4193SOL     OW13477   0.654   0.287   0.362
 4193SOL    HW113478   0.696   0.197   0.349
 4193SOL    HW213479   0.561   0.286   0.325
 4194SOL     OW13480   5.416   1.838   5.681
 4194SOL    HW113481   5.500   1.865   5.728
 4194SOL    HW213482   5.433   1.757   5.626
 4195SOL     OW13483   3.825   0.395   0.678
 4195SOL    HW113484   3.760   0.445   0.736
 4195SOL    HW213485   3.774   0.334   0.617
 4196SOL     OW13486   6.144   2.774   2.454
 4196SOL    HW113487   6.113   2.746   2.364
 4196SOL    HW213488   6.160   2.694   2.511
 4197SOL     OW13489   3.743   0.701   6.612
 4197SOL    HW113490   3.712   0.658   6.528
 4197SOL    HW213491   3.706   0.652   6.691
 4198SOL     OW13492   6.296   2.444   2.192
 4198SOL    HW113493   6.366   2.507   2.161
 4198SOL    HW213494   6.272   2.465   2.288
 4199SOL     OW13495   0.051   3.954   6.309
 4199SOL    HW113496   0.093   4.012   6.239
 4199SOL    HW213497   6.989   3.914   6.273
 4200SOL     OW13498   4.499   1.507   4.046
 4200SOL    HW113499   4.561   1.583   4.064
 4200SOL    HW213500   4.486   1.497   3.948
 4201SOL     OW13501   5.596   6.989   3.845
 4201SOL    HW113502   5.511   6.943   3.872
 4201SOL    HW213503   5.574   0.057   3.808
 4202SOL     OW13504   4.534   3.720   1.459
 4202SOL    HW113505   4.488   3.746   1.543
 4202SOL    HW213506   4.627   3.757   1.459
 4203SOL     OW13507   6.178   4.472   5.012
 4203SOL    HW113508   6.164   4.397   5.077
 4203SOL    HW213509   6.115   4.547   5.034
 4204SOL     OW13510   1.745   3.841   6.505
 4204SOL    HW113511   1.793   3.923   6.474
 4204SOL    HW213512   1.756   3.831   6.604
 4205SOL     OW13513   4.348   6.761   6.480
 4205SOL    HW113514   4.413   6.695   6.519
 4205SOL    HW213515   4.260   6.752   6.526
 4206SOL     OW13516   2.029   2.344   4.472
 4206SOL    HW113517   2.047   2.302   4.383
 4206SOL    HW213518   2.095   2.418   4.487
 4207SOL     OW13519   0.482   1.840   2.089
 4207SOL    HW113520   0.435   1.778   2.027
 4207SOL    HW213521   0.416   1.879   2.154
 4208SOL     OW13522   2.176   2.434   3.953
 4208SOL    HW113523   2.249   2.451   4.019
 4208SOL    HW213524   2.205   2.364   3.887
 4209SOL     OW13525   6.033   6.190   2.072
 4209SOL    HW113526   5.993   6.139   1.996
 4209SOL    HW213527   6.035   6.132   2.153
 4210SOL     OW13528   3.095   3.932   4.693
 4210SOL    HW113529   3.121   4.024   4.722
 4210SOL    HW213530   3.046   3.886   4.766
 4211SOL     OW13531   3.917   2.705   5.391
 4211SOL    HW113532   3.969   2.649   5.327
 4211SOL    HW213533   3.956   2.695   5.483
 4212SOL     OW13534   6.884   1.656   3.332
 4212SOL    HW113535   6.906   1.589   3.262
 4212SOL    HW213536   6.787   1.648   3.357
 4213SOL     OW13537   3.088   0.501   4.337
 4213SOL    HW113538   3.140   0.576   4.379
 4213SOL    HW213539   3.103   0.503   4.238
 4214SOL     OW13540   0.025   6.305   3.088
 4214SOL    HW113541   6.958   6.319   3.132
 4214SOL    HW213542   0.091   6.371   3.124
 4215SOL     OW13543   5.854   6.961   5.693
 4215SOL    HW113544   5.885   6.942   5.786
 4215SOL    HW213545   5.786   0.013   5.696
 4216SOL     OW13546   2.470   5.648   2.102
 4216SOL    HW113547   2.459   5.721   2.171
 4216SOL    HW213548   2.384   5.636   2.053
 4217SOL     OW13549   1.352   0.446   2.829
 4217SOL    HW113550   1.443   0.463   2.868
 4217SOL    HW213551   1.358   0.450   2.729
 4218SOL     OW13552   3.028   1.440   0.277
 4218SOL    HW113553   3.005   1.348   0.309
 4218SOL    HW213554   3.128   1.451   0.276
 4219SOL     OW13555   3.866   5.461   2.769
 4219SOL    HW113556   3.777   5.452   2.724
 4219SOL    HW213557   3.937   5.472   2.700
 4220SOL     OW13558   5.472   1.639   1.143
 4220SOL    HW113559   5.442   1.689   1.062
 4220SOL    HW213560   5.437   1.545   1.139
 4221SOL     OW13561   1.343   6.244   0.755
 4221SOL    HW113562   1.420   6.306   0.768
 4221SOL    HW213563   1.261   6.297   0.734
 4222SOL     OW13564   5.236   2.830   3.691
 4222SOL    HW113565   5.180   2.912   3.708
 4222SOL    HW213566   5.177   2.749   3.688
 4223SOL     OW13567   3.886   3.828   2.296
 4223SOL    HW113568   3.816   3.758   2.282
 4223SOL    HW213569   3.933   3.812   2.383
 4224SOL     OW13570   4.532   5.015   4.472
 4224SOL    HW113571   4.520   4.921   4.504
 4224SOL    HW213572   4.449   5.067   4.491
 4225SOL     OW13573   0.975   1.613   6.052
 4225SOL    HW113574   1.030   1.690   6.085
 4225SOL    HW213575   0.970   1.617   5.952
 4226SOL     OW13576   0.490   5.852   4.751
 4226SOL    HW113577   0.558   5.882   4.684
 4226SOL    HW213578   0.477   5.753   4.743
 4227SOL     OW13579   4.479   5.945   1.923
 4227SOL    HW113580   4.480   6.035   1.880
 4227SOL    HW213581   4.399   5.938   1.983
 4228SOL     OW13582   1.274   5.261   3.946
 4228SOL    HW113583   1.280   5.275   3.847
 4228SOL    HW213584   1.354   5.301   3.990
 4229SOL     OW13585   6.299   5.507   5.881
 4229SOL    HW113586   6.257   5.551   5.961
 4229SOL    HW213587   6.377   5.562   5.851
 4230SOL     OW13588   6.870   0.828   2.097
 4230SOL    HW113589   6.943   0.818   2.165
 4230SOL    HW213590   6.807   0.751   2.104
 4231SOL     OW13591   6.600   1.298   6.496
 4231SOL    HW113592   6.598   1.278   6.398
 4231SOL    HW213593   6.694   1.291   6.529
 4232SOL     OW13594   1.501   5.424   4.012
 4232SOL    HW113595   1.422   5.460   4.062
 4232SOL    HW213596   1.563   5.378   4.076
 4233SOL     OW13597   4.592   5.777   2.133
 4233SOL    HW113598   4.528   5.787   2.056
 4233SOL    HW213599   4.546   5.803   2.218
 4234SOL     OW13600   3.182   5.356   5.840
 4234SOL    HW113601   3.135   5.272   5.865
 4234SOL    HW213602   3.121   5.434   5.852
 4235SOL     OW13603   0.120   5.877   5.758
 4235SOL    HW113604   0.208   5.917   5.781
 4235SOL    HW213605   0.049   5.947   5.762
 4236SOL     OW13606   0.486   4.915   2.705
 4236SOL    HW113607   0.531   4.848   2.764
 4236SOL    HW213608   0.532   4.919   2.617
 4237SOL     OW13609   0.533   5.042   4.140
 4237SOL    HW113610   0.439   5.021   4.116
 4237SOL    HW213611   0.582   4.957   4.162
 4238SOL     OW13612   3.765   6.639   2.450
 4238SOL    HW113613   3.708   6.560   2.428
 4238SOL    HW213614   3.729   6.721   2.405
 4239SOL     OW13615   4.322   1.239   3.890
 4239SOL    HW113616   4.264   1.278   3.961
 4239SOL    HW213617   4.359   1.313   3.833
 4240SOL     OW13618   6.185   6.617   2.114
 4240SOL    HW113619   6.222   6.682   2.048
 4240SOL    HW213620   6.140   6.667   2.188
 4241SOL     OW13621   6.118   3.987   0.373
 4241SOL    HW113622   6.072   3.977   0.461
 4241SOL    HW213623   6.169   3.904   0.351
 4242SOL     OW13624   2.915   1.696   3.623
 4242SOL    HW113625   3.015   1.687   3.615
 4242SOL    HW213626   2.892   1.789   3.653
 4243SOL     OW13627   4.980   0.722   2.918
 4243SOL    HW113628   5.011   0.645   2.974
 4243SOL    HW213629   4.984   0.806   2.971
 4244SOL     OW13630   3.726   2.945   3.821
 4244SOL    HW113631   3.631   2.954   3.793
 4244SOL    HW213632   3.786   2.962   3.742
 4245SOL     OW13633   5.647   1.200   6.503
 4245SOL    HW113634   5.640   1.258   6.422
 4245SOL    HW213635   5.563   1.205   6.556
 4246SOL     OW13636   0.329   3.377   0.245
 4246SOL    HW113637   0.400   3.429   0.198
 4246SOL    HW213638   0.366   3.288   0.274
 4247SOL     OW13639   6.774   5.560   5.013
 4247SOL    HW113640   6.743   5.587   4.922
 4247SOL    HW213641   6.873   5.548   5.013
 4248SOL     OW13642   1.903   3.436   5.120
 4248SOL    HW113643   1.836   3.362   5.110
 4248SOL    HW213644   1.985   3.402   5.165
 4249SOL     OW13645   5.503   4.258   6.049
 4249SOL    HW113646   5.522   4.330   6.116
 4249SOL    HW213647   5.446   4.295   5.976
 4250SOL     OW13648   0.834   4.440   3.045
 4250SOL    HW113649   0.831   4.526   3.096
 4250SOL    HW213650   0.922   4.394   3.061
 4251SOL     OW13651   5.369   3.777   0.709
 4251SOL    HW113652   5.397   3.740   0.621
 4251SOL    HW213653   5.423   3.859   0.729
 4252SOL     OW13654   0.604   5.973   5.494
 4252SOL    HW113655   0.688   6.007   5.451
 4252SOL    HW213656   0.620   5.881   5.529
 4253SOL     OW13657   4.020   5.824   2.782
 4253SOL    HW113658   3.972   5.809   2.868
 4253SOL    HW213659   4.050   5.919   2.777
 4254SOL     OW13660   2.834   4.183   1.197
 4254SOL    HW113661   2.795   4.276   1.192
 4254SOL    HW213662   2.921   4.181   1.148
 4255SOL     OW13663   0.242   2.057   4.609
 4255SOL    HW113664   0.276   2.148   4.630
 4255SOL    HW213665   0.174   2.064   4.535
 4256SOL     OW13666   2.044   0.595   1.817
 4256SOL    HW113667   1.955   0.579   1.860
 4256SOL    HW213668   2.057   0.693   1.804
 4257SOL     OW13669   3.941   2.146   4.783
 4257SOL    HW113670   3.992   2.200   4.850
 4257SOL    HW213671   3.984   2.153   4.693
 4258SOL     OW13672   5.192   6.863   2.601
 4258SOL    HW113673   5.100   6.868   2.563
 4258SOL    HW213674   5.186   6.843   2.699
 4259SOL     OW13675   2.148   3.082   0.539
 4259SOL    HW113676   2.102   2.994   0.549
 4259SOL    HW213677   2.155   3.105   0.442
 4260SOL     OW13678   4.604   5.798   3.278
 4260SOL    HW113679   4.635   5.847   3.196
 4260SOL    HW213680   4.592   5.702   3.256
 4261SOL     OW13681   2.074   0.883   2.747
 4261SOL    HW113682   2.097   0.974   2.781
 4261SOL    HW213683   1.980   0.883   2.714
 4262SOL     OW13684   6.975   5.913   6.411
 4262SOL    HW113685   6.928   5.955   6.488
 4262SOL    HW213686   0.051   5.911   6.428
 4263SOL     OW13687   3.640   5.167   5.884
 4263SOL    HW113688   3.735   5.180   5.854
 4263SOL    HW213689   3.592   5.110   5.817
 4264SOL     OW13690   6.800   0.036   0.615
 4264SOL    HW113691   6.753   0.102   0.557
 4264SOL    HW213692   6.873   7.013   0.562
 4265SOL     OW13693   6.844   2.597   0.396
 4265SOL    HW113694   6.858   2.500   0.416
 4265SOL    HW213695   6.766   2.632   0.448
 4266SOL     OW13696   3.098   4.864   0.906
 4266SOL    HW113697   3.172   4.800   0.887
 4266SOL    HW213698   3.119   4.914   0.990
 4267SOL     OW13699   1.539   4.045   5.708
 4267SOL    HW113700   1.609   3.997   5.657
 4267SOL    HW213701   1.452   4.041   5.658
 4268SOL     OW13702   1.449   1.274   0.640
 4268SOL    HW113703   1.355   1.247   0.620
 4268SOL    HW213704   1.455   1.373   0.648
 4269SOL     OW13705   3.375   3.643   0.534
 4269SOL    HW113706   3.379   3.641   0.434
 4269SOL    HW213707   3.280   3.627   0.563
 4270SOL     OW13708   3.726   2.452   5.548
 4270SOL    HW113709   3.748   2.549   5.553
 4270SOL    HW213710   3.677   2.425   5.631
 4271SOL     OW13711   0.927   0.036   0.088
 4271SOL    HW113712   0.864   0.108   0.059
 4271SOL    HW213713   1.011   0.041   0.034
 4272SOL     OW13714   6.987   4.051   4.027
 4272SOL    HW113715   0.006   3.962   4.009
 4272SOL    HW213716   6.917   4.070   3.957
 4273SOL     OW13717   5.958   6.046   4.973
 4273SOL    HW113718   6.011   6.118   4.930
 4273SOL    HW213719   5.861   6.072   4.976
 4274SOL     OW13720   2.226   0.112   4.017
 4274SOL    HW113721   2.209   0.134   4.113
 4274SOL    HW213722   2.147   0.138   3.962
 4275SOL     OW13723   1.276   6.957   6.785
 4275SOL    HW113724   1.331   6.876   6.767
 4275SOL    HW213725   1.203   6.964   6.717
 4276SOL     OW13726   1.905   4.174   1.888
 4276SOL    HW113727   1.984   4.125   1.925
 4276SOL    HW213728   1.824   4.115   1.893
 4277SOL     OW13729   0.826   5.186   3.683
 4277SOL    HW113730   0.827   5.262   3.748
 4277SOL    HW213731   0.756   5.119   3.710
 4278SOL     OW13732   0.496   6.307   5.414
 4278SOL    HW113733   0.415   6.318   5.356
 4278SOL    HW213734   0.578   6.308   5.358
 4279SOL     OW13735   3.376   5.576   4.140
 4279SOL    HW113736   3.327   5.632   4.207
 4279SOL    HW213737   3.362   5.479   4.159
 4280SOL     OW13738   4.892   3.221   3.662
 4280SOL    HW113739   4.939   3.298   3.705
 4280SOL    HW213740   4.855   3.249   3.574
 4281SOL     OW13741   2.323   3.727   5.261
 4281SOL    HW113742   2.350   3.802   5.201
 4281SOL    HW213743   2.250   3.758   5.322
 4282SOL     OW13744   1.412   2.289   1.172
 4282SOL    HW113745   1.341   2.355   1.146
 4282SOL    HW213746   1.482   2.335   1.226
 4283SOL     OW13747   1.950   0.679   4.562
 4283SOL    HW113748   1.867   0.704   4.512
 4283SOL    HW213749   1.925   0.633   4.647
 4284SOL     OW13750   6.474   2.124   2.466
 4284SOL    HW113751   6.482   2.112   2.368
 4284SOL    HW213752   6.378   2.115   2.493
 4285SOL     OW13753   0.890   6.157   6.043
 4285SOL    HW113754   0.893   6.129   6.139
 4285SOL    HW213755   0.949   6.097   5.989
 4286SOL     OW13756   5.473   5.360   0.048
 4286SOL    HW113757   5.439   5.351   6.976
 4286SOL    HW213758   5.523   5.446   0.057
 4287SOL     OW13759   4.872   6.527   5.298
 4287SOL    HW113760   4.920   6.443   5.275
 4287SOL    HW213761   4.865   6.535   5.398
 4288SOL     OW13762   1.912   0.094   2.803
 4288SOL    HW113763   1.976   0.096   2.726
 4288SOL    HW213764   1.905   0.001   2.838
 4289SOL     OW13765   5.720   3.574   0.800
 4289SOL    HW113766   5.744   3.500   0.737
 4289SOL    HW213767   5.654   3.634   0.756
 4290SOL     OW13768   1.981   0.969   2.258
 4290SOL    HW113769   2.028   0.949   2.172
 4290SOL    HW213770   1.970   0.884   2.310
 4291SOL     OW13771   6.052   4.695   1.100
 4291SOL    HW113772   6.114   4.624   1.132
 4291SOL    HW213773   6.045   4.691   1.001
 4292SOL     OW13774   6.162   5.484   6.452
 4292SOL    HW113775   6.069   5.471   6.488
 4292SOL    HW213776   6.169   5.441   6.362
 4293SOL     OW13777   6.906   2.591   6.981
 4293SOL    HW113778   6.920   2.514   0.021
 4293SOL    HW213779   6.958   2.576   6.897
 4294SOL     OW13780   5.144   2.329   5.563
 4294SOL    HW113781   5.108   2.422   5.573
 4294SOL    HW213782   5.103   2.286   5.483
 4295SOL     OW13783   3.985   6.551   4.871
 4295SOL    HW113784   4.012   6.455   4.884
 4295SOL    HW213785   3.942   6.562   4.782
 4296SOL     OW13786   2.186   1.767   0.919
 4296SOL    HW113787   2.248   1.746   0.995
 4296SOL    HW213788   2.093   1.740   0.944
 4297SOL     OW13789   5.608   0.725   5.890
 4297SOL    HW113790   5.527   0.668   5.876
 4297SOL    HW213791   5.583   0.821   5.879
 4298SOL     OW13792   2.984   5.350   1.396
 4298SOL    HW113793   3.035   5.431   1.368
 4298SOL    HW213794   3.049   5.276   1.418
 4299SOL     OW13795   0.412   3.997   6.690
 4299SOL    HW113796   0.399   3.931   6.615
 4299SOL    HW213797   0.323   4.023   6.727
 4300SOL     OW13798   5.964   0.420   6.618
 4300SOL    HW113799   6.016   0.480   6.557
 4300SOL    HW213800   5.962   0.459   6.710
 4301SOL     OW13801   2.892   1.568   0.101
 4301SOL    HW113802   2.939   1.528   0.179
 4301SOL    HW213803   2.958   1.612   0.041
 4302SOL     OW13804   0.611   6.550   0.163
 4302SOL    HW113805   0.588   6.469   0.217
 4302SOL    HW213806   0.700   6.536   0.119
 4303SOL     OW13807   6.926   3.355   2.184
 4303SOL    HW113808   6.839   3.404   2.174
 4303SOL    HW213809   6.909   3.265   2.224
 4304SOL     OW13810   3.225   2.916   4.387
 4304SOL    HW113811   3.183   2.941   4.474
 4304SOL    HW213812   3.324   2.917   4.396
 4305SOL     OW13813   6.284   1.737   4.262
 4305SOL    HW113814   6.278   1.651   4.313
 4305SOL    HW213815   6.207   1.744   4.199
 4306SOL     OW13816   6.322   5.845   6.112
 4306SOL    HW113817   6.401   5.827   6.170
 4306SOL    HW213818   6.352   5.894   6.030
 4307SOL     OW13819   4.876   3.194   6.407
 4307SOL    HW113820   4.783   3.201   6.370
 4307SOL    HW213821   4.888   3.263   6.479
 4308SOL     OW13822   4.892   6.421   4.797
 4308SOL    HW113823   4.956   6.428   4.720
 4308SOL    HW213824   4.820   6.355   4.775
 4309SOL     OW13825   1.406   1.529   0.714
 4309SOL    HW113826   1.330   1.490   0.767
 4309SOL    HW213827   1.372   1.564   0.627
 4310SOL     OW13828   1.104   0.916   2.381
 4310SOL    HW113829   1.095   0.994   2.443
 4310SOL    HW213830   1.029   0.851   2.397
 4311SOL     OW13831   1.887   6.165   3.913
 4311SOL    HW113832   1.885   6.264   3.895
 4311SOL    HW213833   1.837   6.117   3.841
 4312SOL     OW13834   2.192   5.102   2.145
 4312SOL    HW113835   2.158   5.012   2.174
 4312SOL    HW213836   2.238   5.092   2.056
 4313SOL     OW13837   4.901   0.476   2.009
 4313SOL    HW113838   4.931   0.567   2.037
 4313SOL    HW213839   4.974   0.431   1.957
 4314SOL     OW13840   5.080   3.231   2.619
 4314SOL    HW113841   5.040   3.140   2.607
 4314SOL    HW213842   5.008   3.295   2.647
 4315SOL     OW13843   2.633   1.848   2.075
 4315SOL    HW113844   2.583   1.803   2.149
 4315SOL    HW213845   2.572   1.865   1.998
 4316SOL     OW13846   6.627   6.971   2.454
 4316SOL    HW113847   6.706   6.912   2.474
 4316SOL    HW213848   6.635   0.033   2.507
 4317SOL     OW13849   4.092   1.268   2.936
 4317SOL    HW113850   4.092   1.182   2.987
 4317SOL    HW213851   4.136   1.339   2.991
 4318SOL     OW13852   0.168   2.555   4.144
 4318SOL    HW113853   0.193   2.469   4.187
 4318SOL    HW213854   0.068   2.568   4.149
 4319SOL     OW13855   2.446   3.517   5.647
 4319SOL    HW113856   2.504   3.521   5.565
 4319SOL    HW213857   2.429   3.609   5.681
 4320SOL     OW13858   0.339   5.896   2.564
 4320SOL    HW113859   0.376   5.912   2.473
 4320SOL    HW213860   0.250   5.852   2.558
 4321SOL     OW13861   0.935   0.047   5.100
 4321SOL    HW113862   0.878   0.037   5.019
 4321SOL    HW213863   0.882   0.088   5.174
 4322SOL     OW13864   6.071   0.836   0.425
 4322SOL    HW113865   6.056   0.886   0.510
 4322SOL    HW213866   5.991   0.779   0.405
 4323SOL     OW13867   6.865   2.670   3.763
 4323SOL    HW113868   6.906   2.718   3.841
 4323SOL    HW213869   6.905   2.578   3.757
 4324SOL     OW13870   6.345   4.281   5.682
 4324SOL    HW113871   6.269   4.276   5.617
 4324SOL    HW213872   6.313   4.321   5.768
 4325SOL     OW13873   1.869   2.133   6.111
 4325SOL    HW113874   1.927   2.071   6.058
 4325SOL    HW213875   1.794   2.082   6.152
 4326SOL     OW13876   6.209   2.379   5.860
 4326SOL    HW113877   6.141   2.392   5.932
 4326SOL    HW213878   6.168   2.396   5.771
 4327SOL     OW13879   6.047   6.912   2.785
 4327SOL    HW113880   5.960   6.918   2.737
 4327SOL    HW213881   6.080   6.818   2.785
 4328SOL     OW13882   5.335   5.026   0.576
 4328SOL    HW113883   5.427   5.047   0.543
 4328SOL    HW213884   5.284   5.112   0.586
 4329SOL     OW13885   3.407   1.414   6.024
 4329SOL    HW113886   3.392   1.336   5.964
 4329SOL    HW213887   3.419   1.497   5.969
 4330SOL     OW13888   1.261   0.433   6.470
 4330SOL    HW113889   1.359   0.450   6.459
 4330SOL    HW213890   1.243   0.403   6.564
 4331SOL     OW13891   5.930   2.943   7.007
 4331SOL    HW113892   5.999   2.876   0.011
 4331SOL    HW213893   5.935   3.022   0.046
 4332SOL     OW13894   5.398   3.493   1.253
 4332SOL    HW113895   5.299   3.497   1.243
 4332SOL    HW213896   5.428   3.397   1.251
 4333SOL     OW13897   5.199   1.243   5.478
 4333SOL    HW113898   5.218   1.265   5.573
 4333SOL    HW213899   5.142   1.161   5.473
 4334SOL     OW13900   4.706   0.993   1.874
 4334SOL    HW113901   4.803   0.984   1.892
 4334SOL    HW213902   4.663   1.050   1.945
 4335SOL     OW13903   3.208   4.087   5.534
 4335SOL    HW113904   3.199   4.076   5.435
 4335SOL    HW213905   3.148   4.022   5.581
 4336SOL     OW13906   1.323   6.007   4.158
 4336SOL    HW113907   1.358   6.047   4.073
 4336SOL    HW213908   1.228   5.978   4.146
 4337SOL     OW13909   0.080   4.956   0.764
 4337SOL    HW113910   0.100   4.858   0.757
 4337SOL    HW213911   0.165   5.008   0.762
 4338SOL     OW13912   6.611   6.798   4.010
 4338SOL    HW113913   6.692   6.750   3.977
 4338SOL    HW213914   6.624   6.821   4.107
 4339SOL     OW13915   6.265   1.185   6.271
 4339SOL    HW113916   6.242   1.282   6.258
 4339SOL    HW213917   6.275   1.167   6.369
 4340SOL     OW13918   4.760   3.223   1.696
 4340SOL    HW113919   4.758   3.149   1.763
 4340SOL    HW213920   4.777   3.184   1.605
 4341SOL     OW13921   0.469   4.549   0.939
 4341SOL    HW113922   0.375   4.516   0.936
 4341SOL    HW213923   0.470   4.648   0.930
 4342SOL     OW13924   6.960   3.072   2.815
 4342SOL    HW113925   6.974   3.023   2.902
 4342SOL    HW213926   6.969   3.008   2.739
 4343SOL     OW13927   2.516   1.742   1.070
 4343SOL    HW113928   2.447   1.673   1.092
 4343SOL    HW213929   2.548   1.785   1.155
 4344SOL     OW13930   1.873   4.308   2.932
 4344SOL    HW113931   1.890   4.245   2.856
 4344SOL    HW213932   1.950   4.371   2.940
 4345SOL     OW13933   2.280   1.967   5.776
 4345SOL    HW113934   2.208   1.986   5.844
 4345SOL    HW213935   2.315   2.054   5.742
 4346SOL     OW13936   1.203   2.766   1.600
 4346SOL    HW113937   1.159   2.840   1.651
 4346SOL    HW213938   1.274   2.804   1.541
 4347SOL     OW13939   6.369   6.203   2.909
 4347SOL    HW113940   6.466   6.186   2.925
 4347SOL    HW213941   6.334   6.138   2.842
 4348SOL     OW13942   0.575   3.702   6.689
 4348SOL    HW113943   0.553   3.613   6.729
 4348SOL    HW213944   0.671   3.724   6.707
 4349SOL     OW13945   6.751   0.467   3.729
 4349SOL    HW113946   6.763   0.566   3.719
 4349SOL    HW213947   6.840   0.422   3.718
 4350SOL     OW13948   5.051   1.621   3.823
 4350SOL    HW113949   5.026   1.526   3.802
 4350SOL    HW213950   5.039   1.676   3.740
 4351SOL     OW13951   2.702   6.448   1.075
 4351SOL    HW113952   2.753   6.533   1.089
 4351SOL    HW213953   2.735   6.378   1.138
 4352SOL     OW13954   6.459   1.386   1.843
 4352SOL    HW113955   6.551   1.348   1.838
 4352SOL    HW213956   6.439   1.436   1.758
 4353SOL     OW13957   3.865   5.732   0.412
 4353SOL    HW113958   3.839   5.782   0.329
 4353SOL    HW213959   3.818   5.773   0.491
 4354SOL     OW13960   1.705   0.592   1.116
 4354SOL    HW113961   1.784   0.622   1.169
 4354SOL    HW213962   1.638   0.667   1.111
 4355SOL     OW13963   5.387   0.829   0.875
 4355SOL    HW113964   5.398   0.756   0.807
 4355SOL    HW213965   5.324   0.898   0.840
 4356SOL     OW13966   3.912   4.278   0.569
 4356SOL    HW113967   3.839   4.213   0.592
 4356SOL    HW213968   4.000   4.231   0.575
 4357SOL     OW13969   6.382   0.890   0.006
 4357SOL    HW113970   6.334   0.972   0.036
 4357SOL    HW213971   6.446   0.860   0.077
 4358SOL     OW13972   0.484   0.399   1.758
 4358SOL    HW113973   0.519   0.492   1.745
 4358SOL    HW213974   0.552   0.343   1.806
 4359SOL     OW13975   6.108   2.192   3.948
 4359SOL    HW113976   6.107   2.113   4.010
 4359SOL    HW213977   6.203   2.221   3.933
 4360SOL     OW13978   1.871   3.364   1.141
 4360SOL    HW113979   1.860   3.304   1.062
 4360SOL    HW213980   1.799   3.434   1.140
 4361SOL     OW13981   5.050   1.708   2.040
 4361SOL    HW113982   4.979   1.699   2.111
 4361SOL    HW213983   5.140   1.700   2.082
 4362SOL     OW13984   5.769   4.455   4.196
 4362SOL    HW113985   5.777   4.357   4.213
 4362SOL    HW213986   5.685   4.489   4.238
 4363SOL     OW13987   4.957   2.036   5.793
 4363SOL    HW113988   5.022   1.960   5.793
 4363SOL    HW213989   4.961   2.083   5.881
 4364SOL     OW13990   3.583   3.939   5.083
 4364SOL    HW113991   3.662   3.877   5.092
 4364SOL    HW213992   3.604   4.008   5.014
 4365SOL     OW13993   2.846   1.123   1.341
 4365SOL    HW113994   2.910   1.155   1.411
 4365SOL    HW213995   2.792   1.047   1.378
 4366SOL     OW13996   5.270   4.824   1.339
 4366SOL    HW113997   5.310   4.801   1.428
 4366SOL    HW213998   5.310   4.765   1.269
 4367SOL     OW13999   0.944   6.321   6.853
 4367SOL    HW114000   0.990   6.232   6.844
 4367SOL    HW214001   0.892   6.340   6.770
 4368SOL     OW14002   5.299   3.825   1.800
 4368SOL    HW114003   5.305   3.760   1.876
 4368SOL    HW214004   5.318   3.777   1.714
 4369SOL     OW14005   3.485   6.045   1.820
 4369SOL    HW114006   3.482   6.012   1.725
 4369SOL    HW214007   3.398   6.024   1.864
 4370SOL     OW14008   5.802   5.565   2.888
 4370SOL    HW114009   5.892   5.527   2.910
 4370SOL    HW214010   5.780   5.638   2.953
 4371SOL     OW14011   6.903   2.004   2.370
 4371SOL    HW114012   6.814   1.974   2.335
 4371SOL    HW214013   6.897   2.012   2.470
 4372SOL     OW14014   4.830   6.710   3.389
 4372SOL    HW114015   4.804   6.673   3.300
 4372SOL    HW214016   4.748   6.728   3.443
 4373SOL     OW14017   0.278   2.033   6.189
 4373SOL    HW114018   0.196   1.977   6.195
 4373SOL    HW214019   0.321   2.038   6.279
 4374SOL     OW14020   3.001   2.365   0.969
 4374SOL    HW114021   3.084   2.388   1.020
 4374SOL    HW214022   3.024   2.308   0.890
 4375SOL     OW14023   2.794   6.611   4.290
 4375SOL    HW114024   2.891   6.602   4.267
 4375SOL    HW214025   2.745   6.649   4.211
 4376SOL     OW14026   6.384   1.575   3.810
 4376SOL    HW114027   6.289   1.571   3.842
 4376SOL    HW214028   6.414   1.670   3.804
 4377SOL     OW14029   5.529   5.132   6.512
 4377SOL    HW114030   5.548   5.153   6.416
 4377SOL    HW214031   5.431   5.128   6.527
 4378SOL     OW14032   2.466   1.197   3.377
 4378SOL    HW114033   2.445   1.288   3.412
 4378SOL    HW214034   2.552   1.165   3.416
 4379SOL     OW14035   3.237   1.746   5.373
 4379SOL    HW114036   3.160   1.694   5.335
 4379SOL    HW214037   3.205   1.805   5.447
 4380SOL     OW14038   0.420   1.026   2.051
 4380SOL    HW114039   0.417   1.058   1.956
 4380SOL    HW214040   0.432   1.105   2.111
 4381SOL     OW14041   1.495   5.757   6.489
 4381SOL    HW114042   1.424   5.690   6.510
 4381SOL    HW214043   1.492   5.778   6.391
 4382SOL     OW14044   6.945   4.170   4.756
 4382SOL    HW114045   6.957   4.073   4.778
 4382SOL    HW214046   6.848   4.191   4.750
 4383SOL     OW14047   6.217   3.273   6.753
 4383SOL    HW114048   6.176   3.269   6.844
 4383SOL    HW214049   6.226   3.368   6.724
 4384SOL     OW14050   5.823   6.842   3.773
 4384SOL    HW114051   5.761   6.899   3.827
 4384SOL    HW214052   5.887   6.900   3.723
 4385SOL     OW14053   4.520   1.353   5.278
 4385SOL    HW114054   4.506   1.298   5.360
 4385SOL    HW214055   4.529   1.294   5.198
 4386SOL     OW14056   1.510   3.549   4.809
 4386SOL    HW114057   1.525   3.495   4.891
 4386SOL    HW214058   1.598   3.571   4.766
 4387SOL     OW14059   6.789   1.814   0.595
 4387SOL    HW114060   6.737   1.781   0.516
 4387SOL    HW214061   6.884   1.785   0.587
 4388SOL     OW14062   5.344   3.383   6.765
 4388SOL    HW114063   5.362   3.290   6.796
 4388SOL    HW214064   5.362   3.390   6.667
 4389SOL     OW14065   0.769   3.307   0.745
 4389SOL    HW114066   0.818   3.248   0.681
 4389SOL    HW214067   0.739   3.253   0.824
 4390SOL     OW14068   6.422   1.372   0.970
 4390SOL    HW114069   6.423   1.289   1.026
 4390SOL    HW214070   6.403   1.451   1.029
 4391SOL     OW14071   1.601   6.039   1.067
 4391SOL    HW114072   1.628   6.030   0.971
 4391SOL    HW214073   1.535   5.967   1.089
 4392SOL     OW14074   1.634   2.597   5.200
 4392SOL    HW114075   1.733   2.613   5.191
 4392SOL    HW214076   1.618   2.499   5.213
 4393SOL     OW14077   4.986   0.699   2.128
 4393SOL    HW114078   5.073   0.712   2.174
 4393SOL    HW214079   4.911   0.712   2.193
 4394SOL     OW14080   1.161   0.581   2.421
 4394SOL    HW114081   1.133   0.505   2.363
 4394SOL    HW214082   1.081   0.619   2.468
 4395SOL     OW14083   2.764   5.016   1.842
 4395SOL    HW114084   2.733   5.012   1.936
 4395SOL    HW214085   2.863   5.003   1.838
 4396SOL     OW14086   3.262   0.709   3.285
 4396SOL    HW114087   3.313   0.637   3.332
 4396SOL    HW214088   3.250   0.685   3.189
 4397SOL     OW14089   3.681   1.568   4.895
 4397SOL    HW114090   3.639   1.643   4.945
 4397SOL    HW214091   3.622   1.487   4.899
 4398SOL     OW14092   1.899   2.560   5.191
 4398SOL    HW114093   1.993   2.543   5.163
 4398SOL    HW214094   1.899   2.618   5.273
 4399SOL     OW14095   2.845   6.959   1.790
 4399SOL    HW114096   2.896   0.021   1.811
 4399SOL    HW214097   2.891   6.881   1.833
 4400SOL     OW14098   2.311   5.454   4.741
 4400SOL    HW114099   2.391   5.404   4.708
 4400SOL    HW214100   2.319   5.550   4.716
 4401SOL     OW14101   3.237   6.835   6.896
 4401SOL    HW114102   3.175   6.817   6.973
 4401SOL    HW214103   3.252   6.750   6.845
 4402SOL     OW14104   1.593   0.585   3.600
 4402SOL    HW114105   1.635   0.535   3.675
 4402SOL    HW214106   1.661   0.644   3.557
 4403SOL     OW14107   1.269   4.929   2.119
 4403SOL    HW114108   1.169   4.934   2.122
 4403SOL    HW214109   1.300   4.848   2.169
 4404SOL     OW14110   0.272   6.792   5.874
 4404SOL    HW114111   0.273   6.782   5.974
 4404SOL    HW214112   0.304   6.707   5.832
 4405SOL     OW14113   1.719   5.771   2.848
 4405SOL    HW114114   1.702   5.751   2.945
 4405SOL    HW214115   1.796   5.834   2.840
 4406SOL     OW14116   6.017   3.642   2.141
 4406SOL    HW114117   6.085   3.589   2.091
 4406SOL    HW214118   6.047   3.654   2.236
 4407SOL     OW14119   5.533   6.287   2.297
 4407SOL    HW114120   5.603   6.221   2.272
 4407SOL    HW214121   5.492   6.261   2.384
 4408SOL     OW14122   4.210   0.961   0.334
 4408SOL    HW114123   4.271   0.949   0.412
 4408SOL    HW214124   4.241   1.038   0.278
 4409SOL     OW14125   3.130   0.256   3.114
 4409SOL    HW114126   3.124   0.156   3.116
 4409SOL    HW214127   3.211   0.283   3.061
 4410SOL     OW14128   0.537   6.505   0.831
 4410SOL    HW114129   0.609   6.575   0.825
 4410SOL    HW214130   0.540   6.462   0.921
 4411SOL     OW14131   3.684   4.219   5.346
 4411SOL    HW114132   3.676   4.155   5.422
 4411SOL    HW214133   3.595   4.229   5.301
 4412SOL     OW14134   4.529   6.261   2.640
 4412SOL    HW114135   4.595   6.265   2.566
 4412SOL    HW214136   4.526   6.169   2.678
 4413SOL     OW14137   4.502   6.818   4.053
 4413SOL    HW114138   4.512   6.724   4.085
 4413SOL    HW214139   4.561   6.879   4.107
 4414SOL     OW14140   4.791   3.821   1.476
 4414SOL    HW114141   4.815   3.792   1.569
 4414SOL    HW214142   4.795   3.921   1.471
 4415SOL     OW14143   2.010   2.723   1.682
 4415SOL    HW114144   1.913   2.740   1.699
 4415SOL    HW214145   2.064   2.795   1.727
 4416SOL     OW14146   4.635   2.262   3.267
 4416SOL    HW114147   4.710   2.196   3.278
 4416SOL    HW214148   4.626   2.316   3.350
 4417SOL     OW14149   0.053   3.981   2.714
 4417SOL    HW114150   0.106   3.931   2.783
 4417SOL    HW214151   0.030   3.919   2.639
 4418SOL     OW14152   6.343   6.666   5.777
 4418SOL    HW114153   6.283   6.586   5.787
 4418SOL    HW214154   6.287   6.748   5.762
 4419SOL     OW14155   5.967   5.198   6.741
 4419SOL    HW114156   5.876   5.161   6.720
 4419SOL    HW214157   5.962   5.252   6.824
 4420SOL     OW14158   3.281   2.573   0.843
 4420SOL    HW114159   3.273   2.473   0.840
 4420SOL    HW214160   3.252   2.606   0.933
 4421SOL     OW14161   1.579   2.502   6.942
 4421SOL    HW114162   1.582   2.446   6.859
 4421SOL    HW214163   1.651   2.473   7.004
 4422SOL     OW14164   6.251   3.809   6.129
 4422SOL    HW114165   6.221   3.880   6.065
 4422SOL    HW214166   6.194   3.814   6.212
 4423SOL     OW14167   5.749   4.259   4.842
 4423SOL    HW114168   5.754   4.236   4.940
 4423SOL    HW214169   5.680   4.200   4.798
 4424SOL     OW14170   4.580   6.016   2.772
 4424SOL    HW114171   4.572   5.990   2.869
 4424SOL    HW214172   4.671   5.994   2.739
 4425SOL     OW14173   1.563   4.901   1.453
 4425SOL    HW114174   1.608   4.981   1.493
 4425SOL    HW214175   1.522   4.846   1.525
 4426SOL     OW14176   0.729   0.578   4.710
 4426SOL    HW114177   0.734   0.616   4.617
 4426SOL    HW214178   0.719   0.652   4.776
 4427SOL     OW14179   2.348   5.996   2.691
 4427SOL    HW114180   2.283   5.928   2.659
 4427SOL    HW214181   2.404   6.028   2.615
 4428SOL     OW14182   5.466   6.014   3.180
 4428SOL    HW114183   5.517   6.073   3.242
 4428SOL    HW214184   5.372   6.047   3.172
 4429SOL     OW14185   3.143   6.262   3.022
 4429SOL    HW114186   3.131   6.317   3.105
 4429SOL    HW214187   3.135   6.320   2.942
 4430SOL     OW14188   5.296   3.861   5.454
 4430SOL    HW114189   5.267   3.773   5.417
 4430SOL    HW214190   5.216   3.921   5.461
 4431SOL     OW14191   3.060   6.519   4.239
 4431SOL    HW114192   3.155   6.497   4.215
 4431SOL    HW214193   3.034   6.467   4.321
 4432SOL     OW14194   0.669   3.919   5.924
 4432SOL    HW114195   0.707   3.940   5.833
 4432SOL    HW214196   0.617   3.834   5.919
 4433SOL     OW14197   1.129   1.040   5.812
 4433SOL    HW114198   1.125   1.039   5.712
 4433SOL    HW214199   1.168   1.126   5.843
 4434SOL     OW14200   0.263   0.745   2.961
 4434SOL    HW114201   0.351   0.785   2.984
 4434SOL    HW214202   0.227   0.696   3.041
 4435SOL     OW14203   2.564   4.382   0.135
 4435SOL    HW114204   2.596   4.408   0.226
 4435SOL    HW214205   2.568   4.283   0.126
 4436SOL     OW14206   4.484   1.619   1.984
 4436SOL    HW114207   4.456   1.665   2.068
 4436SOL    HW214208   4.574   1.578   1.996
 4437SOL     OW14209   6.635   4.452   0.033
 4437SOL    HW114210   6.596   4.360   0.044
 4437SOL    HW214211   6.734   4.446   0.020
 4438SOL     OW14212   3.943   0.351   5.582
 4438SOL    HW114213   4.026   0.384   5.626
 4438SOL    HW214214   3.954   0.353   5.482
 4439SOL     OW14215   2.886   6.924   2.775
 4439SOL    HW114216   2.970   6.979   2.778
 4439SOL    HW214217   2.908   6.828   2.796
 4440SOL     OW14218   1.411   4.833   6.847
 4440SOL    HW114219   1.349   4.767   6.804
 4440SOL    HW214220   1.364   4.876   6.924
 4441SOL     OW14221   6.634   1.708   0.818
 4441SOL    HW114222   6.632   1.608   0.807
 4441SOL    HW214223   6.686   1.748   0.742
 4442SOL     OW14224   1.887   5.251   6.839
 4442SOL    HW114225   1.966   5.191   6.851
 4442SOL    HW214226   1.893   5.328   6.903
 4443SOL     OW14227   0.921   5.233   5.969
 4443SOL    HW114228   0.941   5.274   6.058
 4443SOL    HW214229   0.826   5.253   5.944
 4444SOL     OW14230   5.660   4.974   6.947
 4444SOL    HW114231   5.613   5.031   7.014
 4444SOL    HW214232   5.742   4.934   6.989
 4445SOL     OW14233   0.435   4.832   0.513
 4445SOL    HW114234   0.456   4.821   0.416
 4445SOL    HW214235   0.518   4.817   0.567
 4446SOL     OW14236   4.797   1.553   1.220
 4446SOL    HW114237   4.730   1.610   1.173
 4446SOL    HW214238   4.757   1.519   1.306
 4447SOL     OW14239   4.691   5.725   5.799
 4447SOL    HW114240   4.660   5.705   5.706
 4447SOL    HW214241   4.782   5.685   5.812
 4448SOL     OW14242   3.460   6.052   1.153
 4448SOL    HW114243   3.431   5.977   1.093
 4448SOL    HW214244   3.557   6.071   1.138
 4449SOL     OW14245   3.411   1.274   5.590
 4449SOL    HW114246   3.439   1.212   5.663
 4449SOL    HW214247   3.399   1.222   5.505
 4450SOL     OW14248   2.821   6.964   6.855
 4450SOL    HW114249   2.746   6.999   6.911
 4450SOL    HW214250   2.837   6.868   6.877
 4451SOL     OW14251   5.011   5.060   3.373
 4451SOL    HW114252   5.100   5.093   3.340
 4451SOL    HW214253   5.019   4.964   3.399
 4452SOL     OW14254   4.613   6.452   4.544
 4452SOL    HW114255   4.658   6.362   4.549
 4452SOL    HW214256   4.520   6.440   4.508
 4453SOL     OW14257   6.316   4.522   0.311
 4453SOL    HW114258   6.226   4.505   0.271
 4453SOL    HW214259   6.330   4.460   0.389
 4454SOL     OW14260   1.389   3.116   0.597
 4454SOL    HW114261   1.308   3.111   0.655
 4454SOL    HW214262   1.438   3.029   0.600
 4455SOL     OW14263   1.080   6.517   5.373
 4455SOL    HW114264   1.158   6.503   5.311
 4455SOL    HW214265   1.072   6.615   5.394
 4456SOL     OW14266   2.837   6.915   4.900
 4456SOL    HW114267   2.853   7.014   4.904
 4456SOL    HW214268   2.873   6.872   4.982
 4457SOL     OW14269   1.669   1.990   4.351
 4457SOL    HW114270   1.763   1.995   4.320
 4457SOL    HW214271   1.627   1.904   4.321
 4458SOL     OW14272   1.649   3.574   6.590
 4458SOL    HW114273   1.573   3.631   6.619
 4458SOL    HW214274   1.708   3.626   6.527
 4459SOL     OW14275   0.776   2.734   2.974
 4459SOL    HW114276   0.855   2.702   3.026
 4459SOL    HW214277   0.725   2.656   2.938
 4460SOL     OW14278   6.865   2.364   4.677
 4460SOL    HW114279   6.935   2.361   4.748
 4460SOL    HW214280   6.796   2.433   4.700
 4461SOL     OW14281   1.746   0.899   0.903
 4461SOL    HW114282   1.840   0.867   0.919
 4461SOL    HW214283   1.740   0.996   0.923
 4462SOL     OW14284   6.554   3.775   3.220
 4462SOL    HW114285   6.612   3.747   3.143
 4462SOL    HW214286   6.523   3.693   3.269
 4463SOL     OW14287   5.724   1.951   0.240
 4463SOL    HW114288   5.634   1.993   0.250
 4463SOL    HW214289   5.719   1.880   0.169
 4464SOL     OW14290   0.054   4.924   1.319
 4464SOL    HW114291   0.051   4.910   1.418
 4464SOL    HW214292   0.135   4.878   1.282
 4465SOL     OW14293   3.702   5.751   1.748
 4465SOL    HW114294   3.703   5.652   1.762
 4465SOL    HW214295   3.758   5.795   1.818
 4466SOL     OW14296   2.076   2.123   2.837
 4466SOL    HW114297   2.032   2.034   2.847
 4466SOL    HW214298   2.046   2.183   2.911
 4467SOL     OW14299   4.998   5.733   3.035
 4467SOL    HW114300   5.018   5.726   3.133
 4467SOL    HW214301   4.999   5.830   3.008
 4468SOL     OW14302   1.929   3.003   1.940
 4468SOL    HW114303   1.939   2.989   1.842
 4468SOL    HW214304   2.007   2.963   1.988
 4469SOL     OW14305   2.481   6.297   1.395
 4469SOL    HW114306   2.581   6.300   1.395
 4469SOL    HW214307   2.450   6.225   1.458
 4470SOL     OW14308   2.369   6.959   2.922
 4470SOL    HW114309   2.318   0.017   2.888
 4470SOL    HW214310   2.448   6.989   2.974
 4471SOL     OW14311   1.250   0.342   6.717
 4471SOL    HW114312   1.223   0.365   6.811
 4471SOL    HW214313   1.343   0.306   6.718
 4472SOL     OW14314   1.837   2.765   0.756
 4472SOL    HW114315   1.821   2.800   0.848
 4472SOL    HW214316   1.762   2.705   0.729
 4473SOL     OW14317   0.218   2.474   4.476
 4473SOL    HW114318   0.123   2.446   4.460
 4473SOL    HW214319   0.265   2.404   4.530
 4474SOL     OW14320   3.083   5.793   1.101
 4474SOL    HW114321   3.051   5.742   1.021
 4474SOL    HW214322   3.071   5.891   1.084
 4475SOL     OW14323   1.115   4.208   1.066
 4475SOL    HW114324   1.065   4.291   1.092
 4475SOL    HW214325   1.185   4.232   0.998
 4476SOL     OW14326   5.592   1.020   3.929
 4476SOL    HW114327   5.577   0.963   3.848
 4476SOL    HW214328   5.505   1.037   3.975
 4477SOL     OW14329   1.260   1.140   4.801
 4477SOL    HW114330   1.188   1.073   4.782
 4477SOL    HW214331   1.225   1.210   4.862
 4478SOL     OW14332   1.719   6.956   1.125
 4478SOL    HW114333   1.646   7.021   1.148
 4478SOL    HW214334   1.707   6.873   1.179
 4479SOL     OW14335   1.723   1.974   6.968
 4479SOL    HW114336   1.701   2.069   6.949
 4479SOL    HW214337   1.729   1.959   0.044
 4480SOL     OW14338   1.245   6.484   3.756
 4480SOL    HW114339   1.334   6.526   3.737
 4480SOL    HW214340   1.195   6.472   3.671
 4481SOL     OW14341   2.101   3.969   5.872
 4481SOL    HW114342   2.039   4.041   5.905
 4481SOL    HW214343   2.181   3.964   5.931
 4482SOL     OW14344   2.503   6.881   1.317
 4482SOL    HW114345   2.525   6.886   1.415
 4482SOL    HW214346   2.521   6.970   1.275
 4483SOL     OW14347   1.462   4.021   0.576
 4483SOL    HW114348   1.554   4.058   0.587
 4483SOL    HW214349   1.454   3.936   0.627
 4484SOL     OW14350   2.256   1.175   6.978
 4484SOL    HW114351   2.301   1.263   6.995
 4484SOL    HW214352   2.296   1.105   0.015
 4485SOL     OW14353   6.490   2.599   5.209
 4485SOL    HW114354   6.411   2.600   5.271
 4485SOL    HW214355   6.563   2.655   5.248
 4486SOL     OW14356   4.897   4.927   4.852
 4486SOL    HW114357   4.892   4.991   4.929
 4486SOL    HW214358   4.903   4.833   4.887
 4487SOL     OW14359   0.609   2.530   6.521
 4487SOL    HW114360   0.540   2.590   6.480
 4487SOL    HW214361   0.572   2.490   6.605
 4488SOL     OW14362   0.461   4.096   3.576
 4488SOL    HW114363   0.366   4.069   3.561
 4488SOL    HW214364   0.469   4.137   3.667
 4489SOL     OW14365   3.778   6.054   6.422
 4489SOL    HW114366   3.858   6.114   6.415
 4489SOL    HW214367   3.800   5.977   6.482
 4490SOL     OW14368   5.111   1.552   1.763
 4490SOL    HW114369   5.098   1.463   1.720
 4490SOL    HW214370   5.024   1.584   1.800
 4491SOL     OW14371   1.252   2.997   2.953
 4491SOL    HW114372   1.279   3.075   3.009
 4491SOL    HW214373   1.153   2.987   2.956
 4492SOL     OW14374   6.870   0.877   2.508
 4492SOL    HW114375   6.858   0.943   2.434
 4492SOL    HW214376   6.932   0.805   2.478
 4493SOL     OW14377   5.636   1.488   5.706
 4493SOL    HW114378   5.719   1.542   5.719
 4493SOL    HW214379   5.593   1.512   5.618
 4494SOL     OW14380   1.392   0.599   1.545
 4494SOL    HW114381   1.306   0.575   1.500
 4494SOL    HW214382   1.464   0.536   1.516
 4495SOL     OW14383   4.476   6.286   0.878
 4495SOL    HW114384   4.449   6.195   0.846
 4495SOL    HW214385   4.543   6.276   0.951
 4496SOL     OW14386   3.154   6.313   6.122
 4496SOL    HW114387   3.233   6.252   6.118
 4496SOL    HW214388   3.177   6.394   6.176
 4497SOL     OW14389   3.800   0.915   5.990
 4497SOL    HW114390   3.703   0.898   6.006
 4497SOL    HW214391   3.811   1.002   5.942
 4498SOL     OW14392   0.081   5.124   4.639
 4498SOL    HW114393   0.095   5.178   4.557
 4498SOL    HW214394   0.169   5.100   4.679
 4499SOL     OW14395   5.912   1.574   1.853
 4499SOL    HW114396   5.964   1.590   1.769
 4499SOL    HW214397   5.870   1.483   1.849
 4500SOL     OW14398   4.200   5.606   0.130
 4500SOL    HW114399   4.270   5.668   0.093
 4500SOL    HW214400   4.218   5.513   0.099
 4501SOL     OW14401   6.228   0.477   2.301
 4501SOL    HW114402   6.286   0.406   2.261
 4501SOL    HW214403   6.282   0.560   2.315
 4502SOL     OW14404   6.955   3.762   6.586
 4502SOL    HW114405   0.000   3.688   6.589
 4502SOL    HW214406   7.001   3.850   6.594
 4503SOL     OW14407   3.147   1.231   2.614
 4503SOL    HW114408   3.059   1.193   2.644
 4503SOL    HW214409   3.140   1.330   2.606
 4504SOL     OW14410   0.223   1.847   2.728
 4504SOL    HW114411   0.286   1.771   2.713
 4504SOL    HW214412   0.269   1.919   2.779
 4505SOL     OW14413   5.848   4.130   3.778
 4505SOL    HW114414   5.763   4.093   3.740
 4505SOL    HW214415   5.854   4.228   3.756
 4506SOL     OW14416   5.257   2.739   5.612
 4506SOL    HW114417   5.189   2.780   5.672
 4506SOL    HW214418   5.306   2.812   5.563
 4507SOL     OW14419   6.295   2.139   3.151
 4507SOL    HW114420   6.286   2.236   3.174
 4507SOL    HW214421   6.295   2.129   3.052
 4508SOL     OW14422   0.191   4.537   0.996
 4508SOL    HW114423   0.161   4.484   1.076
 4508SOL    HW214424   0.116   4.544   0.931
 4509SOL     OW14425   4.991   2.660   1.918
 4509SOL    HW114426   4.962   2.587   1.856
 4509SOL    HW214427   4.960   2.748   1.884
 4510SOL     OW14428   4.089   1.121   4.371
 4510SOL    HW114429   4.017   1.090   4.309
 4510SOL    HW214430   4.048   1.151   4.457
 4511SOL     OW14431   0.111   4.876   6.858
 4511SOL    HW114432   0.088   4.858   6.954
 4511SOL    HW214433   0.096   4.973   6.838
 4512SOL     OW14434   3.200   3.393   5.164
 4512SOL    HW114435   3.128   3.329   5.137
 4512SOL    HW214436   3.194   3.475   5.108
 4513SOL     OW14437   0.232   0.105   0.940
 4513SOL    HW114438   0.272   0.042   1.006
 4513SOL    HW214439   0.305   0.161   0.899
 4514SOL     OW14440   4.006   4.776   6.496
 4514SOL    HW114441   3.928   4.714   6.484
 4514SOL    HW214442   3.991   4.834   6.576
 4515SOL     OW14443   3.965   0.841   6.200
 4515SOL    HW114444   3.905   0.768   6.233
 4515SOL    HW214445   3.922   0.885   6.121
 4516SOL     OW14446   2.705   2.399   5.448
 4516SOL    HW114447   2.765   2.388   5.369
 4516SOL    HW214448   2.760   2.398   5.532
 4517SOL     OW14449   3.846   0.747   5.438
 4517SOL    HW114450   3.801   0.660   5.456
 4517SOL    HW214451   3.943   0.740   5.463
 4518SOL     OW14452   0.822   6.493   1.261
 4518SOL    HW114453   0.855   6.561   1.196
 4518SOL    HW214454   0.731   6.520   1.292
 4519SOL     OW14455   4.762   6.815   0.156
 4519SOL    HW114456   4.750   6.810   0.255
 4519SOL    HW214457   4.859   6.805   0.134
 4520SOL     OW14458   4.389   5.874   6.017
 4520SOL    HW114459   4.338   5.917   5.942
 4520SOL    HW214460   4.387   5.775   6.006
 4521SOL     OW14461   4.355   2.307   4.098
 4521SOL    HW114462   4.393   2.215   4.106
 4521SOL    HW214463   4.422   2.367   4.053
 4522SOL     OW14464   5.603   3.967   3.689
 4522SOL    HW114465   5.575   3.944   3.596
 4522SOL    HW214466   5.544   3.920   3.754
 4523SOL     OW14467   0.112   3.202   5.687
 4523SOL    HW114468   0.094   3.282   5.745
 4523SOL    HW214469   0.037   3.191   5.622
 4524SOL     OW14470   1.621   3.377   1.823
 4524SOL    HW114471   1.566   3.330   1.754
 4524SOL    HW214472   1.621   3.475   1.805
 4525SOL     OW14473   3.640   2.321   5.763
 4525SOL    HW114474   3.717   2.260   5.777
 4525SOL    HW214475   3.557   2.279   5.798
 4526SOL     OW14476   0.890   6.623   5.665
 4526SOL    HW114477   0.936   6.534   5.660
 4526SOL    HW214478   0.903   6.661   5.757
 4527SOL     OW14479   0.370   1.268   2.624
 4527SOL    HW114480   0.431   1.336   2.584
 4527SOL    HW214481   0.309   1.232   2.554
 4528SOL     OW14482   4.744   0.871   5.104
 4528SOL    HW114483   4.775   0.783   5.067
 4528SOL    HW214484   4.715   0.930   5.029
 4529SOL     OW14485   2.127   0.978   4.035
 4529SOL    HW114486   2.189   0.903   4.060
 4529SOL    HW214487   2.170   1.065   4.057
 4530SOL     OW14488   4.402   5.969   6.504
 4530SOL    HW114489   4.417   5.999   6.410
 4530SOL    HW214490   4.311   5.929   6.512
 4531SOL     OW14491   1.638   6.071   5.092
 4531SOL    HW114492   1.725   6.027   5.068
 4531SOL    HW214493   1.637   6.163   5.055
 4532SOL     OW14494   5.931   1.621   2.907
 4532SOL    HW114495   5.902   1.528   2.884
 4532SOL    HW214496   6.028   1.620   2.934
 4533SOL     OW14497   2.522   0.463   0.931
 4533SOL    HW114498   2.433   0.459   0.886
 4533SOL    HW214499   2.528   0.547   0.985
 4534SOL     OW14500   4.949   1.645   4.088
 4534SOL    HW114501   4.957   1.634   3.989
 4534SOL    HW214502   4.920   1.739   4.108
 4535SOL     OW14503   1.902   0.598   0.869
 4535SOL    HW114504   1.839   0.557   0.935
 4535SOL    HW214505   1.927   0.690   0.900
 4536SOL     OW14506   3.489   6.886   5.682
 4536SOL    HW114507   3.415   6.855   5.623
 4536SOL    HW214508   3.459   6.885   5.777
 4537SOL     OW14509   3.008   3.493   3.426
 4537SOL    HW114510   2.959   3.526   3.506
 4537SOL    HW214511   2.971   3.537   3.344
 4538SOL     OW14512   0.431   2.405   0.863
 4538SOL    HW114513   0.460   2.495   0.895
 4538SOL    HW214514   0.510   2.356   0.825
 4539SOL     OW14515   1.371   5.930   5.504
 4539SOL    HW114516   1.340   5.838   5.480
 4539SOL    HW214517   1.454   5.925   5.559
 4540SOL     OW14518   1.186   2.319   0.331
 4540SOL    HW114519   1.113   2.315   0.263
 4540SOL    HW214520   1.269   2.278   0.294
 4541SOL     OW14521   3.911   2.937   6.071
 4541SOL    HW114522   3.826   2.884   6.076
 4541SOL    HW214523   3.926   2.985   6.158
 4542SOL     OW14524   0.158   1.736   6.408
 4542SOL    HW114525   0.256   1.752   6.393
 4542SOL    HW214526   0.141   1.718   6.505
 4543SOL     OW14527   3.856   1.804   0.636
 4543SOL    HW114528   3.765   1.778   0.603
 4543SOL    HW214529   3.851   1.895   0.679
 4544SOL     OW14530   5.380   6.399   0.525
 4544SOL    HW114531   5.396   6.324   0.589
 4544SOL    HW214532   5.301   6.451   0.554
 4545SOL     OW14533   2.105   2.770   5.270
 4545SOL    HW114534   2.196   2.807   5.285
 4545SOL    HW214535   2.081   2.776   5.173
 4546SOL     OW14536   3.237   0.809   5.573
 4546SOL    HW114537   3.248   0.837   5.478
 4546SOL    HW214538   3.326   0.812   5.619
 4547SOL     OW14539   0.185   7.005   0.246
 4547SOL    HW114540   0.198   6.913   0.282
 4547SOL    HW214541   0.243   0.047   0.295
 4548SOL     OW14542   2.878   1.699   2.380
 4548SOL    HW114543   2.814   1.629   2.413
 4548SOL    HW214544   2.969   1.682   2.419
 4549SOL     OW14545   0.479   3.519   4.288
 4549SOL    HW114546   0.551   3.541   4.222
 4549SOL    HW214547   0.461   3.598   4.347
 4550SOL     OW14548   2.055   5.175   4.151
 4550SOL    HW114549   2.094   5.100   4.204
 4550SOL    HW214550   1.966   5.200   4.188
 4551SOL     OW14551   2.366   2.092   5.150
 4551SOL    HW114552   2.381   2.030   5.073
 4551SOL    HW214553   2.275   2.075   5.189
 4552SOL     OW14554   5.200   1.443   0.902
 4552SOL    HW114555   5.271   1.377   0.877
 4552SOL    HW214556   5.141   1.404   0.972
 4553SOL     OW14557   0.399   5.725   0.042
 4553SOL    HW114558   0.304   5.696   0.045
 4553SOL    HW214559   0.431   5.745   0.135
 4554SOL     OW14560   6.375   6.660   2.973
 4554SOL    HW114561   6.431   6.732   2.934
 4554SOL    HW214562   6.410   6.571   2.944
 4555SOL     OW14563   0.959   1.088   0.806
 4555SOL    HW114564   0.891   1.018   0.786
 4555SOL    HW214565   0.924   1.178   0.781
 4556SOL     OW14566   5.646   4.820   4.363
 4556SOL    HW114567   5.625   4.879   4.285
 4556SOL    HW214568   5.689   4.873   4.436
 4557SOL     OW14569   0.543   5.129   4.428
 4557SOL    HW114570   0.454   5.102   4.389
 4557SOL    HW214571   0.529   5.200   4.496
 4558SOL     OW14572   1.342   4.003   4.750
 4558SOL    HW114573   1.369   3.945   4.826
 4558SOL    HW214574   1.249   3.979   4.722
 4559SOL     OW14575   0.231   2.815   3.982
 4559SOL    HW114576   0.303   2.790   3.917
 4559SOL    HW214577   0.267   2.806   4.075
 4560SOL     OW14578   5.393   4.128   2.871
 4560SOL    HW114579   5.454   4.172   2.937
 4560SOL    HW214580   5.311   4.095   2.918
 4561SOL     OW14581   4.760   2.182   3.586
 4561SOL    HW114582   4.696   2.127   3.639
 4561SOL    HW214583   4.850   2.180   3.629
 4562SOL     OW14584   3.370   1.180   0.527
 4562SOL    HW114585   3.468   1.172   0.546
 4562SOL    HW214586   3.327   1.091   0.542
 4563SOL     OW14587   0.432   4.322   2.273
 4563SOL    HW114588   0.355   4.372   2.314
 4563SOL    HW214589   0.457   4.244   2.331
 4564SOL     OW14590   2.070   3.414   2.302
 4564SOL    HW114591   2.120   3.328   2.304
 4564SOL    HW214592   2.051   3.439   2.207
 4565SOL     OW14593   1.813   6.318   6.476
 4565SOL    HW114594   1.755   6.250   6.521
 4565SOL    HW214595   1.861   6.371   6.546
 4566SOL     OW14596   6.894   4.145   3.487
 4566SOL    HW114597   6.823   4.075   3.477
 4566SOL    HW214598   6.864   4.214   3.552
 4567SOL     OW14599   0.526   0.177   6.533
 4567SOL    HW114600   0.462   0.181   6.610
 4567SOL    HW214601   0.516   0.259   6.477
 4568SOL     OW14602   1.369   5.161   3.230
 4568SOL    HW114603   1.419   5.118   3.155
 4568SOL    HW214604   1.275   5.128   3.230
 4569SOL     OW14605   1.990   0.977   3.249
 4569SOL    HW114606   2.055   0.917   3.202
 4569SOL    HW214607   2.002   0.968   3.348
 4570SOL     OW14608   5.276   5.519   1.475
 4570SOL    HW114609   5.258   5.426   1.507
 4570SOL    HW214610   5.243   5.529   1.381
 4571SOL     OW14611   2.488   3.209   6.208
 4571SOL    HW114612   2.477   3.203   6.108
 4571SOL    HW214613   2.503   3.304   6.234
 4572SOL     OW14614   3.505   3.335   1.841
 4572SOL    HW114615   3.454   3.266   1.893
 4572SOL    HW214616   3.583   3.292   1.795
 4573SOL     OW14617   3.277   5.249   0.643
 4573SOL    HW114618   3.230   5.188   0.707
 4573SOL    HW214619   3.250   5.344   0.661
 4574SOL     OW14620   4.972   0.924   1.937
 4574SOL    HW114621   5.018   0.968   2.014
 4574SOL    HW214622   4.930   0.838   1.969
 4575SOL     OW14623   0.692   6.904   5.534
 4575SOL    HW114624   0.666   6.863   5.622
 4575SOL    HW214625   0.696   6.834   5.464
 4576SOL     OW14626   2.967   4.700   6.380
 4576SOL    HW114627   3.053   4.738   6.347
 4576SOL    HW214628   2.985   4.620   6.437
 4577SOL     OW14629   0.921   1.769   2.108
 4577SOL    HW114630   0.916   1.825   2.191
 4577SOL    HW214631   0.915   1.673   2.133
 4578SOL     OW14632   1.507   1.480   1.916
 4578SOL    HW114633   1.444   1.462   1.992
 4578SOL    HW214634   1.595   1.436   1.935
 4579SOL     OW14635   4.541   0.525   3.398
 4579SOL    HW114636   4.464   0.556   3.344
 4579SOL    HW214637   4.534   0.562   3.491
 4580SOL     OW14638   0.168   1.507   1.213
 4580SOL    HW114639   0.258   1.543   1.239
 4580SOL    HW214640   0.180   1.437   1.143
 4581SOL     OW14641   3.100   0.786   0.926
 4581SOL    HW114642   3.084   0.862   0.863
 4581SOL    HW214643   3.193   0.791   0.961
 4582SOL     OW14644   6.561   1.026   3.972
 4582SOL    HW114645   6.620   1.105   3.958
 4582SOL    HW214646   6.610   0.943   3.946
 4583SOL     OW14647   2.069   0.583   0.367
 4583SOL    HW114648   2.037   0.635   0.288
 4583SOL    HW214649   2.011   0.603   0.446
 4584SOL     OW14650   0.543   1.587   4.474
 4584SOL    HW114651   0.506   1.640   4.550
 4584SOL    HW214652   0.477   1.587   4.398
 4585SOL     OW14653   1.711   3.147   3.119
 4585SOL    HW114654   1.657   3.070   3.153
 4585SOL    HW214655   1.790   3.113   3.068
 4586SOL     OW14656   5.859   5.004   6.407
 4586SOL    HW114657   5.833   5.001   6.504
 4586SOL    HW214658   5.950   5.045   6.398
 4587SOL     OW14659   3.479   3.311   5.131
 4587SOL    HW114660   3.451   3.267   5.217
 4587SOL    HW214661   3.407   3.374   5.101
 4588SOL     OW14662   3.457   3.864   6.514
 4588SOL    HW114663   3.394   3.805   6.464
 4588SOL    HW214664   3.526   3.806   6.560
 4589SOL     OW14665   5.852   6.461   2.207
 4589SOL    HW114666   5.899   6.477   2.121
 4589SOL    HW214667   5.784   6.388   2.195
 4590SOL     OW14668   3.767   5.420   1.335
 4590SOL    HW114669   3.746   5.400   1.431
 4590SOL    HW214670   3.769   5.335   1.283
 4591SOL     OW14671   2.493   0.468   5.424
 4591SOL    HW114672   2.407   0.494   5.380
 4591SOL    HW214673   2.529   0.386   5.380
 4592SOL     OW14674   2.074   1.489   3.875
 4592SOL    HW114675   1.984   1.519   3.909
 4592SOL    HW214676   2.145   1.516   3.940
 4593SOL     OW14677   1.434   5.423   4.422
 4593SOL    HW114678   1.369   5.348   4.434
 4593SOL    HW214679   1.429   5.484   4.501
 4594SOL     OW14680   2.316   6.986   3.281
 4594SOL    HW114681   2.374   6.904   3.272
 4594SOL    HW214682   2.221   6.958   3.292
 4595SOL     OW14683   5.425   2.098   6.224
 4595SOL    HW114684   5.326   2.087   6.226
 4595SOL    HW214685   5.468   2.008   6.216
 4596SOL     OW14686   0.036   0.785   2.292
 4596SOL    HW114687   0.076   0.694   2.305
 4596SOL    HW214688   0.107   0.855   2.301
 4597SOL     OW14689   2.685   5.930   0.586
 4597SOL    HW114690   2.727   5.906   0.674
 4597SOL    HW214691   2.589   5.952   0.601
 4598SOL     OW14692   0.616   4.545   0.577
 4598SOL    HW114693   0.535   4.521   0.524
 4598SOL    HW214694   0.677   4.466   0.583
 4599SOL     OW14695   3.826   6.178   1.790
 4599SOL    HW114696   3.758   6.139   1.851
 4599SOL    HW214697   3.800   6.272   1.768
 4600SOL     OW14698   0.616   6.381   6.453
 4600SOL    HW114699   0.573   6.296   6.485
 4600SOL    HW214700   0.560   6.459   6.481
 4601SOL     OW14701   1.705   0.563   5.269
 4601SOL    HW114702   1.793   0.589   5.230
 4601SOL    HW214703   1.666   0.640   5.319
 4602SOL     OW14704   3.125   1.900   5.581
 4602SOL    HW114705   3.040   1.891   5.633
 4602SOL    HW214706   3.196   1.938   5.640
 4603SOL     OW14707   4.627   0.184   1.204
 4603SOL    HW114708   4.590   0.222   1.119
 4603SOL    HW214709   4.553   0.154   1.263
 4604SOL     OW14710   6.799   0.045   4.586
 4604SOL    HW114711   6.858   6.989   4.605
 4604SOL    HW214712   6.851   0.130   4.597
 4605SOL     OW14713   3.607   0.420   1.228
 4605SOL    HW114714   3.550   0.455   1.302
 4605SOL    HW214715   3.551   0.404   1.147
 4606SOL     OW14716   6.895   6.546   5.205
 4606SOL    HW114717   6.975   6.580   5.154
 4606SOL    HW214718   6.911   6.558   5.303
 4607SOL     OW14719   2.030   2.037   0.795
 4607SOL    HW114720   2.035   2.064   0.891
 4607SOL    HW214721   1.974   1.955   0.786
 4608SOL     OW14722   6.991   2.701   4.748
 4608SOL    HW114723   6.997   2.801   4.743
 4608SOL    HW214724   6.904   2.671   4.708
 4609SOL     OW14725   4.949   5.117   6.777
 4609SOL    HW114726   5.017   5.190   6.770
 4609SOL    HW214727   4.938   5.073   6.688
 4610SOL     OW14728   5.339   4.750   0.134
 4610SOL    HW114729   5.305   4.781   0.222
 4610SOL    HW214730   5.312   4.815   0.063
 4611SOL     OW14731   0.448   1.109   6.522
 4611SOL    HW114732   0.531   1.163   6.509
 4611SOL    HW214733   0.436   1.089   6.619
 4612SOL     OW14734   2.237   1.748   1.815
 4612SOL    HW114735   2.150   1.704   1.797
 4612SOL    HW214736   2.309   1.679   1.822
 4613SOL     OW14737   1.423   4.781   1.683
 4613SOL    HW114738   1.506   4.774   1.737
 4613SOL    HW214739   1.344   4.760   1.740
 4614SOL     OW14740   6.598   4.232   4.192
 4614SOL    HW114741   6.563   4.325   4.206
 4614SOL    HW214742   6.655   4.206   4.270
 4615SOL     OW14743   1.512   3.705   5.840
 4615SOL    HW114744   1.549   3.655   5.918
 4615SOL    HW214745   1.478   3.794   5.870
 4616SOL     OW14746   0.573   2.970   5.479
 4616SOL    HW114747   0.643   2.904   5.504
 4616SOL    HW214748   0.527   2.940   5.396
 4617SOL     OW14749   0.118   2.642   3.750
 4617SOL    HW114750   0.105   2.590   3.665
 4617SOL    HW214751   0.086   2.587   3.827
 4618SOL     OW14752   2.040   4.462   5.845
 4618SOL    HW114753   2.108   4.398   5.882
 4618SOL    HW214754   1.955   4.453   5.897
 4619SOL     OW14755   4.594   6.455   6.457
 4619SOL    HW114756   4.691   6.439   6.475
 4619SOL    HW214757   4.552   6.500   6.535
 4620SOL     OW14758   0.958   5.213   2.475
 4620SOL    HW114759   0.971   5.218   2.573
 4620SOL    HW214760   0.972   5.119   2.444
 4621SOL     OW14761   3.396   0.065   2.376
 4621SOL    HW114762   3.455   0.134   2.417
 4621SOL    HW214763   3.374   0.091   2.282
 4622SOL     OW14764   5.579   6.851   0.699
 4622SOL    HW114765   5.648   6.781   0.719
 4622SOL    HW214766   5.614   6.940   0.729
 4623SOL     OW14767   2.923   4.609   1.557
 4623SOL    HW114768   2.998   4.549   1.586
 4623SOL    HW214769   2.849   4.604   1.625
 4624SOL     OW14770   4.585   1.209   2.022
 4624SOL    HW114771   4.621   1.199   2.115
 4624SOL    HW214772   4.613   1.298   1.985
 4625SOL     OW14773   1.797   6.456   1.428
 4625SOL    HW114774   1.837   6.396   1.497
 4625SOL    HW214775   1.793   6.408   1.340
 4626SOL     OW14776   4.298   3.413   1.488
 4626SOL    HW114777   4.313   3.322   1.451
 4626SOL    HW214778   4.385   3.452   1.518
 4627SOL     OW14779   5.360   0.253   5.331
 4627SOL    HW114780   5.451   0.211   5.326
 4627SOL    HW214781   5.300   0.195   5.387
 4628SOL     OW14782   5.676   4.569   3.603
 4628SOL    HW114783   5.735   4.495   3.636
 4628SOL    HW214784   5.581   4.549   3.626
 4629SOL     OW14785   1.964   5.444   0.336
 4629SOL    HW114786   1.926   5.527   0.376
 4629SOL    HW214787   1.906   5.366   0.359
 4630SOL     OW14788   1.902   3.259   1.472
 4630SOL    HW114789   1.931   3.216   1.557
 4630SOL    HW214790   1.973   3.246   1.402
 4631SOL     OW14791   0.015   0.735   3.369
 4631SOL    HW114792   7.004   0.818   3.322
 4631SOL    HW214793   0.110   0.718   3.342
 4632SOL     OW14794   3.581   4.941   2.845
 4632SOL    HW114795   3.496   4.901   2.813
 4632SOL    HW214796   3.563   5.030   2.887
 4633SOL     OW14797   4.968   1.422   4.736
 4633SOL    HW114798   4.976   1.322   4.739
 4633SOL    HW214799   4.982   1.460   4.827
 4634SOL     OW14800   3.954   3.879   5.384
 4634SOL    HW114801   3.960   3.781   5.403
 4634SOL    HW214802   4.006   3.930   5.453
 4635SOL     OW14803   4.380   6.501   1.366
 4635SOL    HW114804   4.366   6.457   1.277
 4635SOL    HW214805   4.371   6.600   1.356
 4636SOL     OW14806   1.262   5.207   0.024
 4636SOL    HW114807   1.357   5.197   0.053
 4636SOL    HW214808   1.240   5.138   6.977
 4637SOL     OW14809   3.314   1.449   3.639
 4637SOL    HW114810   3.389   1.443   3.573
 4637SOL    HW214811   3.285   1.545   3.647
 4638SOL     OW14812   4.014   4.898   6.772
 4638SOL    HW114813   3.974   4.990   6.774
 4638SOL    HW214814   4.111   4.905   6.749
 4639SOL     OW14815   3.891   2.280   1.767
 4639SOL    HW114816   3.808   2.328   1.794
 4639SOL    HW214817   3.898   2.193   1.817
 4640SOL     OW14818   6.098   3.831   0.072
 4640SOL    HW114819   6.127   3.909   0.017
 4640SOL    HW214820   6.002   3.843   0.099
 4641SOL     OW14821   1.604   5.820   4.495
 4641SOL    HW114822   1.628   5.736   4.545
 4641SOL    HW214823   1.519   5.857   4.532
 4642SOL     OW14824   6.564   1.014   4.753
 4642SOL    HW114825   6.466   0.997   4.740
 4642SOL    HW214826   6.590   0.987   4.845
 4643SOL     OW14827   0.590   2.069   6.976
 4643SOL    HW114828   0.636   2.024   0.030
 4643SOL    HW214829   0.492   2.076   6.996
 4644SOL     OW14830   1.368   0.793   0.770
 4644SOL    HW114831   1.399   0.720   0.710
 4644SOL    HW214832   1.268   0.795   0.772
 4645SOL     OW14833   6.553   1.698   4.566
 4645SOL    HW114834   6.560   1.609   4.521
 4645SOL    HW214835   6.468   1.702   4.618
 4646SOL     OW14836   2.458   4.433   3.963
 4646SOL    HW114837   2.379   4.488   3.992
 4646SOL    HW214838   2.429   4.364   3.897
 4647SOL     OW14839   1.218   6.654   1.200
 4647SOL    HW114840   1.195   6.577   1.141
 4647SOL    HW214841   1.189   6.634   1.294
 4648SOL     OW14842   2.433   1.463   4.325
 4648SOL    HW114843   2.516   1.518   4.316
 4648SOL    HW214844   2.456   1.376   4.369
 4649SOL     OW14845   5.938   1.612   0.111
 4649SOL    HW114846   5.953   1.517   0.085
 4649SOL    HW214847   5.938   1.620   0.211
 4650SOL     OW14848   5.249   6.443   0.803
 4650SOL    HW114849   5.202   6.448   0.892
 4650SOL    HW214850   5.281   6.534   0.778
 4651SOL     OW14851   6.799   3.474   6.191
 4651SOL    HW114852   6.822   3.492   6.287
 4651SOL    HW214853   6.883   3.471   6.137
 4652SOL     OW14854   0.277   6.416   5.273
 4652SOL    HW114855   0.291   6.447   5.179
 4652SOL    HW214856   0.258   6.496   5.331
 4653SOL     OW14857   6.598   5.570   0.365
 4653SOL    HW114858   6.640   5.482   0.343
 4653SOL    HW214859   6.635   5.604   0.451
 4654SOL     OW14860   1.094   0.377   6.050
 4654SOL    HW114861   1.003   0.413   6.031
 4654SOL    HW214862   1.090   0.277   6.056
 4655SOL     OW14863   5.074   2.999   1.653
 4655SOL    HW114864   5.023   2.942   1.718
 4655SOL    HW214865   5.035   2.987   1.562
 4656SOL     OW14866   6.793   1.011   1.662
 4656SOL    HW114867   6.770   1.018   1.565
 4656SOL    HW214868   6.786   1.102   1.704
 4657SOL     OW14869   3.628   1.161   3.279
 4657SOL    HW114870   3.711   1.128   3.325
 4657SOL    HW214871   3.650   1.243   3.227
 4658SOL     OW14872   1.263   2.462   5.935
 4658SOL    HW114873   1.221   2.531   5.995
 4658SOL    HW214874   1.219   2.466   5.845
 4659SOL     OW14875   1.705   4.329   7.005
 4659SOL    HW114876   1.666   4.338   6.913
 4659SOL    HW214877   1.632   4.322   0.050
 4660SOL     OW14878   1.044   5.601   3.235
 4660SOL    HW114879   1.071   5.515   3.192
 4660SOL    HW214880   0.944   5.608   3.237
 4661SOL     OW14881   0.503   1.455   6.229
 4661SOL    HW114882   0.442   1.498   6.162
 4661SOL    HW214883   0.592   1.437   6.186
 4662SOL     OW14884   2.064   0.410   5.397
 4662SOL    HW114885   2.089   0.506   5.396
 4662SOL    HW214886   1.992   0.395   5.464
 4663SOL     OW14887   1.311   6.880   0.332
 4663SOL    HW114888   1.294   6.977   0.312
 4663SOL    HW214889   1.349   6.871   0.424
 4664SOL     OW14890   6.030   6.948   6.469
 4664SOL    HW114891   6.045   0.020   6.499
 4664SOL    HW214892   5.940   6.918   6.500
 4665SOL     OW14893   1.244   0.130   3.646
 4665SOL    HW114894   1.226   0.225   3.620
 4665SOL    HW214895   1.164   0.093   3.694
 4666SOL     OW14896   2.313   1.603   4.726
 4666SOL    HW114897   2.280   1.519   4.684
 4666SOL    HW214898   2.268   1.617   4.814
 4667SOL     OW14899   6.158   4.431   1.167
 4667SOL    HW114900   6.221   4.441   1.089
 4667SOL    HW214901   6.198   4.369   1.234
 4668SOL     OW14902   4.834   1.643   4.701
 4668SOL    HW114903   4.736   1.647   4.679
 4668SOL    HW214904   4.860   1.548   4.718
 4669SOL     OW14905   5.517   6.786   5.970
 4669SOL    HW114906   5.531   6.885   5.971
 4669SOL    HW214907   5.605   6.740   5.979
 4670SOL     OW14908   0.459   2.864   0.190
 4670SOL    HW114909   0.462   2.765   0.206
 4670SOL    HW214910   0.444   2.881   0.093
 4671SOL     OW14911   0.584   3.244   1.373
 4671SOL    HW114912   0.675   3.240   1.332
 4671SOL    HW214913   0.551   3.338   1.370
 4672SOL     OW14914   3.057   4.258   6.615
 4672SOL    HW114915   2.963   4.225   6.627
 4672SOL    HW214916   3.120   4.199   6.665
 4673SOL     OW14917   6.244   1.190   0.476
 4673SOL    HW114918   6.199   1.279   0.470
 4673SOL    HW214919   6.177   1.121   0.505
 4674SOL     OW14920   0.813   2.583   0.779
 4674SOL    HW114921   0.873   2.624   0.847
 4674SOL    HW214922   0.718   2.592   0.808
 4675SOL     OW14923   1.879   5.499   6.620
 4675SOL    HW114924   1.883   5.418   6.679
 4675SOL    HW214925   1.829   5.477   6.536
 4676SOL     OW14926   0.743   6.489   3.974
 4676SOL    HW114927   0.810   6.472   3.902
 4676SOL    HW214928   0.784   6.547   4.044
 4677SOL     OW14929   3.731   0.027   0.010
 4677SOL    HW114930   3.675   6.974   0.045
 4677SOL    HW214931   3.825   7.017   7.018
 4678SOL     OW14932   2.226   4.601   6.549
 4678SOL    HW114933   2.287   4.526   6.522
 4678SOL    HW214934   2.150   4.566   6.602
 4679SOL     OW14935   2.729   6.439   6.221
 4679SOL    HW114936   2.710   6.471   6.128
 4679SOL    HW214937   2.780   6.509   6.271
 4680SOL     OW14938   1.615   4.396   0.466
 4680SOL    HW114939   1.709   4.371   0.441
 4680SOL    HW214940   1.618   4.474   0.529
 4681SOL     OW14941   6.639   5.670   4.789
 4681SOL    HW114942   6.541   5.675   4.804
 4681SOL    HW214943   6.658   5.662   4.691
 4682SOL     OW14944   4.076   6.538   0.805
 4682SOL    HW114945   4.027   6.462   0.763
 4682SOL    HW214946   4.050   6.623   0.759
 4683SOL     OW14947   6.493   4.316   3.696
 4683SOL    HW114948   6.509   4.263   3.613
 4683SOL    HW214949   6.492   4.413   3.675
 4684SOL     OW14950   1.584   1.395   5.168
 4684SOL    HW114951   1.567   1.298   5.154
 4684SOL    HW214952   1.608   1.438   5.081
 4685SOL     OW14953   5.229   4.186   5.266
 4685SOL    HW114954   5.201   4.200   5.361
 4685SOL    HW214955   5.190   4.258   5.209
 4686SOL     OW14956   5.085   5.915   0.700
 4686SOL    HW114957   5.042   5.989   0.647
 4686SOL    HW214958   5.014   5.857   0.739
 4687SOL     OW14959   5.284   6.605   4.598
 4687SOL    HW114960   5.295   6.539   4.524
 4687SOL    HW214961   5.301   6.560   4.686
 4688SOL     OW14962   0.971   2.405   0.118
 4688SOL    HW114963   0.943   2.340   0.048
 4688SOL    HW214964   0.920   2.388   0.202
 4689SOL     OW14965   1.353   5.215   4.729
 4689SOL    HW114966   1.307   5.178   4.649
 4689SOL    HW214967   1.451   5.225   4.710
 4690SOL     OW14968   1.845   2.163   0.557
 4690SOL    HW114969   1.849   2.078   0.503
 4690SOL    HW214970   1.913   2.159   0.630
 4691SOL     OW14971   3.901   4.488   0.354
 4691SOL    HW114972   3.936   4.568   0.402
 4691SOL    HW214973   3.897   4.410   0.417
 4692SOL     OW14974   0.233   5.757   3.227
 4692SOL    HW114975   0.156   5.772   3.165
 4692SOL    HW214976   0.199   5.739   3.319
 4693SOL     OW14977   0.830   0.715   3.799
 4693SOL    HW114978   0.868   0.786   3.859
 4693SOL    HW214979   0.796   0.639   3.855
 4694SOL     OW14980   1.713   0.990   6.290
 4694SOL    HW114981   1.691   1.087   6.279
 4694SOL    HW214982   1.760   0.958   6.208
 4695SOL     OW14983   2.751   2.876   1.710
 4695SOL    HW114984   2.835   2.838   1.750
 4695SOL    HW214985   2.685   2.802   1.696
 4696SOL     OW14986   5.989   3.500   0.370
 4696SOL    HW114987   5.896   3.516   0.338
 4696SOL    HW214988   6.009   3.402   0.368
 4697SOL     OW14989   0.777   5.107   0.292
 4697SOL    HW114990   0.703   5.126   0.357
 4697SOL    HW214991   0.740   5.105   0.199
 4698SOL     OW14992   5.792   3.485   1.526
 4698SOL    HW114993   5.800   3.579   1.557
 4698SOL    HW214994   5.783   3.424   1.605
 4699SOL     OW14995   6.284   0.195   3.377
 4699SOL    HW114996   6.290   0.237   3.287
 4699SOL    HW214997   6.366   0.215   3.430
 4700SOL     OW14998   5.994   6.505   0.223
 4700SOL    HW114999   6.026   6.576   0.161
 4700SOL    HW215000   5.904   6.529   0.259
 4701SOL     OW15001   0.086   1.020   0.649
 4701SOL    HW115002   0.052   0.934   0.687
 4701SOL    HW215003   0.012   1.086   0.645
 4702SOL     OW15004   2.596   3.500   0.234
 4702SOL    HW115005   2.660   3.574   0.256
 4702SOL    HW215006   2.644   3.412   0.238
 4703SOL     OW15007   1.320   1.298   1.058
 4703SOL    HW115008   1.415   1.285   1.028
 4703SOL    HW215009   1.268   1.214   1.041
 4704SOL     OW15010   4.572   0.015   0.289
 4704SOL    HW115011   4.574   0.113   0.270
 4704SOL    HW215012   4.528   7.021   0.377
 4705SOL     OW15013   3.298   4.095   3.839
 4705SOL    HW115014   3.241   4.024   3.880
 4705SOL    HW215015   3.374   4.117   3.900
 4706SOL     OW15016   4.736   5.127   0.978
 4706SOL    HW115017   4.730   5.105   1.076
 4706SOL    HW215018   4.706   5.221   0.963
 4707SOL     OW15019   3.273   6.286   1.351
 4707SOL    HW115020   3.327   6.233   1.285
 4707SOL    HW215021   3.332   6.312   1.428
 4708SOL     OW15022   1.855   2.369   2.195
 4708SOL    HW115023   1.866   2.361   2.096
 4708SOL    HW215024   1.889   2.287   2.239
 4709SOL     OW15025   3.628   3.718   6.679
 4709SOL    HW115026   3.722   3.738   6.651
 4709SOL    HW215027   3.594   3.792   6.737
 4710SOL     OW15028   5.021   2.435   0.541
 4710SOL    HW115029   5.038   2.342   0.574
 4710SOL    HW215030   5.071   2.451   0.456
 4711SOL     OW15031   3.343   6.629   3.022
 4711SOL    HW115032   3.314   6.681   2.942
 4711SOL    HW215033   3.276   6.640   3.095
 4712SOL     OW15034   1.149   4.665   0.480
 4712SOL    HW115035   1.148   4.588   0.415
 4712SOL    HW215036   1.220   4.650   0.548
 4713SOL     OW15037   2.663   6.091   0.998
 4713SOL    HW115038   2.680   6.118   1.093
 4713SOL    HW215039   2.571   6.055   0.990
 4714SOL     OW15040   3.176   2.630   0.596
 4714SOL    HW115041   3.080   2.633   0.626
 4714SOL    HW215042   3.233   2.597   0.672
 4715SOL     OW15043   5.538   4.094   4.723
 4715SOL    HW115044   5.549   4.000   4.755
 4715SOL    HW215045   5.571   4.101   4.629
 4716SOL     OW15046   2.995   5.510   0.413
 4716SOL    HW115047   2.978   5.411   0.421
 4716SOL    HW215048   2.982   5.554   0.502
 4717SOL     OW15049   1.002   5.632   3.763
 4717SOL    HW115050   1.048   5.640   3.674
 4717SOL    HW215051   1.022   5.542   3.802
 4718SOL     OW15052   5.453   1.106   6.243
 4718SOL    HW115053   5.469   1.201   6.268
 4718SOL    HW215054   5.399   1.102   6.159
 4719SOL     OW15055   4.247   3.037   1.536
 4719SOL    HW115056   4.323   3.042   1.601
 4719SOL    HW215057   4.262   3.103   1.462
 4720SOL     OW15058   3.028   0.823   4.223
 4720SOL    HW115059   3.082   0.852   4.302
 4720SOL    HW215060   2.993   0.903   4.175
 4721SOL     OW15061   1.041   1.655   0.567
 4721SOL    HW115062   1.127   1.670   0.616
 4721SOL    HW215063   0.999   1.571   0.599
 4722SOL     OW15064   2.580   0.288   1.733
 4722SOL    HW115065   2.582   0.376   1.781
 4722SOL    HW215066   2.543   0.218   1.793
 4723SOL     OW15067   2.975   0.146   6.824
 4723SOL    HW115068   2.926   0.059   6.834
 4723SOL    HW215069   3.028   0.145   6.739
 4724SOL     OW15070   3.918   5.088   1.933
 4724SOL    HW115071   4.006   5.093   1.886
 4724SOL    HW215072   3.917   5.010   1.996
 4725SOL     OW15073   6.126   5.579   3.422
 4725SOL    HW115074   6.027   5.567   3.420
 4725SOL    HW215075   6.148   5.676   3.419
 4726SOL     OW15076   0.778   6.076   5.718
 4726SOL    HW115077   0.725   6.041   5.641
 4726SOL    HW215078   0.782   6.007   5.790
 4727SOL     OW15079   6.882   6.536   0.610
 4727SOL    HW115080   6.840   6.572   0.693
 4727SOL    HW215081   6.967   6.585   0.592
 4728SOL     OW15082   0.180   1.397   6.927
 4728SOL    HW115083   0.239   1.422   6.851
 4728SOL    HW215084   0.106   1.338   6.894
 4729SOL     OW15085   2.914   0.284   0.363
 4729SOL    HW115086   2.932   0.202   0.308
 4729SOL    HW215087   2.983   0.354   0.342
 4730SOL     OW15088   2.210   0.168   5.308
 4730SOL    HW115089   2.213   0.166   5.208
 4730SOL    HW215090   2.147   0.239   5.338
 4731SOL     OW15091   5.639   1.932   5.819
 4731SOL    HW115092   5.721   1.956   5.766
 4731SOL    HW215093   5.653   1.842   5.862
 4732SOL     OW15094   0.502   1.601   0.731
 4732SOL    HW115095   0.510   1.543   0.813
 4732SOL    HW215096   0.418   1.655   0.737
 4733SOL     OW15097   6.630   3.173   4.005
 4733SOL    HW115098   6.578   3.240   4.059
 4733SOL    HW215099   6.619   3.082   4.045
 4734SOL     OW15100   4.844   4.687   5.804
 4734SOL    HW115101   4.917   4.725   5.862
 4734SOL    HW215102   4.798   4.762   5.756
 4735SOL     OW15103   0.214   4.689   3.705
 4735SOL    HW115104   0.296   4.652   3.661
 4735SOL    HW215105   0.185   4.626   3.778
 4736SOL     OW15106   1.616   0.774   1.492
 4736SOL    HW115107   1.530   0.726   1.510
 4736SOL    HW215108   1.642   0.826   1.574
 4737SOL     OW15109   3.336   5.486   1.698
 4737SOL    HW115110   3.397   5.429   1.643
 4737SOL    HW215111   3.327   5.446   1.789
 4738SOL     OW15112   0.124   6.141   2.879
 4738SOL    HW115113   0.088   6.209   2.943
 4738SOL    HW215114   0.079   6.151   2.790
 4739SOL     OW15115   4.729   0.659   1.494
 4739SOL    HW115116   4.797   0.587   1.506
 4739SOL    HW215117   4.756   0.719   1.419
 4740SOL     OW15118   0.830   2.561   3.667
 4740SOL    HW115119   0.774   2.504   3.727
 4740SOL    HW215120   0.926   2.551   3.692
 4741SOL     OW15121   4.053   4.252   1.358
 4741SOL    HW115122   4.143   4.247   1.401
 4741SOL    HW215123   3.987   4.290   1.424
 4742SOL     OW15124   3.622   1.207   0.638
 4742SOL    HW115125   3.615   1.151   0.720
 4742SOL    HW215126   3.718   1.223   0.617
 4743SOL     OW15127   1.642   4.930   0.440
 4743SOL    HW115128   1.740   4.911   0.432
 4743SOL    HW215129   1.629   5.015   0.490
 4744SOL     OW15130   2.481   5.860   1.224
 4744SOL    HW115131   2.390   5.863   1.266
 4744SOL    HW215132   2.511   5.765   1.219
 4745SOL     OW15133   0.917   3.785   0.085
 4745SOL    HW115134   0.983   3.726   0.038
 4745SOL    HW215135   0.946   3.880   0.078
 4746SOL     OW15136   4.497   5.582   4.796
 4746SOL    HW115137   4.424   5.529   4.839
 4746SOL    HW215138   4.576   5.523   4.781
 4747SOL     OW15139   2.002   1.243   0.070
 4747SOL    HW115140   2.045   1.327   0.103
 4747SOL    HW215141   2.070   1.189   0.021
 4748SOL     OW15142   1.699   6.360   1.765
 4748SOL    HW115143   1.685   6.444   1.816
 4748SOL    HW215144   1.611   6.325   1.733
 4749SOL     OW15145   2.858   2.198   0.115
 4749SOL    HW115146   2.899   2.107   0.118
 4749SOL    HW215147   2.837   2.229   0.208
 4750SOL     OW15148   5.035   2.695   5.188
 4750SOL    HW115149   5.128   2.731   5.203
 4750SOL    HW215150   4.968   2.766   5.211
 4751SOL     OW15151   4.764   0.486   3.250
 4751SOL    HW115152   4.781   0.388   3.238
 4751SOL    HW215153   4.677   0.498   3.298
 4752SOL     OW15154   5.009   2.153   6.709
 4752SOL    HW115155   4.933   2.088   6.708
 4752SOL    HW215156   5.014   2.200   6.621
 4753SOL     OW15157   3.023   6.202   4.749
 4753SOL    HW115158   3.048   6.109   4.725
 4753SOL    HW215159   3.106   6.257   4.761
 4754SOL     OW15160   4.719   4.382   6.446
 4754SOL    HW115161   4.709   4.421   6.537
 4754SOL    HW215162   4.629   4.354   6.412
 4755SOL     OW15163   0.653   0.934   1.438
 4755SOL    HW115164   0.654   1.018   1.493
 4755SOL    HW215165   0.746   0.897   1.432
 4756SOL     OW15166   6.506   3.974   5.369
 4756SOL    HW115167   6.499   3.914   5.290
 4756SOL    HW215168   6.597   4.015   5.372
 4757SOL     OW15169   1.892   3.816   0.442
 4757SOL    HW115170   1.828   3.744   0.416
 4757SOL    HW215171   1.986   3.788   0.421
 4758SOL     OW15172   2.359   6.029   3.155
 4758SOL    HW115173   2.408   5.976   3.224
 4758SOL    HW215174   2.422   6.055   3.082
 4759SOL     OW15175   6.991   6.622   1.989
 4759SOL    HW115176   6.948   6.545   2.037
 4759SOL    HW215177   6.991   6.604   1.891
 4760SOL     OW15178   1.690   5.590   0.636
 4760SOL    HW115179   1.617   5.656   0.654
 4760SOL    HW215180   1.720   5.548   0.721
 4761SOL     OW15181   6.007   6.427   1.974
 4761SOL    HW115182   6.078   6.489   2.009
 4761SOL    HW215183   6.032   6.333   1.995
 4762SOL     OW15184   1.994   0.504   2.601
 4762SOL    HW115185   1.960   0.581   2.546
 4762SOL    HW215186   1.937   0.424   2.585
 4763SOL     OW15187   5.879   5.368   2.395
 4763SOL    HW115188   5.907   5.274   2.415
 4763SOL    HW215189   5.895   5.425   2.475
 4764SOL     OW15190   4.791   2.148   0.400
 4764SOL    HW115191   4.780   2.235   0.448
 4764SOL    HW215192   4.854   2.090   0.451
 4765SOL     OW15193   3.813   1.659   5.585
 4765SOL    HW115194   3.913   1.656   5.578
 4765SOL    HW215195   3.787   1.736   5.644
 4766SOL     OW15196   0.875   0.418   4.869
 4766SOL    HW115197   0.904   0.326   4.845
 4766SOL    HW215198   0.810   0.451   4.801
 4767SOL     OW15199   2.105   4.017   3.156
 4767SOL    HW115200   2.166   4.086   3.196
 4767SOL    HW215201   2.135   3.996   3.063
 4768SOL     OW15202   4.558   2.727   6.323
 4768SOL    HW115203   4.605   2.771   6.400
 4768SOL    HW215204   4.467   2.699   6.351
 4769SOL     OW15205   1.671   3.610   0.626
 4769SOL    HW115206   1.683   3.667   0.545
 4769SOL    HW215207   1.650   3.517   0.598
 4770SOL     OW15208   0.377   1.641   4.233
 4770SOL    HW115209   0.346   1.736   4.228
 4770SOL    HW215210   0.429   1.618   4.151
 4771SOL     OW15211   2.149   6.861   3.940
 4771SOL    HW115212   2.171   6.854   4.038
 4771SOL    HW215213   2.057   6.899   3.930
 4772SOL     OW15214   2.815   5.382   2.575
 4772SOL    HW115215   2.772   5.382   2.665
 4772SOL    HW215216   2.791   5.466   2.526
 4773SOL     OW15217   2.738   4.936   5.037
 4773SOL    HW115218   2.769   4.887   4.955
 4773SOL    HW215219   2.739   4.874   5.115
 4774SOL     OW15220   0.980   4.507   0.777
 4774SOL    HW115221   0.990   4.475   0.872
 4774SOL    HW215222   1.012   4.436   0.715
 4775SOL     OW15223   6.006   6.088   5.445
 4775SOL    HW115224   5.994   6.023   5.520
 4775SOL    HW215225   5.928   6.150   5.442
 4776SOL     OW15226   0.418   1.321   5.953
 4776SOL    HW115227   0.407   1.294   6.049
 4776SOL    HW215228   0.509   1.362   5.940
 4777SOL     OW15229   2.433   0.201   2.554
 4777SOL    HW115230   2.357   0.188   2.617
 4777SOL    HW215231   2.399   0.234   2.466
 4778SOL     OW15232   1.830   1.405   0.416
 4778SOL    HW115233   1.775   1.328   0.447
 4778SOL    HW215234   1.791   1.441   0.331
 4779SOL     OW15235   5.144   0.395   4.750
 4779SOL    HW115236   5.059   0.348   4.727
 4779SOL    HW215237   5.153   0.400   4.850
 4780SOL     OW15238   5.023   2.569   4.956
 4780SOL    HW115239   5.043   2.608   5.046
 4780SOL    HW215240   5.063   2.627   4.885
 4781SOL     OW15241   1.885   5.795   1.600
 4781SOL    HW115242   1.876   5.698   1.576
 4781SOL    HW215243   1.864   5.851   1.520
 4782SOL     OW15244   6.841   6.774   4.384
 4782SOL    HW115245   6.890   6.798   4.468
 4782SOL    HW215246   6.907   6.760   4.310
 4783SOL     OW15247   0.059   3.687   5.899
 4783SOL    HW115248   0.092   3.648   5.985
 4783SOL    HW215249   0.129   3.747   5.861
 4784SOL     OW15250   5.220   3.640   6.707
 4784SOL    HW115251   5.140   3.663   6.763
 4784SOL    HW215252   5.259   3.554   6.738
 4785SOL     OW15253   0.524   0.191   4.432
 4785SOL    HW115254   0.554   0.135   4.355
 4785SOL    HW215255   0.505   0.133   4.510
 4786SOL     OW15256   0.913   6.105   0.737
 4786SOL    HW115257   0.927   6.054   0.822
 4786SOL    HW215258   0.983   6.077   0.670
 4787SOL     OW15259   4.262   1.358   4.140
 4787SOL    HW115260   4.300   1.319   4.224
 4787SOL    HW215261   4.321   1.434   4.110
 4788SOL     OW15262   0.007   6.250   0.577
 4788SOL    HW115263   0.059   6.314   0.635
 4788SOL    HW215264   6.963   6.301   0.522
 4789SOL     OW15265   5.831   0.811   2.699
 4789SOL    HW115266   5.751   0.824   2.757
 4789SOL    HW215267   5.855   0.714   2.695
 4790SOL     OW15268   6.670   2.005   4.938
 4790SOL    HW115269   6.609   2.081   4.916
 4790SOL    HW215270   6.645   1.966   5.026
 4791SOL     OW15271   0.796   0.041   0.345
 4791SOL    HW115272   0.835   0.020   0.435
 4791SOL    HW215273   0.870   0.047   0.277
 4792SOL     OW15274   1.805   3.348   2.406
 4792SOL    HW115275   1.790   3.271   2.344
 4792SOL    HW215276   1.898   3.382   2.396
 4793SOL     OW15277   1.143   3.924   5.802
 4793SOL    HW115278   1.101   3.860   5.737
 4793SOL    HW215279   1.082   3.937   5.880
 4794SOL     OW15280   4.547   1.909   4.629
 4794SOL    HW115281   4.505   1.818   4.626
 4794SOL    HW215282   4.538   1.953   4.539
 4795SOL     OW15283   6.756   0.942   6.399
 4795SOL    HW115284   6.659   0.935   6.374
 4795SOL    HW215285   6.765   0.938   6.499
 4796SOL     OW15286   4.767   1.103   5.448
 4796SOL    HW115287   4.672   1.123   5.474
 4796SOL    HW215288   4.828   1.169   5.492
 4797SOL     OW15289   1.861   5.083   5.753
 4797SOL    HW115290   1.858   4.989   5.718
 4797SOL    HW215291   1.866   5.080   5.853
 4798SOL     OW15292   3.967   5.748   0.097
 4798SOL    HW115293   4.053   5.708   0.068
 4798SOL    HW215294   3.896   5.730   0.028
 4799SOL     OW15295   4.502   2.464   0.303
 4799SOL    HW115296   4.559   2.406   0.246
 4799SOL    HW215297   4.558   2.504   0.377
 4800SOL     OW15298   0.147   4.528   6.891
 4800SOL    HW115299   0.155   4.439   6.846
 4800SOL    HW215300   0.092   4.589   6.835
 4801SOL     OW15301   5.214   2.222   2.120
 4801SOL    HW115302   5.129   2.262   2.153
 4801SOL    HW215303   5.208   2.211   2.020
 4802SOL     OW15304   6.554   0.398   4.571
 4802SOL    HW115305   6.504   0.421   4.487
 4802SOL    HW215306   6.501   0.427   4.650
 4803SOL     OW15307   4.779   3.930   5.714
 4803SOL    HW115308   4.693   3.906   5.669
 4803SOL    HW215309   4.855   3.887   5.664
 4804SOL     OW15310   5.391   2.364   0.570
 4804SOL    HW115311   5.482   2.325   0.555
 4804SOL    HW215312   5.327   2.327   0.503
 4805SOL     OW15313   6.100   1.800   6.904
 4805SOL    HW115314   6.090   1.734   6.978
 4805SOL    HW215315   6.103   1.752   6.817
 4806SOL     OW15316   1.317   1.436   3.472
 4806SOL    HW115317   1.395   1.374   3.471
 4806SOL    HW215318   1.331   1.508   3.404
 4807SOL     OW15319   6.960   4.383   5.839
 4807SOL    HW115320   0.011   4.316   5.829
 4807SOL    HW215321   6.922   4.404   5.749
 4808SOL     OW15322   3.876   5.874   1.936
 4808SOL    HW115323   3.961   5.874   1.885
 4808SOL    HW215324   3.834   5.966   1.932
 4809SOL     OW15325   2.873   3.354   1.490
 4809SOL    HW115326   2.806   3.280   1.498
 4809SOL    HW215327   2.945   3.327   1.427
 4810SOL     OW15328   1.331   5.563   4.164
 4810SOL    HW115329   1.409   5.611   4.204
 4810SOL    HW215330   1.272   5.528   4.237
 4811SOL     OW15331   3.378   3.788   4.095
 4811SOL    HW115332   3.389   3.805   4.193
 4811SOL    HW215333   3.281   3.772   4.075
 4812SOL     OW15334   1.838   6.831   2.901
 4812SOL    HW115335   1.758   6.872   2.857
 4812SOL    HW215336   1.845   6.864   2.995
 4813SOL     OW15337   0.507   1.508   5.612
 4813SOL    HW115338   0.488   1.571   5.537
 4813SOL    HW215339   0.583   1.449   5.587
 4814SOL     OW15340   6.309   3.733   1.381
 4814SOL    HW115341   6.228   3.789   1.363
 4814SOL    HW215342   6.289   3.670   1.456
 4815SOL     OW15343   6.016   4.686   2.455
 4815SOL    HW115344   6.010   4.604   2.511
 4815SOL    HW215345   6.021   4.766   2.515
 4816SOL     OW15346   3.462   1.081   2.320
 4816SOL    HW115347   3.440   1.104   2.415
 4816SOL    HW215348   3.379   1.050   2.273
 4817SOL     OW15349   3.894   1.450   0.870
 4817SOL    HW115350   3.832   1.413   0.939
 4817SOL    HW215351   3.989   1.433   0.897
 4818SOL     OW15352   3.994   0.183   4.961
 4818SOL    HW115353   4.068   0.222   5.016
 4818SOL    HW215354   3.997   0.222   4.869
 4819SOL     OW15355   2.934   1.202   0.479
 4819SOL    HW115356   2.839   1.213   0.447
 4819SOL    HW215357   2.962   1.107   0.466
 4820SOL     OW15358   5.806   4.220   1.921
 4820SOL    HW115359   5.768   4.251   2.008
 4820SOL    HW215360   5.732   4.197   1.859
 4821SOL     OW15361   0.243   5.565   1.953
 4821SOL    HW115362   0.306   5.643   1.956
 4821SOL    HW215363   0.171   5.578   2.021
 4822SOL     OW15364   0.996   3.744   1.793
 4822SOL    HW115365   0.956   3.759   1.703
 4822SOL    HW215366   0.938   3.683   1.847
 4823SOL     OW15367   1.555   0.907   3.583
 4823SOL    HW115368   1.582   0.810   3.580
 4823SOL    HW215369   1.474   0.920   3.526
 4824SOL     OW15370   5.718   2.936   1.616
 4824SOL    HW115371   5.651   2.863   1.630
 4824SOL    HW215372   5.702   2.979   1.527
 4825SOL     OW15373   0.057   3.235   3.444
 4825SOL    HW115374   0.113   3.172   3.391
 4825SOL    HW215375   0.092   3.328   3.434
 4826SOL     OW15376   6.592   6.211   6.699
 4826SOL    HW115377   6.537   6.283   6.655
 4826SOL    HW215378   6.595   6.227   6.797
 4827SOL     OW15379   5.709   1.224   1.122
 4827SOL    HW115380   5.806   1.230   1.144
 4827SOL    HW215381   5.660   1.182   1.198
 4828SOL     OW15382   5.073   3.424   6.852
 4828SOL    HW115383   5.164   3.384   6.842
 4828SOL    HW215384   5.070   3.477   6.936
 4829SOL     OW15385   3.907   6.914   5.050
 4829SOL    HW115386   3.810   6.903   5.029
 4829SOL    HW215387   3.928   7.012   5.056
 4830SOL     OW15388   4.256   6.309   5.132
 4830SOL    HW115389   4.303   6.241   5.077
 4830SOL    HW215390   4.306   6.395   5.129
 4831SOL     OW15391   5.990   3.354   6.005
 4831SOL    HW115392   6.045   3.393   5.931
 4831SOL    HW215393   5.966   3.260   5.982
 4832SOL     OW15394   1.987   2.921   6.298
 4832SOL    HW115395   1.991   2.937   6.199
 4832SOL    HW215396   2.033   2.835   6.320
 4833SOL     OW15397   5.952   1.832   3.097
 4833SOL    HW115398   5.858   1.843   3.064
 4833SOL    HW215399   6.014   1.823   3.019
 4834SOL     OW15400   5.578   1.094   3.458
 4834SOL    HW115401   5.543   1.017   3.511
 4834SOL    HW215402   5.581   1.175   3.515
 4835SOL     OW15403   1.784   0.650   5.659
 4835SOL    HW115404   1.859   0.716   5.649
 4835SOL    HW215405   1.802   0.570   5.601
 4836SOL     OW15406   5.350   2.946   1.920
 4836SOL    HW115407   5.268   2.908   1.964
 4836SOL    HW215408   5.341   2.938   1.821
 4837SOL     OW15409   0.406   3.901   1.330
 4837SOL    HW115410   0.314   3.934   1.349
 4837SOL    HW215411   0.466   3.921   1.408
 4838SOL     OW15412   2.686   5.355   2.810
 4838SOL    HW115413   2.652   5.262   2.792
 4838SOL    HW215414   2.616   5.421   2.783
 4839SOL     OW15415   0.592   6.998   0.025
 4839SOL    HW115416   0.650   6.964   6.973
 4839SOL    HW215417   0.591   6.932   0.099
 4840SOL     OW15418   6.165   6.967   6.803
 4840SOL    HW115419   6.124   6.950   6.713
 4840SOL    HW215420   6.101   6.939   6.875
 4841SOL     OW15421   2.766   6.236   2.439
 4841SOL    HW115422   2.808   6.156   2.396
 4841SOL    HW215423   2.739   6.301   2.368
 4842SOL     OW15424   3.591   6.394   1.172
 4842SOL    HW115425   3.581   6.479   1.120
 4842SOL    HW215426   3.677   6.349   1.146
 4843SOL     OW15427   1.053   2.742   6.787
 4843SOL    HW115428   0.991   2.664   6.779
 4843SOL    HW215429   1.001   2.827   6.777
 4844SOL     OW15430   0.500   1.581   5.886
 4844SOL    HW115431   0.519   1.566   5.789
 4844SOL    HW215432   0.574   1.633   5.927
 4845SOL     OW15433   5.557   4.965   3.755
 4845SOL    HW115434   5.460   4.955   3.737
 4845SOL    HW215435   5.592   5.048   3.711
 4846SOL     OW15436   0.557   5.198   0.460
 4846SOL    HW115437   0.547   5.295   0.437
 4846SOL    HW215438   0.472   5.150   0.439
 4847SOL     OW15439   4.957   2.338   4.264
 4847SOL    HW115440   4.882   2.347   4.329
 4847SOL    HW215441   4.975   2.426   4.221
 4848SOL     OW15442   2.678   2.202   1.991
 4848SOL    HW115443   2.616   2.179   2.066
 4848SOL    HW215444   2.764   2.238   2.027
 4849SOL     OW15445   0.970   6.727   6.677
 4849SOL    HW115446   1.039   6.710   6.748
 4849SOL    HW215447   1.015   6.750   6.591
 4850SOL     OW15448   4.148   0.561   2.994
 4850SOL    HW115449   4.147   0.463   2.974
 4850SOL    HW215450   4.195   0.610   2.921
 4851SOL     OW15451   5.187   0.823   5.122
 4851SOL    HW115452   5.123   0.828   5.198
 4851SOL    HW215453   5.175   0.735   5.075
 4852SOL     OW15454   2.187   2.131   1.550
 4852SOL    HW115455   2.218   2.065   1.481
 4852SOL    HW215456   2.149   2.211   1.504
 4853SOL     OW15457   3.269   1.653   1.672
 4853SOL    HW115458   3.211   1.734   1.683
 4853SOL    HW215459   3.284   1.610   1.761
 4854SOL     OW15460   4.132   0.236   0.505
 4854SOL    HW115461   4.209   0.187   0.465
 4854SOL    HW215462   4.060   0.171   0.530
 4855SOL     OW15463   0.016   2.616   2.488
 4855SOL    HW115464   6.972   2.545   2.512
 4855SOL    HW215465   0.079   2.629   2.565
 4856SOL     OW15466   1.842   4.064   3.101
 4856SOL    HW115467   1.829   4.151   3.052
 4856SOL    HW215468   1.938   4.038   3.099
 4857SOL     OW15469   0.325   1.199   6.286
 4857SOL    HW115470   0.295   1.293   6.302
 4857SOL    HW215471   0.345   1.155   6.373
 4858SOL     OW15472   1.202   0.476   4.078
 4858SOL    HW115473   1.196   0.572   4.050
 4858SOL    HW215474   1.114   0.431   4.065
 4859SOL     OW15475   3.144   5.627   5.848
 4859SOL    HW115476   3.236   5.607   5.815
 4859SOL    HW215477   3.149   5.654   5.945
 4860SOL     OW15478   4.460   3.994   0.279
 4860SOL    HW115479   4.419   4.000   0.370
 4860SOL    HW215480   4.439   3.905   0.239
 4861SOL     OW15481   5.312   3.593   5.306
 4861SOL    HW115482   5.351   3.663   5.246
 4861SOL    HW215483   5.386   3.538   5.345
 4862SOL     OW15484   1.015   6.326   1.331
 4862SOL    HW115485   0.941   6.387   1.303
 4862SOL    HW215486   1.059   6.288   1.250
 4863SOL     OW15487   5.167   4.285   6.632
 4863SOL    HW115488   5.266   4.276   6.638
 4863SOL    HW215489   5.138   4.366   6.684
 4864SOL     OW15490   3.121   1.037   3.958
 4864SOL    HW115491   3.149   1.132   3.943
 4864SOL    HW215492   3.202   0.979   3.965
 4865SOL     OW15493   2.062   6.542   4.902
 4865SOL    HW115494   2.160   6.524   4.895
 4865SOL    HW215495   2.039   6.567   4.996
 4866SOL     OW15496   6.422   4.087   6.344
 4866SOL    HW115497   6.483   4.079   6.265
 4866SOL    HW215498   6.344   4.145   6.320
 4867SOL     OW15499   4.562   0.410   2.897
 4867SOL    HW115500   4.600   0.367   2.815
 4867SOL    HW215501   4.617   0.490   2.921
 4868SOL     OW15502   6.791   4.394   0.954
 4868SOL    HW115503   6.832   4.456   1.022
 4868SOL    HW215504   6.862   4.336   0.916
 4869SOL     OW15505   0.545   0.888   0.479
 4869SOL    HW115506   0.623   0.921   0.425
 4869SOL    HW215507   0.558   0.792   0.501
 4870SOL     OW15508   0.584   6.328   2.397
 4870SOL    HW115509   0.628   6.274   2.326
 4870SOL    HW215510   0.641   6.408   2.418
 4871SOL     OW15511   1.923   1.221   3.965
 4871SOL    HW115512   1.977   1.139   3.986
 4871SOL    HW215513   1.984   1.297   3.944
 4872SOL     OW15514   5.777   6.406   3.046
 4872SOL    HW115515   5.872   6.434   3.058
 4872SOL    HW215516   5.771   6.340   2.971
 4873SOL     OW15517   6.018   5.526   5.161
 4873SOL    HW115518   6.014   5.587   5.082
 4873SOL    HW215519   6.103   5.474   5.159
 4874SOL     OW15520   4.987   3.033   3.036
 4874SOL    HW115521   4.933   3.117   3.041
 4874SOL    HW215522   5.082   3.056   3.014
 4875SOL     OW15523   5.694   6.244   5.127
 4875SOL    HW115524   5.726   6.196   5.208
 4875SOL    HW215525   5.668   6.338   5.151
 4876SOL     OW15526   1.393   1.147   2.247
 4876SOL    HW115527   1.386   1.068   2.308
 4876SOL    HW215528   1.367   1.229   2.296
 4877SOL     OW15529   6.793   1.697   5.205
 4877SOL    HW115530   6.888   1.724   5.189
 4877SOL    HW215531   6.783   1.668   5.300
 4878SOL     OW15532   6.835   3.103   2.286
 4878SOL    HW115533   6.776   3.130   2.362
 4878SOL    HW215534   6.785   3.042   2.225
 4879SOL     OW15535   5.969   1.006   2.584
 4879SOL    HW115536   5.919   1.089   2.558
 4879SOL    HW215537   5.906   0.942   2.628
 4880SOL     OW15538   6.358   2.936   6.755
 4880SOL    HW115539   6.335   2.887   6.839
 4880SOL    HW215540   6.374   3.033   6.776
 4881SOL     OW15541   1.598   2.524   1.745
 4881SOL    HW115542   1.634   2.467   1.820
 4881SOL    HW215543   1.670   2.586   1.714
 4882SOL     OW15544   4.434   2.063   4.411
 4882SOL    HW115545   4.505   2.093   4.348
 4882SOL    HW215546   4.377   2.141   4.437
 4883SOL     OW15547   5.862   4.325   0.758
 4883SOL    HW115548   5.931   4.380   0.710
 4883SOL    HW215549   5.839   4.245   0.702
 4884SOL     OW15550   1.582   6.959   1.442
 4884SOL    HW115551   1.602   0.022   1.396
 4884SOL    HW215552   1.483   6.943   1.444
 4885SOL     OW15553   1.362   4.229   6.992
 4885SOL    HW115554   1.412   4.238   0.056
 4885SOL    HW215555   1.425   4.245   6.916
 4886SOL     OW15556   2.734   1.138   2.042
 4886SOL    HW115557   2.635   1.143   2.031
 4886SOL    HW215558   2.768   1.225   2.078
 4887SOL     OW15559   5.962   6.475   1.008
 4887SOL    HW115560   5.932   6.469   1.103
 4887SOL    HW215561   6.054   6.435   1.000
 4888SOL     OW15562   3.920   0.219   2.616
 4888SOL    HW115563   3.934   0.131   2.662
 4888SOL    HW215564   3.945   0.293   2.679
 4889SOL     OW15565   6.675   3.123   3.725
 4889SOL    HW115566   6.630   3.212   3.710
 4889SOL    HW215567   6.711   3.119   3.818
 4890SOL     OW15568   6.520   1.469   4.386
 4890SOL    HW115569   6.609   1.461   4.432
 4890SOL    HW215570   6.463   1.391   4.410
 4891SOL     OW15571   2.684   5.423   6.292
 4891SOL    HW115572   2.717   5.508   6.252
 4891SOL    HW215573   2.665   5.357   6.220
 4892SOL     OW15574   4.916   5.560   2.762
 4892SOL    HW115575   4.974   5.603   2.831
 4892SOL    HW215576   4.834   5.522   2.805
 4893SOL     OW15577   1.075   3.208   1.077
 4893SOL    HW115578   1.168   3.173   1.068
 4893SOL    HW215579   1.062   3.245   1.170
 4894SOL     OW15580   5.259   6.698   1.631
 4894SOL    HW115581   5.269   6.686   1.532
 4894SOL    HW215582   5.328   6.643   1.678
 4895SOL     OW15583   0.012   4.848   5.036
 4895SOL    HW115584   0.024   4.831   5.134
 4895SOL    HW215585   0.096   4.825   4.987
 4896SOL     OW15586   1.942   4.831   4.604
 4896SOL    HW115587   2.012   4.774   4.562
 4896SOL    HW215588   1.949   4.824   4.704
 4897SOL     OW15589   1.896   0.020   4.985
 4897SOL    HW115590   1.827   6.996   4.929
 4897SOL    HW215591   1.882   0.119   4.980
 4898SOL     OW15592   5.309   1.593   3.562
 4898SOL    HW115593   5.241   1.522   3.542
 4898SOL    HW215594   5.360   1.614   3.478
 4899SOL     OW15595   6.605   6.906   1.808
 4899SOL    HW115596   6.539   6.855   1.863
 4899SOL    HW215597   6.586   6.891   1.711
 4900SOL     OW15598   3.718   5.781   5.602
 4900SOL    HW115599   3.682   5.695   5.638
 4900SOL    HW215600   3.742   5.841   5.678
 4901SOL     OW15601   1.314   0.899   6.168
 4901SOL    HW115602   1.297   0.828   6.100
 4901SOL    HW215603   1.239   0.966   6.165
 4902SOL     OW15604   2.174   6.856   5.432
 4902SOL    HW115605   2.170   6.935   5.493
 4902SOL    HW215606   2.127   6.878   5.346
 4903SOL     OW15607   5.059   3.918   2.729
 4903SOL    HW115608   5.024   3.827   2.706
 4903SOL    HW215609   5.158   3.914   2.741
 4904SOL     OW15610   1.541   6.744   0.301
 4904SOL    HW115611   1.445   6.770   0.302
 4904SOL    HW215612   1.576   6.748   0.207
 4905SOL     OW15613   3.154   6.546   3.462
 4905SOL    HW115614   3.220   6.507   3.527
 4905SOL    HW215615   3.076   6.484   3.453
 4906SOL     OW15616   4.859   3.410   4.722
 4906SOL    HW115617   4.958   3.418   4.728
 4906SOL    HW215618   4.817   3.446   4.806
 4907SOL     OW15619   4.324   1.965   0.161
 4907SOL    HW115620   4.389   2.010   0.223
 4907SOL    HW215621   4.364   1.959   0.070
 4908SOL     OW15622   3.723   6.901   0.371
 4908SOL    HW115623   3.729   6.906   0.471
 4908SOL    HW215624   3.668   6.978   0.338
 4909SOL     OW15625   5.264   5.159   4.685
 4909SOL    HW115626   5.332   5.136   4.754
 4909SOL    HW215627   5.198   5.084   4.677
 4910SOL     OW15628   4.734   2.028   6.085
 4910SOL    HW115629   4.694   2.061   5.999
 4910SOL    HW215630   4.833   2.021   6.074
 4911SOL     OW15631   6.642   3.203   2.465
 4911SOL    HW115632   6.671   3.294   2.497
 4911SOL    HW215633   6.650   3.138   2.540
 4912SOL     OW15634   5.627   2.539   3.852
 4912SOL    HW115635   5.564   2.462   3.842
 4912SOL    HW215636   5.576   2.622   3.873
 4913SOL     OW15637   1.060   4.025   5.536
 4913SOL    HW115638   1.095   3.946   5.486
 4913SOL    HW215639   1.068   4.107   5.480
 4914SOL     OW15640   4.291   0.744   3.721
 4914SOL    HW115641   4.221   0.717   3.654
 4914SOL    HW215642   4.373   0.688   3.707
 4915SOL     OW15643   3.545   5.028   5.667
 4915SOL    HW115644   3.455   5.043   5.626
 4915SOL    HW215645   3.545   4.941   5.717
 4916SOL     OW15646   5.640   2.291   4.121
 4916SOL    HW115647   5.626   2.376   4.172
 4916SOL    HW215648   5.726   2.296   4.071
 4917SOL     OW15649   3.955   6.631   0.302
 4917SOL    HW115650   4.047   6.591   0.299
 4917SOL    HW215651   3.899   6.581   0.368
 4918SOL     OW15652   5.913   5.066   3.369
 4918SOL    HW115653   5.889   5.131   3.441
 4918SOL    HW215654   5.871   5.094   3.283
 4919SOL     OW15655   3.058   3.981   2.162
 4919SOL    HW115656   3.088   3.885   2.157
 4919SOL    HW215657   2.999   4.000   2.084
 4920SOL     OW15658   6.096   1.603   5.929
 4920SOL    HW115659   6.146   1.530   5.975
 4920SOL    HW215660   6.112   1.689   5.977
 4921SOL     OW15661   0.347   0.223   2.797
 4921SOL    HW115662   0.387   0.298   2.851
 4921SOL    HW215663   0.252   0.210   2.825
 4922SOL     OW15664   3.314   1.845   6.132
 4922SOL    HW115665   3.326   1.789   6.214
 4922SOL    HW215666   3.248   1.918   6.151
 4923SOL     OW15667   3.598   1.306   1.993
 4923SOL    HW115668   3.555   1.260   1.914
 4923SOL    HW215669   3.664   1.244   2.036
 4924SOL     OW15670   2.634   0.704   5.366
 4924SOL    HW115671   2.637   0.682   5.268
 4924SOL    HW215672   2.593   0.627   5.416
 4925SOL     OW15673   6.377   6.087   3.552
 4925SOL    HW115674   6.373   5.991   3.577
 4925SOL    HW215675   6.414   6.140   3.629
 4926SOL     OW15676   4.963   2.632   1.183
 4926SOL    HW115677   4.880   2.644   1.130
 4926SOL    HW215678   5.043   2.651   1.126
 4927SOL     OW15679   3.117   1.882   6.441
 4927SOL    HW115680   3.207   1.920   6.422
 4927SOL    HW215681   3.097   1.808   6.376
 4928SOL     OW15682   6.879   2.500   0.775
 4928SOL    HW115683   6.813   2.554   0.723
 4928SOL    HW215684   6.970   2.510   0.734
 4929SOL     OW15685   0.875   6.318   5.366
 4929SOL    HW115686   0.952   6.382   5.368
 4929SOL    HW215687   0.816   6.340   5.288
 4930SOL     OW15688   5.350   5.955   2.088
 4930SOL    HW115689   5.385   5.939   2.181
 4930SOL    HW215690   5.419   6.002   2.034
 4931SOL     OW15691   6.720   5.989   0.598
 4931SOL    HW115692   6.787   5.938   0.544
 4931SOL    HW215693   6.636   5.935   0.606
 4932SOL     OW15694   3.724   3.558   2.195
 4932SOL    HW115695   3.635   3.591   2.227
 4932SOL    HW215696   3.729   3.569   2.095
 4933SOL     OW15697   2.030   6.942   5.198
 4933SOL    HW115698   1.989   6.989   5.120
 4933SOL    HW215699   1.964   6.935   5.272
 4934SOL     OW15700   4.126   6.018   2.299
 4934SOL    HW115701   4.202   6.008   2.234
 4934SOL    HW215702   4.063   5.941   2.287
 4935SOL     OW15703   0.379   0.864   5.930
 4935SOL    HW115704   0.355   0.828   6.020
 4935SOL    HW215705   0.296   0.891   5.881
 4936SOL     OW15706   4.167   2.552   0.918
 4936SOL    HW115707   4.146   2.534   0.822
 4936SOL    HW215708   4.099   2.615   0.956
 4937SOL     OW15709   4.759   2.536   5.330
 4937SOL    HW115710   4.813   2.452   5.330
 4937SOL    HW215711   4.722   2.552   5.239
 4938SOL     OW15712   4.126   5.369   6.025
 4938SOL    HW115713   4.125   5.287   5.967
 4938SOL    HW215714   4.069   5.440   5.984
 4939SOL     OW15715   4.814   3.647   5.851
 4939SOL    HW115716   4.812   3.580   5.925
 4939SOL    HW215717   4.746   3.718   5.868
 4940SOL     OW15718   2.299   5.826   4.043
 4940SOL    HW115719   2.366   5.780   3.985
 4940SOL    HW215720   2.226   5.865   3.986
 4941SOL     OW15721   5.638   0.513   0.848
 4941SOL    HW115722   5.715   0.485   0.905
 4941SOL    HW215723   5.619   0.610   0.861
 4942SOL     OW15724   4.809   3.120   5.770
 4942SOL    HW115725   4.801   3.021   5.758
 4942SOL    HW215726   4.896   3.141   5.816
 4943SOL     OW15727   5.285   2.598   1.533
 4943SOL    HW115728   5.284   2.498   1.539
 4943SOL    HW215729   5.242   2.637   1.615
 4944SOL     OW15730   2.292   4.110   2.320
 4944SOL    HW115731   2.323   4.016   2.337
 4944SOL    HW215732   2.306   4.165   2.402
 4945SOL     OW15733   0.009   6.427   4.769
 4945SOL    HW115734   6.981   6.360   4.824
 4945SOL    HW215735   0.043   6.500   4.828
 4946SOL     OW15736   0.240   4.570   2.326
 4946SOL    HW115737   0.193   4.658   2.322
 4946SOL    HW215738   0.295   4.566   2.409
 4947SOL     OW15739   6.510   0.126   1.544
 4947SOL    HW115740   6.602   0.087   1.544
 4947SOL    HW215741   6.517   0.226   1.555
 4948SOL     OW15742   2.126   0.582   2.161
 4948SOL    HW115743   2.124   0.487   2.190
 4948SOL    HW215744   2.147   0.587   2.064
 4949SOL     OW15745   5.044   1.800   4.653
 4949SOL    HW115746   4.976   1.738   4.691
 4949SOL    HW215747   5.082   1.857   4.726
 4950SOL     OW15748   2.998   5.092   5.298
 4950SOL    HW115749   3.067   5.022   5.281
 4950SOL    HW215750   3.005   5.164   5.229
 4951SOL     OW15751   4.441   2.044   4.109
 4951SOL    HW115752   4.528   2.029   4.156
 4951SOL    HW215753   4.368   1.997   4.159
 4952SOL     OW15754   6.831   5.066   5.131
 4952SOL    HW115755   6.882   5.070   5.045
 4952SOL    HW215756   6.894   5.079   5.208
 4953SOL     OW15757   1.908   5.701   2.126
 4953SOL    HW115758   1.924   5.650   2.041
 4953SOL    HW215759   1.809   5.707   2.142
 4954SOL     OW15760   6.386   6.434   7.019
 4954SOL    HW115761   6.477   6.431   6.977
 4954SOL    HW215762   6.369   6.346   0.042
 4955SOL     OW15763   0.993   0.554   1.192
 4955SOL    HW115764   0.985   0.648   1.222
 4955SOL    HW215765   0.911   0.503   1.218
 4956SOL     OW15766   5.996   6.840   4.462
 4956SOL    HW115767   6.092   6.861   4.479
 4956SOL    HW215768   5.989   6.778   4.383
 4957SOL     OW15769   2.317   6.189   3.388
 4957SOL    HW115770   2.313   6.150   3.296
 4957SOL    HW215771   2.364   6.124   3.449
 4958SOL     OW15772   0.375   6.450   6.756
 4958SOL    HW115773   0.427   6.515   6.701
 4958SOL    HW215774   0.378   6.477   6.852
 4959SOL     OW15775   0.485   1.173   0.594
 4959SOL    HW115776   0.466   1.079   0.564
 4959SOL    HW215777   0.449   1.185   0.687
 4960SOL     OW15778   3.595   6.392   5.050
 4960SOL    HW115779   3.689   6.421   5.065
 4960SOL    HW215780   3.593   6.295   5.027
 4961SOL     OW15781   4.681   0.499   5.865
 4961SOL    HW115782   4.635   0.426   5.814
 4961SOL    HW215783   4.673   0.481   5.963
 4962SOL     OW15784   6.464   2.382   1.869
 4962SOL    HW115785   6.366   2.404   1.878
 4962SOL    HW215786   6.473   2.290   1.831
 4963SOL     OW15787   6.838   4.060   1.495
 4963SOL    HW115788   6.827   3.982   1.558
 4963SOL    HW215789   6.752   4.074   1.445
 4964SOL     OW15790   4.026   6.424   2.950
 4964SOL    HW115791   4.016   6.523   2.940
 4964SOL    HW215792   3.936   6.381   2.951
 4965SOL     OW15793   0.264   6.381   4.513
 4965SOL    HW115794   0.196   6.336   4.455
 4965SOL    HW215795   0.335   6.422   4.456
 4966SOL     OW15796   3.740   5.490   4.753
 4966SOL    HW115797   3.754   5.589   4.764
 4966SOL    HW215798   3.762   5.444   4.839
 4967SOL     OW15799   4.659   2.020   6.338
 4967SOL    HW115800   4.680   2.024   6.240
 4967SOL    HW215801   4.682   2.108   6.380
 4968SOL     OW15802   5.653   4.000   6.071
 4968SOL    HW115803   5.592   4.079   6.065
 4968SOL    HW215804   5.644   3.958   6.161
 4969SOL     OW15805   0.532   2.183   1.021
 4969SOL    HW115806   0.467   2.205   1.094
 4969SOL    HW215807   0.531   2.084   1.004
 4970SOL     OW15808   1.004   2.959   5.875
 4970SOL    HW115809   0.922   2.968   5.931
 4970SOL    HW215810   1.084   2.986   5.929
 4971SOL     OW15811   0.086   5.593   3.700
 4971SOL    HW115812   0.142   5.540   3.636
 4971SOL    HW215813   0.018   5.533   3.743
 4972SOL     OW15814   1.797   2.031   5.281
 4972SOL    HW115815   1.755   2.063   5.196
 4972SOL    HW215816   1.818   1.934   5.273
 4973SOL     OW15817   6.008   6.139   2.977
 4973SOL    HW115818   5.915   6.157   2.946
 4973SOL    HW215819   6.049   6.224   3.011
 4974SOL     OW15820   4.298   6.818   1.301
 4974SOL    HW115821   4.335   6.911   1.296
 4974SOL    HW215822   4.296   6.778   1.209
 4975SOL     OW15823   5.016   5.886   6.855
 4975SOL    HW115824   5.112   5.882   6.882
 4975SOL    HW215825   4.973   5.798   6.871
 4976SOL     OW15826   3.365   1.016   4.683
 4976SOL    HW115827   3.328   1.079   4.615
 4976SOL    HW215828   3.390   1.067   4.766
 4977SOL     OW15829   3.342   3.516   0.059
 4977SOL    HW115830   3.400   3.540   7.004
 4977SOL    HW215831   3.246   3.532   0.036
 4978SOL     OW15832   5.855   3.370   6.245
 4978SOL    HW115833   5.895   3.383   6.154
 4978SOL    HW215834   5.893   3.439   6.307
 4979SOL     OW15835   0.974   2.811   4.081
 4979SOL    HW115836   1.066   2.772   4.082
 4979SOL    HW215837   0.961   2.867   4.163
 4980SOL     OW15838   3.397   5.476   3.383
 4980SOL    HW115839   3.323   5.484   3.450
 4980SOL    HW215840   3.434   5.383   3.386
 4981SOL     OW15841   5.156   6.312   5.730
 4981SOL    HW115842   5.092   6.266   5.669
 4981SOL    HW215843   5.197   6.245   5.792
 4982SOL     OW15844   2.615   2.192   6.987
 4982SOL    HW115845   2.711   2.181   7.013
 4982SOL    HW215846   2.595   2.290   6.976
 4983SOL     OW15847   5.798   2.833   4.699
 4983SOL    HW115848   5.891   2.824   4.733
 4983SOL    HW215849   5.749   2.747   4.710
 4984SOL     OW15850   4.703   4.140   2.777
 4984SOL    HW115851   4.688   4.187   2.864
 4984SOL    HW215852   4.708   4.041   2.792
 4985SOL     OW15853   5.565   4.109   2.593
 4985SOL    HW115854   5.558   4.116   2.693
 4985SOL    HW215855   5.660   4.125   2.565
 4986SOL     OW15856   4.679   4.307   2.986
 4986SOL    HW115857   4.622   4.383   2.956
 4986SOL    HW215858   4.682   4.305   3.086
 4987SOL     OW15859   0.418   4.233   1.265
 4987SOL    HW115860   0.328   4.274   1.252
 4987SOL    HW215861   0.410   4.150   1.320
 4988SOL     OW15862   1.213   2.091   5.361
 4988SOL    HW115863   1.215   2.102   5.461
 4988SOL    HW215864   1.263   2.167   5.319
 4989SOL     OW15865   6.991   0.794   0.680
 4989SOL    HW115866   6.967   0.735   0.757
 4989SOL    HW215867   0.040   0.750   0.625
 4990SOL     OW15868   0.927   2.101   6.139
 4990SOL    HW115869   1.002   2.165   6.155
 4990SOL    HW215870   0.962   2.008   6.140
 4991SOL     OW15871   2.370   2.118   4.673
 4991SOL    HW115872   2.280   2.121   4.629
 4991SOL    HW215873   2.368   2.053   4.749
 4992SOL     OW15874   4.045   0.665   4.552
 4992SOL    HW115875   4.092   0.579   4.575
 4992SOL    HW215876   3.950   0.645   4.526
 4993SOL     OW15877   2.237   6.132   3.984
 4993SOL    HW115878   2.167   6.069   3.953
 4993SOL    HW215879   2.261   6.110   4.079
 4994SOL     OW15880   0.681   6.564   2.520
 4994SOL    HW115881   0.732   6.576   2.435
 4994SOL    HW215882   0.708   6.635   2.585
 4995SOL     OW15883   6.184   3.026   5.759
 4995SOL    HW115884   6.253   3.095   5.740
 4995SOL    HW215885   6.173   3.016   5.858
 4996SOL     OW15886   0.459   1.291   4.119
 4996SOL    HW115887   0.399   1.310   4.198
 4996SOL    HW215888   0.490   1.196   4.124
 4997SOL     OW15889   0.168   2.276   4.223
 4997SOL    HW115890   0.104   2.209   4.185
 4997SOL    HW215891   0.132   2.312   4.309
 4998SOL     OW15892   0.901   5.578   5.540
 4998SOL    HW115893   0.946   5.585   5.451
 4998SOL    HW215894   0.876   5.483   5.557
 4999SOL     OW15895   6.067   4.667   0.826
 4999SOL    HW115896   5.982   4.677   0.774
 4999SOL    HW215897   6.108   4.757   0.841
 5000SOL     OW15898   6.978   5.778   4.064
 5000SOL    HW115899   6.953   5.685   4.093
 5000SOL    HW215900   0.024   5.773   3.991
 5001SOL     OW15901   4.672   4.263   5.243
 5001SOL    HW115902   4.704   4.347   5.199
 5001SOL    HW215903   4.584   4.280   5.288
 5002SOL     OW15904   1.944   1.954   1.737
 5002SOL    HW115905   1.928   1.967   1.834
 5002SOL    HW215906   2.029   2.000   1.711
 5003SOL     OW15907   6.835   5.139   4.165
 5003SOL    HW115908   6.862   5.126   4.261
 5003SOL    HW215909   6.917   5.144   4.108
 5004SOL     OW15910   2.733   4.576   6.386
 5004SOL    HW115911   2.822   4.621   6.383
 5004SOL    HW215912   2.746   4.477   6.373
 5005SOL     OW15913   3.978   2.389   0.377
 5005SOL    HW115914   3.966   2.312   0.441
 5005SOL    HW215915   4.070   2.385   0.338
 5006SOL     OW15916   5.832   4.577   2.868
 5006SOL    HW115917   5.799   4.567   2.962
 5006SOL    HW215918   5.799   4.664   2.831
 5007SOL     OW15919   4.151   1.201   5.186
 5007SOL    HW115920   4.191   1.288   5.215
 5007SOL    HW215921   4.070   1.182   5.242
 5008SOL     OW15922   6.616   0.692   3.936
 5008SOL    HW115923   6.695   0.697   3.999
 5008SOL    HW215924   6.645   0.718   3.844
 5009SOL     OW15925   1.696   6.164   2.793
 5009SOL    HW115926   1.691   6.205   2.884
 5009SOL    HW215927   1.740   6.074   2.800
 5010SOL     OW15928   3.369   2.982   4.765
 5010SOL    HW115929   3.294   3.047   4.757
 5010SOL    HW215930   3.398   2.976   4.861
 5011SOL     OW15931   1.057   2.804   3.290
 5011SOL    HW115932   1.021   2.720   3.248
 5011SOL    HW215933   0.986   2.874   3.288
 5012SOL     OW15934   5.767   3.675   0.033
 5012SOL    HW115935   5.803   3.744   6.993
 5012SOL    HW215936   5.735   3.595   7.003
 5013SOL     OW15937   5.157   1.910   5.489
 5013SOL    HW115938   5.113   1.841   5.432
 5013SOL    HW215939   5.123   1.904   5.583
 5014SOL     OW15940   5.908   6.597   6.881
 5014SOL    HW115941   5.964   6.516   6.896
 5014SOL    HW215942   5.826   6.572   6.830
 5015SOL     OW15943   5.525   2.145   3.268
 5015SOL    HW115944   5.519   2.152   3.367
 5015SOL    HW215945   5.621   2.129   3.242
 5016SOL     OW15946   2.236   6.656   2.021
 5016SOL    HW115947   2.206   6.710   2.100
 5016SOL    HW215948   2.259   6.718   1.946
 5017SOL     OW15949   2.679   2.058   1.748
 5017SOL    HW115950   2.712   2.086   1.838
 5017SOL    HW215951   2.581   2.079   1.740
 5018SOL     OW15952   6.655   5.073   3.828
 5018SOL    HW115953   6.599   5.156   3.825
 5018SOL    HW215954   6.655   5.037   3.921
 5019SOL     OW15955   2.965   5.505   6.141
 5019SOL    HW115956   2.913   5.516   6.056
 5019SOL    HW215957   2.931   5.570   6.209
 5020SOL     OW15958   4.768   5.327   6.444
 5020SOL    HW115959   4.843   5.385   6.412
 5020SOL    HW215960   4.782   5.304   6.540
 5021SOL     OW15961   2.351   4.379   5.662
 5021SOL    HW115962   2.287   4.370   5.586
 5021SOL    HW215963   2.444   4.364   5.629
 5022SOL     OW15964   1.949   4.444   0.699
 5022SOL    HW115965   1.895   4.524   0.724
 5022SOL    HW215966   1.914   4.405   0.614
 5023SOL     OW15967   6.568   2.618   3.745
 5023SOL    HW115968   6.526   2.610   3.835
 5023SOL    HW215969   6.660   2.657   3.755
 5024SOL     OW15970   5.619   3.235   5.572
 5024SOL    HW115971   5.597   3.173   5.647
 5024SOL    HW215972   5.549   3.305   5.564
 5025SOL     OW15973   6.536   1.310   3.174
 5025SOL    HW115974   6.446   1.287   3.210
 5025SOL    HW215975   6.598   1.331   3.249
 5026SOL     OW15976   0.572   5.832   2.987
 5026SOL    HW115977   0.522   5.901   2.933
 5026SOL    HW215978   0.532   5.825   3.078
 5027SOL     OW15979   0.658   6.174   3.621
 5027SOL    HW115980   0.751   6.147   3.648
 5027SOL    HW215981   0.596   6.096   3.629
 5028SOL     OW15982   1.232   0.249   2.219
 5028SOL    HW115983   1.259   0.205   2.133
 5028SOL    HW215984   1.148   0.300   2.205
 5029SOL     OW15985   0.637   1.091   3.282
 5029SOL    HW115986   0.550   1.141   3.294
 5029SOL    HW215987   0.643   1.020   3.352
 5030SOL     OW15988   2.117   5.647   6.922
 5030SOL    HW115989   2.075   5.658   6.832
 5030SOL    HW215990   2.046   5.631   6.991
 5031SOL     OW15991   5.517   0.753   5.508
 5031SOL    HW115992   5.587   0.683   5.497
 5031SOL    HW215993   5.556   0.832   5.557
 5032SOL     OW15994   1.158   6.096   1.749
 5032SOL    HW115995   1.153   6.186   1.791
 5032SOL    HW215996   1.184   6.106   1.653
 5033SOL     OW15997   6.793   4.483   5.633
 5033SOL    HW115998   6.783   4.397   5.583
 5033SOL    HW215999   6.709   4.536   5.625
 5034SOL     OW16000   6.765   3.928   6.438
 5034SOL    HW116001   6.768   3.918   6.339
 5034SOL    HW216002   6.832   3.865   6.480
 5035SOL     OW16003   5.641   4.552   1.509
 5035SOL    HW116004   5.598   4.560   1.598
 5035SOL    HW216005   5.580   4.588   1.438
 5036SOL     OW16006   1.530   0.328   2.132
 5036SOL    HW116007   1.453   0.321   2.196
 5036SOL    HW216008   1.508   0.395   2.061
 5037SOL     OW16009   4.639   2.707   2.665
 5037SOL    HW116010   4.633   2.622   2.717
 5037SOL    HW216011   4.615   2.785   2.723
 5038SOL     OW16012   2.716   5.831   5.610
 5038SOL    HW116013   2.800   5.836   5.557
 5038SOL    HW216014   2.658   5.910   5.587
 5039SOL     OW16015   1.137   1.908   3.043
 5039SOL    HW116016   1.145   1.963   2.961
 5039SOL    HW216017   1.144   1.967   3.124
 5040SOL     OW16018   2.910   3.838   5.944
 5040SOL    HW116019   2.987   3.901   5.933
 5040SOL    HW216020   2.941   3.745   5.927
 5041SOL     OW16021   0.311   5.589   0.525
 5041SOL    HW116022   0.388   5.535   0.560
 5041SOL    HW216023   0.321   5.683   0.555
 5042SOL     OW16024   6.109   1.901   6.001
 5042SOL    HW116025   6.090   1.933   6.094
 5042SOL    HW216026   6.051   1.950   5.936
 5043SOL     OW16027   5.058   0.440   3.467
 5043SOL    HW116028   5.100   0.380   3.399
 5043SOL    HW216029   5.095   0.533   3.457
 5044SOL     OW16030   5.401   4.498   2.902
 5044SOL    HW116031   5.310   4.523   2.870
 5044SOL    HW216032   5.393   4.436   2.980
 5045SOL     OW16033   5.682   3.441   5.059
 5045SOL    HW116034   5.685   3.389   5.145
 5045SOL    HW216035   5.587   3.465   5.039
 5046SOL     OW16036   3.423   3.106   5.338
 5046SOL    HW116037   3.450   3.010   5.345
 5046SOL    HW216038   3.330   3.117   5.375
 5047SOL     OW16039   0.835   1.515   2.142
 5047SOL    HW116040   0.795   1.538   2.053
 5047SOL    HW216041   0.895   1.436   2.132
 5048SOL     OW16042   6.025   3.682   1.165
 5048SOL    HW116043   5.937   3.656   1.127
 5048SOL    HW216044   6.027   3.781   1.181
 5049SOL     OW16045   1.306   1.725   1.576
 5049SOL    HW116046   1.295   1.632   1.542
 5049SOL    HW216047   1.342   1.723   1.669
 5050SOL     OW16048   0.984   3.437   0.604
 5050SOL    HW116049   0.982   3.531   0.639
 5050SOL    HW216050   0.905   3.387   0.639
 5051SOL     OW16051   1.685   3.689   0.348
 5051SOL    HW116052   1.600   3.636   0.350
 5051SOL    HW216053   1.674   3.767   0.286
 5052SOL     OW16054   5.364   3.619   0.921
 5052SOL    HW116055   5.374   3.670   0.836
 5052SOL    HW216056   5.415   3.665   0.994
 5053SOL     OW16057   2.331   4.385   0.476
 5053SOL    HW116058   2.352   4.450   0.548
 5053SOL    HW216059   2.248   4.334   0.500
 5054SOL     OW16060   3.862   5.981   5.044
 5054SOL    HW116061   3.936   5.914   5.044
 5054SOL    HW216062   3.775   5.935   5.064
 5055SOL     OW16063   1.700   1.847   3.708
 5055SOL    HW116064   1.717   1.863   3.805
 5055SOL    HW216065   1.773   1.888   3.654
 5056SOL     OW16066   2.757   2.174   5.110
 5056SOL    HW116067   2.773   2.158   5.012
 5056SOL    HW216068   2.677   2.232   5.122
 5057SOL     OW16069   0.347   4.419   2.862
 5057SOL    HW116070   0.282   4.355   2.820
 5057SOL    HW216071   0.417   4.367   2.910
 5058SOL     OW16072   3.416   2.899   0.260
 5058SOL    HW116073   3.406   2.825   0.327
 5058SOL    HW216074   3.449   2.981   0.305
 5059SOL     OW16075   4.460   1.828   3.331
 5059SOL    HW116076   4.392   1.756   3.345
 5059SOL    HW216077   4.504   1.849   3.418
 5060SOL     OW16078   0.078   3.414   5.395
 5060SOL    HW116079   0.027   3.340   5.436
 5060SOL    HW216080   0.019   3.495   5.386
 5061SOL     OW16081   4.146   2.144   5.656
 5061SOL    HW116082   4.196   2.231   5.668
 5061SOL    HW216083   4.192   2.072   5.708
 5062SOL     OW16084   5.541   0.879   3.657
 5062SOL    HW116085   5.502   0.798   3.614
 5062SOL    HW216086   5.469   0.945   3.675
 5063SOL     OW16087   1.111   1.089   1.501
 5063SOL    HW116088   1.185   1.057   1.442
 5063SOL    HW216089   1.041   1.133   1.445
 5064SOL     OW16090   4.962   5.008   0.845
 5064SOL    HW116091   4.911   5.061   0.777
 5064SOL    HW216092   4.900   4.973   0.914
 5065SOL     OW16093   2.247   1.027   2.157
 5065SOL    HW116094   2.297   1.113   2.170
 5065SOL    HW216095   2.311   0.950   2.160
 5066SOL     OW16096   1.843   5.081   2.789
 5066SOL    HW116097   1.887   5.046   2.706
 5066SOL    HW216098   1.833   5.007   2.855
 5067SOL     OW16099   5.902   2.819   0.921
 5067SOL    HW116100   5.853   2.857   0.842
 5067SOL    HW216101   5.844   2.751   0.966
 5068SOL     OW16102   2.105   5.790   0.716
 5068SOL    HW116103   2.114   5.692   0.698
 5068SOL    HW216104   2.139   5.842   0.638
 5069SOL     OW16105   3.896   5.253   5.160
 5069SOL    HW116106   3.847   5.205   5.232
 5069SOL    HW216107   3.979   5.202   5.137
 5070SOL     OW16108   6.000   3.931   4.961
 5070SOL    HW116109   5.940   3.874   4.905
 5070SOL    HW216110   5.963   3.936   5.054
 5071SOL     OW16111   2.950   6.728   3.507
 5071SOL    HW116112   2.905   6.703   3.592
 5071SOL    HW216113   3.034   6.675   3.496
 5072SOL     OW16114   0.830   1.401   1.512
 5072SOL    HW116115   0.875   1.439   1.432
 5072SOL    HW216116   0.896   1.396   1.588
 5073SOL     OW16117   2.405   1.045   3.147
 5073SOL    HW116118   2.469   1.082   3.080
 5073SOL    HW216119   2.421   1.090   3.236
 5074SOL     OW16120   3.439   2.242   1.732
 5074SOL    HW116121   3.518   2.250   1.792
 5074SOL    HW216122   3.408   2.333   1.704
 5075SOL     OW16123   6.970   3.397   0.500
 5075SOL    HW116124   6.909   3.371   0.424
 5075SOL    HW216125   0.022   3.331   0.506
 5076SOL     OW16126   0.504   0.004   6.119
 5076SOL    HW116127   0.601   7.000   6.124
 5076SOL    HW216128   0.450   6.961   6.172
 5077SOL     OW16129   0.770   4.148   3.828
 5077SOL    HW116130   0.696   4.208   3.858
 5077SOL    HW216131   0.794   4.169   3.733
 5078SOL     OW16132   0.281   2.044   3.915
 5078SOL    HW116133   0.307   2.054   4.011
 5078SOL    HW216134   0.361   2.061   3.857
 5079SOL     OW16135   1.763   3.462   5.676
 5079SOL    HW116136   1.827   3.482   5.750
 5079SOL    HW216137   1.712   3.545   5.653
 5080SOL     OW16138   5.952   5.528   0.369
 5080SOL    HW116139   5.865   5.491   0.401
 5080SOL    HW216140   5.937   5.617   0.326
 5081SOL     OW16141   2.462   4.709   5.317
 5081SOL    HW116142   2.424   4.747   5.402
 5081SOL    HW216143   2.476   4.611   5.329
 5082SOL     OW16144   5.637   5.553   1.146
 5082SOL    HW116145   5.665   5.528   1.053
 5082SOL    HW216146   5.695   5.506   1.212
 5083SOL     OW16147   2.638   0.252   3.907
 5083SOL    HW116148   2.639   0.215   3.814
 5083SOL    HW216149   2.716   0.216   3.958
 5084SOL     OW16150   2.736   3.920   5.691
 5084SOL    HW116151   2.668   3.857   5.653
 5084SOL    HW216152   2.827   3.896   5.656
 5085SOL     OW16153   0.444   4.745   5.220
 5085SOL    HW116154   0.351   4.731   5.254
 5085SOL    HW216155   0.476   4.836   5.247
 5086SOL     OW16156   1.902   5.231   1.699
 5086SOL    HW116157   1.923   5.175   1.780
 5086SOL    HW216158   1.987   5.260   1.655
 5087SOL     OW16159   6.572   4.590   2.685
 5087SOL    HW116160   6.561   4.544   2.597
 5087SOL    HW216161   6.527   4.537   2.756
 5088SOL     OW16162   4.915   5.723   2.142
 5088SOL    HW116163   4.886   5.635   2.103
 5088SOL    HW216164   5.009   5.714   2.176
 5089SOL     OW16165   4.976   5.811   5.832
 5089SOL    HW116166   4.955   5.772   5.742
 5089SOL    HW216167   5.073   5.799   5.852
 5090SOL     OW16168   2.868   6.560   5.132
 5090SOL    HW116169   2.903   6.480   5.084
 5090SOL    HW216170   2.769   6.550   5.144
 5091SOL     OW16171   6.658   6.367   6.212
 5091SOL    HW116172   6.663   6.277   6.170
 5091SOL    HW216173   6.695   6.436   6.148
 5092SOL     OW16174   3.741   3.357   4.117
 5092SOL    HW116175   3.764   3.433   4.056
 5092SOL    HW216176   3.800   3.360   4.198
 5093SOL     OW16177   2.869   2.235   2.763
 5093SOL    HW116178   2.844   2.146   2.726
 5093SOL    HW216179   2.788   2.295   2.765
 5094SOL     OW16180   1.401   6.110   4.865
 5094SOL    HW116181   1.430   6.117   4.769
 5094SOL    HW216182   1.432   6.190   4.915
 5095SOL     OW16183   6.636   1.214   2.677
 5095SOL    HW116184   6.637   1.117   2.653
 5095SOL    HW216185   6.611   1.224   2.774
 5096SOL     OW16186   6.227   3.120   4.860
 5096SOL    HW116187   6.168   3.102   4.781
 5096SOL    HW216188   6.192   3.071   4.940
 5097SOL     OW16189   1.123   0.680   5.689
 5097SOL    HW116190   1.125   0.595   5.742
 5097SOL    HW216191   1.199   0.682   5.625
 5098SOL     OW16192   3.300   3.263   0.521
 5098SOL    HW116193   3.313   3.289   0.425
 5098SOL    HW216194   3.354   3.324   0.580
 5099SOL     OW16195   1.714   6.562   1.995
 5099SOL    HW116196   1.765   6.643   1.967
 5099SOL    HW216197   1.777   6.494   2.032
 5100SOL     OW16198   4.872   3.448   1.858
 5100SOL    HW116199   4.925   3.397   1.926
 5100SOL    HW216200   4.854   3.390   1.779
 5101SOL     OW16201   3.154   0.053   5.685
 5101SOL    HW116202   3.103   0.078   5.767
 5101SOL    HW216203   3.186   0.136   5.639
 5102SOL     OW16204   5.308   5.397   4.092
 5102SOL    HW116205   5.289   5.408   3.994
 5102SOL    HW216206   5.306   5.300   4.115
 5103SOL     OW16207   0.985   0.669   6.673
 5103SOL    HW116208   0.897   0.635   6.639
 5103SOL    HW216209   1.044   0.692   6.595
 5104SOL     OW16210   3.950   3.414   2.236
 5104SOL    HW116211   3.851   3.431   2.233
 5104SOL    HW216212   3.998   3.489   2.191
 5105SOL     OW16213   4.314   3.018   6.652
 5105SOL    HW116214   4.288   3.114   6.663
 5105SOL    HW216215   4.381   2.994   6.722
 5106SOL     OW16216   4.020   1.851   1.223
 5106SOL    HW116217   4.083   1.929   1.219
 5106SOL    HW216218   4.004   1.825   1.319
 5107SOL     OW16219   5.282   4.541   0.441
 5107SOL    HW116220   5.251   4.483   0.365
 5107SOL    HW216221   5.292   4.635   0.408
 5108SOL     OW16222   3.885   4.556   0.788
 5108SOL    HW116223   3.878   4.509   0.700
 5108SOL    HW216224   3.925   4.646   0.774
 5109SOL     OW16225   1.068   2.571   1.457
 5109SOL    HW116226   1.128   2.642   1.493
 5109SOL    HW216227   1.060   2.497   1.523
 5110SOL     OW16228   4.821   0.209   5.549
 5110SOL    HW116229   4.863   0.160   5.626
 5110SOL    HW216230   4.892   0.235   5.484
 5111SOL     OW16231   0.775   5.439   5.228
 5111SOL    HW116232   0.767   5.341   5.243
 5111SOL    HW216233   0.867   5.469   5.253
 5112SOL     OW16234   0.780   6.579   3.061
 5112SOL    HW116235   0.829   6.645   3.119
 5112SOL    HW216236   0.687   6.611   3.045
 5113SOL     OW16237   1.786   4.046   0.081
 5113SOL    HW116238   1.761   4.122   0.021
 5113SOL    HW216239   1.885   4.033   0.078
 5114SOL     OW16240   4.348   4.690   1.840
 5114SOL    HW116241   4.404   4.607   1.844
 5114SOL    HW216242   4.305   4.705   1.929
 5115SOL     OW16243   2.080   3.719   0.910
 5115SOL    HW116244   2.053   3.767   0.827
 5115SOL    HW216245   2.091   3.784   0.985
 5116SOL     OW16246   1.036   6.786   5.489
 5116SOL    HW116247   1.091   6.864   5.521
 5116SOL    HW216248   1.009   6.731   5.567
 5117SOL     OW16249   0.239   2.334   3.795
 5117SOL    HW116250   0.158   2.349   3.851
 5117SOL    HW216251   0.223   2.258   3.733
 5118SOL     OW16252   4.199   5.365   7.000
 5118SOL    HW116253   4.199   5.414   6.913
 5118SOL    HW216254   4.139   5.286   6.994
 5119SOL     OW16255   5.877   1.332   0.452
 5119SOL    HW116256   5.873   1.249   0.396
 5119SOL    HW216257   5.790   1.344   0.500
 5120SOL     OW16258   5.155   6.714   6.922
 5120SOL    HW116259   5.101   6.632   6.936
 5120SOL    HW216260   5.251   6.689   6.904
 5121SOL     OW16261   1.127   3.476   5.781
 5121SOL    HW116262   1.226   3.473   5.793
 5121SOL    HW216263   1.084   3.405   5.836
 5122SOL     OW16264   4.994   4.844   3.912
 5122SOL    HW116265   4.956   4.872   3.824
 5122SOL    HW216266   4.945   4.890   3.986
 5123SOL     OW16267   4.924   3.034   2.206
 5123SOL    HW116268   4.935   3.132   2.226
 5123SOL    HW216269   4.865   3.023   2.126
 5124SOL     OW16270   1.940   6.364   5.228
 5124SOL    HW116271   1.909   6.360   5.323
 5124SOL    HW216272   1.954   6.459   5.201
 5125SOL     OW16273   6.482   1.963   3.403
 5125SOL    HW116274   6.513   1.915   3.321
 5125SOL    HW216275   6.382   1.964   3.406
 5126SOL     OW16276   1.716   0.236   1.604
 5126SOL    HW116277   1.782   0.183   1.552
 5126SOL    HW216278   1.758   0.267   1.689
 5127SOL     OW16279   2.349   5.931   6.988
 5127SOL    HW116280   2.255   5.964   6.999
 5127SOL    HW216281   2.413   6.004   7.014
 5128SOL     OW16282   6.120   0.133   1.985
 5128SOL    HW116283   6.035   0.183   1.965
 5128SOL    HW216284   6.118   0.101   2.080
 5129SOL     OW16285   6.696   6.768   0.233
 5129SOL    HW116286   6.672   6.701   0.303
 5129SOL    HW216287   6.704   6.859   0.275
 5130SOL     OW16288   6.130   4.621   3.003
 5130SOL    HW116289   6.067   4.686   2.959
 5130SOL    HW216290   6.219   4.664   3.014
 5131SOL     OW16291   2.560   2.448   3.014
 5131SOL    HW116292   2.577   2.464   3.111
 5131SOL    HW216293   2.477   2.497   2.986
 5132SOL     OW16294   2.888   5.712   5.163
 5132SOL    HW116295   2.928   5.802   5.149
 5132SOL    HW216296   2.793   5.723   5.193
 5133SOL     OW16297   3.863   6.431   5.171
 5133SOL    HW116298   3.947   6.486   5.171
 5133SOL    HW216299   3.886   6.336   5.191
 5134SOL     OW16300   6.096   4.187   6.228
 5134SOL    HW116301   6.001   4.157   6.224
 5134SOL    HW216302   6.119   4.211   6.323
 5135SOL     OW16303   5.403   1.734   4.370
 5135SOL    HW116304   5.366   1.770   4.284
 5135SOL    HW216305   5.332   1.683   4.417
 5136SOL     OW16306   3.788   1.305   5.088
 5136SOL    HW116307   3.722   1.329   5.158
 5136SOL    HW216308   3.838   1.387   5.060
 5137SOL     OW16309   3.674   3.931   6.839
 5137SOL    HW116310   3.771   3.945   6.859
 5137SOL    HW216311   3.650   3.977   6.754
 5138SOL     OW16312   2.167   3.138   5.885
 5138SOL    HW116313   2.115   3.073   5.829
 5138SOL    HW216314   2.160   3.230   5.845
 5139SOL     OW16315   0.504   0.212   3.973
 5139SOL    HW116316   0.509   0.255   4.063
 5139SOL    HW216317   0.468   0.277   3.906
 5140SOL     OW16318   3.795   2.799   1.845
 5140SOL    HW116319   3.728   2.737   1.804
 5140SOL    HW216320   3.854   2.837   1.773
 5141SOL     OW16321   6.852   3.624   5.306
 5141SOL    HW116322   6.795   3.694   5.350
 5141SOL    HW216323   6.794   3.551   5.270
 5142SOL     OW16324   5.822   3.229   3.284
 5142SOL    HW116325   5.833   3.246   3.382
 5142SOL    HW216326   5.725   3.226   3.261
 5143SOL     OW16327   6.930   5.463   4.581
 5143SOL    HW116328   6.868   5.393   4.617
 5143SOL    HW216329   6.987   5.498   4.656
 5144SOL     OW16330   2.303   1.117   4.631
 5144SOL    HW116331   2.279   1.203   4.586
 5144SOL    HW216332   2.226   1.054   4.624
 5145SOL     OW16333   3.387   5.886   5.671
 5145SOL    HW116334   3.465   5.863   5.728
 5145SOL    HW216335   3.327   5.807   5.661
 5146SOL     OW16336   2.610   4.943   6.997
 5146SOL    HW116337   2.514   4.928   6.976
 5146SOL    HW216338   2.618   5.009   0.050
 5147SOL     OW16339   6.528   5.142   6.515
 5147SOL    HW116340   6.517   5.238   6.488
 5147SOL    HW216341   6.495   5.129   6.608
 5148SOL     OW16342   0.506   6.739   1.863
 5148SOL    HW116343   0.431   6.720   1.799
 5148SOL    HW216344   0.545   6.653   1.895
 5149SOL     OW16345   6.614   0.963   6.102
 5149SOL    HW116346   6.561   0.878   6.095
 5149SOL    HW216347   6.611   1.012   6.014
 5150SOL     OW16348   1.748   5.178   3.750
 5150SOL    HW116349   1.786   5.111   3.814
 5150SOL    HW216350   1.806   5.259   3.748
 5151SOL     OW16351   4.583   0.886   6.461
 5151SOL    HW116352   4.635   0.937   6.392
 5151SOL    HW216353   4.559   0.947   6.536
 5152SOL     OW16354   0.717   5.120   0.672
 5152SOL    HW116355   0.657   5.147   0.597
 5152SOL    HW216356   0.725   5.020   0.673
 5153SOL     OW16357   1.798   2.025   1.153
 5153SOL    HW116358   1.895   2.047   1.159
 5153SOL    HW216359   1.778   1.946   1.211
 5154SOL     OW16360   1.920   3.629   4.917
 5154SOL    HW116361   2.004   3.665   4.956
 5154SOL    HW216362   1.899   3.540   4.958
 5155SOL     OW16363   3.808   1.052   1.965
 5155SOL    HW116364   3.813   0.954   1.944
 5155SOL    HW216365   3.775   1.064   2.058
 5156SOL     OW16366   5.750   2.441   5.959
 5156SOL    HW116367   5.682   2.381   5.999
 5156SOL    HW216368   5.721   2.537   5.969
 5157SOL     OW16369   6.015   2.353   4.294
 5157SOL    HW116370   5.999   2.264   4.251
 5157SOL    HW216371   5.973   2.354   4.385
 5158SOL     OW16372   3.855   0.809   0.623
 5158SOL    HW116373   3.884   0.721   0.584
 5158SOL    HW216374   3.861   0.879   0.552
 5159SOL     OW16375   1.791   3.320   4.754
 5159SOL    HW116376   1.712   3.272   4.795
 5159SOL    HW216377   1.767   3.415   4.738
 5160SOL     OW16378   1.738   2.732   4.547
 5160SOL    HW116379   1.661   2.708   4.487
 5160SOL    HW216380   1.813   2.768   4.492
 5161SOL     OW16381   1.492   3.492   6.337
 5161SOL    HW116382   1.427   3.567   6.331
 5161SOL    HW216383   1.467   3.431   6.413
 5162SOL     OW16384   6.179   5.693   4.551
 5162SOL    HW116385   6.081   5.705   4.538
 5162SOL    HW216386   6.206   5.727   4.641
 5163SOL     OW16387   5.340   3.920   1.106
 5163SOL    HW116388   5.269   3.885   1.168
 5163SOL    HW216389   5.297   3.957   1.023
 5164SOL     OW16390   5.681   5.356   5.872
 5164SOL    HW116391   5.687   5.302   5.956
 5164SOL    HW216392   5.773   5.386   5.845
 5165SOL     OW16393   6.308   3.759   4.222
 5165SOL    HW116394   6.339   3.847   4.256
 5165SOL    HW216395   6.262   3.771   4.134
 5166SOL     OW16396   1.294   0.018   1.470
 5166SOL    HW116397   1.198   0.020   1.498
 5166SOL    HW216398   1.349   0.070   1.536
 5167SOL     OW16399   1.324   6.764   5.391
 5167SOL    HW116400   1.277   6.831   5.449
 5167SOL    HW216401   1.421   6.789   5.384
 5168SOL     OW16402   4.012   1.797   3.049
 5168SOL    HW116403   4.053   1.738   3.119
 5168SOL    HW216404   3.916   1.772   3.038
 5169SOL     OW16405   4.091   3.944   6.525
 5169SOL    HW116406   4.039   4.009   6.469
 5169SOL    HW216407   4.186   3.974   6.533
 5170SOL     OW16408   4.356   4.788   4.526
 5170SOL    HW116409   4.308   4.774   4.439
 5170SOL    HW216410   4.418   4.712   4.543
 5171SOL     OW16411   2.460   4.524   4.779
 5171SOL    HW116412   2.484   4.498   4.872
 5171SOL    HW216413   2.413   4.449   4.734
 5172SOL     OW16414   1.978   4.796   7.004
 5172SOL    HW116415   2.057   4.745   0.016
 5172SOL    HW216416   1.902   4.787   0.047
 5173SOL     OW16417   6.334   3.601   5.947
 5173SOL    HW116418   6.289   3.648   6.023
 5173SOL    HW216419   6.420   3.561   5.980
 5174SOL     OW16420   1.846   4.307   6.297
 5174SOL    HW116421   1.858   4.341   6.390
 5174SOL    HW216422   1.763   4.347   6.257
 5175SOL     OW16423   0.415   5.220   6.306
 5175SOL    HW116424   0.468   5.160   6.246
 5175SOL    HW216425   0.355   5.278   6.250
 5176SOL     OW16426   5.414   4.105   6.532
 5176SOL    HW116427   5.405   4.054   6.447
 5176SOL    HW216428   5.489   4.066   6.587
 5177SOL     OW16429   5.114   6.314   6.825
 5177SOL    HW116430   5.065   6.386   6.876
 5177SOL    HW216431   5.170   6.261   6.889
 5178SOL     OW16432   2.973   2.265   1.659
 5178SOL    HW116433   2.953   2.328   1.735
 5178SOL    HW216434   2.998   2.176   1.696
 5179SOL     OW16435   3.256   5.655   5.005
 5179SOL    HW116436   3.317   5.584   4.969
 5179SOL    HW216437   3.250   5.646   5.104
 5180SOL     OW16438   2.822   2.446   0.429
 5180SOL    HW116439   2.746   2.383   0.415
 5180SOL    HW216440   2.793   2.539   0.409
 5181SOL     OW16441   2.760   5.636   2.477
 5181SOL    HW116442   2.796   5.619   2.385
 5181SOL    HW216443   2.660   5.634   2.475
 5182SOL     OW16444   4.601   4.062   1.703
 5182SOL    HW116445   4.567   4.047   1.610
 5182SOL    HW216446   4.549   4.135   1.746
 5183SOL     OW16447   4.010   0.732   3.170
 5183SOL    HW116448   3.918   0.709   3.202
 5183SOL    HW216449   4.041   0.662   3.106
 5184SOL     OW16450   1.143   1.842   2.588
 5184SOL    HW116451   1.193   1.856   2.674
 5184SOL    HW216452   1.171   1.911   2.522
 5185SOL     OW16453   3.878   0.413   2.030
 5185SOL    HW116454   3.923   0.457   1.952
 5185SOL    HW216455   3.894   0.466   2.113
 5186SOL     OW16456   5.775   4.549   0.023
 5186SOL    HW116457   5.749   4.631   0.073
 5186SOL    HW216458   5.843   4.573   6.976
 5187SOL     OW16459   5.149   2.108   4.257
 5187SOL    HW116460   5.169   2.103   4.354
 5187SOL    HW216461   5.072   2.170   4.241
 5188SOL     OW16462   0.796   3.260   4.482
 5188SOL    HW116463   0.883   3.215   4.502
 5188SOL    HW216464   0.724   3.192   4.473
 5189SOL     OW16465   4.281   5.600   6.520
 5189SOL    HW116466   4.257   5.558   6.433
 5189SOL    HW216467   4.381   5.606   6.527
 5190SOL     OW16468   1.949   2.530   3.191
 5190SOL    HW116469   1.946   2.598   3.118
 5190SOL    HW216470   1.864   2.478   3.191
 5191SOL     OW16471   4.790   0.876   2.445
 5191SOL    HW116472   4.790   0.923   2.533
 5191SOL    HW216473   4.717   0.807   2.445
 5192SOL     OW16474   5.726   4.718   2.022
 5192SOL    HW116475   5.806   4.688   2.074
 5192SOL    HW216476   5.644   4.675   2.060
 5193SOL     OW16477   5.078   4.112   2.409
 5193SOL    HW116478   5.015   4.163   2.466
 5193SOL    HW216479   5.169   4.111   2.451
 5194SOL     OW16480   5.329   1.791   6.427
 5194SOL    HW116481   5.318   1.872   6.484
 5194SOL    HW216482   5.240   1.746   6.414
 5195SOL     OW16483   6.213   6.228   5.355
 5195SOL    HW116484   6.269   6.201   5.433
 5195SOL    HW216485   6.132   6.170   5.350
 5196SOL     OW16486   0.579   2.913   1.816
 5196SOL    HW116487   0.533   2.824   1.815
 5196SOL    HW216488   0.568   2.957   1.727
 5197SOL     OW16489   3.609   6.141   5.321
 5197SOL    HW116490   3.597   6.124   5.224
 5197SOL    HW216491   3.560   6.072   5.374
 5198SOL     OW16492   4.257   0.312   5.801
 5198SOL    HW116493   4.240   0.238   5.736
 5198SOL    HW216494   4.247   0.400   5.754
 5199SOL     OW16495   0.145   5.195   2.022
 5199SOL    HW116496   0.065   5.146   2.056
 5199SOL    HW216497   0.181   5.147   1.942
 5200SOL     OW16498   6.938   6.965   5.313
 5200SOL    HW116499   6.979   6.974   5.223
 5200SOL    HW216500   6.863   0.008   5.323
 5201SOL     OW16501   5.729   4.546   4.849
 5201SOL    HW116502   5.724   4.446   4.854
 5201SOL    HW216503   5.637   4.584   4.862
 5202SOL     OW16504   3.156   3.110   5.430
 5202SOL    HW116505   3.105   3.063   5.502
 5202SOL    HW216506   3.091   3.159   5.371
 5203SOL     OW16507   1.537   0.543   6.308
 5203SOL    HW116508   1.530   0.620   6.371
 5203SOL    HW216509   1.589   0.571   6.227
 5204SOL     OW16510   2.232   0.981   0.883
 5204SOL    HW116511   2.315   0.926   0.894
 5204SOL    HW216512   2.223   1.009   0.787
 5205SOL     OW16513   6.831   6.608   1.351
 5205SOL    HW116514   6.797   6.700   1.331
 5205SOL    HW216515   6.763   6.557   1.402
 5206SOL     OW16516   1.190   4.597   3.592
 5206SOL    HW116517   1.278   4.552   3.574
 5206SOL    HW216518   1.187   4.628   3.687
 5207SOL     OW16519   6.098   6.472   4.641
 5207SOL    HW116520   6.043   6.434   4.716
 5207SOL    HW216521   6.174   6.525   4.679
 5208SOL     OW16522   6.480   2.280   0.579
 5208SOL    HW116523   6.391   2.251   0.544
 5208SOL    HW216524   6.548   2.208   0.563
 5209SOL     OW16525   5.262   6.839   3.256
 5209SOL    HW116526   5.202   6.918   3.269
 5209SOL    HW216527   5.314   6.823   3.340
 5210SOL     OW16528   5.633   4.814   0.763
 5210SOL    HW116529   5.629   4.718   0.794
 5210SOL    HW216530   5.564   4.867   0.813
 5211SOL     OW16531   5.342   2.307   4.698
 5211SOL    HW116532   5.352   2.369   4.776
 5211SOL    HW216533   5.279   2.346   4.632
 5212SOL     OW16534   0.048   4.078   0.642
 5212SOL    HW116535   6.986   4.025   0.633
 5212SOL    HW216536   0.068   4.125   0.556
 5213SOL     OW16537   4.021   3.310   3.057
 5213SOL    HW116538   4.049   3.333   3.150
 5213SOL    HW216539   3.972   3.388   3.017
 5214SOL     OW16540   5.380   3.273   5.207
 5214SOL    HW116541   5.391   3.315   5.117
 5214SOL    HW216542   5.300   3.214   5.207
 5215SOL     OW16543   0.459   5.212   5.126
 5215SOL    HW116544   0.437   5.128   5.077
 5215SOL    HW216545   0.374   5.255   5.158
 5216SOL     OW16546   5.136   5.068   1.343
 5216SOL    HW116547   5.201   4.993   1.358
 5216SOL    HW216548   5.042   5.034   1.352
 5217SOL     OW16549   4.726   6.734   2.863
 5217SOL    HW116550   4.792   6.804   2.837
 5217SOL    HW216551   4.697   6.684   2.781
 5218SOL     OW16552   6.342   0.088   0.229
 5218SOL    HW116553   6.343   7.022   0.181
 5218SOL    HW216554   6.295   0.156   0.172
 5219SOL     OW16555   3.127   1.055   5.577
 5219SOL    HW116556   3.188   1.099   5.511
 5219SOL    HW216557   3.163   0.965   5.600
 5220SOL     OW16558   1.999   5.040   4.464
 5220SOL    HW116559   1.927   5.090   4.417
 5220SOL    HW216560   1.959   4.963   4.515
 5221SOL     OW16561   5.865   5.721   1.551
 5221SOL    HW116562   5.809   5.768   1.482
 5221SOL    HW216563   5.806   5.691   1.626
 5222SOL     OW16564   6.964   3.504   1.560
 5222SOL    HW116565   6.992   3.487   1.654
 5222SOL    HW216566   6.866   3.525   1.558
 5223SOL     OW16567   6.198   2.963   0.717
 5223SOL    HW116568   6.184   2.891   0.786
 5223SOL    HW216569   6.109   3.004   0.695
 5224SOL     OW16570   0.623   1.272   5.102
 5224SOL    HW116571   0.600   1.343   5.036
 5224SOL    HW216572   0.541   1.246   5.154
 5225SOL     OW16573   6.863   1.633   4.733
 5225SOL    HW116574   6.845   1.731   4.739
 5225SOL    HW216575   6.814   1.586   4.807
 5226SOL     OW16576   0.410   6.484   4.037
 5226SOL    HW116577   0.314   6.486   4.008
 5226SOL    HW216578   0.467   6.454   3.961
 5227SOL     OW16579   0.867   4.067   5.741
 5227SOL    HW116580   0.960   4.060   5.705
 5227SOL    HW216581   0.805   4.096   5.668
 5228SOL     OW16582   0.734   2.009   5.561
 5228SOL    HW116583   0.833   2.022   5.569
 5228SOL    HW216584   0.700   1.960   5.641
 5229SOL     OW16585   3.062   1.652   6.293
 5229SOL    HW116586   3.092   1.585   6.360
 5229SOL    HW216587   2.962   1.662   6.297
 5230SOL     OW16588   6.975   0.135   2.538
 5230SOL    HW116589   7.011   0.214   2.589
 5230SOL    HW216590   7.011   0.136   2.445
 5231SOL     OW16591   6.302   3.403   2.232
 5231SOL    HW116592   6.368   3.459   2.282
 5231SOL    HW216593   6.309   3.423   2.134
 5232SOL     OW16594   1.727   2.376   5.857
 5232SOL    HW116595   1.799   2.306   5.858
 5232SOL    HW216596   1.769   2.466   5.866
 5233SOL     OW16597   3.674   6.409   2.321
 5233SOL    HW116598   3.591   6.354   2.317
 5233SOL    HW216599   3.751   6.356   2.283
 5234SOL     OW16600   3.130   2.224   5.948
 5234SOL    HW116601   3.171   2.311   5.920
 5234SOL    HW216602   3.063   2.195   5.880
 5235SOL     OW16603   2.886   1.935   1.497
 5235SOL    HW116604   2.886   2.008   1.429
 5235SOL    HW216605   2.807   1.944   1.556
 5236SOL     OW16606   3.194   5.110   1.919
 5236SOL    HW116607   3.179   5.149   2.010
 5236SOL    HW216608   3.217   5.013   1.927
 5237SOL     OW16609   1.885   1.848   2.214
 5237SOL    HW116610   1.977   1.844   2.253
 5237SOL    HW216611   1.852   1.755   2.195
 5238SOL     OW16612   0.415   0.415   3.024
 5238SOL    HW116613   0.409   0.363   3.110
 5238SOL    HW216614   0.499   0.469   3.023
 5239SOL     OW16615   2.622   4.056   1.052
 5239SOL    HW116616   2.685   4.108   1.110
 5239SOL    HW216617   2.590   4.114   0.978
 5240SOL     OW16618   1.932   4.269   5.604
 5240SOL    HW116619   2.004   4.292   5.539
 5240SOL    HW216620   1.945   4.320   5.689
 5241SOL     OW16621   1.741   6.637   2.619
 5241SOL    HW116622   1.768   6.543   2.602
 5241SOL    HW216623   1.709   6.646   2.713
 5242SOL     OW16624   3.664   0.216   6.258
 5242SOL    HW116625   3.697   0.282   6.191
 5242SOL    HW216626   3.732   0.144   6.271
 5243SOL     OW16627   2.744   6.470   2.297
 5243SOL    HW116628   2.823   6.518   2.260
 5243SOL    HW216629   2.695   6.531   2.360
 5244SOL     OW16630   4.690   1.216   0.110
 5244SOL    HW116631   4.622   1.258   0.049
 5244SOL    HW216632   4.699   1.272   0.192
 5245SOL     OW16633   3.147   4.164   1.401
 5245SOL    HW116634   3.152   4.089   1.336
 5245SOL    HW216635   3.105   4.132   1.486
 5246SOL     OW16636   5.875   4.022   6.611
 5246SOL    HW116637   5.974   4.011   6.598
 5246SOL    HW216638   5.832   4.049   6.525
 5247SOL     OW16639   4.682   1.759   6.539
 5247SOL    HW116640   4.610   1.691   6.527
 5247SOL    HW216641   4.770   1.718   6.517
 5248SOL     OW16642   5.396   1.029   4.128
 5248SOL    HW116643   5.351   0.940   4.123
 5248SOL    HW216644   5.341   1.096   4.078
 5249SOL     OW16645   0.091   5.213   0.895
 5249SOL    HW116646   0.074   5.189   0.990
 5249SOL    HW216647   0.069   5.135   0.836
 5250SOL     OW16648   2.653   5.991   1.381
 5250SOL    HW116649   2.587   6.021   1.449
 5250SOL    HW216650   2.608   5.932   1.314
 5251SOL     OW16651   0.251   4.651   0.539
 5251SOL    HW116652   0.199   4.649   0.625
 5251SOL    HW216653   0.321   4.722   0.543
 5252SOL     OW16654   3.839   5.874   2.289
 5252SOL    HW116655   3.778   5.832   2.222
 5252SOL    HW216656   3.846   5.815   2.370
 5253SOL     OW16657   6.765   6.142   4.578
 5253SOL    HW116658   6.724   6.210   4.518
 5253SOL    HW216659   6.803   6.068   4.522
 5254SOL     OW16660   4.580   5.994   3.048
 5254SOL    HW116661   4.624   5.909   3.020
 5254SOL    HW216662   4.649   6.064   3.065
 5255SOL     OW16663   6.383   1.847   5.350
 5255SOL    HW116664   6.343   1.930   5.387
 5255SOL    HW216665   6.356   1.769   5.407
 5256SOL     OW16666   6.517   2.087   2.207
 5256SOL    HW116667   6.454   2.018   2.170
 5256SOL    HW216668   6.606   2.078   2.163
 5257SOL     OW16669   4.147   1.721   6.236
 5257SOL    HW116670   4.190   1.652   6.293
 5257SOL    HW216671   4.120   1.681   6.149
 5258SOL     OW16672   4.994   1.421   4.450
 5258SOL    HW116673   4.944   1.419   4.537
 5258SOL    HW216674   5.016   1.327   4.423
 5259SOL     OW16675   6.111   5.131   3.674
 5259SOL    HW116676   6.130   5.154   3.769
 5259SOL    HW216677   6.047   5.054   3.670
 5260SOL     OW16678   1.849   6.714   1.373
 5260SOL    HW116679   1.942   6.750   1.388
 5260SOL    HW216680   1.849   6.616   1.393
 5261SOL     OW16681   5.451   4.525   6.805
 5261SOL    HW116682   5.387   4.546   6.732
 5261SOL    HW216683   5.403   4.525   6.893
 5262SOL     OW16684   1.605   1.192   1.767
 5262SOL    HW116685   1.536   1.204   1.696
 5262SOL    HW216686   1.692   1.168   1.725
 5263SOL     OW16687   1.529   6.209   2.597
 5263SOL    HW116688   1.435   6.188   2.623
 5263SOL    HW216689   1.591   6.180   2.670
 5264SOL     OW16690   6.809   2.145   1.701
 5264SOL    HW116691   6.852   2.234   1.716
 5264SOL    HW216692   6.880   2.074   1.706
 5265SOL     OW16693   6.720   5.587   5.670
 5265SOL    HW116694   6.665   5.519   5.621
 5265SOL    HW216695   6.763   5.544   5.749
 5266SOL     OW16696   1.526   6.969   6.913
 5266SOL    HW116697   1.439   7.010   6.887
 5266SOL    HW216698   1.553   7.002   7.004
 5267SOL     OW16699   5.310   2.444   3.739
 5267SOL    HW116700   5.280   2.372   3.802
 5267SOL    HW216701   5.382   2.407   3.680
 5268SOL     OW16702   5.652   0.442   6.444
 5268SOL    HW116703   5.651   0.518   6.509
 5268SOL    HW216704   5.689   0.474   6.356
 5269SOL     OW16705   1.109   0.043   3.963
 5269SOL    HW116706   1.153   0.108   4.026
 5269SOL    HW216707   1.160   6.979   3.964
 5270SOL     OW16708   0.452   1.717   6.398
 5270SOL    HW116709   0.512   1.795   6.381
 5270SOL    HW216710   0.482   1.640   6.342
 5271SOL     OW16711   1.107   4.872   3.321
 5271SOL    HW116712   1.068   4.789   3.361
 5271SOL    HW216713   1.167   4.916   3.387
 5272SOL     OW16714   4.058   0.267   6.936
 5272SOL    HW116715   4.027   0.327   7.010
 5272SOL    HW216716   4.157   0.275   6.925
 5273SOL     OW16717   2.736   1.677   2.711
 5273SOL    HW116718   2.800   1.605   2.682
 5273SOL    HW216719   2.685   1.646   2.791
 5274SOL     OW16720   5.809   5.109   1.451
 5274SOL    HW116721   5.902   5.147   1.447
 5274SOL    HW216722   5.754   5.145   1.376
 5275SOL     OW16723   4.278   1.710   6.754
 5275SOL    HW116724   4.181   1.687   6.747
 5275SOL    HW216725   4.291   1.808   6.740
 5276SOL     OW16726   4.093   6.729   1.954
 5276SOL    HW116727   4.060   6.799   2.017
 5276SOL    HW216728   4.070   6.639   1.990
 5277SOL     OW16729   2.072   2.462   2.046
 5277SOL    HW116730   2.066   2.468   1.946
 5277SOL    HW216731   1.985   2.490   2.086
 5278SOL     OW16732   4.156   3.548   1.960
 5278SOL    HW116733   4.175   3.450   1.965
 5278SOL    HW216734   4.157   3.587   2.052
 5279SOL     OW16735   1.863   6.413   2.280
 5279SOL    HW116736   1.942   6.352   2.271
 5279SOL    HW216737   1.783   6.359   2.304
 5280SOL     OW16738   3.981   0.545   5.091
 5280SOL    HW116739   3.931   0.551   5.005
 5280SOL    HW216740   3.967   0.628   5.145
 5281SOL     OW16741   0.129   2.762   3.380
 5281SOL    HW116742   0.215   2.716   3.358
 5281SOL    HW216743   0.144   2.828   3.454
 5282SOL     OW16744   4.902   1.182   1.295
 5282SOL    HW116745   4.812   1.217   1.323
 5282SOL    HW216746   4.925   1.103   1.351
 5283SOL     OW16747   4.815   5.031   5.782
 5283SOL    HW116748   4.912   5.057   5.774
 5283SOL    HW216749   4.782   5.054   5.874
 5284SOL     OW16750   5.144   2.667   3.292
 5284SOL    HW116751   5.122   2.732   3.365
 5284SOL    HW216752   5.193   2.589   3.332
 5285SOL     OW16753   4.126   6.069   2.775
 5285SOL    HW116754   4.047   6.129   2.759
 5285SOL    HW216755   4.185   6.070   2.694
 5286SOL     OW16756   2.493   5.609   2.496
 5286SOL    HW116757   2.417   5.583   2.436
 5286SOL    HW216758   2.473   5.580   2.589
 5287SOL     OW16759   0.426   1.437   2.092
 5287SOL    HW116760   0.448   1.497   2.015
 5287SOL    HW216761   0.372   1.359   2.059
 5288SOL     OW16762   4.141   0.765   0.822
 5288SOL    HW116763   4.138   0.706   0.742
 5288SOL    HW216764   4.147   0.861   0.793
 5289SOL     OW16765   1.766   5.956   0.855
 5289SOL    HW116766   1.862   5.934   0.872
 5289SOL    HW216767   1.759   6.021   0.780
 5290SOL     OW16768   5.358   5.833   0.748
 5290SOL    HW116769   5.269   5.873   0.724
 5290SOL    HW216770   5.347   5.735   0.763
 5291SOL     OW16771   0.961   5.365   6.291
 5291SOL    HW116772   0.888   5.425   6.326
 5291SOL    HW216773   0.961   5.280   6.343
 5292SOL     OW16774   5.413   2.089   0.344
 5292SOL    HW116775   5.431   1.996   0.375
 5292SOL    HW216776   5.335   2.126   0.394
 5293SOL     OW16777   1.555   1.583   3.737
 5293SOL    HW116778   1.568   1.630   3.825
 5293SOL    HW216779   1.595   1.638   3.664
 5294SOL     OW16780   4.830   2.762   5.473
 5294SOL    HW116781   4.859   2.843   5.423
 5294SOL    HW216782   4.819   2.686   5.409
 5295SOL     OW16783   6.144   1.103   2.127
 5295SOL    HW116784   6.084   1.116   2.048
 5295SOL    HW216785   6.216   1.173   2.126
 5296SOL     OW16786   0.558   3.424   0.070
 5296SOL    HW116787   0.548   3.486   7.015
 5296SOL    HW216788   0.520   3.334   0.045
 5297SOL     OW16789   1.391   3.081   2.173
 5297SOL    HW116790   1.413   3.068   2.270
 5297SOL    HW216791   1.475   3.105   2.123
 5298SOL     OW16792   0.990   4.959   2.117
 5298SOL    HW116793   0.900   4.916   2.107
 5298SOL    HW216794   1.004   5.026   2.044
 5299SOL     OW16795   2.989   0.301   1.124
 5299SOL    HW116796   3.049   0.272   1.199
 5299SOL    HW216797   2.980   0.227   1.058
 5300SOL     OW16798   0.136   5.277   3.836
 5300SOL    HW116799   0.096   5.187   3.817
 5300SOL    HW216800   0.150   5.325   3.749
 5301SOL     OW16801   4.719   0.495   0.614
 5301SOL    HW116802   4.730   0.553   0.533
 5301SOL    HW216803   4.622   0.477   0.630
 5302SOL     OW16804   6.521   4.202   3.440
 5302SOL    HW116805   6.545   4.180   3.345
 5302SOL    HW216806   6.488   4.119   3.486
 5303SOL     OW16807   1.363   5.157   2.709
 5303SOL    HW116808   1.456   5.180   2.679
 5303SOL    HW216809   1.297   5.206   2.651
 5304SOL     OW16810   4.868   2.296   5.341
 5304SOL    HW116811   4.793   2.252   5.389
 5304SOL    HW216812   4.940   2.229   5.322
 5305SOL     OW16813   2.916   1.252   3.755
 5305SOL    HW116814   2.996   1.244   3.696
 5305SOL    HW216815   2.910   1.172   3.815
 5306SOL     OW16816   2.769   6.282   4.710
 5306SOL    HW116817   2.736   6.337   4.633
 5306SOL    HW216818   2.869   6.283   4.712
 5307SOL     OW16819   4.010   6.898   0.329
 5307SOL    HW116820   3.978   6.824   0.270
 5307SOL    HW216821   3.932   6.953   0.358
 5308SOL     OW16822   0.128   1.037   2.049
 5308SOL    HW116823   0.192   1.009   2.120
 5308SOL    HW216824   0.131   0.971   1.974
 5309SOL     OW16825   3.262   3.724   4.577
 5309SOL    HW116826   3.222   3.633   4.576
 5309SOL    HW216827   3.190   3.791   4.598
 5310SOL     OW16828   5.515   3.031   0.156
 5310SOL    HW116829   5.473   3.110   0.200
 5310SOL    HW216830   5.572   3.062   0.079
 5311SOL     OW16831   0.863   6.360   6.582
 5311SOL    HW116832   0.930   6.412   6.529
 5311SOL    HW216833   0.771   6.391   6.558
 5312SOL     OW16834   0.074   3.442   1.826
 5312SOL    HW116835   0.117   3.390   1.899
 5312SOL    HW216836   0.142   3.465   1.756
 5313SOL     OW16837   1.088   6.353   0.740
 5313SOL    HW116838   0.995   6.344   0.776
 5313SOL    HW216839   1.086   6.356   0.640
 5314SOL     OW16840   3.816   5.198   1.167
 5314SOL    HW116841   3.882   5.149   1.225
 5314SOL    HW216842   3.808   5.151   1.079
 5315SOL     OW16843   5.765   2.572   1.920
 5315SOL    HW116844   5.807   2.656   1.886
 5315SOL    HW216845   5.836   2.502   1.934
 5316SOL     OW16846   5.783   5.569   4.331
 5316SOL    HW116847   5.702   5.513   4.349
 5316SOL    HW216848   5.774   5.613   4.241
 5317SOL     OW16849   6.526   5.619   2.983
 5317SOL    HW116850   6.432   5.647   3.006
 5317SOL    HW216851   6.552   5.542   3.040
 5318SOL     OW16852   0.424   2.276   4.360
 5318SOL    HW116853   0.465   2.242   4.276
 5318SOL    HW216854   0.327   2.294   4.344
 5319SOL     OW16855   3.634   6.942   2.101
 5319SOL    HW116856   3.700   6.936   2.026
 5319SOL    HW216857   3.681   6.971   2.185
 5320SOL     OW16858   6.172   3.394   5.802
 5320SOL    HW116859   6.198   3.486   5.834
 5320SOL    HW216860   6.222   3.373   5.718
 5321SOL     OW16861   2.222   4.628   5.729
 5321SOL    HW116862   2.283   4.549   5.717
 5321SOL    HW216863   2.132   4.596   5.757
 5322SOL     OW16864   2.437   5.994   0.673
 5322SOL    HW116865   2.402   5.974   0.764
 5322SOL    HW216866   2.414   6.088   0.648
 5323SOL     OW16867   5.276   3.438   0.525
 5323SOL    HW116868   5.319   3.528   0.539
 5323SOL    HW216869   5.300   3.378   0.601
 5324SOL     OW16870   3.884   3.782   1.359
 5324SOL    HW116871   3.933   3.829   1.433
 5324SOL    HW216872   3.915   3.687   1.354
 5325SOL     OW16873   4.237   6.060   4.746
 5325SOL    HW116874   4.280   6.095   4.829
 5325SOL    HW216875   4.187   5.976   4.767
 5326SOL     OW16876   0.043   0.275   2.904
 5326SOL    HW116877   6.994   0.214   2.870
 5326SOL    HW216878   0.002   0.356   2.945
 5327SOL     OW16879   0.157   0.287   3.943
 5327SOL    HW116880   0.139   0.226   3.866
 5327SOL    HW216881   0.248   0.328   3.933
 5328SOL     OW16882   3.781   4.976   0.058
 5328SOL    HW116883   3.748   4.887   0.026
 5328SOL    HW216884   3.777   4.978   0.158
 5329SOL     OW16885   0.130   5.724   0.218
 5329SOL    HW116886   0.206   5.772   0.261
 5329SOL    HW216887   0.088   5.662   0.283
 5330SOL     OW16888   3.475   4.176   0.352
 5330SOL    HW116889   3.505   4.245   0.418
 5330SOL    HW216890   3.547   4.107   0.342
 5331SOL     OW16891   5.154   1.550   6.723
 5331SOL    HW116892   5.175   1.641   6.686
 5331SOL    HW216893   5.150   1.484   6.649
 5332SOL     OW16894   5.479   3.328   0.024
 5332SOL    HW116895   5.412   3.276   6.993
 5332SOL    HW216896   5.431   3.397   0.079
 5333SOL     OW16897   1.514   0.903   4.480
 5333SOL    HW116898   1.421   0.873   4.503
 5333SOL    HW216899   1.570   0.902   4.563
 5334SOL     OW16900   3.487   6.286   2.047
 5334SOL    HW116901   3.428   6.209   2.069
 5334SOL    HW216902   3.582   6.255   2.042
 5335SOL     OW16903   0.211   4.711   1.727
 5335SOL    HW116904   0.144   4.727   1.654
 5335SOL    HW216905   0.303   4.718   1.688
 5336SOL     OW16906   1.862   3.019   5.258
 5336SOL    HW116907   1.913   2.945   5.213
 5336SOL    HW216908   1.813   3.072   5.189
 5337SOL     OW16909   7.014   3.257   1.378
 5337SOL    HW116910   6.997   3.341   1.430
 5337SOL    HW216911   0.086   3.258   1.343
 5338SOL     OW16912   0.027   3.430   0.775
 5338SOL    HW116913   0.009   3.371   0.853
 5338SOL    HW216914   7.002   3.394   0.694
 5339SOL     OW16915   5.598   3.196   2.411
 5339SOL    HW116916   5.500   3.193   2.395
 5339SOL    HW216917   5.647   3.175   2.327
 5340SOL     OW16918   4.558   3.430   1.613
 5340SOL    HW116919   4.627   3.365   1.647
 5340SOL    HW216920   4.500   3.459   1.688
 5341SOL     OW16921   4.777   4.602   3.678
 5341SOL    HW116922   4.849   4.538   3.651
 5341SOL    HW216923   4.748   4.655   3.599
 5342SOL     OW16924   6.369   5.652   4.934
 5342SOL    HW116925   6.279   5.608   4.927
 5342SOL    HW216926   6.389   5.670   5.030
 5343SOL     OW16927   3.774   3.419   6.622
 5343SOL    HW116928   3.857   3.412   6.567
 5343SOL    HW216929   3.787   3.370   6.708
 5344SOL     OW16930   6.799   1.428   6.737
 5344SOL    HW116931   6.770   1.522   6.718
 5344SOL    HW216932   6.862   1.397   6.665
 5345SOL     OW16933   4.523   0.898   6.769
 5345SOL    HW116934   4.554   0.811   6.807
 5345SOL    HW216935   4.601   0.958   6.756
 5346SOL     OW16936   3.222   6.188   3.318
 5346SOL    HW116937   3.239   6.155   3.410
 5346SOL    HW216938   3.123   6.193   3.302
 5347SOL     OW16939   5.203   1.597   4.537
 5347SOL    HW116940   5.137   1.531   4.501
 5347SOL    HW216941   5.155   1.672   4.581
 5348SOL     OW16942   4.848   2.903   4.988
 5348SOL    HW116943   4.770   2.844   4.969
 5348SOL    HW216944   4.826   2.997   4.965
 5349SOL     OW16945   0.830   4.021   1.294
 5349SOL    HW116946   0.754   3.974   1.250
 5349SOL    HW216947   0.913   4.008   1.240
 5350SOL     OW16948   1.076   0.088   6.676
 5350SOL    HW116949   0.992   0.088   6.621
 5350SOL    HW216950   1.122   0.177   6.666
 5351SOL     OW16951   0.293   6.106   3.096
 5351SOL    HW116952   0.249   6.080   3.010
 5351SOL    HW216953   0.225   6.105   3.170
 5352SOL     OW16954   1.586   2.854   6.074
 5352SOL    HW116955   1.660   2.790   6.092
 5352SOL    HW216956   1.556   2.846   5.979
 5353SOL     OW16957   3.737   5.338   3.624
 5353SOL    HW116958   3.653   5.289   3.648
 5353SOL    HW216959   3.724   5.386   3.538
 5354SOL     OW16960   3.639   5.835   1.072
 5354SOL    HW116961   3.685   5.856   1.158
 5354SOL    HW216962   3.643   5.915   1.012
 5355SOL     OW16963   4.824   6.007   4.972
 5355SOL    HW116964   4.898   5.964   4.921
 5355SOL    HW216965   4.836   6.106   4.972
 5356SOL     OW16966   1.110   6.214   1.073
 5356SOL    HW116967   1.206   6.214   1.104
 5356SOL    HW216968   1.098   6.145   1.002
 5357SOL     OW16969   6.410   3.240   3.030
 5357SOL    HW116970   6.373   3.321   2.983
 5357SOL    HW216971   6.370   3.158   2.991
 5358SOL     OW16972   6.200   0.484   6.414
 5358SOL    HW116973   6.293   0.466   6.381
 5358SOL    HW216974   6.136   0.482   6.338
 5359SOL     OW16975   2.807   2.836   0.168
 5359SOL    HW116976   2.763   2.833   0.258
 5359SOL    HW216977   2.872   2.912   0.165
 5360SOL     OW16978   5.243   5.440   3.838
 5360SOL    HW116979   5.166   5.443   3.774
 5360SOL    HW216980   5.292   5.528   3.834
 5361SOL     OW16981   1.218   4.323   3.284
 5361SOL    HW116982   1.310   4.296   3.257
 5361SOL    HW216983   1.220   4.416   3.322
 5362SOL     OW16984   6.222   1.489   2.666
 5362SOL    HW116985   6.303   1.454   2.713
 5362SOL    HW216986   6.212   1.442   2.578
 5363SOL     OW16987   5.775   5.627   3.700
 5363SOL    HW116988   5.730   5.717   3.705
 5363SOL    HW216989   5.859   5.630   3.754
 5364SOL     OW16990   4.442   2.474   2.282
 5364SOL    HW116991   4.432   2.545   2.212
 5364SOL    HW216992   4.397   2.391   2.250
 5365SOL     OW16993   2.928   4.019   5.063
 5365SOL    HW116994   2.918   3.919   5.056
 5365SOL    HW216995   2.841   4.059   5.090
 5366SOL     OW16996   6.682   5.586   3.333
 5366SOL    HW116997   6.647   5.676   3.307
 5366SOL    HW216998   6.657   5.520   3.262
 5367SOL     OW16999   6.158   6.335   1.474
 5367SOL    HW117000   6.084   6.363   1.535
 5367SOL    HW217001   6.246   6.344   1.521
 5368SOL     OW17002   0.267   5.987   4.595
 5368SOL    HW117003   0.330   5.930   4.648
 5368SOL    HW217004   0.289   5.978   4.497
 5369SOL     OW17005   4.354   6.571   2.537
 5369SOL    HW117006   4.330   6.518   2.618
 5369SOL    HW217007   4.275   6.622   2.505
 5370SOL     OW17008   1.634   2.992   0.301
 5370SOL    HW117009   1.541   2.975   0.269
 5370SOL    HW217010   1.696   2.925   0.261
 5371SOL     OW17011   6.199   5.586   4.279
 5371SOL    HW117012   6.227   5.490   4.289
 5371SOL    HW217013   6.212   5.633   4.367
 5372SOL     OW17014   2.452   6.773   3.176
 5372SOL    HW117015   2.395   6.740   3.101
 5372SOL    HW217016   2.544   6.795   3.143
 5373SOL     OW17017   2.991   1.055   6.560
 5373SOL    HW117018   2.909   1.102   6.526
 5373SOL    HW217019   3.015   0.982   6.497
 5374SOL     OW17020   1.241   4.061   1.346
 5374SOL    HW117021   1.286   3.974   1.363
 5374SOL    HW217022   1.294   4.114   1.280
 5375SOL     OW17023   2.310   4.338   4.653
 5375SOL    HW117024   2.224   4.327   4.603
 5375SOL    HW217025   2.291   4.345   4.751
 5376SOL     OW17026   1.178   0.116   0.590
 5376SOL    HW117027   1.223   0.196   0.551
 5376SOL    HW217028   1.245   0.057   0.635
 5377SOL     OW17029   1.452   1.856   2.527
 5377SOL    HW117030   1.420   1.950   2.542
 5377SOL    HW217031   1.538   1.842   2.576
 5378SOL     OW17032   4.685   0.042   2.252
 5378SOL    HW117033   4.663   6.990   2.314
 5378SOL    HW217034   4.782   0.040   2.230
 5379SOL     OW17035   2.174   1.911   3.294
 5379SOL    HW117036   2.254   1.946   3.344
 5379SOL    HW217037   2.102   1.887   3.359
 5380SOL     OW17038   5.066   6.219   1.218
 5380SOL    HW117039   4.975   6.181   1.239
 5380SOL    HW217040   5.128   6.145   1.194
 5381SOL     OW17041   3.386   1.414   3.255
 5381SOL    HW117042   3.366   1.316   3.253
 5381SOL    HW217043   3.335   1.459   3.181
 5382SOL     OW17044   4.162   1.616   2.637
 5382SOL    HW117045   4.244   1.568   2.605
 5382SOL    HW217046   4.135   1.684   2.569
 5383SOL     OW17047   2.060   3.216   4.778
 5383SOL    HW117048   2.082   3.221   4.876
 5383SOL    HW217049   1.966   3.244   4.763
 5384SOL     OW17050   5.240   6.029   6.124
 5384SOL    HW117051   5.146   5.995   6.124
 5384SOL    HW217052   5.244   6.116   6.173
 5385SOL     OW17053   4.131   3.595   6.855
 5385SOL    HW117054   4.173   3.574   6.943
 5385SOL    HW217055   4.034   3.570   6.857
 5386SOL     OW17056   4.672   5.037   3.983
 5386SOL    HW117057   4.602   4.970   4.007
 5386SOL    HW217058   4.632   5.129   3.983
 5387SOL     OW17059   1.113   2.314   4.144
 5387SOL    HW117060   1.147   2.328   4.237
 5387SOL    HW217061   1.013   2.301   4.147
 5388SOL     OW17062   6.360   6.487   4.172
 5388SOL    HW117063   6.447   6.443   4.194
 5388SOL    HW217064   6.376   6.560   4.105
 5389SOL     OW17065   5.391   1.246   4.711
 5389SOL    HW117066   5.335   1.278   4.788
 5389SOL    HW217067   5.356   1.158   4.678
 5390SOL     OW17068   5.865   3.749   3.094
 5390SOL    HW117069   5.790   3.773   3.155
 5390SOL    HW217070   5.865   3.650   3.078
 5391SOL     OW17071   3.988   2.668   1.299
 5391SOL    HW117072   4.087   2.672   1.313
 5391SOL    HW217073   3.968   2.599   1.228
 5392SOL     OW17074   5.244   0.239   4.498
 5392SOL    HW117075   5.304   0.247   4.419
 5392SOL    HW217076   5.297   0.243   4.582
 5393SOL     OW17077   4.582   1.149   3.955
 5393SOL    HW117078   4.558   1.054   3.972
 5393SOL    HW217079   4.499   1.200   3.930
 5394SOL     OW17080   0.128   3.275   2.053
 5394SOL    HW117081   0.122   3.177   2.073
 5394SOL    HW217082   0.056   3.323   2.104
 5395SOL     OW17083   0.458   1.759   1.225
 5395SOL    HW117084   0.514   1.808   1.292
 5395SOL    HW217085   0.472   1.800   1.135
 5396SOL     OW17086   3.467   2.899   1.050
 5396SOL    HW117087   3.381   2.910   1.100
 5396SOL    HW217088   3.469   2.964   0.973
 5397SOL     OW17089   0.118   0.529   2.393
 5397SOL    HW117090   0.087   0.489   2.479
 5397SOL    HW217091   0.102   0.463   2.319
 5398SOL     OW17092   6.774   2.533   3.419
 5398SOL    HW117093   6.791   2.623   3.459
 5398SOL    HW217094   6.676   2.513   3.424
 5399SOL     OW17095   2.274   3.180   0.987
 5399SOL    HW117096   2.261   3.215   0.894
 5399SOL    HW217097   2.253   3.083   0.990
 5400SOL     OW17098   4.890   3.098   1.463
 5400SOL    HW117099   4.968   3.108   1.401
 5400SOL    HW217100   4.821   3.039   1.420
 5401SOL     OW17101   5.312   2.963   1.024
 5401SOL    HW117102   5.404   2.973   0.988
 5401SOL    HW217103   5.252   3.032   0.984
 5402SOL     OW17104   1.261   6.616   1.791
 5402SOL    HW117105   1.316   6.699   1.790
 5402SOL    HW217106   1.286   6.561   1.871
 5403SOL     OW17107   5.113   2.265   5.977
 5403SOL    HW117108   5.052   2.344   5.970
 5403SOL    HW217109   5.187   2.274   5.911
 5404SOL     OW17110   4.823   6.415   0.227
 5404SOL    HW117111   4.872   6.501   0.239
 5404SOL    HW217112   4.812   6.371   0.316
 5405SOL     OW17113   0.166   5.195   6.968
 5405SOL    HW117114   0.128   5.179   6.876
 5405SOL    HW217115   0.094   5.231   0.005
 5406SOL     OW17116   2.763   1.321   5.972
 5406SOL    HW117117   2.763   1.418   5.999
 5406SOL    HW217118   2.784   1.313   5.875
 5407SOL     OW17119   1.471   6.605   3.682
 5407SOL    HW117120   1.451   6.698   3.713
 5407SOL    HW217121   1.534   6.609   3.604
 5408SOL     OW17122   2.359   2.281   4.329
 5408SOL    HW117123   2.376   2.378   4.315
 5408SOL    HW217124   2.285   2.250   4.269
 5409SOL     OW17125   0.711   2.629   2.715
 5409SOL    HW117126   0.635   2.682   2.753
 5409SOL    HW217127   0.773   2.690   2.665
 5410SOL     OW17128   6.651   3.013   0.406
 5410SOL    HW117129   6.556   3.029   0.383
 5410SOL    HW217130   6.658   2.980   0.500
 5411SOL     OW17131   3.463   5.590   0.955
 5411SOL    HW117132   3.506   5.607   1.044
 5411SOL    HW217133   3.393   5.659   0.937
 5412SOL     OW17134   1.252   2.610   5.094
 5412SOL    HW117135   1.171   2.602   5.036
 5412SOL    HW217136   1.309   2.528   5.082
 5413SOL     OW17137   0.168   5.333   5.690
 5413SOL    HW117138   0.135   5.252   5.738
 5413SOL    HW217139   0.192   5.308   5.596
 5414SOL     OW17140   5.693   4.672   5.991
 5414SOL    HW117141   5.676   4.735   6.066
 5414SOL    HW217142   5.616   4.675   5.927
 5415SOL     OW17143   1.728   1.872   6.252
 5415SOL    HW117144   1.683   1.865   6.341
 5415SOL    HW217145   1.826   1.860   6.263
 5416SOL     OW17146   3.255   6.046   6.980
 5416SOL    HW117147   3.246   5.963   0.011
 5416SOL    HW217148   3.222   6.030   6.887
 5417SOL     OW17149   6.078   0.687   2.992
 5417SOL    HW117150   6.034   0.623   3.055
 5417SOL    HW217151   6.055   0.661   2.898
 5418SOL     OW17152   6.963   4.066   5.509
 5418SOL    HW117153   0.040   4.066   5.521
 5418SOL    HW217154   6.931   4.160   5.500
 5419SOL     OW17155   3.861   1.901   6.804
 5419SOL    HW117156   3.909   1.953   6.875
 5419SOL    HW217157   3.846   1.958   6.724
 5420SOL     OW17158   1.522   1.935   1.707
 5420SOL    HW117159   1.442   1.982   1.670
 5420SOL    HW217160   1.496   1.842   1.733
 5421SOL     OW17161   4.080   5.508   1.936
 5421SOL    HW117162   4.034   5.422   1.960
 5421SOL    HW217163   4.179   5.495   1.941
 5422SOL     OW17164   2.751   5.518   3.587
 5422SOL    HW117165   2.807   5.473   3.657
 5422SOL    HW217166   2.657   5.487   3.595
 5423SOL     OW17167   4.994   6.626   1.178
 5423SOL    HW117168   5.035   6.714   1.153
 5423SOL    HW217169   5.036   6.553   1.123
 5424SOL     OW17170   4.291   3.210   5.373
 5424SOL    HW117171   4.328   3.284   5.316
 5424SOL    HW217172   4.337   3.124   5.351
 5425SOL     OW17173   1.367   5.227   5.918
 5425SOL    HW117174   1.326   5.193   5.833
 5425SOL    HW217175   1.305   5.208   5.994
 5426SOL     OW17176   6.556   4.358   1.071
 5426SOL    HW117177   6.636   4.373   1.013
 5426SOL    HW217178   6.568   4.406   1.158
 5427SOL     OW17179   4.895   2.701   0.616
 5427SOL    HW117180   4.929   2.608   0.632
 5427SOL    HW217181   4.866   2.741   0.703
 5428SOL     OW17182   4.852   5.442   3.266
 5428SOL    HW117183   4.933   5.428   3.209
 5428SOL    HW217184   4.770   5.420   3.213
 5429SOL     OW17185   2.940   6.915   4.174
 5429SOL    HW117186   2.992   6.837   4.138
 5429SOL    HW217187   3.002   6.978   4.220
 5430SOL     OW17188   2.010   4.028   5.625
 5430SOL    HW117189   2.044   4.016   5.719
 5430SOL    HW217190   1.990   4.124   5.609
 5431SOL     OW17191   4.685   4.792   0.378
 5431SOL    HW117192   4.721   4.767   0.288
 5431SOL    HW217193   4.743   4.863   0.418
 5432SOL     OW17194   0.028   5.123   6.731
 5432SOL    HW117195   0.039   5.145   6.634
 5432SOL    HW217196   6.958   5.087   6.746
 5433SOL     OW17197   3.528   0.071   1.387
 5433SOL    HW117198   3.556   0.147   1.329
 5433SOL    HW217199   3.463   0.013   1.338
 5434SOL     OW17200   4.776   6.583   4.190
 5434SOL    HW117201   4.803   6.580   4.287
 5434SOL    HW217202   4.845   6.535   4.135
 5435SOL     OW17203   6.769   4.834   6.687
 5435SOL    HW117204   6.689   4.778   6.709
 5435SOL    HW217205   6.783   4.902   6.760
 5436SOL     OW17206   2.073   4.478   2.121
 5436SOL    HW117207   2.073   4.421   2.203
 5436SOL    HW217208   2.162   4.521   2.110
 5437SOL     OW17209   3.314   6.265   1.073
 5437SOL    HW117210   3.385   6.205   1.109
 5437SOL    HW217211   3.332   6.286   0.977
 5438SOL     OW17212   4.407   6.734   2.165
 5438SOL    HW117213   4.365   6.809   2.216
 5438SOL    HW217214   4.434   6.765   2.075
 5439SOL     OW17215   1.410   3.855   1.425
 5439SOL    HW117216   1.484   3.798   1.390
 5439SOL    HW217217   1.442   3.907   1.504
 5440SOL     OW17218   5.675   6.617   3.809
 5440SOL    HW117219   5.733   6.698   3.797
 5440SOL    HW217220   5.729   6.545   3.853
 5441SOL     OW17221   5.717   2.158   4.614
 5441SOL    HW117222   5.724   2.152   4.515
 5441SOL    HW217223   5.784   2.097   4.656
 5442SOL     OW17224   2.587   0.464   6.830
 5442SOL    HW117225   2.675   0.470   6.783
 5442SOL    HW217226   2.580   0.537   6.898
 5443SOL     OW17227   6.166   0.862   2.761
 5443SOL    HW117228   6.099   0.902   2.698
 5443SOL    HW217229   6.189   0.769   2.730
 5444SOL     OW17230   0.651   1.255   6.406
 5444SOL    HW117231   0.633   1.341   6.454
 5444SOL    HW217232   0.608   1.257   6.316
 5445SOL     OW17233   5.676   6.609   5.613
 5445SOL    HW117234   5.683   6.698   5.568
 5445SOL    HW217235   5.588   6.568   5.591
 5446SOL     OW17236   1.096   4.152   6.381
 5446SOL    HW117237   1.097   4.244   6.420
 5446SOL    HW217238   1.032   4.150   6.304
 5447SOL     OW17239   6.550   2.118   1.792
 5447SOL    HW117240   6.559   2.025   1.829
 5447SOL    HW217241   6.635   2.145   1.748
 5448SOL     OW17242   6.120   4.896   2.053
 5448SOL    HW117243   6.167   4.909   1.966
 5448SOL    HW217244   6.090   4.985   2.089
 5449SOL     OW17245   1.952   0.500   1.557
 5449SOL    HW117246   2.015   0.424   1.541
 5449SOL    HW217247   1.964   0.534   1.650
 5450SOL     OW17248   4.636   5.846   1.432
 5450SOL    HW117249   4.650   5.800   1.344
 5450SOL    HW217250   4.678   5.792   1.505
 5451SOL     OW17251   0.163   6.384   3.950
 5451SOL    HW117252   0.063   6.378   3.950
 5451SOL    HW217253   0.200   6.333   3.873
 5452SOL     OW17254   2.381   4.482   2.574
 5452SOL    HW117255   2.425   4.514   2.490
 5452SOL    HW217256   2.427   4.523   2.653
 5453SOL     OW17257   6.027   4.783   4.193
 5453SOL    HW117258   5.969   4.833   4.130
 5453SOL    HW217259   5.971   4.739   4.263
 5454SOL     OW17260   5.708   4.326   2.767
 5454SOL    HW117261   5.707   4.268   2.848
 5454SOL    HW217262   5.753   4.412   2.789
 5455SOL     OW17263   2.817   1.971   3.355
 5455SOL    HW117264   2.857   1.955   3.265
 5455SOL    HW217265   2.890   1.983   3.422
 5456SOL     OW17266   6.131   2.389   0.343
 5456SOL    HW117267   6.046   2.376   0.291
 5456SOL    HW217268   6.128   2.477   0.390
 5457SOL     OW17269   6.149   1.186   6.771
 5457SOL    HW117270   6.233   1.173   6.824
 5457SOL    HW217271   6.172   1.194   6.674
 5458SOL     OW17272   4.806   4.745   6.688
 5458SOL    HW117273   4.779   4.650   6.706
 5458SOL    HW217274   4.724   4.802   6.683
 5459SOL     OW17275   2.363   2.845   5.318
 5459SOL    HW117276   2.432   2.786   5.359
 5459SOL    HW217277   2.408   2.916   5.264
 5460SOL     OW17278   0.685   0.698   1.152
 5460SOL    HW117279   0.739   0.707   1.068
 5460SOL    HW217280   0.649   0.787   1.178
 5461SOL     OW17281   5.660   1.883   6.438
 5461SOL    HW117282   5.595   1.946   6.479
 5461SOL    HW217283   5.654   1.794   6.484
 5462SOL     OW17284   5.093   5.402   6.041
 5462SOL    HW117285   5.097   5.343   6.122
 5462SOL    HW217286   4.998   5.412   6.012
 5463SOL     OW17287   1.460   4.459   5.708
 5463SOL    HW117288   1.501   4.501   5.627
 5463SOL    HW217289   1.474   4.517   5.788
 5464SOL     OW17290   1.762   5.248   4.933
 5464SOL    HW117291   1.697   5.231   5.007
 5464SOL    HW217292   1.841   5.187   4.944
 5465SOL     OW17293   0.793   0.095   5.351
 5465SOL    HW117294   0.757   0.014   5.398
 5465SOL    HW217295   0.721   0.137   5.297
 5466SOL     OW17296   5.246   1.678   5.017
 5466SOL    HW117297   5.206   1.764   5.049
 5466SOL    HW217298   5.338   1.695   4.981
 5467SOL     OW17299   4.953   3.155   4.410
 5467SOL    HW117300   4.916   3.247   4.397
 5467SOL    HW217301   4.926   3.121   4.500
 5468SOL     OW17302   0.062   2.330   1.219
 5468SOL    HW117303   0.033   2.267   1.147
 5468SOL    HW217304   0.039   2.424   1.193
 5469SOL     OW17305   3.470   1.211   4.327
 5469SOL    HW117306   3.439   1.186   4.236
 5469SOL    HW217307   3.534   1.288   4.321
 5470SOL     OW17308   4.337   5.281   3.914
 5470SOL    HW117309   4.372   5.287   4.008
 5470SOL    HW217310   4.241   5.253   3.916
 5471SOL     OW17311   5.320   0.438   2.510
 5471SOL    HW117312   5.273   0.364   2.461
 5471SOL    HW217313   5.380   0.399   2.580
 5472SOL     OW17314   2.381   3.637   0.521
 5472SOL    HW117315   2.345   3.552   0.484
 5472SOL    HW217316   2.423   3.621   0.610
 5473SOL     OW17317   3.121   4.795   2.131
 5473SOL    HW117318   3.043   4.750   2.174
 5473SOL    HW217319   3.101   4.809   2.034
 5474SOL     OW17320   1.665   4.746   2.223
 5474SOL    HW117321   1.701   4.716   2.311
 5474SOL    HW217322   1.731   4.723   2.151
 5475SOL     OW17323   1.315   1.454   5.251
 5475SOL    HW117324   1.295   1.356   5.248
 5475SOL    HW217325   1.409   1.470   5.221
 5476SOL     OW17326   1.958   0.163   4.699
 5476SOL    HW117327   1.926   0.136   4.608
 5476SOL    HW217328   1.997   0.083   4.744
 5477SOL     OW17329   2.175   3.240   3.630
 5477SOL    HW117330   2.239   3.183   3.684
 5477SOL    HW217331   2.162   3.198   3.540
 5478SOL     OW17332   5.118   4.533   5.486
 5478SOL    HW117333   5.200   4.512   5.541
 5478SOL    HW217334   5.146   4.568   5.397
 5479SOL     OW17335   5.381   2.554   4.366
 5479SOL    HW117336   5.478   2.546   4.342
 5479SOL    HW217337   5.325   2.511   4.295
 5480SOL     OW17338   1.078   3.529   4.349
 5480SOL    HW117339   1.124   3.589   4.415
 5480SOL    HW217340   1.119   3.541   4.259
 5481SOL     OW17341   3.451   1.583   6.640
 5481SOL    HW117342   3.406   1.589   6.729
 5481SOL    HW217343   3.532   1.523   6.647
 5482SOL     OW17344   5.610   3.518   1.883
 5482SOL    HW117345   5.531   3.463   1.858
 5482SOL    HW217346   5.693   3.475   1.849
 5483SOL     OW17347   0.047   3.118   6.999
 5483SOL    HW117348   6.982   3.131   6.953
 5483SOL    HW217349   0.044   3.163   0.066
 5484SOL     OW17350   6.612   0.320   5.200
 5484SOL    HW117351   6.537   0.384   5.185
 5484SOL    HW217352   6.698   0.370   5.209
 5485SOL     OW17353   3.375   0.562   5.036
 5485SOL    HW117354   3.343   0.470   5.058
 5485SOL    HW217355   3.335   0.592   4.950
 5486SOL     OW17356   0.980   1.011   4.209
 5486SOL    HW117357   1.070   0.977   4.184
 5486SOL    HW217358   0.952   0.970   4.296
 5487SOL     OW17359   4.340   5.117   0.953
 5487SOL    HW117360   4.321   5.020   0.939
 5487SOL    HW217361   4.402   5.128   1.030
 5488SOL     OW17362   5.216   1.181   6.084
 5488SOL    HW117363   5.214   1.118   6.006
 5488SOL    HW217364   5.123   1.211   6.105
 5489SOL     OW17365   6.719   3.931   3.451
 5489SOL    HW117366   6.663   3.894   3.377
 5489SOL    HW217367   6.683   3.899   3.539
 5490SOL     OW17368   2.253   2.493   6.125
 5490SOL    HW117369   2.197   2.452   6.052
 5490SOL    HW217370   2.318   2.557   6.085
 5491SOL     OW17371   7.016   6.096   1.833
 5491SOL    HW117372   0.055   6.174   1.822
 5491SOL    HW217373   6.965   6.081   1.749
 5492SOL     OW17374   1.517   1.201   4.817
 5492SOL    HW117375   1.514   1.291   4.773
 5492SOL    HW217376   1.425   1.162   4.819
 5493SOL     OW17377   3.098   2.433   0.382
 5493SOL    HW117378   3.002   2.411   0.396
 5493SOL    HW217379   3.126   2.504   0.446
 5494SOL     OW17380   6.104   3.310   2.420
 5494SOL    HW117381   6.137   3.348   2.334
 5494SOL    HW217382   6.140   3.217   2.432
 5495SOL     OW17383   3.876   2.982   3.246
 5495SOL    HW117384   3.921   2.910   3.192
 5495SOL    HW217385   3.781   2.956   3.263
 5496SOL     OW17386   4.184   5.166   1.859
 5496SOL    HW117387   4.238   5.085   1.881
 5496SOL    HW217388   4.217   5.205   1.773
 5497SOL     OW17389   6.267   0.102   1.392
 5497SOL    HW117390   6.345   0.095   1.454
 5497SOL    HW217391   6.210   0.180   1.419
 5498SOL     OW17392   4.280   0.192   5.054
 5498SOL    HW117393   4.294   0.187   4.955
 5498SOL    HW217394   4.275   0.287   5.083
 5499SOL     OW17395   0.744   1.245   5.472
 5499SOL    HW117396   0.783   1.192   5.397
 5499SOL    HW217397   0.777   1.339   5.467
 5500SOL     OW17398   2.029   5.891   0.968
 5500SOL    HW117399   2.095   5.949   1.017
 5500SOL    HW217400   2.071   5.857   0.884
 5501SOL     OW17401   2.793   0.502   2.491
 5501SOL    HW117402   2.769   0.422   2.547
 5501SOL    HW217403   2.752   0.584   2.532
 5502SOL     OW17404   4.574   3.351   0.740
 5502SOL    HW117405   4.524   3.324   0.658
 5502SOL    HW217406   4.614   3.442   0.726
 5503SOL     OW17407   0.737   6.319   4.488
 5503SOL    HW117408   0.744   6.419   4.493
 5503SOL    HW217409   0.770   6.279   4.573
 5504SOL     OW17410   3.520   1.996   4.526
 5504SOL    HW117411   3.618   2.002   4.507
 5504SOL    HW217412   3.497   1.902   4.553
 5505SOL     OW17413   3.816   4.703   6.790
 5505SOL    HW117414   3.752   4.714   6.867
 5505SOL    HW217415   3.890   4.769   6.799
 5506SOL     OW17416   0.390   6.605   5.489
 5506SOL    HW117417   0.364   6.539   5.559
 5506SOL    HW217418   0.488   6.600   5.473
 5507SOL     OW17419   4.071   5.858   4.765
 5507SOL    HW117420   4.073   5.822   4.672
 5507SOL    HW217421   3.976   5.874   4.794
 5508SOL     OW17422   1.784   0.659   6.184
 5508SOL    HW117423   1.789   0.635   6.281
 5508SOL    HW217424   1.850   0.731   6.165
 5509SOL     OW17425   6.055   6.251   0.145
 5509SOL    HW117426   6.064   6.345   0.178
 5509SOL    HW217427   6.139   6.200   0.166
 5510SOL     OW17428   6.059   0.373   6.095
 5510SOL    HW117429   6.092   0.281   6.071
 5510SOL    HW217430   6.117   0.441   6.051
 5511SOL     OW17431   0.010   2.178   0.970
 5511SOL    HW117432   7.008   2.086   0.999
 5511SOL    HW217433   0.108   2.182   0.952
 5512SOL     OW17434   0.462   0.277   0.854
 5512SOL    HW117435   0.516   0.237   0.780
 5512SOL    HW217436   0.491   0.372   0.868
 5513SOL     OW17437   3.328   5.170   4.813
 5513SOL    HW117438   3.230   5.161   4.831
 5513SOL    HW217439   3.347   5.260   4.775
 5514SOL     OW17440   6.222   5.255   3.999
 5514SOL    HW117441   6.157   5.330   4.012
 5514SOL    HW217442   6.181   5.169   4.028
 5515SOL     OW17443   6.689   3.040   2.698
 5515SOL    HW117444   6.684   3.091   2.784
 5515SOL    HW217445   6.785   3.025   2.673
 5516SOL     OW17446   1.383   3.334   6.540
 5516SOL    HW117447   1.381   3.237   6.565
 5516SOL    HW217448   1.420   3.388   6.615
 5517SOL     OW17449   2.423   1.562   1.782
 5517SOL    HW117450   2.383   1.471   1.775
 5517SOL    HW217451   2.519   1.554   1.808
 5518SOL     OW17452   5.400   5.219   5.292
 5518SOL    HW117453   5.431   5.131   5.257
 5518SOL    HW217454   5.402   5.217   5.392
 5519SOL     OW17455   5.235   3.751   3.358
 5519SOL    HW117456   5.239   3.651   3.361
 5519SOL    HW217457   5.293   3.789   3.430
 5520SOL     OW17458   1.807   3.083   0.713
 5520SOL    HW117459   1.823   3.137   0.631
 5520SOL    HW217460   1.822   2.986   0.693
 5521SOL     OW17461   4.869   5.569   1.214
 5521SOL    HW117462   4.859   5.470   1.224
 5521SOL    HW217463   4.888   5.610   1.303
 5522SOL     OW17464   2.139   3.043   2.340
 5522SOL    HW117465   2.126   3.089   2.252
 5522SOL    HW217466   2.057   2.990   2.362
 5523SOL     OW17467   3.439   0.797   1.519
 5523SOL    HW117468   3.417   0.732   1.591
 5523SOL    HW217469   3.475   0.748   1.439
 5524SOL     OW17470   6.197   5.742   6.532
 5524SOL    HW117471   6.188   5.654   6.486
 5524SOL    HW217472   6.122   5.753   6.598
 5525SOL     OW17473   6.662   6.347   4.436
 5525SOL    HW117474   6.629   6.336   4.342
 5525SOL    HW217475   6.677   6.444   4.456
 5526SOL     OW17476   5.377   3.058   4.601
 5526SOL    HW117477   5.397   2.961   4.613
 5526SOL    HW217478   5.462   3.111   4.607
 5527SOL     OW17479   2.489   3.343   0.698
 5527SOL    HW117480   2.399   3.302   0.712
 5527SOL    HW217481   2.498   3.423   0.757
 5528SOL     OW17482   0.304   3.300   2.859
 5528SOL    HW117483   0.294   3.325   2.955
 5528SOL    HW217484   0.219   3.320   2.810
 5529SOL     OW17485   1.617   1.583   4.957
 5529SOL    HW117486   1.699   1.542   4.917
 5529SOL    HW217487   1.539   1.569   4.895
 5530SOL     OW17488   0.429   3.128   0.330
 5530SOL    HW117489   0.510   3.147   0.385
 5530SOL    HW217490   0.437   3.038   0.288
 5531SOL     OW17491   1.456   2.801   6.323
 5531SOL    HW117492   1.503   2.832   6.240
 5531SOL    HW217493   1.375   2.857   6.339
 5532SOL     OW17494   2.496   2.271   1.114
 5532SOL    HW117495   2.540   2.283   1.025
 5532SOL    HW217496   2.438   2.190   1.113
 5533SOL     OW17497   4.077   0.350   0.752
 5533SOL    HW117498   3.982   0.357   0.721
 5533SOL    HW217499   4.137   0.340   0.673
 5534SOL     OW17500   6.634   5.036   5.453
 5534SOL    HW117501   6.571   4.973   5.498
 5534SOL    HW217502   6.719   5.040   5.504
 5535SOL     OW17503   5.559   3.836   3.414
 5535SOL    HW117504   5.561   3.743   3.377
 5535SOL    HW217505   5.600   3.899   3.348
 5536SOL     OW17506   2.567   0.490   4.222
 5536SOL    HW117507   2.575   0.391   4.234
 5536SOL    HW217508   2.471   0.516   4.218
 5537SOL     OW17509   4.679   1.284   4.716
 5537SOL    HW117510   4.593   1.316   4.756
 5537SOL    HW217511   4.753   1.298   4.781
 5538SOL     OW17512   5.371   2.539   1.176
 5538SOL    HW117513   5.439   2.485   1.127
 5538SOL    HW217514   5.363   2.506   1.270
 5539SOL     OW17515   2.717   6.637   0.453
 5539SOL    HW117516   2.743   6.543   0.477
 5539SOL    HW217517   2.662   6.676   0.527
 5540SOL     OW17518   5.227   0.542   6.979
 5540SOL    HW117519   5.300   0.567   6.916
 5540SOL    HW217520   5.160   0.484   6.933
 5541SOL     OW17521   4.988   3.007   6.621
 5541SOL    HW117522   4.973   3.066   6.700
 5541SOL    HW217523   4.944   3.048   6.540
 5542SOL     OW17524   4.263   4.223   6.910
 5542SOL    HW117525   4.292   4.191   6.820
 5542SOL    HW217526   4.238   4.319   6.906
 5543SOL     OW17527   1.747   0.246   0.342
 5543SOL    HW117528   1.824   0.277   0.398
 5543SOL    HW217529   1.772   0.249   0.246
 5544SOL     OW17530   3.894   5.403   6.491
 5544SOL    HW117531   3.816   5.346   6.519
 5544SOL    HW217532   3.865   5.498   6.482
 5545SOL     OW17533   4.947   0.726   3.319
 5545SOL    HW117534   4.893   0.645   3.342
 5545SOL    HW217535   5.035   0.698   3.282
 5546SOL     OW17536   0.335   5.509   4.625
 5546SOL    HW117537   0.356   5.564   4.544
 5546SOL    HW217538   0.396   5.430   4.628
 5547SOL     OW17539   5.022   1.511   4.986
 5547SOL    HW117540   4.986   1.521   5.079
 5547SOL    HW217541   5.093   1.581   4.970
 5548SOL     OW17542   0.437   4.336   4.267
 5548SOL    HW117543   0.502   4.277   4.219
 5548SOL    HW217544   0.478   4.369   4.352
 5549SOL     OW17545   4.666   2.867   0.342
 5549SOL    HW117546   4.699   2.792   0.285
 5549SOL    HW217547   4.733   2.941   0.342
 5550SOL     OW17548   1.761   4.024   1.521
 5550SOL    HW117549   1.773   3.925   1.536
 5550SOL    HW217550   1.676   4.054   1.565
 5551SOL     OW17551   1.787   5.367   3.234
 5551SOL    HW117552   1.734   5.302   3.179
 5551SOL    HW217553   1.743   5.378   3.323
 5552SOL     OW17554   0.093   6.396   6.784
 5552SOL    HW117555   0.191   6.401   6.766
 5552SOL    HW217556   0.073   6.313   6.836
 5553SOL     OW17557   5.098   0.442   6.760
 5553SOL    HW117558   5.105   0.478   6.667
 5553SOL    HW217559   5.160   0.364   6.769
 5554SOL     OW17560   5.817   1.806   1.420
 5554SOL    HW117561   5.912   1.786   1.394
 5554SOL    HW217562   5.759   1.800   1.339
 5555SOL     OW17563   1.899   4.912   3.001
 5555SOL    HW117564   1.916   4.846   2.928
 5555SOL    HW217565   1.874   4.863   3.085
 5556SOL     OW17566   0.920   0.881   4.443
 5556SOL    HW117567   0.828   0.912   4.463
 5556SOL    HW217568   0.920   0.782   4.431
 5557SOL     OW17569   3.632   5.615   3.449
 5557SOL    HW117570   3.633   5.670   3.532
 5557SOL    HW217571   3.537   5.592   3.425
 5558SOL     OW17572   4.445   4.290   6.659
 5558SOL    HW117573   4.442   4.389   6.674
 5558SOL    HW217574   4.519   4.250   6.712
 5559SOL     OW17575   2.676   0.753   2.529
 5559SOL    HW117576   2.634   0.828   2.580
 5559SOL    HW217577   2.670   0.773   2.431
 5560SOL     OW17578   0.738   5.897   3.301
 5560SOL    HW117579   0.679   5.874   3.379
 5560SOL    HW217580   0.759   5.994   3.303
 5561SOL     OW17581   3.808   6.768   3.376
 5561SOL    HW117582   3.784   6.861   3.346
 5561SOL    HW217583   3.726   6.711   3.376
 5562SOL     OW17584   3.615   3.937   1.012
 5562SOL    HW117585   3.676   3.888   0.949
 5562SOL    HW217586   3.605   3.883   1.096
 5563SOL     OW17587   2.289   4.230   2.600
 5563SOL    HW117588   2.320   4.317   2.562
 5563SOL    HW217589   2.313   4.225   2.696
 5564SOL     OW17590   5.400   0.874   6.058
 5564SOL    HW117591   5.441   0.895   5.969
 5564SOL    HW217592   5.304   0.902   6.058
 5565SOL     OW17593   3.156   2.061   6.167
 5565SOL    HW117594   3.170   2.113   6.252
 5565SOL    HW217595   3.144   2.125   6.091
 5566SOL     OW17596   1.389   3.699   6.690
 5566SOL    HW117597   1.337   3.632   6.743
 5566SOL    HW217598   1.356   3.791   6.709
 5567SOL     OW17599   0.061   3.981   1.025
 5567SOL    HW117600   0.008   3.899   1.046
 5567SOL    HW217601   0.126   3.961   0.952
 5568SOL     OW17602   4.607   5.224   1.598
 5568SOL    HW117603   4.628   5.188   1.507
 5568SOL    HW217604   4.691   5.254   1.643
 5569SOL     OW17605   2.379   2.714   3.581
 5569SOL    HW117606   2.397   2.627   3.626
 5569SOL    HW217607   2.374   2.701   3.482
 5570SOL     OW17608   0.497   3.543   2.761
 5570SOL    HW117609   0.439   3.465   2.783
 5570SOL    HW217610   0.515   3.597   2.844
 5571SOL     OW17611   5.870   4.491   1.804
 5571SOL    HW117612   5.864   4.441   1.717
 5571SOL    HW217613   5.860   4.426   1.880
 5572SOL     OW17614   1.831   4.100   4.518
 5572SOL    HW117615   1.860   4.030   4.583
 5572SOL    HW217616   1.739   4.131   4.541
 5573SOL     OW17617   3.220   5.260   3.924
 5573SOL    HW117618   3.243   5.287   4.018
 5573SOL    HW217619   3.298   5.211   3.884
 5574SOL     OW17620   0.512   2.879   6.191
 5574SOL    HW117621   0.475   2.790   6.221
 5574SOL    HW217622   0.542   2.872   6.096
 5575SOL     OW17623   0.284   6.727   2.104
 5575SOL    HW117624   0.328   6.683   2.182
 5575SOL    HW217625   0.248   6.658   2.042
 5576SOL     OW17626   1.287   4.931   3.530
 5576SOL    HW117627   1.238   4.996   3.590
 5576SOL    HW217628   1.382   4.923   3.561
 5577SOL     OW17629   1.953   2.507   5.636
 5577SOL    HW117630   1.989   2.588   5.590
 5577SOL    HW217631   1.906   2.534   5.721
 5578SOL     OW17632   4.076   3.739   3.505
 5578SOL    HW117633   4.072   3.812   3.574
 5578SOL    HW217634   4.133   3.664   3.538
 5579SOL     OW17635   0.323   3.468   1.670
 5579SOL    HW117636   0.318   3.565   1.645
 5579SOL    HW217637   0.409   3.451   1.718
 5580SOL     OW17638   5.243   1.488   5.240
 5580SOL    HW117639   5.285   1.539   5.165
 5580SOL    HW217640   5.287   1.398   5.248
 5581SOL     OW17641   1.133   2.221   6.498
 5581SOL    HW117642   1.161   2.128   6.475
 5581SOL    HW217643   1.035   2.232   6.479
 5582SOL     OW17644   2.392   2.940   6.369
 5582SOL    HW117645   2.343   2.931   6.456
 5582SOL    HW217646   2.326   2.938   6.294
 5583SOL     OW17647   5.439   0.931   2.221
 5583SOL    HW117648   5.447   0.958   2.125
 5583SOL    HW217649   5.396   1.004   2.273
 5584SOL     OW17650   1.150   3.689   4.618
 5584SOL    HW117651   1.126   3.638   4.701
 5584SOL    HW217652   1.249   3.686   4.604
 5585SOL     OW17653   4.841   4.863   2.332
 5585SOL    HW117654   4.920   4.891   2.385
 5585SOL    HW217655   4.825   4.765   2.345
 5586SOL     OW17656   6.137   3.570   6.794
 5586SOL    HW117657   6.118   3.548   6.890
 5586SOL    HW217658   6.209   3.639   6.790
 5587SOL     OW17659   5.799   0.777   6.082
 5587SOL    HW117660   5.726   0.755   6.017
 5587SOL    HW217661   5.873   0.825   6.035
 5588SOL     OW17662   3.828   6.314   1.043
 5588SOL    HW117663   3.863   6.406   1.059
 5588SOL    HW217664   3.840   6.291   0.947
 5589SOL     OW17665   5.869   4.921   5.703
 5589SOL    HW117666   5.941   4.977   5.743
 5589SOL    HW217667   5.865   4.833   5.752
 5590SOL     OW17668   6.056   6.116   3.890
 5590SOL    HW117669   6.077   6.206   3.929
 5590SOL    HW217670   6.125   6.050   3.921
 5591SOL     OW17671   5.704   1.245   1.705
 5591SOL    HW117672   5.774   1.206   1.646
 5591SOL    HW217673   5.734   1.239   1.801
 5592SOL     OW17674   0.515   3.550   3.244
 5592SOL    HW117675   0.507   3.577   3.148
 5592SOL    HW217676   0.609   3.566   3.276
 5593SOL     OW17677   0.089   3.255   0.231
 5593SOL    HW117678   0.180   3.296   0.224
 5593SOL    HW217679   0.090   3.183   0.301
 5594SOL     OW17680   5.674   2.221   5.569
 5594SOL    HW117681   5.618   2.294   5.608
 5594SOL    HW217682   5.618   2.139   5.556
 5595SOL     OW17683   0.707   2.717   5.319
 5595SOL    HW117684   0.794   2.678   5.289
 5595SOL    HW217685   0.716   2.751   5.412
 5596SOL     OW17686   3.878   6.624   3.153
 5596SOL    HW117687   3.794   6.640   3.100
 5596SOL    HW217688   3.865   6.658   3.246
 5597SOL     OW17689   5.255   3.306   2.823
 5597SOL    HW117690   5.354   3.301   2.811
 5597SOL    HW217691   5.210   3.262   2.746
 5598SOL     OW17692   5.516   1.998   5.026
 5598SOL    HW117693   5.484   2.041   4.942
 5598SOL    HW217694   5.616   1.997   5.027
 5599SOL     OW17695   0.632   0.936   3.878
 5599SOL    HW117696   0.653   0.861   3.816
 5599SOL    HW217697   0.714   0.960   3.931
 5600SOL     OW17698   1.363   2.284   4.318
 5600SOL    HW117699   1.356   2.357   4.250
 5600SOL    HW217700   1.443   2.301   4.376
 5601SOL     OW17701   2.464   0.719   6.075
 5601SOL    HW117702   2.479   0.664   5.992
 5601SOL    HW217703   2.371   0.754   6.075
 5602SOL     OW17704   1.421   1.871   0.210
 5602SOL    HW117705   1.403   1.791   0.153
 5602SOL    HW217706   1.335   1.910   0.243
 5603SOL     OW17707   5.548   3.530   6.343
 5603SOL    HW117708   5.559   3.624   6.310
 5603SOL    HW217709   5.597   3.467   6.282
 5604SOL     OW17710   6.564   1.898   6.249
 5604SOL    HW117711   6.517   1.855   6.173
 5604SOL    HW217712   6.540   1.995   6.253
 5605SOL     OW17713   0.590   2.068   5.035
 5605SOL    HW117714   0.578   2.167   5.032
 5605SOL    HW217715   0.591   2.037   5.130
 5606SOL     OW17716   4.931   0.115   1.871
 5606SOL    HW117717   4.849   0.058   1.878
 5606SOL    HW217718   5.012   0.056   1.878
 5607SOL     OW17719   5.798   0.887   1.806
 5607SOL    HW117720   5.896   0.877   1.821
 5607SOL    HW217721   5.748   0.824   1.865
 5608SOL     OW17722   4.400   6.743   5.025
 5608SOL    HW117723   4.435   6.663   5.074
 5608SOL    HW217724   4.380   6.816   5.090
 5609SOL     OW17725   1.970   6.123   5.634
 5609SOL    HW117726   2.019   6.056   5.689
 5609SOL    HW217727   2.023   6.208   5.629
 5610SOL     OW17728   5.070   0.573   6.537
 5610SOL    HW117729   5.131   0.538   6.466
 5610SOL    HW217730   4.989   0.614   6.494
 5611SOL     OW17731   1.606   4.840   2.934
 5611SOL    HW117732   1.586   4.752   2.977
 5611SOL    HW217733   1.588   4.833   2.836
 5612SOL     OW17734   2.572   0.285   5.826
 5612SOL    HW117735   2.584   0.186   5.826
 5612SOL    HW217736   2.624   0.324   5.902
 5613SOL     OW17737   3.804   4.936   1.640
 5613SOL    HW117738   3.789   5.031   1.667
 5613SOL    HW217739   3.872   4.895   1.701
 5614SOL     OW17740   4.314   2.095   3.458
 5614SOL    HW117741   4.361   2.160   3.398
 5614SOL    HW217742   4.241   2.049   3.408
 5615SOL     OW17743   0.772   1.296   0.798
 5615SOL    HW117744   0.785   1.374   0.737
 5615SOL    HW217745   0.698   1.315   0.862
 5616SOL     OW17746   2.521   0.467   4.556
 5616SOL    HW117747   2.588   0.517   4.502
 5616SOL    HW217748   2.448   0.434   4.497
 5617SOL     OW17749   1.525   1.091   5.194
 5617SOL    HW117750   1.475   1.006   5.176
 5617SOL    HW217751   1.624   1.071   5.195
 5618SOL     OW17752   6.757   4.346   3.017
 5618SOL    HW117753   6.764   4.307   3.109
 5618SOL    HW217754   6.833   4.410   3.003
 5619SOL     OW17755   2.169   3.432   5.259
 5619SOL    HW117756   2.150   3.464   5.352
 5619SOL    HW217757   2.248   3.371   5.259
 5620SOL     OW17758   3.777   2.111   6.181
 5620SOL    HW117759   3.719   2.156   6.249
 5620SOL    HW217760   3.737   2.024   6.154
 5621SOL     OW17761   1.859   2.596   5.927
 5621SOL    HW117762   1.954   2.573   5.950
 5621SOL    HW217763   1.804   2.599   6.010
 5622SOL     OW17764   6.236   0.586   5.992
 5622SOL    HW117765   6.207   0.660   6.054
 5622SOL    HW217766   6.230   0.618   5.897
 5623SOL     OW17767   0.634   6.066   0.217
 5623SOL    HW117768   0.654   5.990   0.156
 5623SOL    HW217769   0.545   6.105   0.194
 5624SOL     OW17770   0.916   3.803   3.182
 5624SOL    HW117771   0.931   3.799   3.084
 5624SOL    HW217772   0.969   3.878   3.222
 5625SOL     OW17773   6.871   2.513   5.532
 5625SOL    HW117774   6.846   2.590   5.591
 5625SOL    HW217775   6.930   2.450   5.581
 5626SOL     OW17776   4.146   0.285   4.338
 5626SOL    HW117777   4.180   0.258   4.248
 5626SOL    HW217778   4.085   0.215   4.373
 5627SOL     OW17779   0.916   6.130   0.209
 5627SOL    HW117780   0.957   6.050   0.164
 5627SOL    HW217781   0.818   6.116   0.220
 5628SOL     OW17782   1.737   0.749   4.321
 5628SOL    HW117783   1.644   0.713   4.312
 5628SOL    HW217784   1.734   0.849   4.321
 5629SOL     OW17785   3.595   3.576   2.862
 5629SOL    HW117786   3.661   3.562   2.936
 5629SOL    HW217787   3.638   3.627   2.788
 5630SOL     OW17788   0.224   4.497   1.882
 5630SOL    HW117789   0.320   4.481   1.903
 5630SOL    HW217790   0.217   4.558   1.803
 5631SOL     OW17791   4.898   0.645   0.337
 5631SOL    HW117792   4.851   0.642   0.249
 5631SOL    HW217793   4.954   0.562   0.348
 5632SOL     OW17794   3.962   3.746   0.140
 5632SOL    HW117795   3.932   3.822   0.197
 5632SOL    HW217796   3.888   3.678   0.132
 5633SOL     OW17797   6.300   2.561   4.589
 5633SOL    HW117798   6.283   2.597   4.498
 5633SOL    HW217799   6.264   2.468   4.596
 5634SOL     OW17800   4.305   6.066   4.459
 5634SOL    HW117801   4.366   5.993   4.428
 5634SOL    HW217802   4.296   6.063   4.559
 5635SOL     OW17803   3.232   1.983   5.101
 5635SOL    HW117804   3.229   2.081   5.085
 5635SOL    HW217805   3.206   1.964   5.196
 5636SOL     OW17806   3.632   5.886   3.907
 5636SOL    HW117807   3.575   5.893   3.989
 5636SOL    HW217808   3.728   5.876   3.934
 5637SOL     OW17809   5.483   6.967   3.407
 5637SOL    HW117810   5.577   6.933   3.397
 5637SOL    HW217811   5.461   6.975   3.504
 5638SOL     OW17812   5.039   3.551   6.198
 5638SOL    HW117813   5.122   3.501   6.169
 5638SOL    HW217814   5.059   3.603   6.281
 5639SOL     OW17815   3.033   0.848   6.309
 5639SOL    HW117816   3.024   0.892   6.220
 5639SOL    HW217817   2.945   0.808   6.335
 5640SOL     OW17818   2.666   0.155   3.646
 5640SOL    HW117819   2.641   0.059   3.639
 5640SOL    HW217820   2.754   0.171   3.600
 5641SOL     OW17821   5.649   5.667   4.678
 5641SOL    HW117822   5.640   5.630   4.770
 5641SOL    HW217823   5.585   5.743   4.665
 5642SOL     OW17824   1.485   2.069   6.735
 5642SOL    HW117825   1.414   2.006   6.765
 5642SOL    HW217826   1.539   2.027   6.663
 5643SOL     OW17827   6.078   2.346   4.937
 5643SOL    HW117828   6.131   2.284   4.880
 5643SOL    HW217829   5.986   2.356   4.900
 5644SOL     OW17830   2.996   0.125   5.917
 5644SOL    HW117831   2.914   0.170   5.953
 5644SOL    HW217832   3.067   0.122   5.988
 5645SOL     OW17833   4.772   2.891   4.630
 5645SOL    HW117834   4.792   2.980   4.669
 5645SOL    HW217835   4.857   2.839   4.620
 5646SOL     OW17836   1.785   4.184   2.509
 5646SOL    HW117837   1.849   4.259   2.524
 5646SOL    HW217838   1.770   4.171   2.411
 5647SOL     OW17839   6.633   6.157   2.871
 5647SOL    HW117840   6.616   6.062   2.897
 5647SOL    HW217841   6.652   6.162   2.773
 5648SOL     OW17842   4.551   6.473   3.461
 5648SOL    HW117843   4.551   6.551   3.399
 5648SOL    HW217844   4.469   6.418   3.446
 5649SOL     OW17845   0.939   6.157   4.093
 5649SOL    HW117846   0.971   6.207   4.013
 5649SOL    HW217847   0.979   6.065   4.094
 5650SOL     OW17848   6.365   4.251   6.730
 5650SOL    HW117849   6.375   4.210   6.821
 5650SOL    HW217850   6.438   4.318   6.716
 5651SOL     OW17851   2.260   0.939   1.743
 5651SOL    HW117852   2.178   0.943   1.801
 5651SOL    HW217853   2.233   0.954   1.647
 5652SOL     OW17854   0.962   5.679   1.429
 5652SOL    HW117855   1.025   5.687   1.352
 5652SOL    HW217856   0.918   5.767   1.447
 5653SOL     OW17857   6.999   0.234   1.646
 5653SOL    HW117858   6.926   0.269   1.704
 5653SOL    HW217859   0.055   0.208   1.703
 5654SOL     OW17860   3.094   5.182   4.305
 5654SOL    HW117861   3.125   5.236   4.383
 5654SOL    HW217862   3.019   5.230   4.259
 5655SOL     OW17863   6.166   2.580   5.070
 5655SOL    HW117864   6.258   2.547   5.091
 5655SOL    HW217865   6.125   2.521   5.000
 5656SOL     OW17866   6.732   3.838   0.140
 5656SOL    HW117867   6.745   3.786   0.055
 5656SOL    HW217868   6.640   3.877   0.141
 5657SOL     OW17869   5.146   5.699   5.254
 5657SOL    HW117870   5.185   5.617   5.297
 5657SOL    HW217871   5.089   5.747   5.321
 5658SOL     OW17872   2.636   2.874   6.217
 5658SOL    HW117873   2.706   2.843   6.282
 5658SOL    HW217874   2.558   2.912   6.267
 5659SOL     OW17875   3.466   3.572   6.836
 5659SOL    HW117876   3.543   3.612   6.787
 5659SOL    HW217877   3.446   3.481   6.799
 5660SOL     OW17878   4.689   0.375   6.418
 5660SOL    HW117879   4.758   0.317   6.463
 5660SOL    HW217880   4.682   0.462   6.467
 5661SOL     OW17881   1.118   5.090   5.340
 5661SOL    HW117882   1.095   5.110   5.435
 5661SOL    HW217883   1.122   5.176   5.288
 5662SOL     OW17884   2.609   6.737   1.854
 5662SOL    HW117885   2.693   6.742   1.909
 5662SOL    HW217886   2.590   6.641   1.831
 5663SOL     OW17887   1.303   3.219   6.308
 5663SOL    HW117888   1.364   3.222   6.229
 5663SOL    HW217889   1.347   3.263   6.386
 5664SOL     OW17890   4.702   4.806   4.585
 5664SOL    HW117891   4.744   4.895   4.606
 5664SOL    HW217892   4.688   4.799   4.486
 5665SOL     OW17893   1.496   1.835   0.806
 5665SOL    HW117894   1.462   1.771   0.875
 5665SOL    HW217895   1.559   1.899   0.848
 5666SOL     OW17896   5.507   1.725   4.909
 5666SOL    HW117897   5.523   1.821   4.931
 5666SOL    HW217898   5.553   1.702   4.822
 5667SOL     OW17899   2.159   4.677   4.505
 5667SOL    HW117900   2.176   4.592   4.555
 5667SOL    HW217901   2.244   4.730   4.501
 5668SOL     OW17902   5.068   4.112   4.032
 5668SOL    HW117903   5.013   4.052   3.974
 5668SOL    HW217904   5.011   4.186   4.068
 5669SOL     OW17905   6.160   4.295   5.483
 5669SOL    HW117906   6.211   4.354   5.421
 5669SOL    HW217907   6.174   4.199   5.456
 5670SOL     OW17908   0.942   2.207   3.118
 5670SOL    HW117909   0.865   2.161   3.162
 5670SOL    HW217910   1.026   2.185   3.167
 5671SOL     OW17911   0.516   6.499   3.358
 5671SOL    HW117912   0.438   6.462   3.408
 5671SOL    HW217913   0.591   6.433   3.360
 5672SOL     OW17914   5.267   2.747   4.928
 5672SOL    HW117915   5.222   2.831   4.957
 5672SOL    HW217916   5.358   2.742   4.970
 5673SOL     OW17917   0.554   1.416   0.504
 5673SOL    HW117918   0.538   1.320   0.528
 5673SOL    HW217919   0.513   1.475   0.573
 5674SOL     OW17920   2.423   4.922   5.103
 5674SOL    HW117921   2.429   4.870   5.189
 5674SOL    HW217922   2.457   4.866   5.028
 5675SOL     OW17923   2.776   1.952   0.813
 5675SOL    HW117924   2.795   1.885   0.741
 5675SOL    HW217925   2.859   1.971   0.865
 5676SOL     OW17926   2.438   1.255   2.239
 5676SOL    HW117927   2.497   1.208   2.305
 5676SOL    HW217928   2.398   1.336   2.283
 5677SOL     OW17929   6.406   1.553   0.429
 5677SOL    HW117930   6.431   1.474   0.373
 5677SOL    HW217931   6.316   1.538   0.470
 5678SOL     OW17932   3.247   1.707   2.043
 5678SOL    HW117933   3.238   1.779   2.111
 5678SOL    HW217934   3.188   1.726   1.965
 5679SOL     OW17935   6.214   3.608   4.931
 5679SOL    HW117936   6.263   3.682   4.886
 5679SOL    HW217937   6.117   3.612   4.907
 5680SOL     OW17938   1.050   6.000   5.024
 5680SOL    HW117939   1.067   6.052   5.108
 5680SOL    HW217940   1.138   5.978   4.981
 5681SOL     OW17941   1.027   3.283   4.061
 5681SOL    HW117942   0.972   3.323   3.988
 5681SOL    HW217943   1.124   3.283   4.034
 5682SOL     OW17944   2.205   4.247   1.668
 5682SOL    HW117945   2.218   4.344   1.687
 5682SOL    HW217946   2.253   4.192   1.736
 5683SOL     OW17947   6.602   1.211   6.229
 5683SOL    HW117948   6.637   1.126   6.189
 5683SOL    HW217949   6.502   1.211   6.225
 5684SOL     OW17950   2.166   2.320   4.861
 5684SOL    HW117951   2.264   2.337   4.856
 5684SOL    HW217952   2.139   2.304   4.956
 5685SOL     OW17953   2.750   2.011   2.660
 5685SOL    HW117954   2.787   1.929   2.703
 5685SOL    HW217955   2.789   2.022   2.569
 5686SOL     OW17956   4.334   5.619   5.928
 5686SOL    HW117957   4.235   5.606   5.917
 5686SOL    HW217958   4.362   5.585   6.017
 5687SOL     OW17959   1.967   6.421   6.711
 5687SOL    HW117960   2.051   6.458   6.751
 5687SOL    HW217961   1.900   6.406   6.784
 5688SOL     OW17962   1.625   1.838   3.117
 5688SOL    HW117963   1.693   1.795   3.058
 5688SOL    HW217964   1.541   1.783   3.117
 5689SOL     OW17965   0.232   2.811   1.682
 5689SOL    HW117966   0.187   2.732   1.641
 5689SOL    HW217967   0.165   2.883   1.700
 5690SOL     OW17968   1.640   5.187   6.810
 5690SOL    HW117969   1.738   5.204   6.814
 5690SOL    HW217970   1.602   5.189   6.903
 5691SOL     OW17971   3.357   1.300   2.986
 5691SOL    HW117972   3.291   1.226   2.998
 5691SOL    HW217973   3.319   1.369   2.924
 5692SOL     OW17974   4.975   5.216   2.083
 5692SOL    HW117975   5.005   5.311   2.082
 5692SOL    HW217976   4.929   5.197   2.170
 5693SOL     OW17977   4.212   1.039   1.240
 5693SOL    HW117978   4.200   1.097   1.159
 5693SOL    HW217979   4.261   0.955   1.214
 5694SOL     OW17980   0.848   6.424   2.048
 5694SOL    HW117981   0.902   6.477   1.983
 5694SOL    HW217982   0.903   6.349   2.084
 5695SOL     OW17983   2.259   0.531   1.305
 5695SOL    HW117984   2.201   0.518   1.386
 5695SOL    HW217985   2.278   0.443   1.264
 5696SOL     OW17986   1.748   0.279   4.004
 5696SOL    HW117987   1.787   0.205   4.058
 5696SOL    HW217988   1.751   0.364   4.057
 5697SOL     OW17989   6.524   3.312   0.783
 5697SOL    HW117990   6.537   3.360   0.870
 5697SOL    HW217991   6.426   3.298   0.768
 5698SOL     OW17992   3.135   2.157   4.174
 5698SOL    HW117993   3.051   2.206   4.153
 5698SOL    HW217994   3.174   2.191   4.260
 5699SOL     OW17995   1.849   2.895   2.661
 5699SOL    HW117996   1.910   2.818   2.641
 5699SOL    HW217997   1.901   2.969   2.703
 5700SOL     OW17998   6.346   0.515   3.298
 5700SOL    HW117999   6.275   0.468   3.245
 5700SOL    HW218000   6.430   0.460   3.298
 5701SOL     OW18001   0.213   0.602   0.981
 5701SOL    HW118002   0.262   0.619   0.896
 5701SOL    HW218003   0.277   0.607   1.058
 5702SOL     OW18004   2.543   6.706   4.669
 5702SOL    HW118005   2.545   6.700   4.769
 5702SOL    HW218006   2.514   6.798   4.641
 5703SOL     OW18007   0.226   3.019   6.245
 5703SOL    HW118008   0.304   3.076   6.221
 5703SOL    HW218009   0.163   3.071   6.302
 5704SOL     OW18010   4.222   5.589   4.249
 5704SOL    HW118011   4.237   5.491   4.238
 5704SOL    HW218012   4.184   5.626   4.164
 5705SOL     OW18013   6.114   0.115   5.609
 5705SOL    HW118014   6.076   0.144   5.697
 5705SOL    HW218015   6.170   0.189   5.571
 5706SOL     OW18016   5.004   2.065   6.964
 5706SOL    HW118017   4.972   1.976   6.931
 5706SOL    HW218018   5.011   2.129   6.888
 5707SOL     OW18019   5.299   5.616   1.760
 5707SOL    HW118020   5.262   5.708   1.748
 5707SOL    HW218021   5.318   5.576   1.670
 5708SOL     OW18022   4.643   6.271   2.346
 5708SOL    HW118023   4.627   6.354   2.292
 5708SOL    HW218024   4.736   6.273   2.384
 5709SOL     OW18025   0.274   2.225   2.486
 5709SOL    HW118026   0.206   2.223   2.412
 5709SOL    HW218027   0.304   2.131   2.506
 5710SOL     OW18028   3.480   2.131   0.895
 5710SOL    HW118029   3.500   2.120   0.993
 5710SOL    HW218030   3.470   2.041   0.853
 5711SOL     OW18031   5.314   1.644   2.841
 5711SOL    HW118032   5.398   1.682   2.803
 5711SOL    HW218033   5.327   1.623   2.937
 5712SOL     OW18034   6.062   0.443   0.958
 5712SOL    HW118035   6.142   0.432   1.017
 5712SOL    HW218036   6.071   0.527   0.905
 5713SOL     OW18037   2.499   1.164   0.641
 5713SOL    HW118038   2.483   1.165   0.740
 5713SOL    HW218039   2.464   1.249   0.601
 5714SOL     OW18040   6.063   0.268   0.752
 5714SOL    HW118041   6.038   0.298   0.659
 5714SOL    HW218042   6.061   0.347   0.814
 5715SOL     OW18043   0.172   0.229   1.842
 5715SOL    HW118044   0.259   0.180   1.836
 5715SOL    HW218045   0.178   0.299   1.912
 5716SOL     OW18046   6.388   4.394   4.727
 5716SOL    HW118047   6.347   4.325   4.785
 5716SOL    HW218048   6.453   4.449   4.780
 5717SOL     OW18049   1.723   4.833   3.260
 5717SOL    HW118050   1.716   4.926   3.223
 5717SOL    HW218051   1.655   4.774   3.216
 5718SOL     OW18052   1.034   3.053   0.059
 5718SOL    HW118053   1.056   2.998   0.140
 5718SOL    HW218054   0.973   3.127   0.084
 5719SOL     OW18055   2.028   3.410   0.884
 5719SOL    HW118056   2.068   3.401   0.976
 5719SOL    HW218057   1.932   3.437   0.892
 5720SOL     OW18058   2.630   5.185   6.024
 5720SOL    HW118059   2.600   5.091   6.003
 5720SOL    HW218060   2.713   5.206   5.971
 5721SOL     OW18061   1.805   3.282   0.057
 5721SOL    HW118062   1.863   3.203   0.077
 5721SOL    HW218063   1.815   3.308   6.983
 5722SOL     OW18064   1.760   0.821   6.667
 5722SOL    HW118065   1.723   0.741   6.620
 5722SOL    HW218066   1.809   0.793   6.749
 5723SOL     OW18067   4.101   2.904   0.818
 5723SOL    HW118068   4.067   2.970   0.885
 5723SOL    HW218069   4.184   2.940   0.775
 5724SOL     OW18070   5.536   1.728   5.225
 5724SOL    HW118071   5.565   1.640   5.264
 5724SOL    HW218072   5.547   1.726   5.126
 5725SOL     OW18073   0.243   4.543   4.607
 5725SOL    HW118074   0.341   4.530   4.619
 5725SOL    HW218075   0.195   4.458   4.630
 5726SOL     OW18076   5.775   3.876   2.624
 5726SOL    HW118077   5.743   3.813   2.554
 5726SOL    HW218078   5.712   3.873   2.702
 5727SOL     OW18079   0.572   1.976   5.285
 5727SOL    HW118080   0.479   1.940   5.291
 5727SOL    HW218081   0.613   1.979   5.376
 5728SOL     OW18082   4.808   6.682   5.052
 5728SOL    HW118083   4.790   6.633   5.137
 5728SOL    HW218084   4.906   6.679   5.031
 5729SOL     OW18085   2.712   1.982   4.619
 5729SOL    HW118086   2.675   2.055   4.561
 5729SOL    HW218087   2.644   1.910   4.631
 5730SOL     OW18088   6.956   4.557   4.759
 5730SOL    HW118089   0.013   4.500   4.781
 5730SOL    HW218090   6.903   4.515   4.686
 5731SOL     OW18091   1.142   0.060   2.598
 5731SOL    HW118092   1.205   0.123   2.554
 5731SOL    HW218093   1.111   7.014   2.532
 5732SOL     OW18094   0.655   0.108   3.450
 5732SOL    HW118095   0.727   0.104   3.380
 5732SOL    HW218096   0.586   0.039   3.431
 5733SOL     OW18097   2.940   6.729   5.820
 5733SOL    HW118098   2.927   6.828   5.808
 5733SOL    HW218099   2.988   6.712   5.906
 5734SOL     OW18100   1.875   6.463   3.639
 5734SOL    HW118101   1.914   6.541   3.687
 5734SOL    HW218102   1.949   6.406   3.602
 5735SOL     OW18103   3.279   1.213   1.724
 5735SOL    HW118104   3.377   1.227   1.739
 5735SOL    HW218105   3.265   1.182   1.630
 5736SOL     OW18106   1.146   5.310   6.698
 5736SOL    HW118107   1.155   5.279   6.604
 5736SOL    HW218108   1.137   5.231   6.759
 5737SOL     OW18109   5.444   4.320   0.797
 5737SOL    HW118110   5.515   4.391   0.792
 5737SOL    HW218111   5.384   4.328   0.717
 5738SOL     OW18112   1.389   3.922   5.908
 5738SOL    HW118113   1.449   3.977   5.849
 5738SOL    HW218114   1.299   3.912   5.865
 5739SOL     OW18115   1.232   1.466   1.492
 5739SOL    HW118116   1.227   1.463   1.392
 5739SOL    HW218117   1.160   1.408   1.530
 5740SOL     OW18118   3.848   5.827   6.561
 5740SOL    HW118119   3.772   5.777   6.520
 5740SOL    HW218120   3.836   5.832   6.660
 5741SOL     OW18121   6.953   4.401   2.748
 5741SOL    HW118122   6.916   4.345   2.673
 5741SOL    HW218123   6.897   4.482   2.760
 5742SOL     OW18124   6.941   6.473   4.498
 5742SOL    HW118125   6.980   6.489   4.589
 5742SOL    HW218126   6.843   6.489   4.500
 5743SOL     OW18127   2.001   6.538   4.114
 5743SOL    HW118128   1.981   6.457   4.169
 5743SOL    HW218129   1.919   6.594   4.106
 5744SOL     OW18130   5.563   7.015   2.060
 5744SOL    HW118131   5.630   0.044   2.007
 5744SOL    HW218132   5.486   6.990   2.001
 5745SOL     OW18133   1.389   2.157   3.647
 5745SOL    HW118134   1.351   2.246   3.672
 5745SOL    HW218135   1.489   2.164   3.644
 5746SOL     OW18136   6.530   4.750   6.835
 5746SOL    HW118137   6.545   4.822   6.903
 5746SOL    HW218138   6.448   4.772   6.782
 5747SOL     OW18139   0.661   6.033   2.498
 5747SOL    HW118140   0.599   6.096   2.545
 5747SOL    HW218141   0.609   5.953   2.468
 5748SOL     OW18142   2.429   6.408   3.276
 5748SOL    HW118143   2.383   6.321   3.296
 5748SOL    HW218144   2.462   6.407   3.182
 5749SOL     OW18145   2.515   1.218   2.894
 5749SOL    HW118146   2.492   1.291   2.829
 5749SOL    HW218147   2.519   1.255   2.986
 5750SOL     OW18148   6.479   5.553   2.644
 5750SOL    HW118149   6.462   5.502   2.559
 5750SOL    HW218150   6.561   5.519   2.688
 5751SOL     OW18151   1.210   2.979   6.045
 5751SOL    HW118152   1.295   3.029   6.029
 5751SOL    HW218153   1.215   2.934   6.134
 5752SOL     OW18154   0.379   1.359   0.090
 5752SOL    HW118155   0.447   1.328   0.023
 5752SOL    HW218156   0.291   1.370   0.044
 5753SOL     OW18157   4.493   2.009   0.627
 5753SOL    HW118158   4.431   1.964   0.691
 5753SOL    HW218159   4.561   1.943   0.595
 5754SOL     OW18160   6.665   5.176   0.919
 5754SOL    HW118161   6.657   5.168   1.018
 5754SOL    HW218162   6.575   5.196   0.880
 5755SOL     OW18163   3.162   3.386   1.413
 5755SOL    HW118164   3.129   3.440   1.336
 5755SOL    HW218165   3.257   3.409   1.432
 5756SOL     OW18166   6.931   6.822   4.658
 5756SOL    HW118167   6.923   6.813   4.757
 5756SOL    HW218168   0.005   6.832   4.633
 5757SOL     OW18169   0.023   6.299   2.068
 5757SOL    HW118170   0.109   6.334   2.106
 5757SOL    HW218171   0.023   6.199   2.073
 5758SOL     OW18172   1.824   1.199   5.820
 5758SOL    HW118173   1.766   1.195   5.739
 5758SOL    HW218174   1.791   1.133   5.888
 5759SOL     OW18175   6.295   1.681   5.552
 5759SOL    HW118176   6.206   1.727   5.554
 5759SOL    HW218177   6.300   1.615   5.626
 5760SOL     OW18178   1.316   5.168   1.898
 5760SOL    HW118179   1.222   5.141   1.922
 5760SOL    HW218180   1.380   5.104   1.941
 5761SOL     OW18181   5.320   0.883   4.888
 5761SOL    HW118182   5.401   0.826   4.899
 5761SOL    HW218183   5.275   0.894   4.977
 5762SOL     OW18184   5.716   6.141   1.624
 5762SOL    HW118185   5.766   6.058   1.652
 5762SOL    HW218186   5.755   6.220   1.672
 5763SOL     OW18187   0.922   1.509   1.277
 5763SOL    HW118188   1.011   1.479   1.245
 5763SOL    HW218189   0.903   1.601   1.241
 5764SOL     OW18190   4.557   3.403   5.670
 5764SOL    HW118191   4.581   3.343   5.746
 5764SOL    HW218192   4.636   3.416   5.610
 5765SOL     OW18193   6.264   4.991   0.521
 5765SOL    HW118194   6.298   5.001   0.427
 5765SOL    HW218195   6.200   4.915   0.526
 5766SOL     OW18196   3.005   0.852   3.578
 5766SOL    HW118197   2.949   0.902   3.643
 5766SOL    HW218198   3.081   0.808   3.626
 5767SOL     OW18199   6.335   0.324   0.781
 5767SOL    HW118200   6.383   0.249   0.736
 5767SOL    HW218201   6.237   0.304   0.785
 5768SOL     OW18202   6.049   0.663   1.913
 5768SOL    HW118203   6.022   0.614   1.996
 5768SOL    HW218204   6.012   0.615   1.833
 5769SOL     OW18205   2.205   5.714   3.369
 5769SOL    HW118206   2.139   5.675   3.435
 5769SOL    HW218207   2.297   5.710   3.408
 5770SOL     OW18208   5.971   1.441   1.632
 5770SOL    HW118209   6.040   1.385   1.587
 5770SOL    HW218210   5.898   1.463   1.568
 5771SOL     OW18211   0.444   1.108   1.785
 5771SOL    HW118212   0.413   1.022   1.743
 5771SOL    HW218213   0.452   1.178   1.714
 5772SOL     OW18214   6.977   4.390   6.373
 5772SOL    HW118215   6.969   4.333   6.455
 5772SOL    HW218216   0.007   4.473   6.395
 5773SOL     OW18217   5.200   6.057   4.839
 5773SOL    HW118218   5.191   6.035   4.936
 5773SOL    HW218219   5.117   6.031   4.790
 5774SOL     OW18220   2.951   4.788   2.979
 5774SOL    HW118221   2.993   4.810   3.067
 5774SOL    HW218222   2.924   4.873   2.933
 5775SOL     OW18223   0.914   0.836   0.290
 5775SOL    HW118224   0.997   0.783   0.303
 5775SOL    HW218225   0.842   0.777   0.253
 5776SOL     OW18226   4.738   1.379   6.382
 5776SOL    HW118227   4.712   1.348   6.291
 5776SOL    HW218228   4.674   1.342   6.449
 5777SOL     OW18229   5.442   0.914   5.797
 5777SOL    HW118230   5.352   0.919   5.754
 5777SOL    HW218231   5.512   0.946   5.732
 5778SOL     OW18232   2.776   6.670   3.764
 5778SOL    HW118233   2.760   6.768   3.775
 5778SOL    HW218234   2.816   6.633   3.848
 5779SOL     OW18235   4.228   0.433   1.490
 5779SOL    HW118236   4.273   0.497   1.552
 5779SOL    HW218237   4.172   0.369   1.542
 5780SOL     OW18238   5.780   3.579   1.097
 5780SOL    HW118239   5.778   3.540   1.005
 5780SOL    HW218240   5.687   3.593   1.129
 5781SOL     OW18241   3.130   4.604   5.293
 5781SOL    HW118242   3.042   4.591   5.249
 5781SOL    HW218243   3.172   4.516   5.312
 5782SOL     OW18244   4.119   1.963   3.313
 5782SOL    HW118245   4.026   1.998   3.299
 5782SOL    HW218246   4.128   1.875   3.266
 5783SOL     OW18247   2.433   6.919   1.629
 5783SOL    HW118248   2.501   6.948   1.695
 5783SOL    HW218249   2.355   6.877   1.676
 5784SOL     OW18250   1.156   5.617   0.016
 5784SOL    HW118251   1.189   5.563   6.961
 5784SOL    HW218252   1.135   5.555   0.092
 5785SOL     OW18253   2.360   1.596   0.215
 5785SOL    HW118254   2.363   1.696   0.214
 5785SOL    HW218255   2.450   1.560   0.238
 5786SOL     OW18256   0.429   3.218   6.380
 5786SOL    HW118257   0.436   3.129   6.424
 5786SOL    HW218258   0.515   3.241   6.335
 5787SOL     OW18259   6.914   3.207   5.517
 5787SOL    HW118260   6.914   3.133   5.450
 5787SOL    HW218261   6.841   3.192   5.583
 5788SOL     OW18262   1.332   2.590   2.031
 5788SOL    HW118263   1.244   2.547   2.051
 5788SOL    HW218264   1.340   2.606   1.933
 5789SOL     OW18265   2.856   5.237   6.833
 5789SOL    HW118266   2.903   5.199   6.912
 5789SOL    HW218267   2.922   5.263   6.763
 5790SOL     OW18268   6.667   6.533   3.105
 5790SOL    HW118269   6.750   6.568   3.061
 5790SOL    HW218270   6.605   6.497   3.036
 5791SOL     OW18271   4.163   1.186   1.021
 5791SOL    HW118272   4.065   1.175   1.039
 5791SOL    HW218273   4.181   1.281   0.995
 5792SOL     OW18274   4.219   2.100   3.012
 5792SOL    HW118275   4.174   2.034   2.951
 5792SOL    HW218276   4.305   2.061   3.044
 5793SOL     OW18277   3.775   2.211   0.253
 5793SOL    HW118278   3.820   2.224   0.342
 5793SOL    HW218279   3.774   2.114   0.229
 5794SOL     OW18280   3.780   6.084   6.936
 5794SOL    HW118281   3.729   6.164   6.965
 5794SOL    HW218282   3.874   6.091   6.968
 5795SOL     OW18283   1.396   6.869   1.781
 5795SOL    HW118284   1.468   6.926   1.740
 5795SOL    HW218285   1.309   6.918   1.776
 5796SOL     OW18286   4.935   0.816   6.662
 5796SOL    HW118287   4.914   0.776   6.573
 5796SOL    HW218288   5.011   0.767   6.704
 5797SOL     OW18289   0.039   2.695   0.270
 5797SOL    HW118290   6.987   2.649   0.320
 5797SOL    HW218291   0.101   2.626   0.233
 5798SOL     OW18292   1.679   3.153   4.057
 5798SOL    HW118293   1.741   3.092   4.008
 5798SOL    HW218294   1.716   3.173   4.148
 5799SOL     OW18295   2.908   0.207   3.524
 5799SOL    HW118296   2.949   0.265   3.453
 5799SOL    HW218297   2.951   0.117   3.522
 5800SOL     OW18298   1.225   6.908   2.223
 5800SOL    HW118299   1.158   6.869   2.286
 5800SOL    HW218300   1.296   6.841   2.204
 5801SOL     OW18301   1.759   1.224   2.752
 5801SOL    HW118302   1.715   1.138   2.727
 5801SOL    HW218303   1.759   1.286   2.673
 5802SOL     OW18304   1.003   0.215   2.802
 5802SOL    HW118305   1.075   0.220   2.871
 5802SOL    HW218306   1.032   0.156   2.727
 5803SOL     OW18307   0.442   6.227   4.662
 5803SOL    HW118308   0.396   6.138   4.662
 5803SOL    HW218309   0.392   6.291   4.604
 5804SOL     OW18310   6.550   2.223   3.143
 5804SOL    HW118311   6.471   2.224   3.082
 5804SOL    HW218312   6.522   2.253   3.234
 5805SOL     OW18313   1.045   2.436   1.708
 5805SOL    HW118314   1.145   2.440   1.717
 5805SOL    HW218315   1.014   2.343   1.729
 5806SOL     OW18316   6.559   3.933   2.505
 5806SOL    HW118317   6.588   4.026   2.527
 5806SOL    HW218318   6.478   3.910   2.559
 5807SOL     OW18319   1.092   1.132   2.556
 5807SOL    HW118320   1.145   1.110   2.637
 5807SOL    HW218321   1.015   1.192   2.582
 5808SOL     OW18322   0.276   0.405   5.710
 5808SOL    HW118323   0.364   0.399   5.757
 5808SOL    HW218324   0.283   0.359   5.621
 5809SOL     OW18325   0.288   3.802   4.416
 5809SOL    HW118326   0.308   3.893   4.381
 5809SOL    HW218327   0.364   3.770   4.472
 5810SOL     OW18328   2.458   5.920   5.436
 5810SOL    HW118329   2.392   5.977   5.387
 5810SOL    HW218330   2.547   5.928   5.392
 5811SOL     OW18331   4.202   4.490   6.881
 5811SOL    HW118332   4.282   4.544   6.909
 5811SOL    HW218333   4.130   4.551   6.849
 5812SOL     OW18334   5.718   3.054   6.565
 5812SOL    HW118335   5.618   3.056   6.561
 5812SOL    HW218336   5.749   3.086   6.655
 5813SOL     OW18337   5.247   4.634   0.809
 5813SOL    HW118338   5.202   4.549   0.835
 5813SOL    HW218339   5.188   4.685   0.747
 5814SOL     OW18340   6.371   1.047   2.333
 5814SOL    HW118341   6.338   1.054   2.427
 5814SOL    HW218342   6.294   1.059   2.270
 5815SOL     OW18343   6.319   3.202   4.566
 5815SOL    HW118344   6.334   3.233   4.659
 5815SOL    HW218345   6.405   3.203   4.515
 5816SOL     OW18346   6.718   3.847   1.607
 5816SOL    HW118347   6.665   3.910   1.663
 5816SOL    HW218348   6.681   3.844   1.515
 5817SOL     OW18349   6.458   2.951   3.789
 5817SOL    HW118350   6.503   2.889   3.855
 5817SOL    HW218351   6.528   2.998   3.736
 5818SOL     OW18352   2.636   0.271   4.744
 5818SOL    HW118353   2.581   0.190   4.766
 5818SOL    HW218354   2.587   0.329   4.680
 5819SOL     OW18355   4.219   4.329   0.589
 5819SOL    HW118356   4.276   4.271   0.647
 5819SOL    HW218357   4.245   4.315   0.493
 5820SOL     OW18358   6.553   0.176   3.112
 5820SOL    HW118359   6.495   0.109   3.159
 5820SOL    HW218360   6.534   0.172   3.014
 5821SOL     OW18361   6.447   6.782   1.988
 5821SOL    HW118362   6.487   6.691   1.985
 5821SOL    HW218363   6.478   6.829   2.071
 5822SOL     OW18364   0.701   3.950   2.347
 5822SOL    HW118365   0.768   3.937   2.420
 5822SOL    HW218366   0.709   3.876   2.281
 5823SOL     OW18367   2.704   6.484   4.539
 5823SOL    HW118368   2.665   6.569   4.574
 5823SOL    HW218369   2.731   6.496   4.444
 5824SOL     OW18370   2.180   6.653   2.330
 5824SOL    HW118371   2.080   6.655   2.332
 5824SOL    HW218372   2.215   6.605   2.410
 5825SOL     OW18373   4.563   1.597   4.656
 5825SOL    HW118374   4.570   1.562   4.562
 5825SOL    HW218375   4.493   1.546   4.706
 5826SOL     OW18376   1.728   6.330   5.044
 5826SOL    HW118377   1.783   6.321   4.961
 5826SOL    HW218378   1.789   6.342   5.122
 5827SOL     OW18379   2.052   3.523   3.144
 5827SOL    HW118380   2.061   3.604   3.202
 5827SOL    HW218381   2.104   3.537   3.060
 5828SOL     OW18382   4.965   0.399   5.757
 5828SOL    HW118383   4.901   0.323   5.741
 5828SOL    HW218384   4.918   0.486   5.740
 5829SOL     OW18385   2.535   0.652   3.197
 5829SOL    HW118386   2.511   0.720   3.266
 5829SOL    HW218387   2.509   0.561   3.230
 5830SOL     OW18388   4.067   5.051   4.402
 5830SOL    HW118389   4.146   5.112   4.392
 5830SOL    HW218390   4.076   5.000   4.488
 5831SOL     OW18391   2.394   2.608   4.781
 5831SOL    HW118392   2.422   2.518   4.813
 5831SOL    HW218393   2.359   2.662   4.858
 5832SOL     OW18394   3.131   5.987   3.079
 5832SOL    HW118395   3.114   5.960   3.174
 5832SOL    HW218396   3.101   6.082   3.066
 5833SOL     OW18397   3.417   5.682   0.415
 5833SOL    HW118398   3.370   5.766   0.443
 5833SOL    HW218399   3.468   5.645   0.492
 5834SOL     OW18400   6.791   3.061   6.231
 5834SOL    HW118401   6.851   3.114   6.292
 5834SOL    HW218402   6.698   3.095   6.238
 5835SOL     OW18403   4.734   1.560   3.439
 5835SOL    HW118404   4.692   1.651   3.436
 5835SOL    HW218405   4.816   1.560   3.381
 5836SOL     OW18406   4.891   5.989   1.206
 5836SOL    HW118407   4.967   5.927   1.189
 5836SOL    HW218408   4.854   5.972   1.298
 5837SOL     OW18409   3.314   4.600   6.471
 5837SOL    HW118410   3.375   4.522   6.453
 5837SOL    HW218411   3.223   4.566   6.495
 5838SOL     OW18412   3.675   3.173   0.034
 5838SOL    HW118413   3.717   3.220   0.112
 5838SOL    HW218414   3.650   3.080   0.060
 5839SOL     OW18415   2.162   2.004   0.460
 5839SOL    HW118416   2.227   1.985   0.533
 5839SOL    HW218417   2.122   1.917   0.428
 5840SOL     OW18418   0.844   3.282   3.271
 5840SOL    HW118419   0.935   3.294   3.311
 5840SOL    HW218420   0.837   3.338   3.188
 5841SOL     OW18421   5.594   1.662   0.275
 5841SOL    HW118422   5.656   1.701   0.208
 5841SOL    HW218423   5.519   1.615   0.228
 5842SOL     OW18424   3.370   1.986   1.641
 5842SOL    HW118425   3.398   2.082   1.647
 5842SOL    HW218426   3.446   1.927   1.667
 5843SOL     OW18427   3.728   3.304   0.322
 5843SOL    HW118428   3.698   3.383   0.376
 5843SOL    HW218429   3.809   3.330   0.269
 5844SOL     OW18430   0.631   5.615   5.100
 5844SOL    HW118431   0.679   5.702   5.098
 5844SOL    HW218432   0.684   5.549   5.154
 5845SOL     OW18433   2.254   0.162   2.806
 5845SOL    HW118434   2.201   0.109   2.739
 5845SOL    HW218435   2.192   0.204   2.872
 5846SOL     OW18436   0.669   4.582   5.287
 5846SOL    HW118437   0.598   4.645   5.257
 5846SOL    HW218438   0.629   4.493   5.307
 5847SOL     OW18439   1.852   4.396   6.561
 5847SOL    HW118440   1.867   4.476   6.620
 5847SOL    HW218441   1.757   4.367   6.568
 5848SOL     OW18442   2.201   6.512   1.608
 5848SOL    HW118443   2.253   6.538   1.527
 5848SOL    HW218444   2.250   6.440   1.657
 5849SOL     OW18445   2.689   5.561   6.838
 5849SOL    HW118446   2.686   5.502   6.756
 5849SOL    HW218447   2.604   5.613   6.844
 5850SOL     OW18448   6.734   1.621   1.444
 5850SOL    HW118449   6.822   1.598   1.484
 5850SOL    HW218450   6.687   1.538   1.417
 5851SOL     OW18451   6.802   3.607   4.803
 5851SOL    HW118452   6.807   3.629   4.705
 5851SOL    HW218453   6.880   3.549   4.828
 5852SOL     OW18454   4.957   4.185   2.672
 5852SOL    HW118455   4.968   4.088   2.693
 5852SOL    HW218456   4.866   4.214   2.700
 5853SOL     OW18457   4.583   4.627   6.975
 5853SOL    HW118458   4.513   4.573   0.000
 5853SOL    HW218459   4.670   4.579   6.979
 5854SOL     OW18460   3.292   4.548   5.629
 5854SOL    HW118461   3.231   4.610   5.678
 5854SOL    HW218462   3.238   4.485   5.573
 5855SOL     OW18463   2.638   2.402   3.929
 5855SOL    HW118464   2.728   2.391   3.886
 5855SOL    HW218465   2.649   2.406   4.028
 5856SOL     OW18466   1.154   0.157   3.041
 5856SOL    HW118467   1.176   0.250   3.012
 5856SOL    HW218468   1.225   0.124   3.102
 5857SOL     OW18469   5.446   4.894   6.789
 5857SOL    HW118470   5.537   4.921   6.820
 5857SOL    HW218471   5.445   4.796   6.768
 5858SOL     OW18472   2.223   1.439   2.450
 5858SOL    HW118473   2.171   1.358   2.477
 5858SOL    HW218474   2.213   1.509   2.521
 5859SOL     OW18475   5.117   5.458   1.889
 5859SOL    HW118476   5.176   5.508   1.826
 5859SOL    HW218477   5.028   5.504   1.896
 5860SOL     OW18478   0.962   3.888   2.454
 5860SOL    HW118479   1.034   3.957   2.468
 5860SOL    HW218480   0.987   3.830   2.377
 5861SOL     OW18481   5.367   0.577   5.838
 5861SOL    HW118482   5.307   0.652   5.812
 5861SOL    HW218483   5.418   0.546   5.757
 5862SOL     OW18484   6.823   4.975   3.540
 5862SOL    HW118485   6.845   4.923   3.623
 5862SOL    HW218486   6.869   5.064   3.543
 5863SOL     OW18487   3.853   6.619   6.163
 5863SOL    HW118488   3.841   6.667   6.076
 5863SOL    HW218489   3.933   6.656   6.210
 5864SOL     OW18490   4.161   3.631   2.210
 5864SOL    HW118491   4.238   3.683   2.174
 5864SOL    HW218492   4.139   3.662   2.303
 5865SOL     OW18493   6.757   7.020   0.316
 5865SOL    HW118494   6.847   0.028   0.348
 5865SOL    HW218495   6.745   0.026   0.221
 5866SOL     OW18496   3.645   3.389   2.595
 5866SOL    HW118497   3.702   3.346   2.525
 5866SOL    HW218498   3.687   3.476   2.623
 5867SOL     OW18499   3.500   1.565   1.490
 5867SOL    HW118500   3.434   1.612   1.548
 5867SOL    HW218501   3.578   1.625   1.472
 5868SOL     OW18502   1.094   0.659   0.814
 5868SOL    HW118503   1.113   0.600   0.735
 5868SOL    HW218504   1.094   0.603   0.897
 5869SOL     OW18505   1.325   5.728   2.979
 5869SOL    HW118506   1.226   5.722   2.972
 5869SOL    HW218507   1.363   5.763   2.893
 5870SOL     OW18508   4.277   0.808   3.981
 5870SOL    HW118509   4.232   0.774   3.898
 5870SOL    HW218510   4.265   0.741   4.055
 5871SOL     OW18511   3.940   3.307   4.334
 5871SOL    HW118512   3.900   3.217   4.349
 5871SOL    HW218513   4.038   3.303   4.350
 5872SOL     OW18514   4.368   6.106   0.698
 5872SOL    HW118515   4.268   6.113   0.704
 5872SOL    HW218516   4.398   6.022   0.743
 5873SOL     OW18517   3.460   5.834   2.074
 5873SOL    HW118518   3.542   5.786   2.104
 5873SOL    HW218519   3.430   5.797   1.986
 5874SOL     OW18520   0.720   4.255   4.960
 5874SOL    HW118521   0.749   4.341   5.001
 5874SOL    HW218522   0.665   4.204   5.027
 5875SOL     OW18523   3.746   1.720   0.893
 5875SOL    HW118524   3.749   1.812   0.855
 5875SOL    HW218525   3.813   1.662   0.846
 5876SOL     OW18526   3.129   3.712   2.069
 5876SOL    HW118527   3.139   3.662   1.983
 5876SOL    HW218528   3.128   3.647   2.145
 5877SOL     OW18529   5.316   4.459   1.619
 5877SOL    HW118530   5.229   4.418   1.645
 5877SOL    HW218531   5.361   4.400   1.551
 5878SOL     OW18532   1.680   3.715   2.618
 5878SOL    HW118533   1.639   3.780   2.682
 5878SOL    HW218534   1.706   3.632   2.667
 5879SOL     OW18535   1.450   3.551   3.698
 5879SOL    HW118536   1.456   3.525   3.601
 5879SOL    HW218537   1.542   3.570   3.733
 5880SOL     OW18538   3.653   6.155   0.435
 5880SOL    HW118539   3.644   6.063   0.396
 5880SOL    HW218540   3.563   6.187   0.466
 5881SOL     OW18541   1.095   5.909   4.080
 5881SOL    HW118542   1.041   5.862   4.011
 5881SOL    HW218543   1.078   5.867   4.170
 5882SOL     OW18544   5.192   0.686   2.539
 5882SOL    HW118545   5.247   0.747   2.595
 5882SOL    HW218546   5.240   0.599   2.527
 5883SOL     OW18547   0.961   3.813   5.233
 5883SOL    HW118548   0.888   3.817   5.301
 5883SOL    HW218549   1.031   3.749   5.264
 5884SOL     OW18550   0.872   0.436   3.518
 5884SOL    HW118551   0.932   0.509   3.550
 5884SOL    HW218552   0.866   0.365   3.588
 5885SOL     OW18553   6.067   6.119   1.313
 5885SOL    HW118554   6.106   6.194   1.367
 5885SOL    HW218555   5.983   6.151   1.268
 5886SOL     OW18556   6.907   1.357   6.507
 5886SOL    HW118557   6.935   1.270   6.466
 5886SOL    HW218558   6.931   1.432   6.445
 5887SOL     OW18559   3.858   5.838   3.007
 5887SOL    HW118560   3.834   5.810   3.100
 5887SOL    HW218561   3.859   5.937   3.002
 5888SOL     OW18562   0.507   0.790   3.021
 5888SOL    HW118563   0.568   0.711   3.028
 5888SOL    HW218564   0.559   0.873   3.037
 5889SOL     OW18565   2.408   6.974   6.602
 5889SOL    HW118566   2.454   6.990   6.514
 5889SOL    HW218567   2.310   6.966   6.587
 5890SOL     OW18568   3.734   4.636   5.914
 5890SOL    HW118569   3.695   4.728   5.909
 5890SOL    HW218570   3.775   4.612   5.826
 5891SOL     OW18571   2.141   3.591   6.502
 5891SOL    HW118572   2.091   3.639   6.574
 5891SOL    HW218573   2.175   3.504   6.536
 5892SOL     OW18574   2.433   6.381   2.321
 5892SOL    HW118575   2.452   6.409   2.227
 5892SOL    HW218576   2.505   6.416   2.381
 5893SOL     OW18577   2.016   1.545   3.451
 5893SOL    HW118578   2.111   1.519   3.468
 5893SOL    HW218579   1.968   1.555   3.539
 5894SOL     OW18580   0.604   3.291   3.451
 5894SOL    HW118581   0.608   3.216   3.517
 5894SOL    HW218582   0.684   3.288   3.392
 5895SOL     OW18583   5.714   4.024   3.227
 5895SOL    HW118584   5.789   4.024   3.293
 5895SOL    HW218585   5.740   4.077   3.146
 5896SOL     OW18586   5.308   2.865   5.259
 5896SOL    HW118587   5.365   2.925   5.315
 5896SOL    HW218588   5.258   2.920   5.192
 5897SOL     OW18589   4.652   5.732   1.154
 5897SOL    HW118590   4.566   5.703   1.113
 5897SOL    HW218591   4.715   5.654   1.158
 5898SOL     OW18592   2.819   6.313   2.961
 5898SOL    HW118593   2.904   6.262   2.963
 5898SOL    HW218594   2.792   6.329   2.866
 5899SOL     OW18595   5.424   0.595   3.710
 5899SOL    HW118596   5.478   0.632   3.786
 5899SOL    HW218597   5.483   0.544   3.648
 5900SOL     OW18598   3.875   5.215   2.554
 5900SOL    HW118599   3.959   5.182   2.598
 5900SOL    HW218600   3.796   5.185   2.608
 5901SOL     OW18601   2.974   6.417   4.485
 5901SOL    HW118602   3.057   6.466   4.508
 5901SOL    HW218603   2.895   6.465   4.522
 5902SOL     OW18604   5.788   2.400   6.922
 5902SOL    HW118605   5.769   2.498   6.931
 5902SOL    HW218606   5.725   2.360   6.856
 5903SOL     OW18607   0.029   3.507   6.455
 5903SOL    HW118608   0.107   3.445   6.466
 5903SOL    HW218609   6.968   3.462   6.488
 5904SOL     OW18610   0.836   3.614   1.989
 5904SOL    HW118611   0.823   3.516   2.004
 5904SOL    HW218612   0.773   3.665   2.048
 5905SOL     OW18613   6.836   4.660   2.653
 5905SOL    HW118614   6.850   4.635   2.558
 5905SOL    HW218615   6.743   4.635   2.681
 5906SOL     OW18616   1.007   1.042   3.228
 5906SOL    HW118617   0.958   0.961   3.261
 5906SOL    HW218618   0.960   1.078   3.147
 5907SOL     OW18619   2.141   0.288   2.248
 5907SOL    HW118620   2.130   0.202   2.198
 5907SOL    HW218621   2.238   0.310   2.256
 5908SOL     OW18622   6.917   3.214   5.939
 5908SOL    HW118623   6.958   3.278   6.004
 5908SOL    HW218624   6.960   3.124   5.950
 5909SOL     OW18625   6.354   4.419   0.543
 5909SOL    HW118626   6.416   4.466   0.606
 5909SOL    HW218627   6.262   4.417   0.582
 5910SOL     OW18628   1.753   1.642   3.318
 5910SOL    HW118629   1.818   1.579   3.360
 5910SOL    HW218630   1.747   1.624   3.220
 5911SOL     OW18631   6.384   5.540   6.852
 5911SOL    HW118632   6.416   5.524   6.945
 5911SOL    HW218633   6.461   5.528   6.788
 5912SOL     OW18634   0.799   0.144   4.002
 5912SOL    HW118635   0.844   0.056   3.988
 5912SOL    HW218636   0.701   0.136   3.982
 5913SOL     OW18637   5.948   2.006   0.415
 5913SOL    HW118638   5.852   1.997   0.391
 5913SOL    HW218639   5.966   2.099   0.446
 5914SOL     OW18640   1.171   6.308   0.451
 5914SOL    HW118641   1.263   6.344   0.438
 5914SOL    HW218642   1.111   6.342   0.379
 5915SOL     OW18643   3.703   1.440   6.021
 5915SOL    HW118644   3.606   1.446   6.044
 5915SOL    HW218645   3.733   1.526   5.979
 5916SOL     OW18646   0.895   6.824   2.066
 5916SOL    HW118647   0.953   6.767   2.008
 5916SOL    HW218648   0.854   6.769   2.138
 5917SOL     OW18649   3.424   3.660   0.273
 5917SOL    HW118650   3.392   3.584   0.215
 5917SOL    HW218651   3.473   3.726   0.216
 5918SOL     OW18652   3.200   6.996   4.848
 5918SOL    HW118653   3.146   0.029   4.785
 5918SOL    HW218654   3.149   6.913   4.872
 5919SOL     OW18655   3.505   3.271   4.448
 5919SOL    HW118656   3.499   3.364   4.412
 5919SOL    HW218657   3.586   3.226   4.412
 5920SOL     OW18658   6.994   0.090   5.742
 5920SOL    HW118659   6.924   0.136   5.686
 5920SOL    HW218660   6.959   0.003   5.774
 5921SOL     OW18661   2.749   4.185   6.589
 5921SOL    HW118662   2.814   4.177   6.514
 5921SOL    HW218663   2.710   4.095   6.608
 5922SOL     OW18664   5.347   3.186   2.279
 5922SOL    HW118665   5.399   3.231   2.207
 5922SOL    HW218666   5.344   3.087   2.261
 5923SOL     OW18667   6.093   1.212   3.924
 5923SOL    HW118668   6.105   1.298   3.973
 5923SOL    HW218669   5.995   1.193   3.916
 5924SOL     OW18670   5.064   6.443   3.659
 5924SOL    HW118671   4.976   6.415   3.698
 5924SOL    HW218672   5.082   6.390   3.576
 5925SOL     OW18673   4.409   1.282   0.796
 5925SOL    HW118674   4.478   1.211   0.784
 5925SOL    HW218675   4.418   1.322   0.887
 5926SOL     OW18676   5.465   4.142   3.320
 5926SOL    HW118677   5.483   4.223   3.375
 5926SOL    HW218678   5.552   4.097   3.297
 5927SOL     OW18679   0.412   5.181   2.548
 5927SOL    HW118680   0.489   5.137   2.502
 5927SOL    HW218681   0.429   5.280   2.555
 5928SOL     OW18682   2.841   6.707   6.947
 5928SOL    HW118683   2.911   6.651   6.904
 5928SOL    HW218684   2.757   6.654   6.958
 5929SOL     OW18685   1.159   0.697   0.296
 5929SOL    HW118686   1.204   0.612   0.269
 5929SOL    HW218687   1.207   0.774   0.255
 5930SOL     OW18688   1.894   3.956   2.148
 5930SOL    HW118689   1.822   4.021   2.124
 5930SOL    HW218690   1.879   3.922   2.240
 5931SOL     OW18691   5.465   6.754   2.526
 5931SOL    HW118692   5.452   6.676   2.464
 5931SOL    HW218693   5.376   6.795   2.546
 5932SOL     OW18694   2.863   0.226   0.035
 5932SOL    HW118695   2.930   0.202   6.987
 5932SOL    HW218696   2.862   0.325   0.049
 5933SOL     OW18697   5.905   6.281   4.234
 5933SOL    HW118698   5.908   6.324   4.324
 5933SOL    HW218699   5.980   6.215   4.226
 5934SOL     OW18700   2.392   3.554   0.078
 5934SOL    HW118701   2.468   3.534   0.139
 5934SOL    HW218702   2.306   3.550   0.128
 5935SOL     OW18703   1.322   6.795   5.764
 5935SOL    HW118704   1.282   6.705   5.744
 5935SOL    HW218705   1.385   6.820   5.691
 5936SOL     OW18706   3.825   3.206   2.483
 5936SOL    HW118707   3.911   3.198   2.433
 5936SOL    HW218708   3.754   3.151   2.439
 5937SOL     OW18709   0.364   2.768   1.350
 5937SOL    HW118710   0.388   2.685   1.401
 5937SOL    HW218711   0.269   2.792   1.369
 5938SOL     OW18712   0.197   4.105   4.182
 5938SOL    HW118713   0.202   4.204   4.192
 5938SOL    HW218714   0.113   4.080   4.134
 5939SOL     OW18715   3.674   1.385   5.545
 5939SOL    HW118716   3.588   1.350   5.580
 5939SOL    HW218717   3.702   1.466   5.597
 5940SOL     OW18718   4.730   5.578   1.512
 5940SOL    HW118719   4.691   5.586   1.603
 5940SOL    HW218720   4.801   5.508   1.512
 5941SOL     OW18721   0.114   2.134   3.038
 5941SOL    HW118722   0.175   2.203   2.998
 5941SOL    HW218723   0.100   2.060   2.973
 5942SOL     OW18724   4.960   2.860   6.217
 5942SOL    HW118725   4.861   2.854   6.222
 5942SOL    HW218726   4.986   2.951   6.184
 5943SOL     OW18727   2.464   4.502   1.720
 5943SOL    HW118728   2.371   4.538   1.724
 5943SOL    HW218729   2.516   4.536   1.799
 5944SOL     OW18730   6.256   2.974   5.474
 5944SOL    HW118731   6.207   2.997   5.391
 5944SOL    HW218732   6.243   3.046   5.542
 5945SOL     OW18733   6.541   6.862   4.818
 5945SOL    HW118734   6.578   6.816   4.899
 5945SOL    HW218735   6.515   6.794   4.750
 5946SOL     OW18736   2.212   3.926   6.507
 5946SOL    HW118737   2.177   4.017   6.487
 5946SOL    HW218738   2.222   3.875   6.422
 5947SOL     OW18739   3.869   3.248   4.695
 5947SOL    HW118740   3.819   3.187   4.634
 5947SOL    HW218741   3.827   3.247   4.785
 5948SOL     OW18742   5.024   3.434   1.537
 5948SOL    HW118743   5.113   3.406   1.502
 5948SOL    HW218744   4.978   3.356   1.578
 5949SOL     OW18745   0.583   4.358   2.996
 5949SOL    HW118746   0.529   4.355   3.081
 5949SOL    HW218747   0.676   4.387   3.017
 5950SOL     OW18748   3.879   0.333   4.768
 5950SOL    HW118749   3.815   0.347   4.843
 5950SOL    HW218750   3.829   0.330   4.682
 5951SOL     OW18751   6.851   4.202   6.597
 5951SOL    HW118752   6.858   4.275   6.665
 5951SOL    HW218753   6.757   4.197   6.562
 5952SOL     OW18754   4.196   4.711   1.598
 5952SOL    HW118755   4.245   4.717   1.685
 5952SOL    HW218756   4.124   4.642   1.604
 5953SOL     OW18757   6.917   3.213   5.193
 5953SOL    HW118758   6.941   3.121   5.225
 5953SOL    HW218759   6.987   3.278   5.223
 5954SOL     OW18760   1.853   5.745   3.941
 5954SOL    HW118761   1.819   5.731   4.034
 5954SOL    HW218762   1.776   5.753   3.878
 5955SOL     OW18763   5.151   3.449   0.287
 5955SOL    HW118764   5.168   3.442   0.385
 5955SOL    HW218765   5.155   3.358   0.246
 5956SOL     OW18766   5.501   2.745   5.075
 5956SOL    HW118767   5.558   2.671   5.110
 5956SOL    HW218768   5.455   2.791   5.152
 5957SOL     OW18769   6.960   1.302   3.540
 5957SOL    HW118770   6.983   1.389   3.583
 5957SOL    HW218771   6.873   1.268   3.578
 5958SOL     OW18772   3.136   6.633   3.207
 5958SOL    HW118773   3.159   6.607   3.300
 5958SOL    HW218774   3.043   6.605   3.186
 5959SOL     OW18775   5.257   2.148   3.207
 5959SOL    HW118776   5.206   2.145   3.292
 5959SOL    HW218777   5.355   2.152   3.227
 5960SOL     OW18778   4.201   0.793   6.032
 5960SOL    HW118779   4.139   0.757   6.102
 5960SOL    HW218780   4.284   0.738   6.028
 5961SOL     OW18781   3.043   2.155   3.565
 5961SOL    HW118782   3.020   2.063   3.597
 5961SOL    HW218783   2.990   2.176   3.483
 5962SOL     OW18784   4.861   5.522   0.130
 5962SOL    HW118785   4.776   5.542   0.178
 5962SOL    HW218786   4.938   5.538   0.191
 5963SOL     OW18787   2.519   4.125   0.504
 5963SOL    HW118788   2.538   4.037   0.462
 5963SOL    HW218789   2.452   4.175   0.449
 5964SOL     OW18790   2.565   6.596   2.755
 5964SOL    HW118791   2.642   6.649   2.719
 5964SOL    HW218792   2.499   6.659   2.796
 5965SOL     OW18793   2.186   0.390   0.507
 5965SOL    HW118794   2.171   0.465   0.443
 5965SOL    HW218795   2.262   0.333   0.475
 5966SOL     OW18796   2.964   1.730   5.242
 5966SOL    HW118797   2.917   1.667   5.304
 5966SOL    HW218798   2.921   1.820   5.248
 5967SOL     OW18799   4.463   2.142   4.838
 5967SOL    HW118800   4.555   2.167   4.869
 5967SOL    HW218801   4.467   2.061   4.780
 5968SOL     OW18802   5.889   2.778   1.773
 5968SOL    HW118803   5.826   2.838   1.723
 5968SOL    HW218804   5.982   2.813   1.763
 5969SOL     OW18805   5.260   0.527   0.481
 5969SOL    HW118806   5.228   0.531   0.576
 5969SOL    HW218807   5.298   0.437   0.463
 5970SOL     OW18808   0.302   3.443   0.703
 5970SOL    HW118809   0.346   3.482   0.783
 5970SOL    HW218810   0.204   3.433   0.720
 5971SOL     OW18811   6.750   6.519   4.019
 5971SOL    HW118812   6.776   6.454   3.948
 5971SOL    HW218813   6.824   6.529   4.085
 5972SOL     OW18814   6.009   5.133   0.583
 5972SOL    HW118815   6.014   5.210   0.519
 5972SOL    HW218816   6.101   5.104   0.609
 5973SOL     OW18817   2.684   1.484   2.416
 5973SOL    HW118818   2.667   1.494   2.514
 5973SOL    HW218819   2.756   1.416   2.402
 5974SOL     OW18820   5.450   1.427   4.988
 5974SOL    HW118821   5.364   1.384   4.963
 5974SOL    HW218822   5.466   1.507   4.931
 5975SOL     OW18823   4.177   4.948   1.442
 5975SOL    HW118824   4.215   4.883   1.508
 5975SOL    HW218825   4.243   5.022   1.427
 5976SOL     OW18826   1.905   3.703   5.362
 5976SOL    HW118827   1.813   3.696   5.399
 5976SOL    HW218828   1.921   3.629   5.297
 5977SOL     OW18829   6.802   4.571   0.552
 5977SOL    HW118830   6.802   4.569   0.652
 5977SOL    HW218831   6.820   4.664   0.520
 5978SOL     OW18832   3.067   3.693   6.226
 5978SOL    HW118833   3.099   3.769   6.283
 5978SOL    HW218834   2.968   3.699   6.214
 5979SOL     OW18835   6.212   0.293   1.686
 5979SOL    HW118836   6.234   0.387   1.660
 5979SOL    HW218837   6.282   0.259   1.749
 5980SOL     OW18838   2.825   2.892   1.160
 5980SOL    HW118839   2.863   2.959   1.097
 5980SOL    HW218840   2.898   2.837   1.199
 5981SOL     OW18841   2.846   1.596   0.717
 5981SOL    HW118842   2.900   1.533   0.774
 5981SOL    HW218843   2.756   1.609   0.758
 5982SOL     OW18844   5.009   2.944   1.124
 5982SOL    HW118845   4.996   3.016   1.056
 5982SOL    HW218846   5.106   2.935   1.144
 5983SOL     OW18847   0.188   0.784   3.623
 5983SOL    HW118848   0.189   0.787   3.523
 5983SOL    HW218849   0.187   0.876   3.660
 5984SOL     OW18850   6.314   6.493   4.442
 5984SOL    HW118851   6.217   6.494   4.464
 5984SOL    HW218852   6.326   6.501   4.343
 5985SOL     OW18853   6.428   3.153   2.290
 5985SOL    HW118854   6.507   3.162   2.350
 5985SOL    HW218855   6.414   3.238   2.240
 5986SOL     OW18856   4.019   3.326   3.939
 5986SOL    HW118857   3.946   3.394   3.927
 5986SOL    HW218858   4.035   3.279   3.853
 5987SOL     OW18859   0.349   6.018   5.572
 5987SOL    HW118860   0.440   6.011   5.531
 5987SOL    HW218861   0.358   6.028   5.671
 5988SOL     OW18862   0.630   2.691   6.799
 5988SOL    HW118863   0.701   2.630   6.763
 5988SOL    HW218864   0.632   2.778   6.749
 5989SOL     OW18865   0.613   6.346   6.132
 5989SOL    HW118866   0.648   6.369   6.223
 5989SOL    HW218867   0.688   6.313   6.074
 5990SOL     OW18868   2.577   4.596   1.970
 5990SOL    HW118869   2.676   4.604   1.960
 5990SOL    HW218870   2.552   4.613   2.066
 5991SOL     OW18871   5.017   0.397   0.363
 5991SOL    HW118872   5.116   0.408   0.367
 5991SOL    HW218873   4.984   0.359   0.450
 5992SOL     OW18874   3.847   6.011   2.544
 5992SOL    HW118875   3.853   5.987   2.447
 5992SOL    HW218876   3.789   5.945   2.592
 5993SOL     OW18877   5.724   1.741   0.040
 5993SOL    HW118878   5.707   1.729   6.964
 5993SOL    HW218879   5.815   1.708   0.062
 5994SOL     OW18880   6.831   3.437   6.919
 5994SOL    HW118881   6.758   3.491   6.877
 5994SOL    HW218882   6.920   3.476   6.894
 5995SOL     OW18883   4.947   3.628   1.329
 5995SOL    HW118884   4.884   3.685   1.380
 5995SOL    HW218885   4.967   3.545   1.382
 5996SOL     OW18886   2.599   6.131   1.607
 5996SOL    HW118887   2.671   6.200   1.617
 5996SOL    HW218888   2.574   6.096   1.697
 5997SOL     OW18889   6.548   0.508   4.105
 5997SOL    HW118890   6.548   0.588   4.044
 5997SOL    HW218891   6.573   0.426   4.054
 5998SOL     OW18892   6.372   5.905   6.990
 5998SOL    HW118893   6.444   5.851   6.947
 5998SOL    HW218894   6.395   5.919   0.064
 5999SOL     OW18895   5.286   3.334   1.521
 5999SOL    HW118896   5.364   3.283   1.485
 5999SOL    HW218897   5.281   3.322   1.620
 6000SOL     OW18898   0.646   3.882   1.184
 6000SOL    HW118899   0.564   3.887   1.242
 6000SOL    HW218900   0.679   3.788   1.180
 6001SOL     OW18901   6.025   5.373   5.910
 6001SOL    HW118902   6.119   5.408   5.905
 6001SOL    HW218903   5.984   5.374   5.819
 6002SOL     OW18904   5.534   4.992   5.247
 6002SOL    HW118905   5.614   5.010   5.304
 6002SOL    HW218906   5.560   4.933   5.170
 6003SOL     OW18907   2.475   2.339   4.832
 6003SOL    HW118908   2.573   2.358   4.830
 6003SOL    HW218909   2.458   2.248   4.793
 6004SOL     OW18910   5.635   2.502   4.322
 6004SOL    HW118911   5.650   2.599   4.341
 6004SOL    HW218912   5.643   2.450   4.407
 6005SOL     OW18913   4.355   4.070   6.501
 6005SOL    HW118914   4.308   4.069   6.413
 6005SOL    HW218915   4.394   4.160   6.517
 6006SOL     OW18916   3.543   5.994   0.002
 6006SOL    HW118917   3.450   6.021   6.997
 6006SOL    HW218918   3.603   5.997   6.945
 6007SOL     OW18919   2.261   6.072   4.881
 6007SOL    HW118920   2.203   6.096   4.959
 6007SOL    HW218921   2.248   6.139   4.809
 6008SOL     OW18922   2.758   3.862   6.452
 6008SOL    HW118923   2.677   3.917   6.471
 6008SOL    HW218924   2.836   3.899   6.503
 6009SOL     OW18925   4.089   5.219   2.746
 6009SOL    HW118926   4.115   5.293   2.684
 6009SOL    HW218927   4.048   5.258   2.829
 6010SOL     OW18928   0.535   4.739   4.188
 6010SOL    HW118929   0.478   4.691   4.254
 6010SOL    HW218930   0.591   4.673   4.138
 6011SOL     OW18931   6.130   1.681   2.340
 6011SOL    HW118932   6.148   1.583   2.333
 6011SOL    HW218933   6.034   1.696   2.362
 6012SOL     OW18934   6.996   0.408   6.223
 6012SOL    HW118935   6.931   0.343   6.183
 6012SOL    HW218936   0.066   0.385   6.192
 6013SOL     OW18937   6.091   1.531   2.081
 6013SOL    HW118938   6.044   1.556   1.996
 6013SOL    HW218939   6.168   1.593   2.095
 6014SOL     OW18940   2.986   3.760   3.793
 6014SOL    HW118941   2.950   3.709   3.871
 6014SOL    HW218942   3.037   3.839   3.826
 6015SOL     OW18943   6.142   0.683   4.066
 6015SOL    HW118944   6.167   0.668   4.162
 6015SOL    HW218945   6.225   0.693   4.011
 6016SOL     OW18946   4.190   1.896   4.267
 6016SOL    HW118947   4.218   1.932   4.355
 6016SOL    HW218948   4.256   1.827   4.236
 6017SOL     OW18949   0.961   1.381   5.757
 6017SOL    HW118950   1.045   1.423   5.791
 6017SOL    HW218951   0.980   1.332   5.672
 6018SOL     OW18952   2.912   1.087   4.180
 6018SOL    HW118953   2.967   1.144   4.119
 6018SOL    HW218954   2.826   1.133   4.200
 6019SOL     OW18955   6.519   4.440   6.353
 6019SOL    HW118956   6.474   4.483   6.431
 6019SOL    HW218957   6.508   4.341   6.359
 6020SOL     OW18958   0.915   4.981   5.843
 6020SOL    HW118959   0.825   4.947   5.869
 6020SOL    HW218960   0.925   5.076   5.874
 6021SOL     OW18961   6.031   6.964   3.352
 6021SOL    HW118962   6.053   6.867   3.343
 6021SOL    HW218963   6.038   6.992   3.448
 6022SOL     OW18964   6.492   2.690   1.438
 6022SOL    HW118965   6.551   2.697   1.519
 6022SOL    HW218966   6.549   2.689   1.356
 6023SOL     OW18967   3.840   6.865   1.878
 6023SOL    HW118968   3.824   6.945   1.820
 6023SOL    HW218969   3.934   6.833   1.866
 6024SOL     OW18970   1.248   5.858   6.921
 6024SOL    HW118971   1.189   5.782   6.949
 6024SOL    HW218972   1.223   5.940   6.973
 6025SOL     OW18973   3.069   0.297   4.914
 6025SOL    HW118974   3.152   0.299   4.970
 6025SOL    HW218975   3.088   0.252   4.827
 6026SOL     OW18976   5.588   6.284   4.358
 6026SOL    HW118977   5.688   6.283   4.359
 6026SOL    HW218978   5.554   6.209   4.415
 6027SOL     OW18979   5.171   4.846   6.319
 6027SOL    HW118980   5.257   4.808   6.285
 6027SOL    HW218981   5.132   4.784   6.387
 6028SOL     OW18982   5.762   5.197   6.097
 6028SOL    HW118983   5.676   5.185   6.146
 6028SOL    HW218984   5.815   5.112   6.101
 6029SOL     OW18985   3.015   0.988   2.754
 6029SOL    HW118986   2.937   1.030   2.801
 6029SOL    HW218987   3.097   0.998   2.811
 6030SOL     OW18988   5.966   2.947   4.285
 6030SOL    HW118989   5.976   3.045   4.271
 6030SOL    HW218990   5.915   2.907   4.208
 6031SOL     OW18991   0.067   6.243   5.299
 6031SOL    HW118992   7.018   6.239   5.228
 6031SOL    HW218993   0.140   6.304   5.269
 6032SOL     OW18994   3.890   6.494   3.627
 6032SOL    HW118995   3.837   6.454   3.553
 6032SOL    HW218996   3.886   6.594   3.621
 6033SOL     OW18997   1.284   1.331   2.440
 6033SOL    HW118998   1.230   1.256   2.478
 6033SOL    HW218999   1.245   1.418   2.471
 6034SOL     OW19000   0.508   6.723   1.071
 6034SOL    HW119001   0.571   6.718   0.993
 6034SOL    HW219002   0.552   6.769   1.147
 6035SOL     OW19003   2.651   0.503   2.118
 6035SOL    HW119004   2.663   0.540   2.210
 6035SOL    HW219005   2.637   0.404   2.123
 6036SOL     OW19006   6.607   3.422   1.020
 6036SOL    HW119007   6.551   3.477   1.082
 6036SOL    HW219008   6.680   3.377   1.072
 6037SOL     OW19009   4.867   1.603   6.388
 6037SOL    HW119010   4.834   1.509   6.398
 6037SOL    HW219011   4.805   1.654   6.329
 6038SOL     OW19012   1.383   1.457   6.175
 6038SOL    HW119013   1.285   1.446   6.192
 6038SOL    HW219014   1.423   1.368   6.154
 6039SOL     OW19015   3.768   3.686   3.604
 6039SOL    HW119016   3.848   3.741   3.629
 6039SOL    HW219017   3.707   3.741   3.547
 6040SOL     OW19018   0.104   1.665   0.685
 6040SOL    HW119019   0.069   1.725   0.613
 6040SOL    HW219020   0.152   1.588   0.643
 6041SOL     OW19021   2.379   3.733   5.788
 6041SOL    HW119022   2.419   3.824   5.781
 6041SOL    HW219023   2.381   3.703   5.884
 6042SOL     OW19024   3.207   5.645   4.366
 6042SOL    HW119025   3.110   5.669   4.369
 6042SOL    HW219026   3.233   5.602   4.453
 6043SOL     OW19027   2.511   0.490   2.927
 6043SOL    HW119028   2.431   0.489   2.987
 6043SOL    HW219029   2.542   0.396   2.912
 6044SOL     OW19030   0.596   3.268   0.950
 6044SOL    HW119031   0.587   3.169   0.939
 6044SOL    HW219032   0.593   3.312   0.861
 6045SOL     OW19033   5.684   1.815   3.226
 6045SOL    HW119034   5.705   1.908   3.257
 6045SOL    HW219035   5.666   1.815   3.128
 6046SOL     OW19036   3.437   2.875   3.060
 6046SOL    HW119037   3.376   2.841   3.132
 6046SOL    HW219038   3.410   2.968   3.034
 6047SOL     OW19039   6.959   1.612   0.339
 6047SOL    HW119040   6.989   1.577   0.250
 6047SOL    HW219041   6.915   1.538   0.390
 6048SOL     OW19042   5.778   5.954   3.275
 6048SOL    HW119043   5.874   5.975   3.255
 6048SOL    HW219044   5.730   6.037   3.301
 6049SOL     OW19045   4.691   4.759   6.222
 6049SOL    HW119046   4.680   4.797   6.130
 6049SOL    HW219047   4.611   4.704   6.245
 6050SOL     OW19048   2.876   6.022   2.320
 6050SOL    HW119049   2.807   5.975   2.266
 6050SOL    HW219050   2.964   6.020   2.272
 6051SOL     OW19051   0.483   1.493   3.125
 6051SOL    HW119052   0.570   1.444   3.118
 6051SOL    HW219053   0.459   1.532   3.036
 6052SOL     OW19054   5.134   5.503   0.564
 6052SOL    HW119055   5.087   5.591   0.574
 6052SOL    HW219056   5.075   5.430   0.596
 6053SOL     OW19057   4.272   2.631   5.904
 6053SOL    HW119058   4.345   2.598   5.963
 6053SOL    HW219059   4.197   2.665   5.961
 6054SOL     OW19060   3.992   4.349   0.893
 6054SOL    HW119061   4.075   4.331   0.840
 6054SOL    HW219062   3.949   4.434   0.861
 6055SOL     OW19063   2.871   3.913   1.002
 6055SOL    HW119064   2.926   3.923   0.919
 6055SOL    HW219065   2.791   3.973   0.997
 6056SOL     OW19066   5.247   5.633   3.245
 6056SOL    HW119067   5.254   5.568   3.321
 6056SOL    HW219068   5.198   5.714   3.275
 6057SOL     OW19069   5.234   0.600   4.332
 6057SOL    HW119070   5.180   0.516   4.324
 6057SOL    HW219071   5.331   0.577   4.340
 6058SOL     OW19072   6.508   2.860   5.811
 6058SOL    HW119073   6.537   2.952   5.838
 6058SOL    HW219074   6.470   2.812   5.890
 6059SOL     OW19075   4.125   2.676   0.338
 6059SOL    HW119076   4.034   2.687   0.380
 6059SOL    HW219077   4.124   2.597   0.277
 6060SOL     OW19078   2.332   3.254   0.027
 6060SOL    HW119079   2.398   3.233   6.977
 6060SOL    HW219080   2.330   3.352   0.043
 6061SOL     OW19081   3.436   4.501   6.782
 6061SOL    HW119082   3.475   4.428   6.838
 6061SOL    HW219083   3.434   4.473   6.686
 6062SOL     OW19084   2.198   2.098   6.524
 6062SOL    HW119085   2.145   2.137   6.450
 6062SOL    HW219086   2.183   2.150   6.608
 6063SOL     OW19087   4.173   3.794   6.111
 6063SOL    HW119088   4.215   3.753   6.030
 6063SOL    HW219089   4.173   3.728   6.186
 6064SOL     OW19090   6.215   5.222   0.952
 6064SOL    HW119091   6.229   5.126   0.926
 6064SOL    HW219092   6.300   5.273   0.939
 6065SOL     OW19093   1.725   0.043   1.874
 6065SOL    HW119094   1.746   0.009   1.783
 6065SOL    HW219095   1.748   0.141   1.880
 6066SOL     OW19096   5.162   5.986   3.557
 6066SOL    HW119097   5.147   5.951   3.465
 6066SOL    HW219098   5.248   5.949   3.593
 6067SOL     OW19099   6.366   6.362   6.052
 6067SOL    HW119100   6.427   6.360   5.974
 6067SOL    HW219101   6.411   6.406   6.130
 6068SOL     OW19102   4.635   2.365   4.238
 6068SOL    HW119103   4.598   2.438   4.181
 6068SOL    HW219104   4.600   2.373   4.331
 6069SOL     OW19105   0.136   4.216   5.780
 6069SOL    HW119106   0.185   4.207   5.867
 6069SOL    HW219107   0.151   4.134   5.725
 6070SOL     OW19108   1.797   1.478   0.797
 6070SOL    HW119109   1.868   1.539   0.832
 6070SOL    HW219110   1.782   1.496   0.699
 6071SOL     OW19111   6.375   1.271   5.839
 6071SOL    HW119112   6.374   1.249   5.742
 6071SOL    HW219113   6.469   1.280   5.871
 6072SOL     OW19114   0.073   2.862   6.782
 6072SOL    HW119115   0.032   2.949   6.807
 6072SOL    HW219116   0.151   2.877   6.721
 6073SOL     OW19117   5.155   3.637   0.024
 6073SOL    HW119118   5.251   3.609   0.017
 6073SOL    HW219119   5.134   3.661   0.118
 6074SOL     OW19120   1.053   6.270   2.545
 6074SOL    HW119121   1.106   6.300   2.466
 6074SOL    HW219122   1.111   6.217   2.606
 6075SOL     OW19123   5.685   0.674   6.604
 6075SOL    HW119124   5.766   0.687   6.546
 6075SOL    HW219125   5.706   0.703   6.697
 6076SOL     OW19126   0.810   5.784   2.679
 6076SOL    HW119127   0.826   5.800   2.776
 6076SOL    HW219128   0.786   5.870   2.634
 6077SOL     OW19129   5.411   6.465   2.742
 6077SOL    HW119130   5.400   6.384   2.799
 6077SOL    HW219131   5.326   6.518   2.744
 6078SOL     OW19132   4.295   4.513   0.753
 6078SOL    HW119133   4.260   4.450   0.683
 6078SOL    HW219134   4.332   4.461   0.829
 6079SOL     OW19135   2.583   2.914   0.667
 6079SOL    HW119136   2.574   2.904   0.766
 6079SOL    HW219137   2.615   3.006   0.645
 6080SOL     OW19138   6.758   4.488   6.229
 6080SOL    HW119139   6.677   4.463   6.281
 6080SOL    HW219140   6.840   4.466   6.281
 6081SOL     OW19141   1.595   3.813   3.338
 6081SOL    HW119142   1.660   3.737   3.341
 6081SOL    HW219143   1.527   3.801   3.411
 6082SOL     OW19144   5.113   1.458   1.463
 6082SOL    HW119145   5.106   1.481   1.366
 6082SOL    HW219146   5.038   1.501   1.513
 6083SOL     OW19147   4.680   0.626   6.546
 6083SOL    HW119148   4.654   0.716   6.511
 6083SOL    HW219149   4.618   0.599   6.619
 6084SOL     OW19150   0.114   5.748   2.492
 6084SOL    HW119151   0.063   5.729   2.576
 6084SOL    HW219152   0.156   5.664   2.459
 6085SOL     OW19153   0.265   6.760   0.392
 6085SOL    HW119154   0.285   6.677   0.340
 6085SOL    HW219155   0.351   6.805   0.416
 6086SOL     OW19156   3.549   4.271   6.920
 6086SOL    HW119157   3.487   4.226   6.984
 6086SOL    HW219158   3.621   4.207   6.892
 6087SOL     OW19159   5.004   0.293   0.626
 6087SOL    HW119160   5.029   0.355   0.701
 6087SOL    HW219161   5.044   0.203   0.643
 6088SOL     OW19162   4.698   5.741   2.993
 6088SOL    HW119163   4.692   5.644   2.968
 6088SOL    HW219164   4.792   5.764   3.014
 6089SOL     OW19165   6.012   3.934   4.295
 6089SOL    HW119166   6.104   3.914   4.329
 6089SOL    HW219167   5.997   4.033   4.295
 6090SOL     OW19168   3.811   5.663   4.117
 6090SOL    HW119169   3.744   5.617   4.059
 6090SOL    HW219170   3.850   5.598   4.182
 6091SOL     OW19171   1.635   1.550   1.667
 6091SOL    HW119172   1.565   1.604   1.620
 6091SOL    HW219173   1.607   1.535   1.762
 6092SOL     OW19174   2.446   6.670   1.084
 6092SOL    HW119175   2.446   6.753   1.139
 6092SOL    HW219176   2.518   6.608   1.116
 6093SOL     OW19177   2.675   2.407   2.773
 6093SOL    HW119178   2.603   2.445   2.716
 6093SOL    HW219179   2.652   2.422   2.870
 6094SOL     OW19180   0.511   6.220   5.046
 6094SOL    HW119181   0.581   6.155   5.014
 6094SOL    HW219182   0.440   6.170   5.095
 6095SOL     OW19183   4.615   4.693   1.972
 6095SOL    HW119184   4.556   4.646   2.037
 6095SOL    HW219185   4.669   4.626   1.921
 6096SOL     OW19186   5.494   5.621   3.116
 6096SOL    HW119187   5.495   5.528   3.081
 6096SOL    HW219188   5.400   5.656   3.116
 6097SOL     OW19189   2.304   4.804   2.636
 6097SOL    HW119190   2.396   4.799   2.596
 6097SOL    HW219191   2.263   4.892   2.615
 6098SOL     OW19192   6.989   0.637   5.089
 6098SOL    HW119193   7.018   0.733   5.090
 6098SOL    HW219194   6.946   0.617   5.001
 6099SOL     OW19195   3.361   0.779   5.920
 6099SOL    HW119196   3.347   0.680   5.922
 6099SOL    HW219197   3.404   0.805   5.834
 6100SOL     OW19198   0.240   5.818   4.864
 6100SOL    HW119199   0.212   5.886   4.932
 6100SOL    HW219200   0.327   5.846   4.824
 6101SOL     OW19201   6.804   3.561   1.889
 6101SOL    HW119202   6.893   3.607   1.888
 6101SOL    HW219203   6.744   3.607   1.955
 6102SOL     OW19204   3.696   0.429   2.553
 6102SOL    HW119205   3.606   0.473   2.557
 6102SOL    HW219206   3.684   0.330   2.542
 6103SOL     OW19207   6.525   1.615   1.999
 6103SOL    HW119208   6.519   1.559   1.917
 6103SOL    HW219209   6.605   1.586   2.053
 6104SOL     OW19210   0.029   0.588   4.598
 6104SOL    HW119211   0.056   0.614   4.505
 6104SOL    HW219212   6.957   0.554   4.596
 6105SOL     OW19213   3.016   4.607   5.734
 6105SOL    HW119214   3.034   4.703   5.754
 6105SOL    HW219215   2.991   4.597   5.638
 6106SOL     OW19216   5.995   4.971   5.419
 6106SOL    HW119217   6.022   5.008   5.330
 6106SOL    HW219218   5.897   4.983   5.433
 6107SOL     OW19219   5.460   5.675   5.190
 6107SOL    HW119220   5.461   5.736   5.269
 6107SOL    HW219221   5.507   5.589   5.214
 6108SOL     OW19222   1.960   1.629   0.044
 6108SOL    HW119223   2.030   1.570   0.085
 6108SOL    HW219224   2.005   1.701   7.014
 6109SOL     OW19225   6.991   7.009   3.592
 6109SOL    HW119226   6.910   0.014   3.540
 6109SOL    HW219227   6.973   6.923   3.640
 6110SOL     OW19228   1.961   1.595   4.209
 6110SOL    HW119229   2.031   1.526   4.230
 6110SOL    HW219230   1.879   1.577   4.263
 6111SOL     OW19231   1.862   3.857   1.134
 6111SOL    HW119232   1.855   3.757   1.144
 6111SOL    HW219233   1.956   3.882   1.112
 6112SOL     OW19234   4.773   6.323   3.389
 6112SOL    HW119235   4.692   6.375   3.415
 6112SOL    HW219236   4.815   6.281   3.470
 6113SOL     OW19237   2.712   5.334   1.114
 6113SOL    HW119238   2.732   5.236   1.125
 6113SOL    HW219239   2.644   5.347   1.042
 6114SOL     OW19240   5.647   2.477   0.368
 6114SOL    HW119241   5.563   2.530   0.369
 6114SOL    HW219242   5.720   2.530   0.324
 6115SOL     OW19243   0.866   0.543   5.974
 6115SOL    HW119244   0.799   0.541   6.048
 6115SOL    HW219245   0.825   0.588   5.894
 6116SOL     OW19246   5.347   2.746   6.295
 6116SOL    HW119247   5.281   2.751   6.370
 6116SOL    HW219248   5.413   2.674   6.314
 6117SOL     OW19249   2.100   2.029   1.187
 6117SOL    HW119250   2.154   2.054   1.106
 6117SOL    HW219251   2.106   1.931   1.202
 6118SOL     OW19252   5.942   0.698   1.398
 6118SOL    HW119253   5.950   0.628   1.328
 6118SOL    HW219254   5.855   0.687   1.447
 6119SOL     OW19255   7.013   1.550   0.060
 6119SOL    HW119256   0.058   1.492   0.014
 6119SOL    HW219257   7.009   1.638   0.014
 6120SOL     OW19258   2.811   0.710   4.613
 6120SOL    HW119259   2.830   0.664   4.700
 6120SOL    HW219260   2.840   0.652   4.537
 6121SOL     OW19261   1.088   2.398   5.272
 6121SOL    HW119262   1.187   2.403   5.279
 6121SOL    HW219263   1.061   2.308   5.240
 6122SOL     OW19264   4.885   4.692   5.383
 6122SOL    HW119265   4.918   4.615   5.438
 6122SOL    HW219266   4.820   4.746   5.436
 6123SOL     OW19267   5.513   1.232   5.423
 6123SOL    HW119268   5.547   1.155   5.369
 6123SOL    HW219269   5.511   1.314   5.366
 6124SOL     OW19270   2.506   6.059   3.897
 6124SOL    HW119271   2.414   6.091   3.922
 6124SOL    HW219272   2.573   6.130   3.918
 6125SOL     OW19273   2.918   2.277   6.130
 6125SOL    HW119274   2.866   2.222   6.195
 6125SOL    HW219275   3.003   2.231   6.108
 6126SOL     OW19276   6.018   2.932   5.294
 6126SOL    HW119277   6.012   2.832   5.295
 6126SOL    HW219278   5.943   2.970   5.347
 6127SOL     OW19279   4.502   2.173   2.190
 6127SOL    HW119280   4.567   2.111   2.147
 6127SOL    HW219281   4.551   2.235   2.251
 6128SOL     OW19282   5.623   5.574   0.091
 6128SOL    HW119283   5.563   5.631   0.147
 6128SOL    HW219284   5.662   5.628   0.017
 6129SOL     OW19285   1.652   5.637   2.235
 6129SOL    HW119286   1.585   5.711   2.242
 6129SOL    HW219287   1.611   5.560   2.187
 6130SOL     OW19288   6.173   2.489   0.031
 6130SOL    HW119289   6.139   2.396   0.048
 6130SOL    HW219290   6.109   2.555   0.070
 6131SOL     OW19291   6.844   1.789   2.609
 6131SOL    HW119292   6.749   1.814   2.589
 6131SOL    HW219293   6.891   1.866   2.651
 6132SOL     OW19294   3.817   1.182   5.946
 6132SOL    HW119295   3.803   1.280   5.958
 6132SOL    HW219296   3.873   1.166   5.865
 6133SOL     OW19297   1.172   2.203   2.941
 6133SOL    HW119298   1.183   2.277   2.875
 6133SOL    HW219299   1.081   2.208   2.982
 6134SOL     OW19300   6.924   6.860   5.791
 6134SOL    HW119301   6.950   6.772   5.752
 6134SOL    HW219302   6.829   6.881   5.766
 6135SOL     OW19303   6.844   6.729   6.803
 6135SOL    HW119304   6.912   6.755   6.734
 6135SOL    HW219305   6.793   6.809   6.833
 6136SOL     OW19306   0.926   2.576   2.323
 6136SOL    HW119307   1.006   2.629   2.296
 6136SOL    HW219308   0.879   2.622   2.399
 6137SOL     OW19309   6.618   4.356   2.193
 6137SOL    HW119310   6.542   4.292   2.181
 6137SOL    HW219311   6.704   4.305   2.192
 6138SOL     OW19312   4.294   0.494   1.860
 6138SOL    HW119313   4.338   0.436   1.929
 6138SOL    HW219314   4.364   0.532   1.799
 6139SOL     OW19315   1.247   0.546   5.056
 6139SOL    HW119316   1.341   0.573   5.037
 6139SOL    HW219317   1.184   0.613   5.015
 6140SOL     OW19318   2.181   0.219   3.190
 6140SOL    HW119319   2.223   0.138   3.231
 6140SOL    HW219320   2.082   0.214   3.202
 6141SOL     OW19321   0.689   0.758   6.251
 6141SOL    HW119322   0.615   0.776   6.316
 6141SOL    HW219323   0.766   0.819   6.271
 6142SOL     OW19324   6.892   0.362   1.433
 6142SOL    HW119325   6.928   0.331   1.521
 6142SOL    HW219326   6.896   0.462   1.429
 6143SOL     OW19327   6.764   3.987   5.357
 6143SOL    HW119328   6.846   3.986   5.413
 6143SOL    HW219329   6.784   3.950   5.266
 6144SOL     OW19330   4.412   5.047   2.807
 6144SOL    HW119331   4.341   5.053   2.736
 6144SOL    HW219332   4.423   4.952   2.836
 6145SOL     OW19333   4.945   3.432   3.860
 6145SOL    HW119334   4.858   3.447   3.907
 6145SOL    HW219335   5.010   3.504   3.885
 6146SOL     OW19336   5.617   0.117   5.309
 6146SOL    HW119337   5.697   0.163   5.348
 6146SOL    HW219338   5.635   0.096   5.213
 6147SOL     OW19339   1.544   2.431   4.583
 6147SOL    HW119340   1.560   2.389   4.673
 6147SOL    HW219341   1.447   2.449   4.572
 6148SOL     OW19342   3.184   5.777   0.050
 6148SOL    HW119343   3.134   5.734   0.124
 6148SOL    HW219344   3.277   5.739   0.046
 6149SOL     OW19345   2.812   1.011   1.094
 6149SOL    HW119346   2.718   1.024   1.062
 6149SOL    HW219347   2.825   1.060   1.180
 6150SOL     OW19348   0.886   4.442   5.516
 6150SOL    HW119349   0.875   4.494   5.431
 6150SOL    HW219350   0.932   4.499   5.584
 6151SOL     OW19351   4.617   5.299   3.967
 6151SOL    HW119352   4.532   5.345   3.940
 6151SOL    HW219353   4.683   5.368   4.000
 6152SOL     OW19354   1.316   3.875   4.032
 6152SOL    HW119355   1.394   3.898   3.975
 6152SOL    HW219356   1.342   3.878   4.128
 6153SOL     OW19357   5.310   5.368   1.175
 6153SOL    HW119358   5.255   5.323   1.105
 6153SOL    HW219359   5.299   5.467   1.168
 6154SOL     OW19360   4.862   3.535   2.339
 6154SOL    HW119361   4.771   3.538   2.298
 6154SOL    HW219362   4.907   3.623   2.324
 6155SOL     OW19363   1.738   1.298   3.043
 6155SOL    HW119364   1.716   1.328   2.950
 6155SOL    HW219365   1.756   1.200   3.043
 6156SOL     OW19366   5.032   4.869   1.616
 6156SOL    HW119367   5.046   4.952   1.563
 6156SOL    HW219368   5.114   4.812   1.613
 6157SOL     OW19369   1.067   2.495   2.050
 6157SOL    HW119370   1.071   2.411   2.103
 6157SOL    HW219371   0.978   2.500   2.003
 6158SOL     OW19372   3.081   2.125   4.851
 6158SOL    HW119373   3.102   2.185   4.928
 6158SOL    HW219374   3.163   2.111   4.796
 6159SOL     OW19375   6.826   3.045   0.997
 6159SOL    HW119376   6.743   3.067   0.947
 6159SOL    HW219377   6.824   3.088   1.087
 6160SOL     OW19378   1.520   0.800   1.035
 6160SOL    HW119379   1.433   0.786   0.988
 6160SOL    HW219380   1.593   0.810   0.967
 6161SOL     OW19381   4.279   3.215   6.373
 6161SOL    HW119382   4.255   3.122   6.403
 6161SOL    HW219383   4.315   3.211   6.280
 6162SOL     OW19384   6.231   5.181   2.814
 6162SOL    HW119385   6.191   5.258   2.863
 6162SOL    HW219386   6.242   5.103   2.876
 6163SOL     OW19387   5.712   6.258   3.619
 6163SOL    HW119388   5.667   6.191   3.679
 6163SOL    HW219389   5.671   6.348   3.631
 6164SOL     OW19390   2.859   3.444   4.837
 6164SOL    HW119391   2.778   3.458   4.893
 6164SOL    HW219392   2.842   3.478   4.744
 6165SOL     OW19393   3.749   1.445   0.096
 6165SOL    HW119394   3.756   1.374   0.025
 6165SOL    HW219395   3.823   1.511   0.084
 6166SOL     OW19396   2.106   3.188   6.736
 6166SOL    HW119397   2.059   3.136   6.809
 6166SOL    HW219398   2.076   3.154   6.647
 6167SOL     OW19399   1.711   3.566   3.129
 6167SOL    HW119400   1.657   3.492   3.170
 6167SOL    HW219401   1.762   3.614   3.201
 6168SOL     OW19402   0.811   3.840   3.529
 6168SOL    HW119403   0.728   3.792   3.558
 6168SOL    HW219404   0.787   3.928   3.488
 6169SOL     OW19405   2.089   0.578   6.952
 6169SOL    HW119406   2.082   0.515   0.007
 6169SOL    HW219407   2.153   0.541   6.885
 6170SOL     OW19408   3.031   3.907   0.154
 6170SOL    HW119409   2.952   3.900   0.093
 6170SOL    HW219410   3.115   3.898   0.100
 6171SOL     OW19411   2.097   3.745   2.193
 6171SOL    HW119412   2.023   3.809   2.172
 6171SOL    HW219413   2.072   3.653   2.161
 6172SOL     OW19414   2.017   5.628   2.724
 6172SOL    HW119415   2.032   5.689   2.802
 6172SOL    HW219416   1.937   5.571   2.742
 6173SOL     OW19417   1.186   5.688   2.108
 6173SOL    HW119418   1.178   5.705   2.206
 6173SOL    HW219419   1.278   5.711   2.077
 6174SOL     OW19420   5.590   5.100   2.922
 6174SOL    HW119421   5.561   5.089   2.827
 6174SOL    HW219422   5.604   5.198   2.941
 6175SOL     OW19423   5.199   0.304   3.267
 6175SOL    HW119424   5.298   0.311   3.260
 6175SOL    HW219425   5.156   0.355   3.192
 6176SOL     OW19426   6.315   3.221   5.610
 6176SOL    HW119427   6.289   3.259   5.521
 6176SOL    HW219428   6.395   3.269   5.645
 6177SOL     OW19429   0.005   2.867   0.876
 6177SOL    HW119430   6.981   2.933   0.935
 6177SOL    HW219431   0.032   2.912   0.790
 6178SOL     OW19432   5.989   3.214   1.117
 6178SOL    HW119433   5.948   3.128   1.147
 6178SOL    HW219434   5.991   3.279   1.193
 6179SOL     OW19435   0.636   1.822   5.760
 6179SOL    HW119436   0.619   1.865   5.848
 6179SOL    HW219437   0.550   1.816   5.709
 6180SOL     OW19438   3.327   0.035   0.007
 6180SOL    HW119439   3.322   0.128   6.993
 6180SOL    HW219440   3.305   6.992   6.957
 6181SOL     OW19441   5.088   6.111   0.100
 6181SOL    HW119442   5.061   6.177   0.171
 6181SOL    HW219443   5.182   6.128   0.072
 6182SOL     OW19444   4.229   6.427   6.827
 6182SOL    HW119445   4.295   6.367   6.873
 6182SOL    HW219446   4.136   6.399   6.851
 6183SOL     OW19447   3.476   0.536   3.444
 6183SOL    HW119448   3.439   0.444   3.455
 6183SOL    HW219449   3.524   0.563   3.528
 6184SOL     OW19450   0.375   0.458   6.799
 6184SOL    HW119451   0.380   0.358   6.811
 6184SOL    HW219452   0.309   0.496   6.864
 6185SOL     OW19453   1.106   3.711   5.624
 6185SOL    HW119454   1.086   3.673   5.534
 6185SOL    HW219455   1.129   3.637   5.687
 6186SOL     OW19456   6.022   0.083   4.745
 6186SOL    HW119457   6.023   0.181   4.723
 6186SOL    HW219458   6.035   0.030   4.661
 6187SOL     OW19459   3.901   4.887   4.270
 6187SOL    HW119460   3.963   4.950   4.316
 6187SOL    HW219461   3.952   4.834   4.202
 6188SOL     OW19462   2.803   6.367   1.440
 6188SOL    HW119463   2.817   6.366   1.539
 6188SOL    HW219464   2.864   6.436   1.399
 6189SOL     OW19465   6.120   4.934   3.289
 6189SOL    HW119466   6.043   4.979   3.334
 6189SOL    HW219467   6.108   4.835   3.293
 6190SOL     OW19468   5.337   2.600   0.155
 6190SOL    HW119469   5.342   2.588   0.254
 6190SOL    HW219470   5.428   2.619   0.119
 6191SOL     OW19471   6.463   2.619   6.789
 6191SOL    HW119472   6.380   2.657   6.830
 6191SOL    HW219473   6.440   2.581   6.699
 6192SOL     OW19474   3.124   3.139   0.063
 6192SOL    HW119475   3.161   3.055   0.103
 6192SOL    HW219476   3.159   3.218   0.114
 6193SOL     OW19477   6.296   0.048   1.116
 6193SOL    HW119478   6.274   0.086   1.206
 6193SOL    HW219479   6.356   0.111   1.067
 6194SOL     OW19480   2.335   0.746   0.491
 6194SOL    HW119481   2.260   0.692   0.454
 6194SOL    HW219482   2.378   0.696   0.567
 6195SOL     OW19483   3.201   0.030   6.101
 6195SOL    HW119484   3.251   0.065   6.180
 6195SOL    HW219485   3.129   6.990   6.133
 6196SOL     OW19486   0.195   1.408   6.466
 6196SOL    HW119487   0.113   1.359   6.497
 6196SOL    HW219488   0.183   1.438   6.371
 6197SOL     OW19489   2.385   3.366   0.420
 6197SOL    HW119490   2.427   3.371   0.511
 6197SOL    HW219491   2.438   3.422   0.356
 6198SOL     OW19492   4.032   4.825   2.801
 6198SOL    HW119493   4.096   4.760   2.760
 6198SOL    HW219494   3.966   4.854   2.732
 6199SOL     OW19495   1.623   6.977   6.087
 6199SOL    HW119496   1.598   6.886   6.055
 6199SOL    HW219497   1.722   6.982   6.101
 6200SOL     OW19498   4.100   0.194   6.059
 6200SOL    HW119499   4.012   0.209   6.014
 6200SOL    HW219500   4.149   0.281   6.064
 6201SOL     OW19501   1.927   4.457   4.937
 6201SOL    HW119502   1.893   4.451   4.843
 6201SOL    HW219503   1.858   4.498   4.996
 6202SOL     OW19504   3.200   2.112   1.280
 6202SOL    HW119505   3.214   2.172   1.359
 6202SOL    HW219506   3.245   2.024   1.297
 6203SOL     OW19507   4.470   1.658   5.473
 6203SOL    HW119508   4.379   1.691   5.447
 6203SOL    HW219509   4.538   1.696   5.409
 6204SOL     OW19510   1.572   6.599   5.690
 6204SOL    HW119511   1.644   6.584   5.758
 6204SOL    HW219512   1.576   6.694   5.658
 6205SOL     OW19513   5.322   5.854   6.912
 6205SOL    HW119514   5.391   5.850   6.840
 6205SOL    HW219515   5.364   5.890   6.996
 6206SOL     OW19516   5.484   0.462   3.234
 6206SOL    HW119517   5.495   0.363   3.228
 6206SOL    HW219518   5.449   0.496   3.147
 6207SOL     OW19519   1.646   3.826   4.594
 6207SOL    HW119520   1.671   3.865   4.683
 6207SOL    HW219521   1.684   3.734   4.586
 6208SOL     OW19522   5.759   6.667   5.898
 6208SOL    HW119523   5.839   6.725   5.911
 6208SOL    HW219524   5.757   6.633   5.804
 6209SOL     OW19525   3.390   5.260   1.072
 6209SOL    HW119526   3.371   5.325   1.145
 6209SOL    HW219527   3.466   5.294   1.016
 6210SOL     OW19528   5.909   4.397   3.770
 6210SOL    HW119529   5.965   4.462   3.822
 6210SOL    HW219530   5.945   4.387   3.678
 6211SOL     OW19531   2.815   0.186   4.932
 6211SOL    HW119532   2.904   0.221   4.904
 6211SOL    HW219533   2.744   0.218   4.869
 6212SOL     OW19534   6.940   6.618   3.461
 6212SOL    HW119535   6.977   6.655   3.376
 6212SOL    HW219536   6.845   6.589   3.446
 6213SOL     OW19537   0.314   6.223   6.207
 6213SOL    HW119538   0.318   6.316   6.244
 6213SOL    HW219539   0.407   6.193   6.185
 6214SOL     OW19540   6.390   4.732   3.030
 6214SOL    HW119541   6.400   4.820   3.078
 6214SOL    HW219542   6.480   4.693   3.015
 6215SOL     OW19543   3.019   3.883   0.781
 6215SOL    HW119544   3.034   3.800   0.727
 6215SOL    HW219545   3.040   3.963   0.725
 6216SOL     OW19546   5.913   1.380   2.775
 6216SOL    HW119547   5.956   1.437   2.705
 6216SOL    HW219548   5.981   1.321   2.817
 6217SOL     OW19549   5.466   3.237   1.900
 6217SOL    HW119550   5.376   3.241   1.856
 6217SOL    HW219551   5.486   3.142   1.926
 6218SOL     OW19552   3.628   5.309   5.550
 6218SOL    HW119553   3.586   5.220   5.565
 6218SOL    HW219554   3.605   5.342   5.458
 6219SOL     OW19555   0.779   1.827   4.661
 6219SOL    HW119556   0.860   1.788   4.704
 6219SOL    HW219557   0.793   1.831   4.562
 6220SOL     OW19558   1.884   4.161   5.118
 6220SOL    HW119559   1.926   4.252   5.113
 6220SOL    HW219560   1.955   4.091   5.113
 6221SOL     OW19561   3.546   5.004   4.892
 6221SOL    HW119562   3.466   5.052   4.857
 6221SOL    HW219563   3.535   4.988   4.990
 6222SOL     OW19564   6.913   1.159   0.809
 6222SOL    HW119565   6.876   1.229   0.870
 6222SOL    HW219566   6.939   1.079   0.862
 6223SOL     OW19567   4.878   3.142   4.679
 6223SOL    HW119568   4.977   3.132   4.688
 6223SOL    HW219569   4.854   3.239   4.672
 6224SOL     OW19570   2.579   0.984   5.288
 6224SOL    HW119571   2.648   0.912   5.288
 6224SOL    HW219572   2.572   1.024   5.380
 6225SOL     OW19573   3.721   2.537   0.411
 6225SOL    HW119574   3.816   2.507   0.408
 6225SOL    HW219575   3.709   2.601   0.487
 6226SOL     OW19576   5.632   0.368   4.909
 6226SOL    HW119577   5.596   0.439   4.969
 6226SOL    HW219578   5.664   0.409   4.824
 6227SOL     OW19579   3.357   4.892   6.069
 6227SOL    HW119580   3.407   4.814   6.107
 6227SOL    HW219581   3.358   4.887   5.969
 6228SOL     OW19582   6.667   0.766   3.682
 6228SOL    HW119583   6.746   0.823   3.660
 6228SOL    HW219584   6.607   0.760   3.602
 6229SOL     OW19585   2.302   2.637   2.195
 6229SOL    HW119586   2.275   2.542   2.213
 6229SOL    HW219587   2.382   2.638   2.135
 6230SOL     OW19588   2.622   2.174   3.469
 6230SOL    HW119589   2.660   2.266   3.479
 6230SOL    HW219590   2.667   2.128   3.392
 6231SOL     OW19591   0.033   4.926   1.613
 6231SOL    HW119592   6.972   4.902   1.663
 6231SOL    HW219593   0.103   4.958   1.677
 6232SOL     OW19594   1.057   1.132   6.731
 6232SOL    HW119595   1.106   1.046   6.743
 6232SOL    HW219596   1.011   1.132   6.643
 6233SOL     OW19597   4.802   2.178   0.122
 6233SOL    HW119598   4.802   2.156   0.219
 6233SOL    HW219599   4.851   2.107   0.071
 6234SOL     OW19600   2.650   2.086   3.747
 6234SOL    HW119601   2.595   2.083   3.830
 6234SOL    HW219602   2.591   2.083   3.667
 6235SOL     OW19603   2.678   6.516   3.323
 6235SOL    HW119604   2.591   6.484   3.286
 6235SOL    HW219605   2.664   6.552   3.415
 6236SOL     OW19606   6.873   4.404   0.321
 6236SOL    HW119607   6.822   4.319   0.336
 6236SOL    HW219608   6.848   4.471   0.391
 6237SOL     OW19609   4.355   6.972   0.805
 6237SOL    HW119610   4.327   6.897   0.746
 6237SOL    HW219611   4.447   6.954   0.842
 6238SOL     OW19612   4.661   4.662   1.357
 6238SOL    HW119613   4.641   4.564   1.347
 6238SOL    HW219614   4.713   4.694   1.278
 6239SOL     OW19615   2.948   0.371   3.768
 6239SOL    HW119616   2.863   0.404   3.809
 6239SOL    HW219617   2.927   0.315   3.688
 6240SOL     OW19618   1.957   3.878   0.734
 6240SOL    HW119619   1.897   3.859   0.656
 6240SOL    HW219620   1.939   3.970   0.768
 6241SOL     OW19621   4.707   0.421   1.268
 6241SOL    HW119622   4.763   0.435   1.349
 6241SOL    HW219623   4.691   0.323   1.254
 6242SOL     OW19624   4.278   1.873   3.647
 6242SOL    HW119625   4.264   1.962   3.604
 6242SOL    HW219626   4.297   1.804   3.577
 6243SOL     OW19627   6.442   5.462   3.675
 6243SOL    HW119628   6.483   5.535   3.621
 6243SOL    HW219629   6.343   5.463   3.664
 6244SOL     OW19630   2.257   1.606   2.232
 6244SOL    HW119631   2.353   1.633   2.221
 6244SOL    HW219632   2.247   1.550   2.315
 6245SOL     OW19633   2.960   4.366   0.693
 6245SOL    HW119634   2.884   4.346   0.630
 6245SOL    HW219635   2.983   4.463   0.686
 6246SOL     OW19636   2.519   1.027   5.989
 6246SOL    HW119637   2.594   1.040   5.924
 6246SOL    HW219638   2.500   0.929   5.999
 6247SOL     OW19639   0.202   6.216   2.436
 6247SOL    HW119640   0.293   6.176   2.425
 6247SOL    HW219641   0.133   6.144   2.437
 6248SOL     OW19642   0.319   4.673   1.380
 6248SOL    HW119643   0.340   4.585   1.421
 6248SOL    HW219644   0.402   4.729   1.379
 6249SOL     OW19645   5.270   3.731   6.420
 6249SOL    HW119646   5.359   3.687   6.413
 6249SOL    HW219647   5.248   3.749   6.516
 6250SOL     OW19648   5.183   5.702   6.595
 6250SOL    HW119649   5.201   5.680   6.691
 6250SOL    HW219650   5.238   5.782   6.568
 6251SOL     OW19651   4.390   1.706   0.939
 6251SOL    HW119652   4.438   1.750   1.015
 6251SOL    HW219653   4.296   1.740   0.935
 6252SOL     OW19654   2.339   6.079   5.267
 6252SOL    HW119655   2.412   6.147   5.256
 6252SOL    HW219656   2.255   6.114   5.224
 6253SOL     OW19657   1.635   3.730   1.295
 6253SOL    HW119658   1.709   3.766   1.238
 6253SOL    HW219659   1.595   3.650   1.250
 6254SOL     OW19660   5.336   0.644   0.218
 6254SOL    HW119661   5.309   0.572   0.283
 6254SOL    HW219662   5.310   0.616   0.126
 6255SOL     OW19663   0.631   1.401   2.601
 6255SOL    HW119664   0.679   1.463   2.663
 6255SOL    HW219665   0.595   1.453   2.523
 6256SOL     OW19666   3.297   4.912   2.850
 6256SOL    HW119667   3.262   4.983   2.912
 6256SOL    HW219668   3.221   4.854   2.820
 6257SOL     OW19669   5.122   2.643   6.688
 6257SOL    HW119670   5.082   2.680   6.604
 6257SOL    HW219671   5.068   2.672   6.766
 6258SOL     OW19672   5.257   1.449   2.585
 6258SOL    HW119673   5.166   1.409   2.600
 6258SOL    HW219674   5.259   1.541   2.625
 6259SOL     OW19675   2.946   2.682   1.714
 6259SOL    HW119676   2.952   2.607   1.779
 6259SOL    HW219677   2.909   2.648   1.628
 6260SOL     OW19678   3.868   3.268   6.863
 6260SOL    HW119679   3.955   3.228   6.836
 6260SOL    HW219680   3.829   3.215   6.938
 6261SOL     OW19681   3.966   0.936   0.409
 6261SOL    HW119682   3.918   1.021   0.386
 6261SOL    HW219683   4.056   0.937   0.366
 6262SOL     OW19684   0.278   5.345   6.108
 6262SOL    HW119685   0.181   5.328   6.088
 6262SOL    HW219686   0.324   5.372   6.024
 6263SOL     OW19687   6.236   0.653   0.643
 6263SOL    HW119688   6.140   0.629   0.631
 6263SOL    HW219689   6.272   0.606   0.723
 6264SOL     OW19690   2.413   1.773   0.480
 6264SOL    HW119691   2.368   1.825   0.553
 6264SOL    HW219692   2.357   1.695   0.455
 6265SOL     OW19693   3.823   2.856   1.194
 6265SOL    HW119694   3.893   2.808   1.247
 6265SOL    HW219695   3.761   2.789   1.153
 6266SOL     OW19696   2.529   0.215   2.920
 6266SOL    HW119697   2.463   0.192   2.849
 6266SOL    HW219698   2.486   0.204   3.010
 6267SOL     OW19699   2.774   0.032   6.583
 6267SOL    HW119700   2.754   7.008   6.669
 6267SOL    HW219701   2.854   0.091   6.594
 6268SOL     OW19702   3.293   5.162   2.671
 6268SOL    HW119703   3.313   5.118   2.758
 6268SOL    HW219704   3.231   5.239   2.686
 6269SOL     OW19705   6.428   4.674   0.668
 6269SOL    HW119706   6.487   4.695   0.747
 6269SOL    HW219707   6.455   4.731   0.591
 6270SOL     OW19708   0.661   0.994   4.520
 6270SOL    HW119709   0.602   1.069   4.491
 6270SOL    HW219710   0.663   0.991   4.620
 6271SOL     OW19711   5.672   1.736   0.738
 6271SOL    HW119712   5.628   1.820   0.704
 6271SOL    HW219713   5.684   1.672   0.662
 6272SOL     OW19714   1.430   1.954   3.387
 6272SOL    HW119715   1.436   2.033   3.326
 6272SOL    HW219716   1.341   1.953   3.433
 6273SOL     OW19717   3.673   1.000   1.562
 6273SOL    HW119718   3.609   0.932   1.599
 6273SOL    HW219719   3.621   1.072   1.515
 6274SOL     OW19720   3.723   6.980   6.644
 6274SOL    HW119721   3.822   6.992   6.650
 6274SOL    HW219722   3.679   0.047   6.630
 6275SOL     OW19723   2.773   0.984   4.719
 6275SOL    HW119724   2.805   1.057   4.660
 6275SOL    HW219725   2.781   0.896   4.671
 6276SOL     OW19726   1.301   5.629   3.892
 6276SOL    HW119727   1.303   5.544   3.840
 6276SOL    HW219728   1.293   5.608   3.990
 6277SOL     OW19729   5.525   3.240   2.799
 6277SOL    HW119730   5.617   3.237   2.840
 6277SOL    HW219731   5.531   3.280   2.707
 6278SOL     OW19732   5.447   0.328   4.226
 6278SOL    HW119733   5.419   0.402   4.164
 6278SOL    HW219734   5.525   0.358   4.280
 6279SOL     OW19735   5.233   1.675   0.301
 6279SOL    HW119736   5.135   1.657   0.294
 6279SOL    HW219737   5.258   1.687   0.397
 6280SOL     OW19738   0.483   4.711   5.834
 6280SOL    HW119739   0.435   4.655   5.902
 6280SOL    HW219740   0.570   4.667   5.811
 6281SOL     OW19741   2.883   6.600   5.411
 6281SOL    HW119742   2.883   6.582   5.312
 6281SOL    HW219743   2.871   6.698   5.426
 6282SOL     OW19744   1.861   6.862   3.922
 6282SOL    HW119745   1.829   6.855   3.827
 6282SOL    HW219746   1.784   6.845   3.984
 6283SOL     OW19747   0.032   2.234   5.258
 6283SOL    HW119748   0.030   2.169   5.183
 6283SOL    HW219749   0.092   2.311   5.234
 6284SOL     OW19750   2.078   4.273   6.175
 6284SOL    HW119751   1.981   4.269   6.202
 6284SOL    HW219752   2.125   4.343   6.227
 6285SOL     OW19753   1.804   4.339   2.192
 6285SOL    HW119754   1.813   4.428   2.147
 6285SOL    HW219755   1.895   4.303   2.213
 6286SOL     OW19756   5.728   1.109   4.454
 6286SOL    HW119757   5.790   1.157   4.392
 6286SOL    HW219758   5.680   1.037   4.405
 6287SOL     OW19759   4.764   4.415   1.941
 6287SOL    HW119760   4.679   4.377   1.976
 6287SOL    HW219761   4.842   4.367   1.981
 6288SOL     OW19762   5.149   3.184   1.045
 6288SOL    HW119763   5.191   3.275   1.048
 6288SOL    HW219764   5.107   3.164   1.134
 6289SOL     OW19765   1.417   0.951   3.322
 6289SOL    HW119766   1.512   0.930   3.299
 6289SOL    HW219767   1.388   1.032   3.271
 6290SOL     OW19768   5.897   3.593   3.469
 6290SOL    HW119769   5.881   3.522   3.537
 6290SOL    HW219770   5.872   3.560   3.379
 6291SOL     OW19771   3.595   4.083   2.988
 6291SOL    HW119772   3.505   4.078   2.944
 6291SOL    HW219773   3.608   4.003   3.047
 6292SOL     OW19774   1.238   1.992   2.006
 6292SOL    HW119775   1.251   2.076   2.057
 6292SOL    HW219776   1.140   1.971   2.000
 6293SOL     OW19777   5.011   6.628   0.260
 6293SOL    HW119778   5.001   6.712   0.206
 6293SOL    HW219779   5.107   6.614   0.282
 6294SOL     OW19780   4.550   5.352   2.394
 6294SOL    HW119781   4.568   5.254   2.402
 6294SOL    HW219782   4.472   5.377   2.452
 6295SOL     OW19783   5.773   6.667   6.217
 6295SOL    HW119784   5.843   6.689   6.285
 6295SOL    HW219785   5.787   6.574   6.183
 6296SOL     OW19786   6.319   1.049   2.903
 6296SOL    HW119787   6.283   0.964   2.865
 6296SOL    HW219788   6.402   1.029   2.955
 6297SOL     OW19789   5.292   0.152   5.984
 6297SOL    HW119790   5.261   0.066   5.942
 6297SOL    HW219791   5.258   0.229   5.931
 6298SOL     OW19792   1.242   1.916   4.899
 6298SOL    HW119793   1.143   1.914   4.881
 6298SOL    HW219794   1.258   1.894   4.995
 6299SOL     OW19795   6.274   3.194   0.149
 6299SOL    HW119796   6.292   3.184   0.247
 6299SOL    HW219797   6.311   3.281   0.117
 6300SOL     OW19798   5.582   0.654   3.934
 6300SOL    HW119799   5.650   0.600   3.884
 6300SOL    HW219800   5.628   0.715   3.998
 6301SOL     OW19801   2.928   6.740   0.711
 6301SOL    HW119802   2.889   6.826   0.744
 6301SOL    HW219803   2.863   6.666   0.726
 6302SOL     OW19804   1.059   0.629   3.650
 6302SOL    HW119805   1.156   0.654   3.645
 6302SOL    HW219806   1.021   0.660   3.738
 6303SOL     OW19807   2.106   5.995   5.432
 6303SOL    HW119808   2.078   6.057   5.505
 6303SOL    HW219809   2.186   6.032   5.385
 6304SOL     OW19810   3.230   1.206   6.498
 6304SOL    HW119811   3.163   1.145   6.541
 6304SOL    HW219812   3.221   1.199   6.399
 6305SOL     OW19813   5.900   1.060   1.342
 6305SOL    HW119814   5.924   1.148   1.300
 6305SOL    HW219815   5.939   1.055   1.434
 6306SOL     OW19816   6.064   2.564   4.090
 6306SOL    HW119817   6.062   2.508   4.173
 6306SOL    HW219818   5.997   2.528   4.025
 6307SOL     OW19819   2.661   4.865   0.963
 6307SOL    HW119820   2.686   4.937   1.028
 6307SOL    HW219821   2.715   4.875   0.880
 6308SOL     OW19822   2.919   2.360   5.269
 6308SOL    HW119823   2.882   2.297   5.200
 6308SOL    HW219824   3.017   2.369   5.256
 6309SOL     OW19825   5.771   1.768   4.435
 6309SOL    HW119826   5.693   1.737   4.381
 6309SOL    HW219827   5.854   1.721   4.403
 6310SOL     OW19828   1.453   4.821   4.607
 6310SOL    HW119829   1.378   4.866   4.558
 6310SOL    HW219830   1.416   4.743   4.659
 6311SOL     OW19831   6.193   7.012   4.920
 6311SOL    HW119832   6.281   7.000   4.874
 6311SOL    HW219833   6.126   0.025   4.854
 6312SOL     OW19834   4.410   4.898   5.817
 6312SOL    HW119835   4.430   4.993   5.843
 6312SOL    HW219836   4.441   4.881   5.724
 6313SOL     OW19837   2.954   5.123   3.327
 6313SOL    HW119838   2.904   5.116   3.413
 6313SOL    HW219839   3.029   5.189   3.336
 6314SOL     OW19840   3.147   6.272   3.693
 6314SOL    HW119841   3.240   6.300   3.669
 6314SOL    HW219842   3.114   6.207   3.624
 6315SOL     OW19843   3.092   3.368   0.656
 6315SOL    HW119844   3.013   3.309   0.671
 6315SOL    HW219845   3.161   3.317   0.604
 6316SOL     OW19846   5.441   1.554   6.121
 6316SOL    HW119847   5.352   1.577   6.082
 6316SOL    HW219848   5.508   1.623   6.095
 6317SOL     OW19849   6.253   5.870   4.264
 6317SOL    HW119850   6.333   5.897   4.211
 6317SOL    HW219851   6.278   5.795   4.326
 6318SOL     OW19852   2.543   1.759   4.663
 6318SOL    HW119853   2.616   1.749   4.731
 6318SOL    HW219854   2.462   1.709   4.694
 6319SOL     OW19855   0.861   1.873   2.585
 6319SOL    HW119856   0.827   1.850   2.676
 6319SOL    HW219857   0.960   1.860   2.583
 6320SOL     OW19858   6.807   2.785   3.513
 6320SOL    HW119859   6.876   2.855   3.495
 6320SOL    HW219860   6.809   2.760   3.610
 6321SOL     OW19861   2.145   3.727   0.382
 6321SOL    HW119862   2.213   3.729   0.455
 6321SOL    HW219863   2.150   3.639   0.334
 6322SOL     OW19864   1.204   1.164   0.059
 6322SOL    HW119865   1.268   1.127   7.013
 6322SOL    HW219866   1.204   1.264   0.053
 6323SOL     OW19867   4.111   1.769   0.959
 6323SOL    HW119868   4.111   1.788   1.057
 6323SOL    HW219869   4.045   1.697   0.938
 6324SOL     OW19870   4.347   1.216   6.537
 6324SOL    HW119871   4.333   1.282   6.610
 6324SOL    HW219872   4.290   1.239   6.459
 6325SOL     OW19873   1.387   2.277   1.812
 6325SOL    HW119874   1.358   2.226   1.731
 6325SOL    HW219875   1.338   2.364   1.817
 6326SOL     OW19876   5.017   5.760   1.081
 6326SOL    HW119877   4.995   5.767   0.984
 6326SOL    HW219878   4.961   5.689   1.124
 6327SOL     OW19879   4.842   5.422   5.787
 6327SOL    HW119880   4.912   5.368   5.740
 6327SOL    HW219881   4.758   5.423   5.733
 6328SOL     OW19882   2.942   4.103   6.383
 6328SOL    HW119883   3.041   4.093   6.376
 6328SOL    HW219884   2.898   4.064   6.302
 6329SOL     OW19885   1.066   1.745   3.325
 6329SOL    HW119886   1.151   1.715   3.281
 6329SOL    HW219887   1.083   1.762   3.422
 6330SOL     OW19888   3.236   1.768   0.404
 6330SOL    HW119889   3.204   1.850   0.451
 6330SOL    HW219890   3.239   1.692   0.468
 6331SOL     OW19891   5.841   3.391   1.790
 6331SOL    HW119892   5.935   3.391   1.822
 6331SOL    HW219893   5.789   3.320   1.840
 6332SOL     OW19894   5.766   6.356   1.782
 6332SOL    HW119895   5.825   6.392   1.855
 6332SOL    HW219896   5.670   6.373   1.806
 6333SOL     OW19897   2.539   4.905   3.071
 6333SOL    HW119898   2.551   4.974   3.141
 6333SOL    HW219899   2.608   4.833   3.081
 6334SOL     OW19900   2.441   1.505   2.815
 6334SOL    HW119901   2.525   1.543   2.854
 6334SOL    HW219902   2.365   1.522   2.878
 6335SOL     OW19903   6.483   1.388   0.240
 6335SOL    HW119904   6.517   1.301   0.276
 6335SOL    HW219905   6.561   1.447   0.218
 6336SOL     OW19906   0.612   2.759   5.059
 6336SOL    HW119907   0.669   2.826   5.013
 6336SOL    HW219908   0.622   2.769   5.158
 6337SOL     OW19909   6.583   4.714   5.318
 6337SOL    HW119910   6.604   4.618   5.332
 6337SOL    HW219911   6.665   4.769   5.337
 6338SOL     OW19912   4.125   1.163   3.605
 6338SOL    HW119913   4.194   1.113   3.553
 6338SOL    HW219914   4.081   1.102   3.671
 6339SOL     OW19915   6.990   2.089   4.503
 6339SOL    HW119916   6.989   2.184   4.473
 6339SOL    HW219917   6.924   2.077   4.578
 6340SOL     OW19918   1.818   5.200   4.323
 6340SOL    HW119919   1.758   5.277   4.302
 6340SOL    HW219920   1.796   5.123   4.263
 6341SOL     OW19921   6.818   4.079   2.810
 6341SOL    HW119922   6.848   4.122   2.895
 6341SOL    HW219923   6.898   4.042   2.761
 6342SOL     OW19924   1.469   2.803   0.780
 6342SOL    HW119925   1.539   2.843   0.840
 6342SOL    HW219926   1.485   2.833   0.686
 6343SOL     OW19927   3.786   1.239   6.956
 6343SOL    HW119928   3.821   1.280   6.873
 6343SOL    HW219929   3.842   1.160   6.981
 6344SOL     OW19930   0.606   4.158   4.155
 6344SOL    HW119931   0.705   4.149   4.155
 6344SOL    HW219932   0.565   4.070   4.179
 6345SOL     OW19933   3.100   1.936   2.366
 6345SOL    HW119934   3.131   1.959   2.274
 6345SOL    HW219935   3.005   1.965   2.378
 6346SOL     OW19936   0.797   4.938   4.019
 6346SOL    HW119937   0.867   5.010   4.022
 6346SOL    HW219938   0.735   4.956   3.943
 6347SOL     OW19939   3.651   0.497   1.596
 6347SOL    HW119940   3.739   0.452   1.579
 6347SOL    HW219941   3.613   0.465   1.683
 6348SOL     OW19942   1.557   2.736   4.297
 6348SOL    HW119943   1.639   2.688   4.265
 6348SOL    HW219944   1.531   2.805   4.229
 6349SOL     OW19945   2.388   0.192   0.488
 6349SOL    HW119946   2.477   0.207   0.532
 6349SOL    HW219947   2.401   0.184   0.389
 6350SOL     OW19948   1.470   6.144   2.151
 6350SOL    HW119949   1.377   6.112   2.129
 6350SOL    HW219950   1.528   6.135   2.071
 6351SOL     OW19951   0.427   1.358   2.879
 6351SOL    HW119952   0.397   1.294   2.950
 6351SOL    HW219953   0.385   1.332   2.792
 6352SOL     OW19954   6.862   6.015   2.054
 6352SOL    HW119955   6.924   6.009   1.976
 6352SOL    HW219956   6.793   6.085   2.037
 6353SOL     OW19957   0.123   6.826   2.286
 6353SOL    HW119958   0.178   6.791   2.210
 6353SOL    HW219959   0.026   6.818   2.264
 6354SOL     OW19960   0.589   6.745   3.444
 6354SOL    HW119961   0.512   6.765   3.504
 6354SOL    HW219962   0.587   6.648   3.417
 6355SOL     OW19963   2.077   2.492   2.821
 6355SOL    HW119964   1.985   2.454   2.834
 6355SOL    HW219965   2.071   2.572   2.761
 6356SOL     OW19966   3.372   3.668   1.267
 6356SOL    HW119967   3.283   3.649   1.225
 6356SOL    HW219968   3.364   3.665   1.367
 6357SOL     OW19969   4.510   2.042   0.344
 6357SOL    HW119970   4.591   2.088   0.379
 6357SOL    HW219971   4.443   2.031   0.417
 6358SOL     OW19972   0.477   2.457   3.981
 6358SOL    HW119973   0.380   2.434   3.972
 6358SOL    HW219974   0.487   2.534   4.044
 6359SOL     OW19975   0.132   1.137   6.760
 6359SOL    HW119976   0.090   1.070   6.821
 6359SOL    HW219977   0.226   1.155   6.790
 6360SOL     OW19978   2.958   5.894   4.230
 6360SOL    HW119979   2.967   5.811   4.284
 6360SOL    HW219980   2.867   5.899   4.189
 6361SOL     OW19981   3.963   6.361   6.205
 6361SOL    HW119982   3.951   6.342   6.302
 6361SOL    HW219983   3.923   6.450   6.183
 6362SOL     OW19984   6.123   5.121   6.350
 6362SOL    HW119985   6.159   5.132   6.443
 6362SOL    HW219986   6.128   5.208   6.302
 6363SOL     OW19987   0.925   6.092   3.668
 6363SOL    HW119988   0.896   6.026   3.738
 6363SOL    HW219989   0.997   6.052   3.613
 6364SOL     OW19990   2.442   2.723   6.040
 6364SOL    HW119991   2.502   2.676   5.976
 6364SOL    HW219992   2.495   2.752   6.120
 6365SOL     OW19993   5.214   6.014   2.472
 6365SOL    HW119994   5.117   6.015   2.447
 6365SOL    HW219995   5.226   5.965   2.557
 6366SOL     OW19996   6.954   4.835   6.183
 6366SOL    HW119997   6.880   4.794   6.236
 6366SOL    HW219998   6.974   4.777   6.104
 6367SOL     OW19999   6.081   6.407   3.076
 6367SOL    HW120000   6.075   6.494   3.028
 6367SOL    HW220001   6.176   6.389   3.101
 6368SOL     OW20002   2.799   0.471   4.037
 6368SOL    HW120003   2.730   0.464   3.964
 6368SOL    HW220004   2.755   0.458   4.125
 6369SOL     OW20005   2.388   5.229   4.548
 6369SOL    HW120006   2.380   5.149   4.607
 6369SOL    HW220007   2.302   5.245   4.501
 6370SOL     OW20008   6.337   2.820   1.818
 6370SOL    HW120009   6.307   2.817   1.723
 6370SOL    HW220010   6.269   2.777   1.876
 6371SOL     OW20011   4.969   2.153   2.985
 6371SOL    HW120012   4.958   2.108   2.896
 6371SOL    HW220013   4.996   2.248   2.972
 6372SOL     OW20014   2.936   6.419   2.595
 6372SOL    HW120015   2.881   6.348   2.551
 6372SOL    HW220016   2.906   6.509   2.563
 6373SOL     OW20017   3.676   4.499   0.203
 6373SOL    HW120018   3.646   4.404   0.198
 6373SOL    HW220019   3.758   4.505   0.259
 6374SOL     OW20020   3.367   3.095   2.481
 6374SOL    HW120021   3.441   3.120   2.419
 6374SOL    HW220022   3.302   3.170   2.488
 6375SOL     OW20023   2.107   6.370   2.682
 6375SOL    HW120024   2.009   6.373   2.702
 6375SOL    HW220025   2.124   6.314   2.601
 6376SOL     OW20026   0.731   2.794   5.567
 6376SOL    HW120027   0.823   2.780   5.604
 6376SOL    HW220028   0.667   2.732   5.612
 6377SOL     OW20029   0.766   0.638   4.409
 6377SOL    HW120030   0.693   0.696   4.374
 6377SOL    HW220031   0.826   0.611   4.334
 6378SOL     OW20032   4.790   4.281   3.732
 6378SOL    HW120033   4.723   4.343   3.775
 6378SOL    HW220034   4.747   4.234   3.655
 6379SOL     OW20035   2.300   4.331   3.055
 6379SOL    HW120036   2.260   4.298   3.141
 6379SOL    HW220037   2.360   4.408   3.075
 6380SOL     OW20038   1.210   0.416   5.786
 6380SOL    HW120039   1.157   0.335   5.759
 6380SOL    HW220040   1.188   0.440   5.880
 6381SOL     OW20041   3.028   3.808   2.520
 6381SOL    HW120042   3.121   3.826   2.488
 6381SOL    HW220043   2.965   3.807   2.442
 6382SOL     OW20044   1.494   4.148   5.315
 6382SOL    HW120045   1.487   4.228   5.255
 6382SOL    HW220046   1.461   4.171   5.406
 6383SOL     OW20047   3.851   1.479   4.069
 6383SOL    HW120048   3.906   1.560   4.090
 6383SOL    HW220049   3.853   1.463   3.970
 6384SOL     OW20050   6.436   4.435   3.329
 6384SOL    HW120051   6.369   4.418   3.257
 6384SOL    HW220052   6.447   4.353   3.385
 6385SOL     OW20053   0.654   5.998   4.970
 6385SOL    HW120054   0.571   5.959   4.931
 6385SOL    HW220055   0.714   5.924   5.001
 6386SOL     OW20056   3.050   5.550   1.640
 6386SOL    HW120057   2.991   5.470   1.629
 6386SOL    HW220058   3.145   5.521   1.640
 6387SOL     OW20059   6.344   1.066   5.087
 6387SOL    HW120060   6.289   1.112   5.157
 6387SOL    HW220061   6.314   0.971   5.079
 6388SOL     OW20062   2.546   4.584   2.777
 6388SOL    HW120063   2.641   4.615   2.777
 6388SOL    HW220064   2.517   4.561   2.870
 6389SOL     OW20065   0.965   4.720   2.483
 6389SOL    HW120066   0.931   4.626   2.492
 6389SOL    HW220067   0.937   4.774   2.562
 6390SOL     OW20068   0.417   3.584   4.011
 6390SOL    HW120069   0.455   3.676   4.001
 6390SOL    HW220070   0.351   3.583   4.087
 6391SOL     OW20071   3.273   1.273   0.116
 6391SOL    HW120072   3.349   1.250   0.055
 6391SOL    HW220073   3.197   1.311   0.062
 6392SOL     OW20074   1.673   6.374   3.850
 6392SOL    HW120075   1.674   6.419   3.761
 6392SOL    HW220076   1.592   6.315   3.857
 6393SOL     OW20077   5.489   0.730   0.618
 6393SOL    HW120078   5.505   0.655   0.554
 6393SOL    HW220079   5.489   0.817   0.568
 6394SOL     OW20080   3.258   4.673   1.411
 6394SOL    HW120081   3.257   4.736   1.489
 6394SOL    HW220082   3.193   4.599   1.428
 6395SOL     OW20083   5.849   1.572   0.923
 6395SOL    HW120084   5.778   1.510   0.891
 6395SOL    HW220085   5.864   1.644   0.855
 6396SOL     OW20086   5.551   3.985   5.457
 6396SOL    HW120087   5.544   4.056   5.527
 6396SOL    HW220088   5.464   3.936   5.452
 6397SOL     OW20089   6.987   0.662   0.910
 6397SOL    HW120090   0.056   0.639   0.945
 6397SOL    HW220091   6.931   0.580   0.907
 6398SOL     OW20092   3.983   1.511   1.585
 6398SOL    HW120093   3.944   1.455   1.512
 6398SOL    HW220094   3.986   1.458   1.670
 6399SOL     OW20095   2.594   5.459   0.210
 6399SOL    HW120096   2.526   5.510   0.156
 6399SOL    HW220097   2.686   5.486   0.182
 6400SOL     OW20098   2.654   5.637   4.241
 6400SOL    HW120099   2.656   5.612   4.338
 6400SOL    HW220100   2.626   5.733   4.232
 6401SOL     OW20101   0.679   4.832   3.667
 6401SOL    HW120102   0.772   4.803   3.647
 6401SOL    HW220103   0.618   4.801   3.595
 6402SOL     OW20104   1.725   1.931   3.374
 6402SOL    HW120105   1.640   1.911   3.423
 6402SOL    HW220106   1.718   1.898   3.280
 6403SOL     OW20107   0.202   5.862   1.163
 6403SOL    HW120108   0.211   5.836   1.259
 6403SOL    HW220109   0.157   5.788   1.112
 6404SOL     OW20110   5.020   0.502   3.106
 6404SOL    HW120111   5.093   0.546   3.158
 6404SOL    HW220112   4.934   0.511   3.157
 6405SOL     OW20113   2.920   1.189   1.834
 6405SOL    HW120114   2.822   1.200   1.851
 6405SOL    HW220115   2.965   1.278   1.843
 6406SOL     OW20116   2.442   2.048   3.983
 6406SOL    HW120117   2.365   2.030   3.922
 6406SOL    HW220118   2.476   1.962   4.021
 6407SOL     OW20119   4.055   5.257   6.287
 6407SOL    HW120120   4.057   5.300   6.197
 6407SOL    HW220121   4.000   5.313   6.349
 6408SOL     OW20122   6.202   2.052   0.257
 6408SOL    HW120123   6.111   2.017   0.278
 6408SOL    HW220124   6.207   2.073   0.159
 6409SOL     OW20125   0.757   4.642   2.236
 6409SOL    HW120126   0.732   4.546   2.222
 6409SOL    HW220127   0.828   4.649   2.306
 6410SOL     OW20128   1.050   1.377   1.672
 6410SOL    HW120129   1.104   1.303   1.713
 6410SOL    HW220130   1.037   1.450   1.740
 6411SOL     OW20131   2.015   0.374   3.692
 6411SOL    HW120132   2.036   0.412   3.602
 6411SOL    HW220133   2.059   0.429   3.763
 6412SOL     OW20134   0.258   1.703   4.597
 6412SOL    HW120135   0.193   1.741   4.531
 6412SOL    HW220136   0.336   1.765   4.606
 6413SOL     OW20137   0.083   4.372   0.674
 6413SOL    HW120138   0.065   4.287   0.723
 6413SOL    HW220139   0.092   4.352   0.576
 6414SOL     OW20140   6.204   6.751   2.410
 6414SOL    HW120141   6.132   6.779   2.347
 6414SOL    HW220142   6.176   6.667   2.457
 6415SOL     OW20143   1.589   1.618   2.180
 6415SOL    HW120144   1.523   1.543   2.175
 6415SOL    HW220145   1.542   1.704   2.161
 6416SOL     OW20146   1.994   0.011   6.768
 6416SOL    HW120147   1.930   0.085   6.747
 6416SOL    HW220148   2.072   0.016   6.706
 6417SOL     OW20149   1.020   6.969   3.110
 6417SOL    HW120150   0.948   6.949   3.044
 6417SOL    HW220151   1.074   0.025   3.079
 6418SOL     OW20152   6.743   5.970   2.456
 6418SOL    HW120153   6.687   5.964   2.373
 6418SOL    HW220154   6.718   5.896   2.518
 6419SOL     OW20155   2.942   4.902   1.511
 6419SOL    HW120156   2.913   4.807   1.526
 6419SOL    HW220157   2.960   4.945   1.600
 6420SOL     OW20158   0.670   3.432   6.372
 6420SOL    HW120159   0.606   3.489   6.423
 6420SOL    HW220160   0.758   3.430   6.419
 6421SOL     OW20161   5.523   1.910   0.971
 6421SOL    HW120162   5.561   1.899   1.063
 6421SOL    HW220163   5.564   1.842   0.910
 6422SOL     OW20164   6.096   1.723   3.488
 6422SOL    HW120165   6.157   1.650   3.518
 6422SOL    HW220166   6.139   1.774   3.414
 6423SOL     OW20167   4.998   4.205   0.517
 6423SOL    HW120168   4.954   4.295   0.517
 6423SOL    HW220169   4.974   4.158   0.432
 6424SOL     OW20170   6.558   5.410   5.095
 6424SOL    HW120171   6.639   5.449   5.051
 6424SOL    HW220172   6.504   5.359   5.028
 6425SOL     OW20173   0.218   5.054   1.766
 6425SOL    HW120174   0.193   5.142   1.725
 6425SOL    HW220175   0.306   5.024   1.729
 6426SOL     OW20176   6.598   2.910   3.397
 6426SOL    HW120177   6.619   2.918   3.299
 6426SOL    HW220178   6.662   2.846   3.440
 6427SOL     OW20179   1.441   3.455   5.525
 6427SOL    HW120180   1.416   3.463   5.621
 6427SOL    HW220181   1.506   3.380   5.513
 6428SOL     OW20182   6.279   2.778   2.747
 6428SOL    HW120183   6.352   2.809   2.686
 6428SOL    HW220184   6.192   2.819   2.718
 6429SOL     OW20185   1.021   0.384   4.405
 6429SOL    HW120186   1.017   0.456   4.335
 6429SOL    HW220187   0.948   0.318   4.388
 6430SOL     OW20188   5.802   3.733   0.555
 6430SOL    HW120189   5.739   3.794   0.603
 6430SOL    HW220190   5.896   3.765   0.568
 6431SOL     OW20191   5.435   0.436   2.937
 6431SOL    HW120192   5.526   0.419   2.898
 6431SOL    HW220193   5.411   0.532   2.923
 6432SOL     OW20194   5.676   3.291   0.219
 6432SOL    HW120195   5.629   3.315   0.134
 6432SOL    HW220196   5.681   3.372   0.278
 6433SOL     OW20197   2.616   3.744   1.713
 6433SOL    HW120198   2.621   3.844   1.703
 6433SOL    HW220199   2.520   3.715   1.706
 6434SOL     OW20200   1.637   5.200   0.551
 6434SOL    HW120201   1.688   5.222   0.467
 6434SOL    HW220202   1.539   5.207   0.533
 6435SOL     OW20203   4.701   4.075   0.637
 6435SOL    HW120204   4.756   4.063   0.719
 6435SOL    HW220205   4.702   3.989   0.584
 6436SOL     OW20206   1.424   3.077   2.460
 6436SOL    HW120207   1.494   3.024   2.506
 6436SOL    HW220208   1.345   3.090   2.521
 6437SOL     OW20209   0.948   0.744   0.005
 6437SOL    HW120210   0.913   0.736   0.098
 6437SOL    HW220211   0.907   0.823   6.983
 6438SOL     OW20212   1.317   3.209   3.109
 6438SOL    HW120213   1.244   3.274   3.126
 6438SOL    HW220214   1.350   3.172   3.196
 6439SOL     OW20215   0.155   0.332   2.165
 6439SOL    HW120216   0.254   0.343   2.170
 6439SOL    HW220217   0.130   0.247   2.212
 6440SOL     OW20218   0.772   1.162   2.570
 6440SOL    HW120219   0.725   1.251   2.567
 6440SOL    HW220220   0.782   1.127   2.477
 6441SOL     OW20221   3.535   1.505   3.478
 6441SOL    HW120222   3.573   1.414   3.499
 6441SOL    HW220223   3.492   1.503   3.388
 6442SOL     OW20224   3.427   0.838   3.493
 6442SOL    HW120225   3.457   0.745   3.471
 6442SOL    HW220226   3.338   0.856   3.450
 6443SOL     OW20227   2.577   1.479   0.343
 6443SOL    HW120228   2.664   1.521   0.370
 6443SOL    HW220229   2.595   1.388   0.304
 6444SOL     OW20230   0.671   0.928   3.518
 6444SOL    HW120231   0.656   1.023   3.546
 6444SOL    HW220232   0.621   0.867   3.579
 6445SOL     OW20233   3.992   3.143   5.262
 6445SOL    HW120234   4.091   3.156   5.269
 6445SOL    HW220235   3.960   3.085   5.337
 6446SOL     OW20236   6.289   1.770   0.607
 6446SOL    HW120237   6.335   1.855   0.632
 6446SOL    HW220238   6.258   1.775   0.512
 6447SOL     OW20239   1.619   0.783   3.009
 6447SOL    HW120240   1.660   0.708   2.957
 6447SOL    HW220241   1.521   0.787   2.989
 6448SOL     OW20242   6.199   2.122   2.555
 6448SOL    HW120243   6.124   2.082   2.607
 6448SOL    HW220244   6.168   2.142   2.462
 6449SOL     OW20245   3.514   3.282   1.095
 6449SOL    HW120246   3.508   3.259   0.997
 6449SOL    HW220247   3.432   3.248   1.141
 6450SOL     OW20248   6.916   3.692   0.309
 6450SOL    HW120249   6.906   3.600   0.274
 6450SOL    HW220250   6.840   3.749   0.277
 6451SOL     OW20251   2.363   6.870   4.415
 6451SOL    HW120252   2.372   6.787   4.361
 6451SOL    HW220253   2.355   6.847   4.512
 6452SOL     OW20254   4.559   6.652   3.266
 6452SOL    HW120255   4.529   6.737   3.222
 6452SOL    HW220256   4.589   6.587   3.196
 6453SOL     OW20257   1.892   4.744   6.402
 6453SOL    HW120258   1.937   4.804   6.468
 6453SOL    HW220259   1.960   4.685   6.358
 6454SOL     OW20260   3.378   1.441   4.614
 6454SOL    HW120261   3.411   1.472   4.703
 6454SOL    HW220262   3.439   1.370   4.578
 6455SOL     OW20263   6.534   2.987   5.171
 6455SOL    HW120264   6.534   2.998   5.271
 6455SOL    HW220265   6.479   2.907   5.146
 6456SOL     OW20266   6.742   0.959   4.277
 6456SOL    HW120267   6.769   0.887   4.213
 6456SOL    HW220268   6.808   0.962   4.352
 6457SOL     OW20269   6.666   3.285   1.951
 6457SOL    HW120270   6.756   3.240   1.953
 6457SOL    HW220271   6.678   3.384   1.950
 6458SOL     OW20272   1.189   5.710   2.405
 6458SOL    HW120273   1.260   5.642   2.390
 6458SOL    HW220274   1.211   5.764   2.486
 6459SOL     OW20275   5.017   4.807   0.671
 6459SOL    HW120276   4.932   4.754   0.680
 6459SOL    HW220277   5.015   4.884   0.734
 6460SOL     OW20278   3.448   5.021   6.721
 6460SOL    HW120279   3.415   4.927   6.707
 6460SOL    HW220280   3.497   5.026   6.809
 6461SOL     OW20281   3.420   5.451   4.875
 6461SOL    HW120282   3.467   5.518   4.819
 6461SOL    HW220283   3.486   5.385   4.912
 6462SOL     OW20284   1.926   3.198   3.796
 6462SOL    HW120285   1.930   3.099   3.811
 6462SOL    HW220286   2.001   3.225   3.735
 6463SOL     OW20287   1.456   4.363   5.084
 6463SOL    HW120288   1.414   4.313   5.009
 6463SOL    HW220289   1.556   4.353   5.079
 6464SOL     OW20290   0.775   5.379   2.579
 6464SOL    HW120291   0.821   5.319   2.514
 6464SOL    HW220292   0.820   5.468   2.580
 6465SOL     OW20293   6.186   0.650   2.594
 6465SOL    HW120294   6.193   0.716   2.519
 6465SOL    HW220295   6.149   0.563   2.558
 6466SOL     OW20296   0.719   2.357   5.277
 6466SOL    HW120297   0.737   2.417   5.199
 6466SOL    HW220298   0.796   2.360   5.341
 6467SOL     OW20299   2.393   1.052   6.501
 6467SOL    HW120300   2.421   1.066   6.406
 6467SOL    HW220301   2.334   0.971   6.506
 6468SOL     OW20302   4.877   4.720   1.166
 6468SOL    HW120303   4.961   4.760   1.130
 6468SOL    HW220304   4.837   4.660   1.098
 6469SOL     OW20305   0.204   1.397   5.350
 6469SOL    HW120306   0.112   1.422   5.319
 6469SOL    HW220307   0.204   1.389   5.450
 6470SOL     OW20308   6.721   6.199   5.527
 6470SOL    HW120309   6.707   6.115   5.475
 6470SOL    HW220310   6.636   6.224   5.573
 6471SOL     OW20311   5.368   5.390   5.815
 6471SOL    HW120312   5.310   5.365   5.893
 6471SOL    HW220313   5.460   5.412   5.849
 6472SOL     OW20314   1.155   5.711   0.940
 6472SOL    HW120315   1.218   5.725   0.863
 6472SOL    HW220316   1.112   5.622   0.933
 6473SOL     OW20317   2.615   1.402   5.575
 6473SOL    HW120318   2.592   1.466   5.501
 6473SOL    HW220319   2.714   1.394   5.582
 6474SOL     OW20320   2.185   3.229   5.513
 6474SOL    HW120321   2.092   3.192   5.503
 6474SOL    HW220322   2.179   3.325   5.540
 6475SOL     OW20323   4.351   6.307   4.138
 6475SOL    HW120324   4.304   6.220   4.124
 6475SOL    HW220325   4.333   6.368   4.061
 6476SOL     OW20326   4.608   5.237   3.067
 6476SOL    HW120327   4.572   5.264   3.157
 6476SOL    HW220328   4.533   5.200   3.012
 6477SOL     OW20329   0.194   6.093   6.720
 6477SOL    HW120330   0.255   6.125   6.647
 6477SOL    HW220331   0.240   6.102   6.808
 6478SOL     OW20332   5.153   6.687   0.556
 6478SOL    HW120333   5.232   6.709   0.614
 6478SOL    HW220334   5.131   6.590   0.565
 6479SOL     OW20335   3.925   5.728   2.506
 6479SOL    HW120336   3.976   5.644   2.522
 6479SOL    HW220337   3.951   5.797   2.574
 6480SOL     OW20338   3.227   2.102   0.044
 6480SOL    HW120339   3.142   2.052   0.025
 6480SOL    HW220340   3.269   2.063   0.127
 6481SOL     OW20341   4.628   0.949   1.144
 6481SOL    HW120342   4.645   0.918   1.051
 6481SOL    HW220343   4.591   1.042   1.143
 6482SOL     OW20344   0.509   0.890   6.921
 6482SOL    HW120345   0.495   0.825   6.846
 6482SOL    HW220346   0.523   0.840   7.006
 6483SOL     OW20347   2.074   6.215   2.450
 6483SOL    HW120348   2.134   6.237   2.373
 6483SOL    HW220349   2.040   6.121   2.440
 6484SOL     OW20350   5.606   6.178   3.350
 6484SOL    HW120351   5.646   6.198   3.440
 6484SOL    HW220352   5.588   6.264   3.301
 6485SOL     OW20353   1.143   2.438   2.781
 6485SOL    HW120354   1.147   2.392   2.692
 6485SOL    HW220355   1.183   2.529   2.773
 6486SOL     OW20356   1.633   2.731   3.076
 6486SOL    HW120357   1.733   2.732   3.081
 6486SOL    HW220358   1.598   2.648   3.119
 6487SOL     OW20359   5.987   6.109   3.625
 6487SOL    HW120360   5.908   6.169   3.625
 6487SOL    HW220361   6.037   6.120   3.711
 6488SOL     OW20362   3.586   5.721   6.223
 6488SOL    HW120363   3.502   5.772   6.209
 6488SOL    HW220364   3.570   5.624   6.205
 6489SOL     OW20365   1.789   1.875   5.569
 6489SOL    HW120366   1.749   1.893   5.479
 6489SOL    HW220367   1.745   1.933   5.638
 6490SOL     OW20368   3.346   1.389   0.356
 6490SOL    HW120369   3.328   1.340   0.270
 6490SOL    HW220370   3.342   1.326   0.433
 6491SOL     OW20371   3.415   1.583   6.269
 6491SOL    HW120372   3.396   1.521   6.193
 6491SOL    HW220373   3.357   1.558   6.347
 6492SOL     OW20374   6.263   5.584   0.293
 6492SOL    HW120375   6.346   5.582   0.238
 6492SOL    HW220376   6.184   5.606   0.235
 6493SOL     OW20377   1.045   6.537   5.975
 6493SOL    HW120378   1.091   6.533   6.064
 6493SOL    HW220379   0.955   6.494   5.982
 6494SOL     OW20380   1.742   6.994   3.617
 6494SOL    HW120381   1.826   0.025   3.603
 6494SOL    HW220382   1.667   0.034   3.640
 6495SOL     OW20383   5.446   5.064   2.667
 6495SOL    HW120384   5.361   5.112   2.644
 6495SOL    HW220385   5.489   5.030   2.583
 6496SOL     OW20386   2.320   6.699   2.876
 6496SOL    HW120387   2.241   6.668   2.822
 6496SOL    HW220388   2.330   6.798   2.865
 6497SOL     OW20389   0.600   4.696   6.950
 6497SOL    HW120390   0.525   4.762   6.950
 6497SOL    HW220391   0.562   4.603   6.946
 6498SOL     OW20392   1.491   4.608   3.788
 6498SOL    HW120393   1.579   4.576   3.822
 6498SOL    HW220394   1.424   4.534   3.793
 6499SOL     OW20395   6.147   1.619   3.934
 6499SOL    HW120396   6.108   1.599   4.024
 6499SOL    HW220397   6.075   1.649   3.872
 6500SOL     OW20398   5.387   4.564   3.667
 6500SOL    HW120399   5.309   4.625   3.657
 6500SOL    HW220400   5.374   4.505   3.747
 6501SOL     OW20401   6.921   3.733   1.026
 6501SOL    HW120402   6.902   3.698   1.118
 6501SOL    HW220403   6.839   3.728   0.970
 6502SOL     OW20404   1.665   5.415   2.457
 6502SOL    HW120405   1.742   5.479   2.451
 6502SOL    HW220406   1.680   5.339   2.393
 6503SOL     OW20407   4.292   0.259   4.753
 6503SOL    HW120408   4.269   0.336   4.693
 6503SOL    HW220409   4.322   0.181   4.697
 6504SOL     OW20410   2.562   1.106   1.005
 6504SOL    HW120411   2.651   1.148   0.985
 6504SOL    HW220412   2.493   1.177   1.014
 6505SOL     OW20413   5.532   5.185   0.881
 6505SOL    HW120414   5.624   5.199   0.845
 6505SOL    HW220415   5.520   5.090   0.907
 6506SOL     OW20416   2.056   2.443   0.774
 6506SOL    HW120417   1.970   2.455   0.724
 6506SOL    HW220418   2.113   2.524   0.760
 6507SOL     OW20419   2.741   0.850   1.962
 6507SOL    HW120420   2.734   0.943   1.998
 6507SOL    HW220421   2.805   0.849   1.885
 6508SOL     OW20422   2.125   1.540   2.695
 6508SOL    HW120423   2.070   1.459   2.715
 6508SOL    HW220424   2.125   1.601   2.774
 6509SOL     OW20425   0.610   2.261   4.711
 6509SOL    HW120426   0.651   2.348   4.684
 6509SOL    HW220427   0.675   2.187   4.699
 6510SOL     OW20428   5.539   4.854   6.169
 6510SOL    HW120429   5.480   4.773   6.164
 6510SOL    HW220430   5.606   4.841   6.242
 6511SOL     OW20431   6.346   6.113   5.565
 6511SOL    HW120432   6.411   6.187   5.576
 6511SOL    HW220433   6.321   6.077   5.655
 6512SOL     OW20434   5.161   6.344   3.409
 6512SOL    HW120435   5.152   6.432   3.364
 6512SOL    HW220436   5.249   6.339   3.457
 6513SOL     OW20437   3.114   0.037   2.736
 6513SOL    HW120438   3.137   7.021   2.647
 6513SOL    HW220439   3.084   0.132   2.725
 6514SOL     OW20440   3.702   6.951   3.138
 6514SOL    HW120441   3.740   6.860   3.122
 6514SOL    HW220442   3.603   6.949   3.125
 6515SOL     OW20443   1.293   0.784   4.923
 6515SOL    HW120444   1.263   0.874   4.890
 6515SOL    HW220445   1.365   0.797   4.991
 6516SOL     OW20446   1.233   1.271   5.914
 6516SOL    HW120447   1.212   1.361   5.874
 6516SOL    HW220448   1.293   1.283   5.992
 6517SOL     OW20449   1.246   2.217   6.757
 6517SOL    HW120450   1.330   2.165   6.770
 6517SOL    HW220451   1.215   2.207   6.662
 6518SOL     OW20452   6.148   6.246   1.052
 6518SOL    HW120453   6.199   6.184   0.993
 6518SOL    HW220454   6.108   6.194   1.128
 6519SOL     OW20455   2.084   2.102   3.578
 6519SOL    HW120456   2.025   2.181   3.596
 6519SOL    HW220457   2.030   2.029   3.537
 6520SOL     OW20458   5.293   5.231   1.811
 6520SOL    HW120459   5.209   5.279   1.840
 6520SOL    HW220460   5.372   5.287   1.834
 6521SOL     OW20461   0.999   2.017   5.606
 6521SOL    HW120462   1.049   1.968   5.678
 6521SOL    HW220463   1.048   2.102   5.585
 6522SOL     OW20464   2.211   5.269   5.370
 6522SOL    HW120465   2.136   5.259   5.435
 6522SOL    HW220466   2.222   5.366   5.346
 6523SOL     OW20467   1.449   2.080   6.429
 6523SOL    HW120468   1.397   2.166   6.428
 6523SOL    HW220469   1.472   2.055   6.335
 6524SOL     OW20470   3.565   3.737   3.881
 6524SOL    HW120471   3.521   3.737   3.791
 6524SOL    HW220472   3.496   3.754   3.952
 6525SOL     OW20473   0.277   2.744   4.562
 6525SOL    HW120474   0.250   2.787   4.649
 6525SOL    HW220475   0.261   2.646   4.568
 6526SOL     OW20476   1.938   6.125   4.704
 6526SOL    HW120477   1.884   6.088   4.629
 6526SOL    HW220478   2.029   6.150   4.670
 6527SOL     OW20479   2.165   1.435   4.335
 6527SOL    HW120480   2.177   1.336   4.335
 6527SOL    HW220481   2.255   1.479   4.325
 6528SOL     OW20482   6.533   0.296   3.619
 6528SOL    HW120483   6.474   0.256   3.690
 6528SOL    HW220484   6.590   0.367   3.658
 6529SOL     OW20485   6.786   2.399   1.403
 6529SOL    HW120486   6.871   2.422   1.450
 6529SOL    HW220487   6.709   2.409   1.466
 6530SOL     OW20488   0.326   2.055   0.626
 6530SOL    HW120489   0.410   2.109   0.619
 6530SOL    HW220490   0.275   2.061   0.541
 6531SOL     OW20491   4.778   3.001   4.257
 6531SOL    HW120492   4.740   3.088   4.227
 6531SOL    HW220493   4.854   3.018   4.321
 6532SOL     OW20494   0.629   1.921   6.375
 6532SOL    HW120495   0.549   1.978   6.391
 6532SOL    HW220496   0.695   1.935   6.449
 6533SOL     OW20497   4.913   1.145   0.801
 6533SOL    HW120498   4.962   1.181   0.722
 6533SOL    HW220499   4.816   1.168   0.794
 6534SOL     OW20500   1.805   3.553   0.892
 6534SOL    HW120501   1.879   3.604   0.937
 6534SOL    HW220502   1.783   3.596   0.805
 6535SOL     OW20503   2.066   3.517   5.539
 6535SOL    HW120504   2.047   3.577   5.618
 6535SOL    HW220505   1.992   3.525   5.472
 6536SOL     OW20506   6.899   2.339   0.078
 6536SOL    HW120507   6.818   2.377   0.121
 6536SOL    HW220508   6.966   2.313   0.148
 6537SOL     OW20509   0.359   0.024   6.915
 6537SOL    HW120510   0.450   0.028   6.957
 6537SOL    HW220511   0.302   6.981   6.964
 6538SOL     OW20512   2.184   3.401   5.767
 6538SOL    HW120513   2.137   3.439   5.687
 6538SOL    HW220514   2.280   3.427   5.765
 6539SOL     OW20515   2.356   1.425   6.981
 6539SOL    HW120516   2.343   1.508   0.013
 6539SOL    HW220517   2.366   1.450   6.885
 6540SOL     OW20518   3.743   1.174   3.948
 6540SOL    HW120519   3.765   1.171   3.850
 6540SOL    HW220520   3.827   1.180   4.001
 6541SOL     OW20521   2.301   2.610   5.604
 6541SOL    HW120522   2.368   2.667   5.650
 6541SOL    HW220523   2.256   2.550   5.671
 6542SOL     OW20524   5.798   4.345   3.392
 6542SOL    HW120525   5.809   4.253   3.427
 6542SOL    HW220526   5.877   4.401   3.419
 6543SOL     OW20527   0.056   5.844   6.764
 6543SOL    HW120528   0.062   5.854   6.863
 6543SOL    HW220529   0.090   5.927   6.720
 6544SOL     OW20530   6.165   6.127   4.280
 6544SOL    HW120531   6.128   6.136   4.373
 6544SOL    HW220532   6.222   6.045   4.275
 6545SOL     OW20533   5.467   2.395   5.627
 6545SOL    HW120534   5.439   2.399   5.531
 6545SOL    HW220535   5.514   2.479   5.652
 6546SOL     OW20536   3.081   4.348   6.237
 6546SOL    HW120537   2.997   4.317   6.192
 6546SOL    HW220538   3.061   4.379   6.329
 6547SOL     OW20539   4.739   2.016   6.637
 6547SOL    HW120540   4.653   2.066   6.624
 6547SOL    HW220541   4.730   1.924   6.600
 6548SOL     OW20542   6.269   4.947   5.191
 6548SOL    HW120543   6.174   4.979   5.190
 6548SOL    HW220544   6.276   4.863   5.245
 6549SOL     OW20545   3.339   1.520   1.280
 6549SOL    HW120546   3.384   1.536   1.192
 6549SOL    HW220547   3.405   1.534   1.354
 6550SOL     OW20548   0.466   5.248   3.238
 6550SOL    HW120549   0.476   5.175   3.171
 6550SOL    HW220550   0.475   5.337   3.192
 6551SOL     OW20551   2.348   5.258   2.283
 6551SOL    HW120552   2.289   5.196   2.230
 6551SOL    HW220553   2.305   5.348   2.288
 6552SOL     OW20554   4.090   4.640   6.244
 6552SOL    HW120555   4.042   4.697   6.311
 6552SOL    HW220556   4.053   4.658   6.153
 6553SOL     OW20557   0.206   2.646   2.674
 6553SOL    HW120558   0.290   2.679   2.631
 6553SOL    HW220559   0.195   2.689   2.764
 6554SOL     OW20560   0.438   3.077   5.095
 6554SOL    HW120561   0.358   3.118   5.138
 6554SOL    HW220562   0.502   3.148   5.067
 6555SOL     OW20563   0.576   1.499   2.283
 6555SOL    HW120564   0.511   1.470   2.213
 6555SOL    HW220565   0.664   1.520   2.240
 6556SOL     OW20566   3.675   0.060   4.461
 6556SOL    HW120567   3.618   0.033   4.539
 6556SOL    HW220568   3.722   7.002   4.425
 6557SOL     OW20569   6.551   6.080   0.959
 6557SOL    HW120570   6.612   6.118   1.029
 6557SOL    HW220571   6.602   6.017   0.900
 6558SOL     OW20572   6.419   5.378   6.445
 6558SOL    HW120573   6.333   5.398   6.493
 6558SOL    HW220574   6.420   5.425   6.357
 6559SOL     OW20575   3.467   3.193   0.846
 6559SOL    HW120576   3.384   3.140   0.828
 6559SOL    HW220577   3.485   3.254   0.768
 6560SOL     OW20578   3.906   2.116   0.476
 6560SOL    HW120579   3.910   2.099   0.575
 6560SOL    HW220580   3.945   2.037   0.428
 6561SOL     OW20581   3.618   4.078   4.837
 6561SOL    HW120582   3.676   4.082   4.756
 6561SOL    HW220583   3.525   4.054   4.811
 6562SOL     OW20584   5.715   3.503   5.656
 6562SOL    HW120585   5.771   3.520   5.575
 6562SOL    HW220586   5.730   3.409   5.688
 6563SOL     OW20587   1.987   4.782   2.467
 6563SOL    HW120588   1.899   4.743   2.494
 6563SOL    HW220589   2.000   4.869   2.514
 6564SOL     OW20590   1.475   5.773   2.741
 6564SOL    HW120591   1.495   5.799   2.646
 6564SOL    HW220592   1.561   5.768   2.792
 6565SOL     OW20593   5.956   3.318   5.019
 6565SOL    HW120594   5.882   3.342   4.956
 6565SOL    HW220595   5.968   3.219   5.020
 6566SOL     OW20596   3.754   6.864   0.652
 6566SOL    HW120597   3.700   6.789   0.614
 6566SOL    HW220598   3.710   6.898   0.735
 6567SOL     OW20599   5.742   3.081   1.350
 6567SOL    HW120600   5.797   3.161   1.376
 6567SOL    HW220601   5.803   3.009   1.318
 6568SOL     OW20602   4.023   4.499   1.674
 6568SOL    HW120603   3.956   4.440   1.628
 6568SOL    HW220604   4.087   4.442   1.725
 6569SOL     OW20605   0.641   4.386   6.336
 6569SOL    HW120606   0.672   4.291   6.330
 6569SOL    HW220607   0.646   4.416   6.431
 6570SOL     OW20608   6.191   2.786   0.975
 6570SOL    HW120609   6.267   2.842   1.008
 6570SOL    HW220610   6.105   2.834   0.991
 6571SOL     OW20611   2.838   6.072   3.711
 6571SOL    HW120612   2.923   6.095   3.664
 6571SOL    HW220613   2.803   6.154   3.758
 6572SOL     OW20614   0.844   3.447   6.575
 6572SOL    HW120615   0.939   3.426   6.553
 6572SOL    HW220616   0.838   3.479   6.670
 6573SOL     OW20617   2.131   2.098   2.575
 6573SOL    HW120618   2.124   2.124   2.671
 6573SOL    HW220619   2.088   2.009   2.561
 6574SOL     OW20620   2.470   4.582   3.048
 6574SOL    HW120621   2.416   4.651   3.001
 6574SOL    HW220622   2.550   4.625   3.091
 6575SOL     OW20623   0.997   1.131   2.925
 6575SOL    HW120624   1.083   1.138   2.874
 6575SOL    HW220625   0.950   1.046   2.900
 6576SOL     OW20626   1.134   6.165   5.236
 6576SOL    HW120627   1.188   6.164   5.320
 6576SOL    HW220628   1.049   6.216   5.251
 6577SOL     OW20629   6.377   2.117   4.371
 6577SOL    HW120630   6.469   2.138   4.405
 6577SOL    HW220631   6.332   2.056   4.435
 6578SOL     OW20632   6.569   5.421   3.152
 6578SOL    HW120633   6.601   5.328   3.164
 6578SOL    HW220634   6.482   5.433   3.199
 6579SOL     OW20635   0.711   3.438   2.434
 6579SOL    HW120636   0.648   3.378   2.385
 6579SOL    HW220637   0.795   3.448   2.381
 6580SOL     OW20638   6.451   2.341   1.305
 6580SOL    HW120639   6.549   2.355   1.320
 6580SOL    HW220640   6.437   2.297   1.216
 6581SOL     OW20641   2.709   2.021   5.663
 6581SOL    HW120642   2.671   1.937   5.701
 6581SOL    HW220643   2.639   2.069   5.609
 6582SOL     OW20644   0.213   0.132   3.082
 6582SOL    HW120645   0.140   0.175   3.029
 6582SOL    HW220646   0.275   0.084   3.019
 6583SOL     OW20647   5.573   1.448   5.240
 6583SOL    HW120648   5.670   1.427   5.245
 6583SOL    HW220649   5.539   1.432   5.147
 6584SOL     OW20650   5.542   1.645   6.481
 6584SOL    HW120651   5.465   1.705   6.459
 6584SOL    HW220652   5.513   1.550   6.472
 6585SOL     OW20653   2.192   1.329   0.448
 6585SOL    HW120654   2.120   1.261   0.462
 6585SOL    HW220655   2.205   1.382   0.532
 6586SOL     OW20656   6.884   2.313   6.822
 6586SOL    HW120657   6.932   2.386   6.773
 6586SOL    HW220658   6.896   2.326   6.920
 6587SOL     OW20659   2.230   6.928   2.371
 6587SOL    HW120660   2.176   6.963   2.294
 6587SOL    HW220661   2.200   6.835   2.393
 6588SOL     OW20662   2.280   2.754   6.810
 6588SOL    HW120663   2.270   2.655   6.802
 6588SOL    HW220664   2.265   2.781   6.905
 6589SOL     OW20665   4.887   1.623   5.495
 6589SOL    HW120666   4.837   1.671   5.567
 6589SOL    HW220667   4.824   1.591   5.425
 6590SOL     OW20668   6.500   1.270   5.112
 6590SOL    HW120669   6.573   1.275   5.044
 6590SOL    HW220670   6.453   1.182   5.105
 6591SOL     OW20671   5.800   1.038   2.213
 6591SOL    HW120672   5.784   0.964   2.278
 6591SOL    HW220673   5.851   1.111   2.258
 6592SOL     OW20674   4.945   5.672   4.798
 6592SOL    HW120675   4.956   5.644   4.893
 6592SOL    HW220676   5.017   5.629   4.743
 6593SOL     OW20677   4.175   1.082   2.672
 6593SOL    HW120678   4.266   1.115   2.698
 6593SOL    HW220679   4.183   1.026   2.590
 6594SOL     OW20680   5.662   0.949   6.282
 6594SOL    HW120681   5.580   1.005   6.269
 6594SOL    HW220682   5.704   0.930   6.193
 6595SOL     OW20683   1.181   3.647   1.015
 6595SOL    HW120684   1.085   3.641   0.988
 6595SOL    HW220685   1.187   3.668   1.112
 6596SOL     OW20686   3.631   6.885   4.991
 6596SOL    HW120687   3.689   6.878   4.910
 6596SOL    HW220688   3.614   6.793   5.028
 6597SOL     OW20689   0.040   4.753   5.730
 6597SOL    HW120690   0.139   4.739   5.726
 6597SOL    HW220691   0.008   4.730   5.822
 6598SOL     OW20692   2.020   5.770   5.300
 6598SOL    HW120693   2.055   5.846   5.355
 6598SOL    HW220694   2.092   5.738   5.238
 6599SOL     OW20695   4.667   4.261   5.949
 6599SOL    HW120696   4.630   4.238   5.859
 6599SOL    HW220697   4.717   4.183   5.985
 6600SOL     OW20698   4.551   5.809   4.605
 6600SOL    HW120699   4.463   5.822   4.560
 6600SOL    HW220700   4.546   5.732   4.668
 6601SOL     OW20701   1.020   0.045   1.483
 6601SOL    HW120702   0.990   0.133   1.518
 6601SOL    HW220703   1.029   0.050   1.383
 6602SOL     OW20704   6.414   1.901   1.395
 6602SOL    HW120705   6.513   1.911   1.402
 6602SOL    HW220706   6.373   1.989   1.372
 6603SOL     OW20707   2.327   2.857   3.069
 6603SOL    HW120708   2.411   2.910   3.076
 6603SOL    HW220709   2.307   2.815   3.158
 6604SOL     OW20710   4.071   6.134   3.438
 6604SOL    HW120711   4.058   6.231   3.420
 6604SOL    HW220712   4.110   6.089   3.357
 6605SOL     OW20713   5.741   6.275   0.121
 6605SOL    HW120714   5.692   6.298   0.205
 6605SOL    HW220715   5.805   6.348   0.098
 6606SOL     OW20716   5.651   1.476   2.815
 6606SOL    HW120717   5.736   1.423   2.811
 6606SOL    HW220718   5.606   1.461   2.903
 6607SOL     OW20719   1.040   2.471   3.805
 6607SOL    HW120720   1.064   2.374   3.810
 6607SOL    HW220721   1.078   2.519   3.884
 6608SOL     OW20722   5.491   3.437   4.262
 6608SOL    HW120723   5.520   3.351   4.222
 6608SOL    HW220724   5.571   3.488   4.294
 6609SOL     OW20725   5.862   2.073   6.472
 6609SOL    HW120726   5.765   2.073   6.447
 6609SOL    HW220727   5.889   1.981   6.503
 6610SOL     OW20728   2.895   1.167   0.099
 6610SOL    HW120729   2.897   1.187   0.001
 6610SOL    HW220730   2.812   1.206   0.139
 6611SOL     OW20731   5.779   3.233   2.952
 6611SOL    HW120732   5.818   3.157   3.003
 6611SOL    HW220733   5.836   3.314   2.966
 6612SOL     OW20734   1.252   6.080   6.515
 6612SOL    HW120735   1.217   6.041   6.430
 6612SOL    HW220736   1.297   6.008   6.568
 6613SOL     OW20737   4.926   5.341   1.568
 6613SOL    HW120738   5.022   5.328   1.542
 6613SOL    HW220739   4.916   5.332   1.667
 6614SOL     OW20740   5.336   6.018   5.857
 6614SOL    HW120741   5.271   6.017   5.933
 6614SOL    HW220742   5.429   6.034   5.892
 6615SOL     OW20743   1.144   4.270   5.431
 6615SOL    HW120744   1.226   4.309   5.391
 6615SOL    HW220745   1.066   4.331   5.414
 6616SOL     OW20746   4.505   0.457   4.572
 6616SOL    HW120747   4.484   0.443   4.475
 6616SOL    HW220748   4.459   0.539   4.605
 6617SOL     OW20749   4.666   0.350   4.848
 6617SOL    HW120750   4.728   0.418   4.809
 6617SOL    HW220751   4.575   0.362   4.810
 6618SOL     OW20752   0.851   4.549   1.569
 6618SOL    HW120753   0.927   4.509   1.518
 6618SOL    HW220754   0.786   4.478   1.594
 6619SOL     OW20755   5.642   5.952   2.469
 6619SOL    HW120756   5.706   5.888   2.512
 6619SOL    HW220757   5.551   5.910   2.463
 6620SOL     OW20758   3.406   2.613   5.537
 6620SOL    HW120759   3.399   2.704   5.496
 6620SOL    HW220760   3.346   2.550   5.487
 6621SOL     OW20761   2.705   4.147   6.922
 6621SOL    HW120762   2.756   4.221   6.967
 6621SOL    HW220763   2.628   4.119   6.979
 6622SOL     OW20764   6.121   6.754   0.199
 6622SOL    HW120765   6.201   6.791   0.151
 6622SOL    HW220766   6.151   6.688   0.267
 6623SOL     OW20767   3.522   3.727   2.417
 6623SOL    HW120768   3.549   3.684   2.502
 6623SOL    HW220769   3.456   3.669   2.369
 6624SOL     OW20770   4.220   4.727   4.281
 6624SOL    HW120771   4.207   4.816   4.237
 6624SOL    HW220772   4.132   4.680   4.286
 6625SOL     OW20773   6.081   0.458   0.229
 6625SOL    HW120774   5.997   0.495   0.189
 6625SOL    HW220775   6.140   0.533   0.258
 6626SOL     OW20776   3.474   4.896   3.487
 6626SOL    HW120777   3.550   4.917   3.426
 6626SOL    HW220778   3.507   4.892   3.581
 6627SOL     OW20779   1.925   6.253   1.637
 6627SOL    HW120780   1.860   6.299   1.698
 6627SOL    HW220781   2.018   6.273   1.667
 6628SOL     OW20782   4.064   6.053   3.178
 6628SOL    HW120783   4.012   6.062   3.093
 6628SOL    HW220784   4.155   6.017   3.158
 6629SOL     OW20785   3.391   4.165   0.079
 6629SOL    HW120786   3.399   4.066   0.091
 6629SOL    HW220787   3.381   4.208   0.169
 6630SOL     OW20788   2.812   2.398   5.694
 6630SOL    HW120789   2.769   2.437   5.776
 6630SOL    HW220790   2.911   2.413   5.698
 6631SOL     OW20791   4.047   0.819   2.227
 6631SOL    HW120792   3.972   0.812   2.294
 6631SOL    HW220793   4.080   0.727   2.205
 6632SOL     OW20794   7.007   2.556   2.228
 6632SOL    HW120795   0.008   2.460   2.245
 6632SOL    HW220796   0.014   2.612   2.305
 6633SOL     OW20797   0.397   6.987   1.368
 6633SOL    HW120798   0.397   0.011   1.457
 6633SOL    HW220799   0.462   6.911   1.370
 6634SOL     OW20800   6.639   3.109   5.960
 6634SOL    HW120801   6.624   3.058   6.044
 6634SOL    HW220802   6.732   3.145   5.959
 6635SOL     OW20803   4.443   4.583   3.542
 6635SOL    HW120804   4.440   4.620   3.449
 6635SOL    HW220805   4.469   4.655   3.606
 6636SOL     OW20806   1.225   2.695   4.048
 6636SOL    HW120807   1.250   2.598   4.041
 6636SOL    HW220808   1.290   2.750   3.995
 6637SOL     OW20809   6.904   1.307   1.446
 6637SOL    HW120810   6.856   1.294   1.533
 6637SOL    HW220811   6.839   1.303   1.370
 6638SOL     OW20812   2.431   5.785   5.899
 6638SOL    HW120813   2.365   5.833   5.957
 6638SOL    HW220814   2.394   5.778   5.806
 6639SOL     OW20815   5.261   5.556   6.855
 6639SOL    HW120816   5.329   5.505   6.802
 6639SOL    HW220817   5.308   5.624   6.912
 6640SOL     OW20818   6.180   3.126   3.444
 6640SOL    HW120819   6.166   3.096   3.539
 6640SOL    HW220820   6.277   3.121   3.422
 6641SOL     OW20821   1.966   4.132   6.816
 6641SOL    HW120822   1.986   4.228   6.797
 6641SOL    HW220823   2.049   4.085   6.844
 6642SOL     OW20824   0.102   6.439   0.140
 6642SOL    HW120825   0.112   6.482   0.050
 6642SOL    HW220826   0.037   6.363   0.134
 6643SOL     OW20827   4.384   5.250   6.659
 6643SOL    HW120828   4.476   5.280   6.684
 6643SOL    HW220829   4.323   5.329   6.656
 6644SOL     OW20830   2.844   4.737   2.158
 6644SOL    HW120831   2.859   4.830   2.125
 6644SOL    HW220832   2.841   4.674   2.081
 6645SOL     OW20833   6.474   5.129   5.251
 6645SOL    HW120834   6.395   5.068   5.240
 6645SOL    HW220835   6.529   5.099   5.329
 6646SOL     OW20836   1.990   5.927   3.395
 6646SOL    HW120837   1.991   5.837   3.440
 6646SOL    HW220838   2.071   5.935   3.336
 6647SOL     OW20839   3.625   1.976   2.200
 6647SOL    HW120840   3.622   2.060   2.146
 6647SOL    HW220841   3.626   1.897   2.139
 6648SOL     OW20842   4.943   6.079   2.386
 6648SOL    HW120843   4.893   6.045   2.306
 6648SOL    HW220844   4.945   6.179   2.384
 6649SOL     OW20845   3.610   2.291   6.353
 6649SOL    HW120846   3.574   2.384   6.363
 6649SOL    HW220847   3.636   2.255   6.442
 6650SOL     OW20848   3.083   2.044   3.260
 6650SOL    HW120849   3.077   2.119   3.193
 6650SOL    HW220850   3.121   1.963   3.215
 6651SOL     OW20851   1.280   2.615   6.532
 6651SOL    HW120852   1.318   2.673   6.460
 6651SOL    HW220853   1.321   2.640   6.620
 6652SOL     OW20854   0.200   5.444   2.953
 6652SOL    HW120855   0.273   5.461   3.019
 6652SOL    HW220856   0.190   5.524   2.893
 6653SOL     OW20857   2.878   3.537   3.661
 6653SOL    HW120858   2.860   3.481   3.742
 6653SOL    HW220859   2.925   3.621   3.688
 6654SOL     OW20860   2.160   3.415   1.636
 6654SOL    HW120861   2.151   3.316   1.635
 6654SOL    HW220862   2.211   3.444   1.716
 6655SOL     OW20863   2.135   0.494   0.972
 6655SOL    HW120864   2.112   0.447   1.057
 6655SOL    HW220865   2.051   0.527   0.928
 6656SOL     OW20866   6.151   2.057   1.437
 6656SOL    HW120867   6.159   2.150   1.403
 6656SOL    HW220868   6.143   2.058   1.537
 6657SOL     OW20869   2.522   5.574   6.069
 6657SOL    HW120870   2.472   5.593   6.153
 6657SOL    HW220871   2.495   5.641   5.999
 6658SOL     OW20872   4.870   0.940   5.929
 6658SOL    HW120873   4.801   0.994   5.977
 6658SOL    HW220874   4.956   0.945   5.978
 6659SOL     OW20875   1.107   3.331   6.523
 6659SOL    HW120876   1.202   3.361   6.530
 6659SOL    HW220877   1.089   3.259   6.591
 6660SOL     OW20878   0.074   6.746   3.238
 6660SOL    HW120879   0.090   6.759   3.140
 6660SOL    HW220880   0.101   6.828   3.288
 6661SOL     OW20881   0.039   6.054   3.729
 6661SOL    HW120882   0.030   6.002   3.644
 6661SOL    HW220883   0.136   6.072   3.747
 6662SOL     OW20884   0.908   3.622   5.867
 6662SOL    HW120885   1.004   3.594   5.866
 6662SOL    HW220886   0.901   3.714   5.906
 6663SOL     OW20887   0.162   5.883   1.965
 6663SOL    HW120888   0.258   5.866   1.989
 6663SOL    HW220889   0.125   5.955   2.023
 6664SOL     OW20890   0.782   1.785   2.822
 6664SOL    HW120891   0.703   1.723   2.819
 6664SOL    HW220892   0.859   1.739   2.866
 6665SOL     OW20893   2.880   6.674   2.470
 6665SOL    HW120894   2.823   6.721   2.537
 6665SOL    HW220895   2.936   6.741   2.422
 6666SOL     OW20896   6.518   0.197   0.406
 6666SOL    HW120897   6.473   0.151   0.330
 6666SOL    HW220898   6.609   0.228   0.377
 6667SOL     OW20899   6.685   5.346   4.387
 6667SOL    HW120900   6.737   5.428   4.361
 6667SOL    HW220901   6.747   5.269   4.398
 6668SOL     OW20902   0.516   5.506   1.708
 6668SOL    HW120903   0.601   5.517   1.759
 6668SOL    HW220904   0.460   5.435   1.752
 6669SOL     OW20905   1.630   5.182   2.606
 6669SOL    HW120906   1.657   5.253   2.541
 6669SOL    HW220907   1.703   5.170   2.673
 6670SOL     OW20908   3.524   4.702   0.389
 6670SOL    HW120909   3.485   4.742   0.306
 6670SOL    HW220910   3.578   4.621   0.365
 6671SOL     OW20911   0.184   2.430   5.157
 6671SOL    HW120912   0.191   2.529   5.140
 6671SOL    HW220913   0.230   2.381   5.083
 6672SOL     OW20914   1.412   0.833   5.204
 6672SOL    HW120915   1.335   0.832   5.269
 6672SOL    HW220916   1.490   0.786   5.245
 6673SOL     OW20917   4.790   5.024   1.699
 6673SOL    HW120918   4.855   4.976   1.641
 6673SOL    HW220919   4.709   4.967   1.712
 6674SOL     OW20920   1.090   0.072   4.294
 6674SOL    HW120921   1.161   0.108   4.234
 6674SOL    HW220922   1.113   7.001   4.320
 6675SOL     OW20923   6.242   5.694   0.534
 6675SOL    HW120924   6.263   5.646   0.449
 6675SOL    HW220925   6.164   5.755   0.521
 6676SOL     OW20926   1.338   2.379   6.413
 6676SOL    HW120927   1.314   2.462   6.463
 6676SOL    HW220928   1.266   2.311   6.425
 6677SOL     OW20929   6.945   4.085   0.144
 6677SOL    HW120930   0.020   4.074   0.164
 6677SOL    HW220931   6.894   4.091   0.230
 6678SOL     OW20932   1.231   3.086   5.030
 6678SOL    HW120933   1.278   3.025   4.966
 6678SOL    HW220934   1.298   3.122   5.096
 6679SOL     OW20935   1.579   2.073   4.619
 6679SOL    HW120936   1.619   2.164   4.625
 6679SOL    HW220937   1.622   2.022   4.544
 6680SOL     OW20938   2.587   6.618   6.529
 6680SOL    HW120939   2.553   6.524   6.531
 6680SOL    HW220940   2.608   6.647   6.623
 6681SOL     OW20941   5.813   5.222   0.240
 6681SOL    HW120942   5.787   5.219   0.336
 6681SOL    HW220943   5.832   5.317   0.213
 6682SOL     OW20944   7.022   6.012   2.459
 6682SOL    HW120945   0.032   5.917   2.459
 6682SOL    HW220946   6.922   6.013   2.453
 6683SOL     OW20947   5.236   2.162   3.945
 6683SOL    HW120948   5.191   2.080   3.911
 6683SOL    HW220949   5.280   2.143   4.033
 6684SOL     OW20950   2.063   6.954   2.126
 6684SOL    HW120951   2.083   0.007   2.063
 6684SOL    HW220952   1.973   6.916   2.104
 6685SOL     OW20953   4.795   3.462   6.085
 6685SOL    HW120954   4.869   3.525   6.110
 6685SOL    HW220955   4.808   3.376   6.134
 6686SOL     OW20956   5.707   4.024   4.042
 6686SOL    HW120957   5.619   4.030   3.995
 6686SOL    HW220958   5.780   4.042   3.976
 6687SOL     OW20959   1.543   1.522   0.363
 6687SOL    HW120960   1.600   1.542   0.283
 6687SOL    HW220961   1.499   1.433   0.351
 6688SOL     OW20962   0.601   4.747   3.119
 6688SOL    HW120963   0.630   4.698   3.201
 6688SOL    HW220964   0.504   4.770   3.126
 6689SOL     OW20965   4.319   5.063   6.903
 6689SOL    HW120966   4.241   5.102   6.951
 6689SOL    HW220967   4.329   5.107   6.814
 6690SOL     OW20968   1.620   2.561   0.825
 6690SOL    HW120969   1.557   2.624   0.781
 6690SOL    HW220970   1.634   2.588   0.920
 6691SOL     OW20971   2.036   5.026   1.428
 6691SOL    HW120972   2.088   5.085   1.491
 6691SOL    HW220973   2.071   4.933   1.436
 6692SOL     OW20974   3.335   4.118   6.004
 6692SOL    HW120975   3.343   4.177   5.924
 6692SOL    HW220976   3.423   4.113   6.051
 6693SOL     OW20977   3.748   3.782   4.738
 6693SOL    HW120978   3.753   3.865   4.682
 6693SOL    HW220979   3.655   3.746   4.736
 6694SOL     OW20980   2.747   6.495   0.741
 6694SOL    HW120981   2.655   6.458   0.751
 6694SOL    HW220982   2.807   6.453   0.810
 6695SOL     OW20983   1.523   1.471   0.016
 6695SOL    HW120984   1.542   1.465   6.941
 6695SOL    HW220985   1.471   1.391   0.045
 6696SOL     OW20986   2.116   3.200   2.096
 6696SOL    HW120987   2.202   3.241   2.067
 6696SOL    HW220988   2.050   3.205   2.021
 6697SOL     OW20989   5.169   1.412   3.092
 6697SOL    HW120990   5.104   1.418   3.168
 6697SOL    HW220991   5.197   1.504   3.065
 6698SOL     OW20992   3.734   3.543   0.470
 6698SOL    HW120993   3.657   3.601   0.497
 6698SOL    HW220994   3.758   3.483   0.546
 6699SOL     OW20995   1.028   3.594   6.873
 6699SOL    HW120996   0.956   3.526   6.883
 6699SOL    HW220997   1.117   3.549   6.880
 6700SOL     OW20998   6.474   6.444   6.593
 6700SOL    HW120999   6.561   6.482   6.625
 6700SOL    HW221000   6.400   6.472   6.654
 6701SOL     OW21001   0.890   2.149   0.532
 6701SOL    HW121002   0.915   2.213   0.605
 6701SOL    HW221003   0.955   2.073   0.529
 6702SOL     OW21004   2.102   2.291   1.307
 6702SOL    HW121005   2.008   2.323   1.296
 6702SOL    HW221006   2.110   2.198   1.270
 6703SOL     OW21007   0.385   2.057   6.449
 6703SOL    HW121008   0.416   2.150   6.431
 6703SOL    HW221009   0.367   2.046   6.546
 6704SOL     OW21010   5.289   1.918   3.070
 6704SOL    HW121011   5.257   2.006   3.104
 6704SOL    HW221012   5.330   1.929   2.980
 6705SOL     OW21013   6.147   1.457   0.394
 6705SOL    HW121014   6.055   1.416   0.398
 6705SOL    HW221015   6.185   1.442   0.303
 6706SOL     OW21016   0.632   5.078   6.148
 6706SOL    HW121017   0.655   5.005   6.212
 6706SOL    HW221018   0.613   5.039   6.058
 6707SOL     OW21019   1.428   5.833   2.182
 6707SOL    HW121020   1.390   5.925   2.190
 6707SOL    HW221021   1.468   5.821   2.091
 6708SOL     OW21022   2.209   6.012   1.139
 6708SOL    HW121023   2.193   5.939   1.206
 6708SOL    HW221024   2.234   6.096   1.187
 6709SOL     OW21025   5.502   1.135   2.871
 6709SOL    HW121026   5.597   1.120   2.899
 6709SOL    HW221027   5.470   1.223   2.908
 6710SOL     OW21028   2.402   2.858   1.278
 6710SOL    HW121029   2.458   2.795   1.332
 6710SOL    HW221030   2.328   2.895   1.335
 6711SOL     OW21031   3.938   3.986   0.301
 6711SOL    HW121032   3.982   4.074   0.283
 6711SOL    HW221033   3.991   3.935   0.369
 6712SOL     OW21034   3.523   5.939   0.635
 6712SOL    HW121035   3.593   5.868   0.629
 6712SOL    HW221036   3.508   5.963   0.731
 6713SOL     OW21037   2.057   1.544   2.003
 6713SOL    HW121038   2.062   1.446   1.981
 6713SOL    HW221039   2.127   1.567   2.070
 6714SOL     OW21040   6.632   0.305   3.920
 6714SOL    HW121041   6.669   0.387   3.877
 6714SOL    HW221042   6.669   0.224   3.874
 6715SOL     OW21043   0.741   1.885   0.898
 6715SOL    HW121044   0.750   1.982   0.875
 6715SOL    HW221045   0.769   1.829   0.820
 6716SOL     OW21046   2.587   5.567   0.573
 6716SOL    HW121047   2.530   5.486   0.579
 6716SOL    HW221048   2.558   5.622   0.494
 6717SOL     OW21049   3.683   1.791   6.436
 6717SOL    HW121050   3.780   1.770   6.447
 6717SOL    HW221051   3.629   1.709   6.450
 6718SOL     OW21052   3.520   0.009   0.230
 6718SOL    HW121053   3.502   0.094   0.279
 6718SOL    HW221054   3.476   0.012   0.140
 6719SOL     OW21055   0.757   0.638   5.371
 6719SOL    HW121056   0.753   0.560   5.434
 6719SOL    HW221057   0.726   0.609   5.281
 6720SOL     OW21058   2.052   4.666   1.566
 6720SOL    HW121059   2.060   4.717   1.480
 6720SOL    HW221060   1.972   4.606   1.562
 6721SOL     OW21061   6.460   6.943   3.820
 6721SOL    HW121062   6.518   7.017   3.786
 6721SOL    HW221063   6.513   6.883   3.879
 6722SOL     OW21064   4.666   3.688   0.024
 6722SOL    HW121065   4.697   3.712   6.954
 6722SOL    HW221066   4.572   3.722   0.037
 6723SOL     OW21067   3.916   6.606   1.490
 6723SOL    HW121068   4.003   6.656   1.499
 6723SOL    HW221069   3.842   6.662   1.526
 6724SOL     OW21070   3.507   4.694   5.563
 6724SOL    HW121071   3.412   4.664   5.573
 6724SOL    HW221072   3.552   4.691   5.653
 6725SOL     OW21073   0.532   4.761   2.337
 6725SOL    HW121074   0.498   4.690   2.399
 6725SOL    HW221075   0.625   4.738   2.308
 6726SOL     OW21076   2.511   2.473   2.562
 6726SOL    HW121077   2.542   2.529   2.485
 6726SOL    HW221078   2.468   2.390   2.527
 6727SOL     OW21079   3.794   4.133   7.022
 6727SOL    HW121080   3.840   4.197   0.062
 6727SOL    HW221081   3.859   4.065   6.989
 6728SOL     OW21082   4.840   1.125   4.054
 6728SOL    HW121083   4.906   1.196   4.030
 6728SOL    HW221084   4.756   1.138   4.001
 6729SOL     OW21085   6.109   6.620   2.921
 6729SOL    HW121086   6.202   6.652   2.936
 6729SOL    HW221087   6.096   6.598   2.824
 6730SOL     OW21088   1.388   6.993   0.974
 6730SOL    HW121089   1.452   6.930   0.931
 6730SOL    HW221090   1.368   6.962   1.067
 6731SOL     OW21091   2.458   4.755   2.174
 6731SOL    HW121092   2.378   4.700   2.194
 6731SOL    HW221093   2.504   4.781   2.259
 6732SOL     OW21094   1.714   4.524   0.893
 6732SOL    HW121095   1.629   4.558   0.932
 6732SOL    HW221096   1.751   4.592   0.829
 6733SOL     OW21097   5.444   5.715   5.585
 6733SOL    HW121098   5.379   5.777   5.540
 6733SOL    HW221099   5.443   5.627   5.537
 6734SOL     OW21100   2.490   3.522   5.348
 6734SOL    HW121101   2.451   3.433   5.326
 6734SOL    HW221102   2.426   3.594   5.321
 6735SOL     OW21103   0.003   5.145   6.420
 6735SOL    HW121104   7.019   5.243   6.437
 6735SOL    HW221105   6.933   5.108   6.406
 6736SOL     OW21106   2.141   3.560   2.610
 6736SOL    HW121107   2.182   3.514   2.531
 6736SOL    HW221108   2.109   3.491   2.675
 6737SOL     OW21109   2.243   0.989   1.334
 6737SOL    HW121110   2.296   1.039   1.402
 6737SOL    HW221111   2.148   1.020   1.337
 6738SOL     OW21112   3.963   1.693   2.262
 6738SOL    HW121113   3.888   1.673   2.324
 6738SOL    HW221114   4.010   1.777   2.292
 6739SOL     OW21115   4.431   6.758   4.759
 6739SOL    HW121116   4.465   6.845   4.724
 6739SOL    HW221117   4.440   6.756   4.859
 6740SOL     OW21118   6.052   2.845   4.525
 6740SOL    HW121119   6.063   2.746   4.522
 6740SOL    HW221120   6.031   2.879   4.433
 6741SOL     OW21121   0.161   0.034   5.945
 6741SOL    HW121122   0.195   6.977   5.896
 6741SOL    HW221123   0.107   0.092   5.883
 6742SOL     OW21124   6.278   5.932   5.817
 6742SOL    HW121125   6.346   5.859   5.805
 6742SOL    HW221126   6.194   5.907   5.769
 6743SOL     OW21127   4.788   3.164   0.731
 6743SOL    HW121128   4.747   3.255   0.726
 6743SOL    HW221129   4.715   3.095   0.725
 6744SOL     OW21130   5.351   5.231   5.565
 6744SOL    HW121131   5.286   5.158   5.546
 6744SOL    HW221132   5.316   5.288   5.639
 6745SOL     OW21133   0.263   3.502   3.807
 6745SOL    HW121134   0.325   3.505   3.885
 6745SOL    HW221135   0.305   3.449   3.733
 6746SOL     OW21136   6.667   1.345   1.275
 6746SOL    HW121137   6.684   1.257   1.231
 6746SOL    HW221138   6.682   1.419   1.209
 6747SOL     OW21139   5.251   6.275   6.217
 6747SOL    HW121140   5.316   6.307   6.286
 6747SOL    HW221141   5.294   6.280   6.126
 6748SOL     OW21142   6.606   6.524   2.012
 6748SOL    HW121143   6.663   6.536   1.931
 6748SOL    HW221144   6.653   6.463   2.077
 6749SOL     OW21145   3.317   5.824   0.908
 6749SOL    HW121146   3.268   5.826   0.821
 6749SOL    HW221147   3.254   5.842   0.983
 6750SOL     OW21148   2.387   3.264   5.311
 6750SOL    HW121149   2.331   3.229   5.387
 6750SOL    HW221150   2.433   3.188   5.265
 6751SOL     OW21151   3.277   2.302   5.564
 6751SOL    HW121152   3.290   2.208   5.597
 6751SOL    HW221153   3.339   2.319   5.488
 6752SOL     OW21154   6.195   2.165   0.497
 6752SOL    HW121155   6.202   2.079   0.445
 6752SOL    HW221156   6.193   2.242   0.434
 6753SOL     OW21157   5.123   1.553   6.066
 6753SOL    HW121158   5.139   1.471   6.011
 6753SOL    HW221159   5.025   1.573   6.066
 6754SOL     OW21160   5.057   1.088   0.335
 6754SOL    HW121161   5.120   1.018   0.370
 6754SOL    HW221162   4.985   1.044   0.281
 6755SOL     OW21163   5.342   1.661   3.115
 6755SOL    HW121164   5.310   1.756   3.114
 6755SOL    HW221165   5.391   1.643   3.200
 6756SOL     OW21166   5.056   4.382   3.681
 6756SOL    HW121167   5.110   4.303   3.652
 6756SOL    HW221168   4.959   4.357   3.682
 6757SOL     OW21169   5.073   4.960   2.458
 6757SOL    HW121170   5.173   4.958   2.461
 6757SOL    HW221171   5.038   4.988   2.547
 6758SOL     OW21172   6.124   1.891   2.905
 6758SOL    HW121173   6.191   1.817   2.913
 6758SOL    HW221174   6.169   1.978   2.924
 6759SOL     OW21175   0.936   4.378   3.328
 6759SOL    HW121176   0.872   4.304   3.308
 6759SOL    HW221177   1.028   4.352   3.298
 6760SOL     OW21178   0.131   4.520   5.010
 6760SOL    HW121179   0.211   4.466   4.983
 6760SOL    HW221180   0.091   4.482   5.093
 6761SOL     OW21181   5.941   3.605   6.383
 6761SOL    HW121182   5.994   3.669   6.327
 6761SOL    HW221183   5.905   3.653   6.464
 6762SOL     OW21184   5.663   4.769   3.412
 6762SOL    HW121185   5.584   4.828   3.428
 6762SOL    HW221186   5.652   4.683   3.461
 6763SOL     OW21187   5.866   6.388   5.625
 6763SOL    HW121188   5.797   6.316   5.621
 6763SOL    HW221189   5.822   6.477   5.615
 6764SOL     OW21190   2.155   3.509   0.245
 6764SOL    HW121191   2.057   3.517   0.232
 6764SOL    HW221192   2.177   3.418   0.282
 6765SOL     OW21193   5.017   5.280   2.865
 6765SOL    HW121194   4.931   5.229   2.863
 6765SOL    HW221195   4.998   5.378   2.860
 6766SOL     OW21196   1.543   1.714   5.469
 6766SOL    HW121197   1.504   1.800   5.502
 6766SOL    HW221198   1.636   1.729   5.436
 6767SOL     OW21199   1.092   2.917   5.442
 6767SOL    HW121200   1.000   2.950   5.425
 6767SOL    HW221201   1.130   2.878   5.358
 6768SOL     OW21202   0.466   0.251   5.466
 6768SOL    HW121203   0.383   0.208   5.500
 6768SOL    HW221204   0.545   0.221   5.521
 6769SOL     OW21205   0.988   2.950   6.524
 6769SOL    HW121206   1.032   3.009   6.592
 6769SOL    HW221207   0.892   2.937   6.549
 6770SOL     OW21208   6.694   1.245   4.259
 6770SOL    HW121209   6.702   1.267   4.356
 6770SOL    HW221210   6.707   1.147   4.247
 6771SOL     OW21211   4.405   1.810   2.364
 6771SOL    HW121212   4.381   1.817   2.267
 6771SOL    HW221213   4.436   1.899   2.397
 6772SOL     OW21214   1.044   0.895   1.668
 6772SOL    HW121215   1.129   0.845   1.681
 6772SOL    HW221216   1.058   0.967   1.600
 6773SOL     OW21217   0.841   0.566   1.892
 6773SOL    HW121218   0.789   0.527   1.968
 6773SOL    HW221219   0.792   0.645   1.855
 6774SOL     OW21220   3.111   1.088   5.860
 6774SOL    HW121221   3.139   1.183   5.874
 6774SOL    HW221222   3.090   1.074   5.763
 6775SOL     OW21223   1.017   3.217   5.125
 6775SOL    HW121224   1.085   3.154   5.087
 6775SOL    HW221225   0.965   3.171   5.197
 6776SOL     OW21226   3.298   3.889   3.108
 6776SOL    HW121227   3.251   3.952   3.047
 6776SOL    HW221228   3.248   3.881   3.194
 6777SOL     OW21229   0.536   6.939   6.459
 6777SOL    HW121230   0.508   0.013   6.465
 6777SOL    HW221231   0.596   6.918   6.537
 6778SOL     OW21232   6.375   6.188   2.493
 6778SOL    HW121233   6.367   6.096   2.455
 6778SOL    HW221234   6.290   6.212   2.540
 6779SOL     OW21235   4.711   4.484   6.717
 6779SOL    HW121236   4.748   4.450   6.803
 6779SOL    HW221237   4.612   4.490   6.722
 6780SOL     OW21238   3.940   1.181   2.608
 6780SOL    HW121239   4.022   1.129   2.629
 6780SOL    HW221240   3.922   1.247   2.681
 6781SOL     OW21241   6.072   2.732   3.042
 6781SOL    HW121242   6.029   2.642   3.033
 6781SOL    HW221243   6.120   2.737   3.130
 6782SOL     OW21244   0.226   1.501   3.297
 6782SOL    HW121245   0.254   1.509   3.392
 6782SOL    HW221246   0.306   1.509   3.237
 6783SOL     OW21247   0.557   6.064   6.006
 6783SOL    HW121248   0.529   5.972   6.032
 6783SOL    HW221249   0.657   6.070   6.007
 6784SOL     OW21250   1.473   4.655   0.995
 6784SOL    HW121251   1.521   4.743   0.993
 6784SOL    HW221252   1.418   4.646   0.912
 6785SOL     OW21253   5.756   4.702   3.159
 6785SOL    HW121254   5.711   4.726   3.245
 6785SOL    HW221255   5.686   4.676   3.091
 6786SOL     OW21256   6.406   2.065   5.911
 6786SOL    HW121257   6.419   1.977   5.866
 6786SOL    HW221258   6.315   2.068   5.952
 6787SOL     OW21259   3.127   1.313   0.633
 6787SOL    HW121260   3.215   1.272   0.609
 6787SOL    HW221261   3.056   1.279   0.571
 6788SOL     OW21262   0.610   4.421   1.324
 6788SOL    HW121263   0.544   4.346   1.323
 6788SOL    HW221264   0.703   4.384   1.326
 6789SOL     OW21265   6.013   4.451   2.673
 6789SOL    HW121266   5.963   4.486   2.752
 6789SOL    HW221267   6.085   4.389   2.705
 6790SOL     OW21268   0.565   6.180   1.350
 6790SOL    HW121269   0.572   6.080   1.342
 6790SOL    HW221270   0.496   6.213   1.285
 6791SOL     OW21271   2.469   6.029   3.557
 6791SOL    HW121272   2.493   5.950   3.614
 6791SOL    HW221273   2.526   6.107   3.583
 6792SOL     OW21274   3.493   6.766   6.186
 6792SOL    HW121275   3.536   6.678   6.204
 6792SOL    HW221276   3.496   6.823   6.268
 6793SOL     OW21277   2.370   3.643   6.052
 6793SOL    HW121278   2.354   3.551   6.088
 6793SOL    HW221279   2.467   3.664   6.057
 6794SOL     OW21280   5.004   2.767   4.608
 6794SOL    HW121281   5.094   2.770   4.563
 6794SOL    HW221282   4.967   2.675   4.600
 6795SOL     OW21283   0.617   0.647   1.604
 6795SOL    HW121284   0.604   0.706   1.683
 6795SOL    HW221285   0.701   0.673   1.557
 6796SOL     OW21286   0.057   2.246   2.323
 6796SOL    HW121287   0.069   2.212   2.229
 6796SOL    HW221288   7.009   2.193   2.369
 6797SOL     OW21289   1.746   3.023   1.174
 6797SOL    HW121290   1.753   3.086   1.097
 6797SOL    HW221291   1.652   3.023   1.209
 6798SOL     OW21292   4.933   1.385   1.981
 6798SOL    HW121293   5.019   1.421   2.018
 6798SOL    HW221294   4.947   1.358   1.886
 6799SOL     OW21295   6.657   0.145   2.648
 6799SOL    HW121296   6.659   0.216   2.578
 6799SOL    HW221297   6.564   0.136   2.684
 6800SOL     OW21298   6.444   3.093   1.987
 6800SOL    HW121299   6.470   3.022   1.922
 6800SOL    HW221300   6.523   3.151   2.008
 6801SOL     OW21301   1.579   5.660   6.068
 6801SOL    HW121302   1.671   5.621   6.080
 6801SOL    HW221303   1.570   5.741   6.127
 6802SOL     OW21304   3.016   4.811   1.862
 6802SOL    HW121305   2.970   4.723   1.851
 6802SOL    HW221306   3.103   4.809   1.812
 6803SOL     OW21307   5.243   5.076   6.491
 6803SOL    HW121308   5.219   5.025   6.408
 6803SOL    HW221309   5.212   5.024   6.571
 6804SOL     OW21310   3.424   5.378   2.301
 6804SOL    HW121311   3.497   5.443   2.321
 6804SOL    HW221312   3.451   5.321   2.223
 6805SOL     OW21313   0.822   3.879   3.828
 6805SOL    HW121314   0.850   3.846   3.737
 6805SOL    HW221315   0.837   3.978   3.833
 6806SOL     OW21316   5.951   3.468   2.570
 6806SOL    HW121317   6.010   3.419   2.505
 6806SOL    HW221318   5.986   3.455   2.663
 6807SOL     OW21319   2.867   3.699   2.312
 6807SOL    HW121320   2.790   3.672   2.370
 6807SOL    HW221321   2.841   3.689   2.216
 6808SOL     OW21322   3.854   0.310   3.626
 6808SOL    HW121323   3.934   0.349   3.672
 6808SOL    HW221324   3.875   0.217   3.597
 6809SOL     OW21325   5.839   2.842   0.624
 6809SOL    HW121326   5.753   2.862   0.578
 6809SOL    HW221327   5.869   2.750   0.599
 6810SOL     OW21328   2.895   0.663   5.098
 6810SOL    HW121329   2.950   0.746   5.093
 6810SOL    HW221330   2.905   0.611   5.014
 6811SOL     OW21331   6.830   1.838   1.313
 6811SOL    HW121332   6.779   1.764   1.356
 6811SOL    HW221333   6.772   1.882   1.244
 6812SOL     OW21334   3.146   4.347   5.460
 6812SOL    HW121335   3.171   4.253   5.482
 6812SOL    HW221336   3.046   4.354   5.451
 6813SOL     OW21337   6.823   4.204   2.244
 6813SOL    HW121338   6.813   4.133   2.174
 6813SOL    HW221339   6.919   4.228   2.253
 6814SOL     OW21340   5.653   1.378   0.899
 6814SOL    HW121341   5.681   1.333   0.984
 6814SOL    HW221342   5.560   1.351   0.875
 6815SOL     OW21343   0.515   5.935   6.865
 6815SOL    HW121344   0.541   6.029   6.888
 6815SOL    HW221345   0.456   5.899   6.938
 6816SOL     OW21346   6.659   6.916   4.269
 6816SOL    HW121347   6.736   6.889   4.327
 6816SOL    HW221348   6.583   6.946   4.326
 6817SOL     OW21349   5.090   1.943   1.859
 6817SOL    HW121350   5.077   1.861   1.915
 6817SOL    HW221351   5.131   1.918   1.771
 6818SOL     OW21352   1.186   0.036   5.089
 6818SOL    HW121353   1.086   0.034   5.095
 6818SOL    HW221354   1.224   0.068   5.175
 6819SOL     OW21355   4.894   4.093   1.437
 6819SOL    HW121356   4.989   4.096   1.467
 6819SOL    HW221357   4.853   4.184   1.447
 6820SOL     OW21358   2.707   5.323   1.458
 6820SOL    HW121359   2.649   5.305   1.379
 6820SOL    HW221360   2.803   5.327   1.429
 6821SOL     OW21361   2.849   2.755   6.378
 6821SOL    HW121362   2.899   2.834   6.416
 6821SOL    HW221363   2.914   2.684   6.352
 6822SOL     OW21364   5.918   3.510   5.452
 6822SOL    HW121365   5.981   3.432   5.464
 6822SOL    HW221366   5.861   3.494   5.371
 6823SOL     OW21367   0.007   2.993   6.070
 6823SOL    HW121368   6.961   3.002   6.142
 6823SOL    HW221369   0.098   2.988   6.112
 6824SOL     OW21370   1.522   0.568   5.033
 6824SOL    HW121371   1.568   0.542   5.118
 6824SOL    HW221372   1.581   0.546   4.955
 6825SOL     OW21373   4.359   4.441   1.524
 6825SOL    HW121374   4.401   4.484   1.604
 6825SOL    HW221375   4.333   4.512   1.458
 6826SOL     OW21376   5.784   0.340   3.152
 6826SOL    HW121377   5.796   0.439   3.143
 6826SOL    HW221378   5.747   0.319   3.242
 6827SOL     OW21379   4.611   5.674   5.540
 6827SOL    HW121380   4.627   5.677   5.442
 6827SOL    HW221381   4.520   5.712   5.560
 6828SOL     OW21382   3.217   1.991   2.135
 6828SOL    HW121383   3.149   2.055   2.099
 6828SOL    HW221384   3.302   2.001   2.083
 6829SOL     OW21385   4.507   6.560   4.160
 6829SOL    HW121386   4.607   6.563   4.170
 6829SOL    HW221387   4.476   6.466   4.169
 6830SOL     OW21388   4.146   5.367   2.328
 6830SOL    HW121389   4.197   5.449   2.302
 6830SOL    HW221390   4.128   5.312   2.247
 6831SOL     OW21391   1.288   1.544   6.551
 6831SOL    HW121392   1.271   1.447   6.568
 6831SOL    HW221393   1.383   1.556   6.520
 6832SOL     OW21394   3.039   2.776   6.793
 6832SOL    HW121395   2.975   2.745   6.723
 6832SOL    HW221396   3.103   2.841   6.753
 6833SOL     OW21397   4.266   5.105   6.352
 6833SOL    HW121398   4.277   5.092   6.450
 6833SOL    HW221399   4.188   5.165   6.335
 6834SOL     OW21400   5.949   6.097   6.252
 6834SOL    HW121401   6.013   6.020   6.249
 6834SOL    HW221402   5.983   6.171   6.193
 6835SOL     OW21403   3.694   0.938   3.505
 6835SOL    HW121404   3.600   0.915   3.480
 6835SOL    HW221405   3.701   0.946   3.604
 6836SOL     OW21406   0.392   4.266   6.252
 6836SOL    HW121407   0.375   4.319   6.335
 6836SOL    HW221408   0.490   4.268   6.231
 6837SOL     OW21409   6.495   0.671   1.828
 6837SOL    HW121410   6.591   0.697   1.841
 6837SOL    HW221411   6.437   0.731   1.883
 6838SOL     OW21412   3.101   4.026   5.868
 6838SOL    HW121413   3.089   4.120   5.833
 6838SOL    HW221414   3.179   4.023   5.931
 6839SOL     OW21415   5.700   3.031   4.853
 6839SOL    HW121416   5.758   3.105   4.819
 6839SOL    HW221417   5.731   2.945   4.813
 6840SOL     OW21418   2.729   5.914   4.872
 6840SOL    HW121419   2.688   5.986   4.927
 6840SOL    HW221420   2.766   5.843   4.932
 6841SOL     OW21421   4.815   6.839   1.014
 6841SOL    HW121422   4.740   6.776   1.035
 6841SOL    HW221423   4.885   6.792   0.962
 6842SOL     OW21424   0.425   3.960   4.200
 6842SOL    HW121425   0.395   3.873   4.161
 6842SOL    HW221426   0.352   4.028   4.192
 6843SOL     OW21427   4.643   2.719   1.828
 6843SOL    HW121428   4.659   2.814   1.852
 6843SOL    HW221429   4.559   2.712   1.774
 6844SOL     OW21430   3.368   6.029   4.473
 6844SOL    HW121431   3.314   5.982   4.543
 6844SOL    HW221432   3.428   5.963   4.428
 6845SOL     OW21433   4.298   4.276   0.298
 6845SOL    HW121434   4.233   4.229   0.239
 6845SOL    HW221435   4.295   4.375   0.280
 6846SOL     OW21436   4.107   3.303   2.724
 6846SOL    HW121437   4.078   3.208   2.737
 6846SOL    HW221438   4.051   3.363   2.782
 6847SOL     OW21439   6.600   3.460   1.413
 6847SOL    HW121440   6.638   3.368   1.418
 6847SOL    HW221441   6.617   3.509   1.499
 6848SOL     OW21442   0.287   6.081   4.336
 6848SOL    HW121443   0.377   6.122   4.326
 6848SOL    HW221444   0.218   6.153   4.347
 6849SOL     OW21445   3.162   6.652   4.606
 6849SOL    HW121446   3.075   6.702   4.614
 6849SOL    HW221447   3.181   6.605   4.692
 6850SOL     OW21448   5.646   3.729   1.682
 6850SOL    HW121449   5.624   3.645   1.731
 6850SOL    HW221450   5.568   3.756   1.626
 6851SOL     OW21451   1.098   5.238   5.576
 6851SOL    HW121452   1.122   5.152   5.620
 6851SOL    HW221453   1.003   5.261   5.596
 6852SOL     OW21454   6.462   5.154   2.500
 6852SOL    HW121455   6.492   5.194   2.587
 6852SOL    HW221456   6.460   5.055   2.508
 6853SOL     OW21457   6.339   4.211   4.912
 6853SOL    HW121458   6.416   4.161   4.951
 6853SOL    HW221459   6.262   4.211   4.977
 6854SOL     OW21460   6.828   1.920   6.189
 6854SOL    HW121461   6.767   1.900   6.266
 6854SOL    HW221462   6.780   1.899   6.103
 6855SOL     OW21463   2.868   6.762   2.001
 6855SOL    HW121464   2.806   6.787   2.075
 6855SOL    HW221465   2.959   6.798   2.020
 6856SOL     OW21466   6.872   4.912   5.563
 6856SOL    HW121467   6.950   4.943   5.616
 6856SOL    HW221468   6.803   4.873   5.625
 6857SOL     OW21469   3.477   0.964   6.314
 6857SOL    HW121470   3.454   1.061   6.309
 6857SOL    HW221471   3.560   0.953   6.368
 6858SOL     OW21472   3.629   3.144   5.734
 6858SOL    HW121473   3.711   3.091   5.753
 6858SOL    HW221474   3.629   3.173   5.638
 6859SOL     OW21475   3.248   0.930   0.520
 6859SOL    HW121476   3.178   0.889   0.578
 6859SOL    HW221477   3.239   0.896   0.427
 6860SOL     OW21478   4.391   3.946   6.740
 6860SOL    HW121479   4.370   3.975   6.646
 6860SOL    HW221480   4.458   4.008   6.780
 6861SOL     OW21481   5.464   4.064   0.745
 6861SOL    HW121482   5.453   4.143   0.805
 6861SOL    HW221483   5.426   4.085   0.655
 6862SOL     OW21484   2.739   5.034   4.135
 6862SOL    HW121485   2.812   4.989   4.188
 6862SOL    HW221486   2.667   5.064   4.197
 6863SOL     OW21487   0.683   2.833   4.106
 6863SOL    HW121488   0.640   2.745   4.123
 6863SOL    HW221489   0.765   2.842   4.163
 6864SOL     OW21490   4.793   5.742   6.090
 6864SOL    HW121491   4.767   5.761   5.996
 6864SOL    HW221492   4.814   5.644   6.100
 6865SOL     OW21493   0.026   3.160   4.593
 6865SOL    HW121494   6.971   3.104   4.623
 6865SOL    HW221495   0.049   3.137   4.498
 6866SOL     OW21496   0.430   3.067   2.087
 6866SOL    HW121497   0.337   3.098   2.070
 6866SOL    HW221498   0.455   2.997   2.019
 6867SOL     OW21499   2.858   5.301   3.010
 6867SOL    HW121500   2.834   5.340   3.099
 6867SOL    HW221501   2.803   5.345   2.939
 6868SOL     OW21502   1.502   5.632   4.847
 6868SOL    HW121503   1.564   5.555   4.862
 6868SOL    HW221504   1.423   5.602   4.792
 6869SOL     OW21505   6.660   3.314   4.819
 6869SOL    HW121506   6.567   3.282   4.801
 6869SOL    HW221507   6.690   3.279   4.908
 6870SOL     OW21508   5.676   3.703   2.438
 6870SOL    HW121509   5.713   3.665   2.353
 6870SOL    HW221510   5.695   3.641   2.514
 6871SOL     OW21511   5.121   6.921   1.765
 6871SOL    HW121512   5.146   6.827   1.742
 6871SOL    HW221513   5.111   6.975   1.681
 6872SOL     OW21514   2.915   3.634   6.900
 6872SOL    HW121515   2.947   3.729   6.902
 6872SOL    HW221516   2.822   3.630   6.939
 6873SOL     OW21517   5.781   3.781   5.523
 6873SOL    HW121518   5.863   3.813   5.570
 6873SOL    HW221519   5.717   3.858   5.512
 6874SOL     OW21520   1.175   2.282   5.623
 6874SOL    HW121521   1.119   2.353   5.666
 6874SOL    HW221522   1.265   2.320   5.600
 6875SOL     OW21523   3.175   1.875   4.147
 6875SOL    HW121524   3.180   1.972   4.172
 6875SOL    HW221525   3.267   1.838   4.138
 6876SOL     OW21526   3.440   6.267   4.635
 6876SOL    HW121527   3.533   6.293   4.609
 6876SOL    HW221528   3.422   6.173   4.605
 6877SOL     OW21529   2.048   3.765   6.712
 6877SOL    HW121530   2.119   3.804   6.654
 6877SOL    HW221531   1.965   3.821   6.706
 6878SOL     OW21532   1.790   2.243   4.724
 6878SOL    HW121533   1.786   2.303   4.804
 6878SOL    HW221534   1.884   2.213   4.711
 6879SOL     OW21535   0.949   0.983   6.082
 6879SOL    HW121536   0.990   0.908   6.031
 6879SOL    HW221537   0.860   1.007   6.042
 6880SOL     OW21538   2.057   4.059   4.333
 6880SOL    HW121539   1.987   4.050   4.404
 6880SOL    HW221540   2.090   3.969   4.307
 6881SOL     OW21541   5.870   5.520   2.162
 6881SOL    HW121542   5.867   5.487   2.257
 6881SOL    HW221543   5.884   5.442   2.101
 6882SOL     OW21544   2.707   5.984   5.336
 6882SOL    HW121545   2.660   6.071   5.347
 6882SOL    HW221546   2.796   5.987   5.380
 6883SOL     OW21547   3.250   6.569   1.321
 6883SOL    HW121548   3.152   6.589   1.318
 6883SOL    HW221549   3.264   6.471   1.313
 6884SOL     OW21550   2.547   5.118   3.274
 6884SOL    HW121551   2.571   5.204   3.229
 6884SOL    HW221552   2.460   5.129   3.323
 6885SOL     OW21553   3.877   5.391   5.496
 6885SOL    HW121554   3.846   5.444   5.418
 6885SOL    HW221555   3.800   5.374   5.558
 6886SOL     OW21556   5.612   1.833   2.182
 6886SOL    HW121557   5.550   1.864   2.110
 6886SOL    HW221558   5.705   1.867   2.163
 6887SOL     OW21559   4.525   0.980   5.209
 6887SOL    HW121560   4.612   0.938   5.184
 6887SOL    HW221561   4.489   1.033   5.132
 6888SOL     OW21562   5.895   6.794   5.030
 6888SOL    HW121563   5.866   6.804   5.125
 6888SOL    HW221564   5.852   6.865   4.975
 6889SOL     OW21565   1.415   4.160   6.104
 6889SOL    HW121566   1.375   4.071   6.082
 6889SOL    HW221567   1.346   4.231   6.094
 6890SOL     OW21568   1.942   0.628   0.592
 6890SOL    HW121569   1.989   0.716   0.589
 6890SOL    HW221570   1.919   0.606   0.687
 6891SOL     OW21571   3.844   5.043   4.877
 6891SOL    HW121572   3.771   4.985   4.913
 6891SOL    HW221573   3.814   5.085   4.791
 6892SOL     OW21574   3.513   1.363   4.886
 6892SOL    HW121575   3.559   1.302   4.821
 6892SOL    HW221576   3.489   1.311   4.968
 6893SOL     OW21577   5.817   6.967   1.595
 6893SOL    HW121578   5.887   6.978   1.525
 6893SOL    HW221579   5.753   6.895   1.567
 6894SOL     OW21580   6.220   4.902   5.596
 6894SOL    HW121581   6.126   4.934   5.582
 6894SOL    HW221582   6.219   4.804   5.613
 6895SOL     OW21583   3.931   4.988   6.286
 6895SOL    HW121584   3.939   4.922   6.360
 6895SOL    HW221585   3.994   5.064   6.302
 6896SOL     OW21586   4.673   0.640   2.988
 6896SOL    HW121587   4.730   0.700   2.932
 6896SOL    HW221588   4.721   0.618   3.073
 6897SOL     OW21589   3.499   1.882   0.697
 6897SOL    HW121590   3.410   1.896   0.653
 6897SOL    HW221591   3.547   1.807   0.651
 6898SOL     OW21592   3.795   1.600   3.186
 6898SOL    HW121593   3.771   1.503   3.180
 6898SOL    HW221594   3.729   1.654   3.133
 6899SOL     OW21595   5.503   6.161   6.670
 6899SOL    HW121596   5.518   6.169   6.571
 6899SOL    HW221597   5.547   6.237   6.717
 6900SOL     OW21598   3.934   1.098   5.684
 6900SOL    HW121599   3.972   1.177   5.637
 6900SOL    HW221600   4.008   1.046   5.728
 6901SOL     OW21601   1.184   0.545   0.574
 6901SOL    HW121602   1.277   0.558   0.609
 6901SOL    HW221603   1.186   0.538   0.475
 6902SOL     OW21604   6.373   5.263   1.881
 6902SOL    HW121605   6.337   5.259   1.787
 6902SOL    HW221606   6.352   5.353   1.920
 6903SOL     OW21607   4.346   4.680   0.509
 6903SOL    HW121608   4.353   4.780   0.516
 6903SOL    HW221609   4.361   4.640   0.600
 6904SOL     OW21610   0.828   1.819   3.203
 6904SOL    HW121611   0.923   1.796   3.222
 6904SOL    HW221612   0.807   1.799   3.108
 6905SOL     OW21613   4.160   4.872   1.134
 6905SOL    HW121614   4.077   4.928   1.134
 6905SOL    HW221615   4.146   4.792   1.075
 6906SOL     OW21616   5.102   5.845   3.324
 6906SOL    HW121617   5.064   5.905   3.254
 6906SOL    HW221618   5.037   5.836   3.399
 6907SOL     OW21619   3.554   0.963   1.245
 6907SOL    HW121620   3.647   0.999   1.250
 6907SOL    HW221621   3.556   0.864   1.254
 6908SOL     OW21622   7.014   0.075   6.588
 6908SOL    HW121623   0.006   0.028   6.501
 6908SOL    HW221624   7.015   0.174   6.573
 6909SOL     OW21625   3.623   3.003   6.713
 6909SOL    HW121626   3.566   3.020   6.632
 6909SOL    HW221627   3.567   3.009   6.795
 6910SOL     OW21628   6.336   1.215   1.571
 6910SOL    HW121629   6.331   1.181   1.477
 6910SOL    HW221630   6.257   1.274   1.589
 6911SOL     OW21631   4.377   0.900   4.868
 6911SOL    HW121632   4.442   0.825   4.876
 6911SOL    HW221633   4.324   0.890   4.784
 6912SOL     OW21634   4.605   4.959   1.982
 6912SOL    HW121635   4.604   4.866   1.948
 6912SOL    HW221636   4.696   4.981   2.017
 6913SOL     OW21637   4.038   5.932   5.929
 6913SOL    HW121638   4.130   5.944   5.891
 6913SOL    HW221639   4.033   5.977   6.018
 6914SOL     OW21640   6.308   4.959   6.994
 6914SOL    HW121641   6.280   5.043   0.018
 6914SOL    HW221642   6.362   4.903   0.034
 6915SOL     OW21643   1.659   5.542   0.905
 6915SOL    HW121644   1.658   5.447   0.876
 6915SOL    HW221645   1.574   5.563   0.953
 6916SOL     OW21646   6.349   0.921   5.915
 6916SOL    HW121647   6.360   0.891   5.820
 6916SOL    HW221648   6.272   0.985   5.921
 6917SOL     OW21649   4.912   0.258   6.600
 6917SOL    HW121650   4.857   0.175   6.611
 6917SOL    HW221651   4.908   0.311   6.684
 6918SOL     OW21652   2.050   2.865   3.820
 6918SOL    HW121653   2.111   2.848   3.897
 6918SOL    HW221654   2.096   2.925   3.754
 6919SOL     OW21655   1.232   6.308   3.213
 6919SOL    HW121656   1.254   6.403   3.188
 6919SOL    HW221657   1.237   6.298   3.313
 6920SOL     OW21658   5.068   6.755   4.633
 6920SOL    HW121659   5.081   6.853   4.621
 6920SOL    HW221660   5.156   6.708   4.626
 6921SOL     OW21661   0.876   6.326   2.935
 6921SOL    HW121662   0.802   6.346   2.871
 6921SOL    HW221663   0.867   6.385   3.016
 6922SOL     OW21664   1.569   5.696   7.007
 6922SOL    HW121665   1.622   5.723   6.927
 6922SOL    HW221666   1.476   5.672   6.978
 6923SOL     OW21667   4.281   6.984   4.039
 6923SOL    HW121668   4.360   6.924   4.030
 6923SOL    HW221669   4.225   6.978   3.956
 6924SOL     OW21670   6.635   5.945   1.535
 6924SOL    HW121671   6.702   5.876   1.563
 6924SOL    HW221672   6.643   6.025   1.594
 6925SOL     OW21673   6.269   5.648   3.078
 6925SOL    HW121674   6.261   5.709   3.156
 6925SOL    HW221675   6.216   5.684   3.001
 6926SOL     OW21676   2.700   4.151   5.373
 6926SOL    HW121677   2.606   4.170   5.399
 6926SOL    HW221678   2.704   4.066   5.320
 6927SOL     OW21679   3.866   2.935   0.438
 6927SOL    HW121680   3.845   2.909   0.344
 6927SOL    HW221681   3.940   3.002   0.438
 6928SOL     OW21682   0.025   6.798   6.642
 6928SOL    HW121683   0.070   6.762   6.560
 6928SOL    HW221684   0.008   6.895   6.630
 6929SOL     OW21685   3.504   5.086   0.643
 6929SOL    HW121686   3.567   5.163   0.630
 6929SOL    HW221687   3.411   5.121   0.656
 6930SOL     OW21688   1.315   0.364   3.244
 6930SOL    HW121689   1.310   0.394   3.339
 6930SOL    HW221690   1.319   0.264   3.241
 6931SOL     OW21691   1.945   0.577   1.245
 6931SOL    HW121692   1.963   0.493   1.295
 6931SOL    HW221693   2.031   0.624   1.226
 6932SOL     OW21694   2.396   2.198   0.116
 6932SOL    HW121695   2.455   2.190   0.036
 6932SOL    HW221696   2.451   2.189   0.199
 6933SOL     OW21697   3.005   6.256   6.866
 6933SOL    HW121698   2.922   6.225   6.911
 6933SOL    HW221699   3.082   6.198   6.893
 6934SOL     OW21700   5.541   4.486   6.225
 6934SOL    HW121701   5.463   4.548   6.214
 6934SOL    HW221702   5.587   4.507   6.311
 6935SOL     OW21703   4.303   5.913   3.099
 6935SOL    HW121704   4.396   5.950   3.094
 6935SOL    HW221705   4.292   5.843   3.028
 6936SOL     OW21706   0.456   5.234   0.966
 6936SOL    HW121707   0.405   5.173   1.027
 6936SOL    HW221708   0.525   5.182   0.917
 6937SOL     OW21709   4.250   6.361   6.125
 6937SOL    HW121710   4.150   6.368   6.125
 6937SOL    HW221711   4.284   6.372   6.218
 6938SOL     OW21712   5.905   1.850   4.893
 6938SOL    HW121713   5.850   1.918   4.941
 6938SOL    HW221714   6.001   1.860   4.919
 6939SOL     OW21715   6.991   4.542   1.862
 6939SOL    HW121716   6.929   4.509   1.933
 6939SOL    HW221717   0.063   4.528   1.891
 6940SOL     OW21718   3.936   0.801   5.168
 6940SOL    HW121719   3.959   0.792   5.264
 6940SOL    HW221720   4.009   0.848   5.120
 6941SOL     OW21721   3.926   3.071   4.003
 6941SOL    HW121722   3.967   3.157   3.971
 6941SOL    HW221723   3.897   3.017   3.924
 6942SOL     OW21724   6.630   1.721   0.389
 6942SOL    HW121725   6.549   1.663   0.403
 6942SOL    HW221726   6.687   1.681   0.316
 6943SOL     OW21727   5.974   6.328   6.931
 6943SOL    HW121728   5.974   6.292   0.001
 6943SOL    HW221729   6.058   6.303   6.884
 6944SOL     OW21730   1.254   6.257   6.160
 6944SOL    HW121731   1.285   6.257   6.065
 6944SOL    HW221732   1.228   6.165   6.187
 6945SOL     OW21733   4.502   2.000   5.378
 6945SOL    HW121734   4.430   1.958   5.323
 6945SOL    HW221735   4.589   1.952   5.363
 6946SOL     OW21736   5.997   3.849   3.591
 6946SOL    HW121737   6.094   3.873   3.590
 6946SOL    HW221738   5.984   3.761   3.546
 6947SOL     OW21739   3.649   0.102   2.589
 6947SOL    HW121740   3.569   0.083   2.647
 6947SOL    HW221741   3.732   0.095   2.645
 6948SOL     OW21742   3.655   2.124   4.777
 6948SOL    HW121743   3.749   2.109   4.746
 6948SOL    HW221744   3.597   2.147   4.699
 6949SOL     OW21745   5.085   0.950   2.496
 6949SOL    HW121746   5.165   0.920   2.548
 6949SOL    HW221747   5.022   0.873   2.483
 6950SOL     OW21748   2.572   1.066   3.703
 6950SOL    HW121749   2.585   1.088   3.606
 6950SOL    HW221750   2.659   1.075   3.751
 6951SOL     OW21751   5.213   5.492   5.624
 6951SOL    HW121752   5.139   5.550   5.657
 6951SOL    HW221753   5.283   5.484   5.695
 6952SOL     OW21754   6.962   5.175   4.918
 6952SOL    HW121755   7.014   5.161   4.834
 6952SOL    HW221756   6.876   5.220   4.897
 6953SOL     OW21757   5.599   2.449   5.003
 6953SOL    HW121758   5.596   2.443   5.103
 6953SOL    HW221759   5.505   2.450   4.968
 6954SOL     OW21760   0.676   5.160   2.822
 6954SOL    HW121761   0.614   5.141   2.746
 6954SOL    HW221762   0.768   5.178   2.787
 6955SOL     OW21763   6.740   6.092   3.340
 6955SOL    HW121764   6.728   6.141   3.426
 6955SOL    HW221765   6.700   6.145   3.265
 6956SOL     OW21766   3.129   5.140   0.836
 6956SOL    HW121767   3.158   5.168   0.928
 6956SOL    HW221768   3.130   5.040   0.830
 6957SOL     OW21769   0.591   3.978   0.238
 6957SOL    HW121770   0.656   3.904   0.259
 6957SOL    HW221771   0.521   3.983   0.309
 6958SOL     OW21772   2.212   3.824   6.181
 6958SOL    HW121773   2.245   3.755   6.116
 6958SOL    HW221774   2.129   3.790   6.226
 6959SOL     OW21775   3.927   1.417   3.796
 6959SOL    HW121776   4.021   1.438   3.824
 6959SOL    HW221777   3.890   1.493   3.744
 6960SOL     OW21778   6.906   4.953   0.132
 6960SOL    HW121779   6.996   4.908   0.134
 6960SOL    HW221780   6.849   4.916   0.206
 6961SOL     OW21781   7.009   1.275   3.018
 6961SOL    HW121782   6.986   1.340   3.091
 6961SOL    HW221783   6.993   1.317   2.929
 6962SOL     OW21784   3.495   3.424   0.669
 6962SOL    HW121785   3.470   3.509   0.623
 6962SOL    HW221786   3.590   3.428   0.698
 6963SOL     OW21787   6.325   5.905   2.411
 6963SOL    HW121788   6.424   5.895   2.399
 6963SOL    HW221789   6.277   5.867   2.332
 6964SOL     OW21790   3.415   5.875   4.923
 6964SOL    HW121791   3.369   5.796   4.965
 6964SOL    HW221792   3.489   5.842   4.864
 6965SOL     OW21793   6.538   3.017   5.451
 6965SOL    HW121794   6.582   2.945   5.506
 6965SOL    HW221795   6.439   3.007   5.457
 6966SOL     OW21796   4.851   2.466   3.518
 6966SOL    HW121797   4.777   2.516   3.473
 6966SOL    HW221798   4.815   2.380   3.555
 6967SOL     OW21799   1.985   2.218   6.365
 6967SOL    HW121800   2.042   2.297   6.342
 6967SOL    HW221801   1.961   2.169   6.282
 6968SOL     OW21802   3.997   6.892   2.432
 6968SOL    HW121803   4.072   6.936   2.481
 6968SOL    HW221804   3.972   6.806   2.477
 6969SOL     OW21805   2.947   2.159   1.172
 6969SOL    HW121806   2.937   2.230   1.102
 6969SOL    HW221807   3.044   2.145   1.193
 6970SOL     OW21808   4.354   3.912   0.535
 6970SOL    HW121809   4.342   3.931   0.633
 6970SOL    HW221810   4.419   3.837   0.523
 6971SOL     OW21811   5.725   0.626   2.204
 6971SOL    HW121812   5.735   0.656   2.299
 6971SOL    HW221813   5.813   0.592   2.171
 6972SOL     OW21814   5.460   5.040   4.873
 6972SOL    HW121815   5.400   4.990   4.936
 6972SOL    HW221816   5.555   5.028   4.901
 6973SOL     OW21817   1.977   4.318   3.311
 6973SOL    HW121818   2.063   4.277   3.278
 6973SOL    HW221819   1.900   4.275   3.264
 6974SOL     OW21820   3.280   4.112   4.855
 6974SOL    HW121821   3.265   4.170   4.935
 6974SOL    HW221822   3.272   4.016   4.882
 6975SOL     OW21823   3.158   0.901   6.050
 6975SOL    HW121824   3.138   0.957   5.969
 6975SOL    HW221825   3.234   0.840   6.029
 6976SOL     OW21826   2.029   5.674   0.162
 6976SOL    HW121827   2.007   5.596   0.220
 6976SOL    HW221828   1.968   5.750   0.184
 6977SOL     OW21829   4.119   1.915   2.823
 6977SOL    HW121830   4.067   1.918   2.738
 6977SOL    HW221831   4.070   1.860   2.891
 6978SOL     OW21832   6.198   1.155   2.552
 6978SOL    HW121833   6.257   1.137   2.630
 6978SOL    HW221834   6.114   1.102   2.560
 6979SOL     OW21835   0.582   4.357   3.470
 6979SOL    HW121836   0.589   4.308   3.557
 6979SOL    HW221837   0.630   4.305   3.399
 6980SOL     OW21838   3.670   1.402   4.272
 6980SOL    HW121839   3.603   1.475   4.257
 6980SOL    HW221840   3.738   1.405   4.199
 6981SOL     OW21841   2.943   5.035   6.653
 6981SOL    HW121842   2.871   5.087   6.606
 6981SOL    HW221843   2.903   4.984   6.729
 6982SOL     OW21844   0.469   0.028   4.690
 6982SOL    HW121845   0.541   0.005   4.755
 6982SOL    HW221846   0.380   0.010   4.731
 6983SOL     OW21847   6.017   0.741   4.447
 6983SOL    HW121848   6.047   0.816   4.388
 6983SOL    HW221849   5.947   0.774   4.510
 6984SOL     OW21850   2.309   1.202   5.806
 6984SOL    HW121851   2.355   1.289   5.788
 6984SOL    HW221852   2.340   1.166   5.894
 6985SOL     OW21853   4.910   6.665   2.167
 6985SOL    HW121854   4.971   6.651   2.245
 6985SOL    HW221855   4.897   6.579   2.118
 6986SOL     OW21856   2.457   6.731   4.949
 6986SOL    HW121857   2.484   6.715   5.044
 6986SOL    HW221858   2.398   6.811   4.944
 6987SOL     OW21859   6.700   3.684   6.606
 6987SOL    HW121860   6.662   3.774   6.587
 6987SOL    HW221861   6.799   3.691   6.617
 6988SOL     OW21862   5.068   1.013   5.606
 6988SOL    HW121863   5.054   0.915   5.598
 6988SOL    HW221864   4.992   1.054   5.655
 6989SOL     OW21865   1.394   2.853   3.876
 6989SOL    HW121866   1.485   2.838   3.837
 6989SOL    HW221867   1.332   2.885   3.804
 6990SOL     OW21868   4.001   3.134   0.549
 6990SOL    HW121869   4.056   3.206   0.507
 6990SOL    HW221870   4.047   3.102   0.631
 6991SOL     OW21871   4.551   4.593   5.357
 6991SOL    HW121872   4.494   4.511   5.350
 6991SOL    HW221873   4.516   4.652   5.430
 6992SOL     OW21874   5.716   6.125   5.394
 6992SOL    HW121875   5.673   6.055   5.451
 6992SOL    HW221876   5.653   6.202   5.382
 6993SOL     OW21877   0.916   6.576   3.375
 6993SOL    HW121878   0.864   6.493   3.353
 6993SOL    HW221879   0.879   6.653   3.323
 6994SOL     OW21880   1.521   3.200   0.067
 6994SOL    HW121881   1.615   3.234   0.075
 6994SOL    HW221882   1.480   3.193   0.158
 6995SOL     OW21883   0.469   4.772   3.498
 6995SOL    HW121884   0.396   4.705   3.510
 6995SOL    HW221885   0.526   4.745   3.420
 6996SOL     OW21886   2.307   7.018   5.786
 6996SOL    HW121887   2.221   0.009   5.736
 6996SOL    HW221888   2.370   0.070   5.764
 6997SOL     OW21889   5.361   6.953   4.414
 6997SOL    HW121890   5.350   7.016   4.337
 6997SOL    HW221891   5.272   6.914   4.439
 6998SOL     OW21892   1.392   2.466   3.311
 6998SOL    HW121893   1.354   2.522   3.238
 6998SOL    HW221894   1.350   2.492   3.398
 6999SOL     OW21895   4.344   1.984   6.655
 6999SOL    HW121896   4.314   1.960   6.563
 6999SOL    HW221897   4.369   2.081   6.658
 7000SOL     OW21898   6.723   6.637   0.830
 7000SOL    HW121899   6.664   6.565   0.868
 7000SOL    HW221900   6.666   6.713   0.798
 7001SOL     OW21901   2.925   2.140   5.810
 7001SOL    HW121902   2.871   2.075   5.756
 7001SOL    HW221903   2.878   2.228   5.812
 7002SOL     OW21904   2.094   4.449   2.923
 7002SOL    HW121905   2.117   4.471   2.828
 7002SOL    HW221906   2.176   4.418   2.970
 7003SOL     OW21907   1.698   6.622   6.642
 7003SOL    HW121908   1.750   6.700   6.678
 7003SOL    HW221909   1.735   6.596   6.552
 7004SOL     OW21910   1.187   4.763   0.852
 7004SOL    HW121911   1.243   4.703   0.795
 7004SOL    HW221912   1.101   4.716   0.875
 7005SOL     OW21913   5.639   6.851   5.517
 7005SOL    HW121914   5.716   6.894   5.565
 7005SOL    HW221915   5.658   6.849   5.419
 7006SOL     OW21916   4.499   5.264   4.846
 7006SOL    HW121917   4.517   5.233   4.940
 7006SOL    HW221918   4.576   5.238   4.788
 7007SOL     OW21919   5.220   5.249   2.625
 7007SOL    HW121920   5.221   5.260   2.724
 7007SOL    HW221921   5.133   5.282   2.588
 7008SOL     OW21922   1.242   4.278   4.070
 7008SOL    HW121923   1.332   4.298   4.032
 7008SOL    HW221924   1.181   4.248   3.997
 7009SOL     OW21925   0.055   4.279   2.281
 7009SOL    HW121926   0.124   4.349   2.265
 7009SOL    HW221927   0.098   4.189   2.288
 7010SOL     OW21928   4.093   4.384   6.340
 7010SOL    HW121929   4.090   4.478   6.306
 7010SOL    HW221930   4.082   4.384   6.439
 7011SOL     OW21931   1.920   1.285   4.651
 7011SOL    HW121932   1.893   1.213   4.715
 7011SOL    HW221933   1.839   1.320   4.604
 7012SOL     OW21934   1.606   1.159   1.383
 7012SOL    HW121935   1.574   1.078   1.334
 7012SOL    HW221936   1.646   1.223   1.318
 7013SOL     OW21937   0.511   1.108   2.329
 7013SOL    HW121938   0.500   1.134   2.425
 7013SOL    HW221939   0.601   1.136   2.297
 7014SOL     OW21940   2.101   4.915   0.975
 7014SOL    HW121941   2.106   4.948   1.070
 7014SOL    HW221942   2.112   4.815   0.974
 7015SOL     OW21943   5.439   2.348   2.190
 7015SOL    HW121944   5.467   2.302   2.274
 7015SOL    HW221945   5.346   2.321   2.165
 7016SOL     OW21946   3.363   4.492   1.149
 7016SOL    HW121947   3.461   4.475   1.161
 7016SOL    HW221948   3.330   4.548   1.225
 7017SOL     OW21949   4.254   1.544   4.454
 7017SOL    HW121950   4.342   1.591   4.443
 7017SOL    HW221951   4.263   1.449   4.424
 7018SOL     OW21952   0.354   4.541   3.531
 7018SOL    HW121953   0.434   4.482   3.535
 7018SOL    HW221954   0.274   4.489   3.500
 7019SOL     OW21955   1.859   6.000   1.177
 7019SOL    HW121956   1.923   5.939   1.131
 7019SOL    HW221957   1.774   6.004   1.125
 7020SOL     OW21958   6.976   6.337   6.034
 7020SOL    HW121959   6.920   6.297   6.106
 7020SOL    HW221960   0.026   6.273   6.009
 7021SOL     OW21961   3.738   6.775   5.645
 7021SOL    HW121962   3.653   6.828   5.653
 7021SOL    HW221963   3.726   6.702   5.578
 7022SOL     OW21964   4.818   5.468   6.048
 7022SOL    HW121965   4.738   5.413   6.071
 7022SOL    HW221966   4.829   5.471   5.948
 7023SOL     OW21967   6.032   4.089   3.001
 7023SOL    HW121968   6.050   4.029   3.079
 7023SOL    HW221969   6.059   4.183   3.025
 7024SOL     OW21970   0.069   5.946   1.517
 7024SOL    HW121971   0.072   5.883   1.594
 7024SOL    HW221972   0.125   5.911   1.442
 7025SOL     OW21973   2.680   0.456   6.401
 7025SOL    HW121974   2.628   0.532   6.362
 7025SOL    HW221975   2.774   0.459   6.366
 7026SOL     OW21976   3.517   1.642   1.019
 7026SOL    HW121977   3.594   1.679   0.967
 7026SOL    HW221978   3.510   1.691   1.106
 7027SOL     OW21979   4.567   0.216   4.203
 7027SOL    HW121980   4.562   0.289   4.271
 7027SOL    HW221981   4.582   0.128   4.250
 7028SOL     OW21982   3.246   6.878   4.462
 7028SOL    HW121983   3.296   6.825   4.393
 7028SOL    HW221984   3.190   6.816   4.517
 7029SOL     OW21985   3.633   0.945   4.891
 7029SOL    HW121986   3.562   1.009   4.921
 7029SOL    HW221987   3.594   0.881   4.825
 7030SOL     OW21988   1.956   3.320   3.282
 7030SOL    HW121989   1.890   3.347   3.352
 7030SOL    HW221990   1.993   3.402   3.239
 7031SOL     OW21991   1.526   0.101   5.091
 7031SOL    HW121992   1.608   0.141   5.050
 7031SOL    HW221993   1.456   0.089   5.020
 7032SOL     OW21994   6.736   2.031   3.127
 7032SOL    HW121995   6.822   2.075   3.151
 7032SOL    HW221996   6.661   2.095   3.138
 7033SOL     OW21997   0.148   0.158   4.774
 7033SOL    HW121998   0.189   0.076   4.733
 7033SOL    HW221999   0.175   0.238   4.721
 7034SOL     OW22000   6.976   5.908   2.961
 7034SOL    HW122001   0.003   5.971   2.901
 7034SOL    HW222002   6.956   5.953   3.048
 7035SOL     OW22003   6.565   5.042   2.263
 7035SOL    HW122004   6.529   5.086   2.344
 7035SOL    HW222005   6.522   4.953   2.250
 7036SOL     OW22006   6.330   4.499   0.964
 7036SOL    HW122007   6.336   4.580   0.905
 7036SOL    HW222008   6.422   4.465   0.984
 7037SOL     OW22009   0.489   0.219   0.096
 7037SOL    HW122010   0.541   0.293   0.053
 7037SOL    HW222011   0.533   0.132   0.075
 7038SOL     OW22012   1.475   3.451   4.435
 7038SOL    HW122013   1.547   3.405   4.487
 7038SOL    HW222014   1.507   3.467   4.342
 7039SOL     OW22015   4.422   2.216   6.086
 7039SOL    HW122016   4.350   2.260   6.139
 7039SOL    HW222017   4.438   2.124   6.122
 7040SOL     OW22018   5.155   2.518   6.375
 7040SOL    HW122019   5.196   2.601   6.412
 7040SOL    HW222020   5.141   2.528   6.277
 7041SOL     OW22021   2.848   1.240   2.684
 7041SOL    HW122022   2.823   1.195   2.598
 7041SOL    HW222023   2.800   1.197   2.760
 7042SOL     OW22024   1.696   0.450   6.826
 7042SOL    HW122025   1.738   0.426   6.914
 7042SOL    HW222026   1.605   0.489   6.843
 7043SOL     OW22027   1.310   2.644   2.743
 7043SOL    HW122028   1.387   2.604   2.694
 7043SOL    HW222029   1.344   2.718   2.802
 7044SOL     OW22030   5.121   6.096   2.077
 7044SOL    HW122031   5.052   6.024   2.080
 7044SOL    HW222032   5.209   6.059   2.104
 7045SOL     OW22033   6.213   4.829   1.297
 7045SOL    HW122034   6.159   4.870   1.223
 7045SOL    HW222035   6.262   4.900   1.346
 7046SOL     OW22036   2.639   0.966   3.991
 7046SOL    HW122037   2.585   0.892   3.951
 7046SOL    HW222038   2.683   0.934   4.075
 7047SOL     OW22039   1.877   1.558   3.682
 7047SOL    HW122040   1.798   1.496   3.679
 7047SOL    HW222041   1.888   1.593   3.775
 7048SOL     OW22042   6.674   6.171   0.266
 7048SOL    HW122043   6.602   6.233   0.297
 7048SOL    HW222044   6.752   6.177   0.328
 7049SOL     OW22045   1.544   0.831   0.462
 7049SOL    HW122046   1.618   0.851   0.526
 7049SOL    HW222047   1.558   0.882   0.377
 7050SOL     OW22048   4.063   3.596   4.763
 7050SOL    HW122049   3.998   3.585   4.688
 7050SOL    HW222050   4.127   3.519   4.764
 7051SOL     OW22051   6.867   6.572   2.341
 7051SOL    HW122052   6.869   6.660   2.294
 7051SOL    HW222053   6.955   6.556   2.385
 7052SOL     OW22054   6.918   1.541   3.849
 7052SOL    HW122055   6.821   1.544   3.872
 7052SOL    HW222056   6.930   1.561   3.751
 7053SOL     OW22057   6.415   4.438   5.930
 7053SOL    HW122058   6.437   4.481   6.018
 7053SOL    HW222059   6.495   4.388   5.896
 7054SOL     OW22060   6.644   0.064   1.987
 7054SOL    HW122061   6.555   0.102   1.963
 7054SOL    HW222062   6.662   7.005   1.932
 7055SOL     OW22063   3.827   6.682   5.273
 7055SOL    HW122064   3.735   6.700   5.307
 7055SOL    HW222065   3.833   6.587   5.240
 7056SOL     OW22066   4.816   4.971   4.231
 7056SOL    HW122067   4.767   4.884   4.235
 7056SOL    HW222068   4.753   5.043   4.205
 7057SOL     OW22069   0.924   6.064   3.037
 7057SOL    HW122070   0.960   6.054   3.130
 7057SOL    HW222071   0.890   6.157   3.024
 7058SOL     OW22072   6.998   5.156   5.319
 7058SOL    HW122073   6.996   5.230   5.252
 7058SOL    HW222074   6.939   5.180   5.396
 7059SOL     OW22075   2.226   0.758   2.532
 7059SOL    HW122076   2.272   0.674   2.560
 7059SOL    HW222077   2.158   0.784   2.601
 7060SOL     OW22078   3.328   6.955   1.280
 7060SOL    HW122079   3.344   6.880   1.217
 7060SOL    HW222080   3.246   6.936   1.335
 7061SOL     OW22081   0.375   1.166   3.307
 7061SOL    HW122082   0.357   1.161   3.209
 7061SOL    HW222083   0.288   1.174   3.357
 7062SOL     OW22084   6.539   1.472   5.529
 7062SOL    HW122085   6.499   1.399   5.474
 7062SOL    HW222086   6.471   1.507   5.594
 7063SOL     OW22087   2.433   0.165   1.516
 7063SOL    HW122088   2.398   0.074   1.539
 7063SOL    HW222089   2.488   0.200   1.592
 7064SOL     OW22090   4.312   2.184   0.515
 7064SOL    HW122091   4.249   2.119   0.473
 7064SOL    HW222092   4.375   2.136   0.576
 7065SOL     OW22093   4.403   3.769   1.686
 7065SOL    HW122094   4.360   3.691   1.732
 7065SOL    HW222095   4.414   3.844   1.751
 7066SOL     OW22096   3.045   6.346   1.161
 7066SOL    HW122097   3.143   6.347   1.142
 7066SOL    HW222098   3.015   6.439   1.185
 7067SOL     OW22099   0.233   4.120   4.502
 7067SOL    HW122100   0.233   4.112   4.403
 7067SOL    HW222101   0.317   4.080   4.538
 7068SOL     OW22102   0.910   0.661   2.502
 7068SOL    HW122103   0.868   0.662   2.593
 7068SOL    HW222104   0.883   0.577   2.454
 7069SOL     OW22105   1.529   4.080   4.538
 7069SOL    HW122106   1.451   4.075   4.601
 7069SOL    HW222107   1.585   3.998   4.549
 7070SOL     OW22108   4.951   5.928   4.691
 7070SOL    HW122109   4.943   5.835   4.729
 7070SOL    HW222110   4.915   5.930   4.598
 7071SOL     OW22111   1.742   6.640   5.373
 7071SOL    HW122112   1.791   6.560   5.409
 7071SOL    HW222113   1.645   6.619   5.367
 7072SOL     OW22114   7.003   6.210   6.370
 7072SOL    HW122115   0.018   6.275   6.436
 7072SOL    HW222116   6.941   6.147   6.416
 7073SOL     OW22117   1.305   1.899   6.803
 7073SOL    HW122118   1.254   1.819   6.769
 7073SOL    HW222119   1.243   1.958   6.855
 7074SOL     OW22120   3.017   1.775   0.630
 7074SOL    HW122121   3.093   1.714   0.611
 7074SOL    HW222122   2.943   1.724   0.675
 7075SOL     OW22123   1.223   5.466   2.864
 7075SOL    HW122124   1.152   5.537   2.866
 7075SOL    HW222125   1.313   5.509   2.877
 7076SOL     OW22126   3.219   2.373   6.720
 7076SOL    HW122127   3.279   2.415   6.787
 7076SOL    HW222128   3.219   2.274   6.732
 7077SOL     OW22129   1.807   4.836   5.611
 7077SOL    HW122130   1.901   4.808   5.595
 7077SOL    HW222131   1.753   4.821   5.528
 7078SOL     OW22132   6.770   0.487   2.571
 7078SOL    HW122133   6.694   0.443   2.523
 7078SOL    HW222134   6.736   0.530   2.655
 7079SOL     OW22135   5.030   5.272   5.650
 7079SOL    HW122136   5.063   5.180   5.629
 7079SOL    HW222137   5.106   5.336   5.649
 7080SOL     OW22138   5.859   0.183   4.125
 7080SOL    HW122139   5.948   0.140   4.137
 7080SOL    HW222140   5.789   0.112   4.113
 7081SOL     OW22141   3.576   1.081   5.350
 7081SOL    HW122142   3.603   1.020   5.276
 7081SOL    HW222143   3.614   1.047   5.436
 7082SOL     OW22144   5.265   1.037   6.759
 7082SOL    HW122145   5.176   1.062   6.797
 7082SOL    HW222146   5.257   0.950   6.710
 7083SOL     OW22147   3.398   6.559   6.013
 7083SOL    HW122148   3.309   6.603   6.003
 7083SOL    HW222149   3.464   6.626   6.046
 7084SOL     OW22150   6.326   6.208   0.598
 7084SOL    HW122151   6.276   6.294   0.592
 7084SOL    HW222152   6.350   6.190   0.693
 7085SOL     OW22153   2.816   2.551   0.862
 7085SOL    HW122154   2.864   2.476   0.908
 7085SOL    HW222155   2.731   2.572   0.911
 7086SOL     OW22156   6.439   0.948   6.761
 7086SOL    HW122157   6.519   0.914   6.712
 7086SOL    HW222158   6.433   0.905   6.851
 7087SOL     OW22159   1.967   2.582   4.742
 7087SOL    HW122160   1.888   2.606   4.686
 7087SOL    HW222161   1.948   2.499   4.793
 7088SOL     OW22162   0.044   2.145   5.498
 7088SOL    HW122163   0.038   2.175   5.402
 7088SOL    HW222164   0.014   2.050   5.505
 7089SOL     OW22165   2.825   2.158   0.416
 7089SOL    HW122166   2.810   2.202   0.505
 7089SOL    HW222167   2.873   2.071   0.430
 7090SOL     OW22168   2.214   2.977   4.792
 7090SOL    HW122169   2.270   2.979   4.875
 7090SOL    HW222170   2.163   3.063   4.783
 7091SOL     OW22171   0.231   6.384   0.416
 7091SOL    HW122172   0.151   6.387   0.356
 7091SOL    HW222173   0.202   6.400   0.511
 7092SOL     OW22174   3.185   3.253   6.839
 7092SOL    HW122175   3.220   3.282   6.750
 7092SOL    HW222176   3.134   3.167   6.829
 7093SOL     OW22177   3.886   2.957   5.446
 7093SOL    HW122178   3.911   2.872   5.400
 7093SOL    HW222179   3.803   2.942   5.500
 7094SOL     OW22180   0.541   0.279   6.274
 7094SOL    HW122181   0.485   0.205   6.237
 7094SOL    HW222182   0.630   0.242   6.301
 7095SOL     OW22183   0.250   3.608   6.745
 7095SOL    HW122184   0.236   3.649   6.655
 7095SOL    HW222185   0.304   3.671   6.802
 7096SOL     OW22186   5.639   0.857   2.389
 7096SOL    HW122187   5.569   0.840   2.320
 7096SOL    HW222188   5.597   0.900   2.469
 7097SOL     OW22189   1.166   0.475   1.435
 7097SOL    HW122190   1.128   0.508   1.348
 7097SOL    HW222191   1.091   0.455   1.498
 7098SOL     OW22192   1.864   6.925   5.699
 7098SOL    HW122193   1.947   6.871   5.716
 7098SOL    HW222194   1.872   7.013   5.747
 7099SOL     OW22195   0.409   0.820   6.366
 7099SOL    HW122196   0.433   0.914   6.391
 7099SOL    HW222197   0.332   0.790   6.422
 7100SOL     OW22198   5.397   2.714   0.839
 7100SOL    HW122199   5.430   2.620   0.848
 7100SOL    HW222200   5.476   2.776   0.832
 7101SOL     OW22201   1.858   0.112   4.421
 7101SOL    HW122202   1.800   0.192   4.433
 7101SOL    HW222203   1.822   0.035   4.474
 7102SOL     OW22204   4.793   2.502   0.791
 7102SOL    HW122205   4.889   2.499   0.815
 7102SOL    HW222206   4.738   2.525   0.871
 7103SOL     OW22207   2.878   6.629   6.573
 7103SOL    HW122208   2.891   6.530   6.578
 7103SOL    HW222209   2.790   6.650   6.532
 7104SOL     OW22210   0.856   1.923   2.320
 7104SOL    HW122211   0.761   1.939   2.346
 7104SOL    HW222212   0.917   1.959   2.390
 7105SOL     OW22213   2.411   4.083   5.448
 7105SOL    HW122214   2.362   4.165   5.420
 7105SOL    HW222215   2.440   4.032   5.367
 7106SOL     OW22216   3.203   2.639   5.332
 7106SOL    HW122217   3.132   2.627   5.402
 7106SOL    HW222218   3.207   2.558   5.274
 7107SOL     OW22219   2.607   0.726   6.995
 7107SOL    HW122220   2.705   0.739   7.008
 7107SOL    HW222221   2.566   0.689   0.057
 7108SOL     OW22222   4.509   6.543   1.739
 7108SOL    HW122223   4.536   6.478   1.810
 7108SOL    HW222224   4.417   6.577   1.758
 7109SOL     OW22225   3.557   6.224   6.406
 7109SOL    HW122226   3.629   6.162   6.439
 7109SOL    HW222227   3.567   6.237   6.307
 7110SOL     OW22228   3.857   5.079   3.510
 7110SOL    HW122229   3.886   4.994   3.553
 7110SOL    HW222230   3.854   5.152   3.579
 7111SOL     OW22231   1.223   2.719   3.579
 7111SOL    HW122232   1.182   2.790   3.637
 7111SOL    HW222233   1.165   2.703   3.499
 7112SOL     OW22234   1.630   6.675   2.385
 7112SOL    HW122235   1.670   6.638   2.468
 7112SOL    HW222236   1.688   6.748   2.349
 7113SOL     OW22237   3.311   4.158   4.530
 7113SOL    HW122238   3.334   4.140   4.625
 7113SOL    HW222239   3.320   4.256   4.512
 7114SOL     OW22240   3.990   0.708   1.071
 7114SOL    HW122241   3.929   0.630   1.063
 7114SOL    HW222242   4.041   0.720   0.986
 7115SOL     OW22243   4.037   1.972   1.643
 7115SOL    HW122244   4.089   2.054   1.618
 7115SOL    HW222245   4.095   1.910   1.696
 7116SOL     OW22246   5.741   3.603   2.784
 7116SOL    HW122247   5.789   3.557   2.859
 7116SOL    HW222248   5.708   3.535   2.719
 7117SOL     OW22249   5.977   6.420   1.632
 7117SOL    HW122250   6.025   6.486   1.690
 7117SOL    HW222251   5.908   6.372   1.687
 7118SOL     OW22252   6.879   2.874   1.893
 7118SOL    HW122253   6.784   2.877   1.925
 7118SOL    HW222254   6.913   2.780   1.897
 7119SOL     OW22255   6.516   1.507   2.784
 7119SOL    HW122256   6.505   1.416   2.825
 7119SOL    HW222257   6.589   1.556   2.832
 7120SOL     OW22258   5.110   0.049   3.627
 7120SOL    HW122259   5.188   0.113   3.626
 7120SOL    HW222260   5.104   0.007   3.717
 7121SOL     OW22261   3.814   6.440   1.728
 7121SOL    HW122262   3.903   6.473   1.697
 7121SOL    HW222263   3.796   6.474   1.820
 7122SOL     OW22264   6.620   0.259   6.776
 7122SOL    HW122265   6.528   0.221   6.783
 7122SOL    HW222266   6.615   0.358   6.765
 7123SOL     OW22267   2.393   5.120   1.051
 7123SOL    HW122268   2.301   5.118   1.091
 7123SOL    HW222269   2.405   5.041   0.992
 7124SOL     OW22270   0.528   5.620   1.466
 7124SOL    HW122271   0.506   5.551   1.397
 7124SOL    HW222272   0.531   5.576   1.556
 7125SOL     OW22273   6.850   6.768   2.565
 7125SOL    HW122274   6.787   6.743   2.638
 7125SOL    HW222275   6.848   6.697   2.494
 7126SOL     OW22276   0.659   4.807   0.679
 7126SOL    HW122277   0.730   4.805   0.749
 7126SOL    HW222278   0.621   4.715   0.668
 7127SOL     OW22279   3.465   7.010   4.644
 7127SOL    HW122280   3.370   7.016   4.614
 7127SOL    HW222281   3.474   6.935   4.710
 7128SOL     OW22282   2.695   4.766   1.725
 7128SOL    HW122283   2.745   4.722   1.799
 7128SOL    HW222284   2.696   4.865   1.739
 7129SOL     OW22285   2.829   1.635   1.580
 7129SOL    HW122286   2.769   1.714   1.594
 7129SOL    HW222287   2.876   1.613   1.665
 7130SOL     OW22288   2.236   5.891   1.883
 7130SOL    HW122289   2.262   5.795   1.894
 7130SOL    HW222290   2.254   5.941   1.967
 7131SOL     OW22291   2.988   1.086   3.366
 7131SOL    HW122292   3.058   1.126   3.425
 7131SOL    HW222293   2.953   1.002   3.408
 7132SOL     OW22294   3.161   3.967   2.817
 7132SOL    HW122295   3.179   4.001   2.725
 7132SOL    HW222296   3.073   3.920   2.820
 7133SOL     OW22297   5.024   4.937   2.746
 7133SOL    HW122298   5.050   4.867   2.813
 7133SOL    HW222299   5.071   5.022   2.766
 7134SOL     OW22300   5.235   4.309   3.917
 7134SOL    HW122301   5.188   4.363   3.847
 7134SOL    HW222302   5.173   4.238   3.951
 7135SOL     OW22303   0.874   1.768   5.401
 7135SOL    HW122304   0.938   1.830   5.355
 7135SOL    HW222305   0.821   1.818   5.469
 7136SOL     OW22306   2.417   1.734   6.982
 7136SOL    HW122307   2.511   1.737   7.013
 7136SOL    HW222308   2.360   1.789   0.021
 7137SOL     OW22309   4.006   1.176   4.929
 7137SOL    HW122310   3.916   1.219   4.936
 7137SOL    HW222311   4.060   1.200   5.010
 7138SOL     OW22312   2.165   3.870   0.134
 7138SOL    HW122313   2.147   3.839   0.227
 7138SOL    HW222314   2.125   3.806   0.069
 7139SOL     OW22315   3.322   2.292   0.764
 7139SOL    HW122316   3.345   2.286   0.666
 7139SOL    HW222317   3.389   2.241   0.817
 7140SOL     OW22318   6.188   3.384   5.119
 7140SOL    HW122319   6.217   3.453   5.051
 7140SOL    HW222320   6.111   3.332   5.083
 7141SOL     OW22321   2.520   6.734   0.654
 7141SOL    HW122322   2.543   6.693   0.742
 7141SOL    HW222323   2.421   6.733   0.641
 7142SOL     OW22324   3.889   6.538   4.622
 7142SOL    HW122325   3.794   6.547   4.592
 7142SOL    HW222326   3.945   6.506   4.546
 7143SOL     OW22327   1.599   3.742   4.160
 7143SOL    HW122328   1.541   3.662   4.145
 7143SOL    HW222329   1.694   3.712   4.174
 7144SOL     OW22330   0.888   2.524   4.041
 7144SOL    HW122331   0.914   2.621   4.042
 7144SOL    HW222332   0.882   2.492   3.946
 7145SOL     OW22333   3.897   6.781   6.370
 7145SOL    HW122334   3.942   6.728   6.442
 7145SOL    HW222335   3.828   6.725   6.325
 7146SOL     OW22336   2.975   4.661   0.614
 7146SOL    HW122337   2.968   4.672   0.515
 7146SOL    HW222338   3.067   4.630   0.638
 7147SOL     OW22339   0.026   0.550   3.996
 7147SOL    HW122340   0.031   0.577   3.900
 7147SOL    HW222341   0.062   0.457   4.006
 7148SOL     OW22342   0.694   1.410   0.230
 7148SOL    HW122343   0.637   1.369   0.302
 7148SOL    HW222344   0.713   1.342   0.160
 7149SOL     OW22345   6.413   0.787   3.494
 7149SOL    HW122346   6.328   0.810   3.543
 7149SOL    HW222347   6.393   0.716   3.426
 7150SOL     OW22348   5.523   3.689   6.688
 7150SOL    HW122349   5.423   3.681   6.693
 7150SOL    HW222350   5.564   3.629   6.756
 7151SOL     OW22351   2.256   6.287   1.241
 7151SOL    HW122352   2.227   6.346   1.165
 7151SOL    HW222353   2.353   6.301   1.260
 7152SOL     OW22354   1.301   2.396   3.667
 7152SOL    HW122355   1.230   2.435   3.724
 7152SOL    HW222356   1.390   2.434   3.694
 7153SOL     OW22357   3.376   1.907   3.596
 7153SOL    HW122358   3.407   1.932   3.688
 7153SOL    HW222359   3.454   1.875   3.542
 7154SOL     OW22360   4.661   6.184   4.581
 7154SOL    HW122361   4.623   6.147   4.666
 7154SOL    HW222362   4.677   6.111   4.516
 7155SOL     OW22363   2.547   0.081   1.909
 7155SOL    HW122364   2.640   0.045   1.910
 7155SOL    HW222365   2.482   0.007   1.929
 7156SOL     OW22366   0.583   5.890   4.391
 7156SOL    HW122367   0.637   5.900   4.474
 7156SOL    HW222368   0.564   5.980   4.352
 7157SOL     OW22369   4.776   4.323   1.593
 7157SOL    HW122370   4.817   4.257   1.657
 7157SOL    HW222371   4.815   4.414   1.610
 7158SOL     OW22372   5.693   6.576   4.569
 7158SOL    HW122373   5.625   6.618   4.510
 7158SOL    HW222374   5.779   6.565   4.518
 7159SOL     OW22375   0.471   5.748   0.297
 7159SOL    HW122376   0.559   5.700   0.302
 7159SOL    HW222377   0.411   5.713   0.369
 7160SOL     OW22378   6.280   0.809   2.003
 7160SOL    HW122379   6.211   0.743   1.976
 7160SOL    HW222380   6.258   0.898   1.963
 7161SOL     OW22381   3.770   4.073   3.532
 7161SOL    HW122382   3.759   4.111   3.440
 7161SOL    HW222383   3.697   4.105   3.591
 7162SOL     OW22384   2.891   4.796   3.612
 7162SOL    HW122385   2.812   4.777   3.554
 7162SOL    HW222386   2.975   4.788   3.558
 7163SOL     OW22387   2.693   6.803   3.062
 7163SOL    HW122388   2.664   6.723   3.010
 7163SOL    HW222389   2.792   6.804   3.069
 7164SOL     OW22390   2.577   1.864   3.506
 7164SOL    HW122391   2.665   1.878   3.461
 7164SOL    HW222392   2.514   1.937   3.479
 7165SOL     OW22393   5.224   0.533   1.550
 7165SOL    HW122394   5.226   0.551   1.648
 7165SOL    HW222395   5.315   0.548   1.512
 7166SOL     OW22396   5.267   5.476   2.119
 7166SOL    HW122397   5.205   5.472   2.040
 7166SOL    HW222398   5.335   5.404   2.112
 7167SOL     OW22399   4.878   2.936   5.274
 7167SOL    HW122400   4.827   2.934   5.187
 7167SOL    HW222401   4.887   3.031   5.304
 7168SOL     OW22402   1.104   1.517   4.699
 7168SOL    HW122403   1.175   1.459   4.738
 7168SOL    HW222404   1.036   1.459   4.652
 7169SOL     OW22405   1.599   2.824   6.553
 7169SOL    HW122406   1.548   2.786   6.631
 7169SOL    HW222407   1.547   2.811   6.469
 7170SOL     OW22408   6.526   5.092   4.598
 7170SOL    HW122409   6.562   5.002   4.577
 7170SOL    HW222410   6.601   5.154   4.619
 7171SOL     OW22411   4.080   2.626   5.613
 7171SOL    HW122412   4.054   2.690   5.686
 7171SOL    HW222413   4.170   2.587   5.633
 7172SOL     OW22414   1.346   6.700   0.747
 7172SOL    HW122415   1.386   6.731   0.833
 7172SOL    HW222416   1.351   6.773   0.679
 7173SOL     OW22417   5.654   5.901   5.549
 7173SOL    HW122418   5.741   5.851   5.550
 7173SOL    HW222419   5.578   5.837   5.561
 7174SOL     OW22420   0.762   5.689   0.269
 7174SOL    HW122421   0.772   5.589   0.263
 7174SOL    HW222422   0.810   5.721   0.351
 7175SOL     OW22423   6.528   3.043   4.761
 7175SOL    HW122424   6.448   3.100   4.778
 7175SOL    HW222425   6.498   2.950   4.738
 7176SOL     OW22426   6.060   3.876   1.372
 7176SOL    HW122427   6.029   3.969   1.386
 7176SOL    HW222428   5.996   3.812   1.414
 7177SOL     OW22429   1.024   5.911   1.917
 7177SOL    HW122430   1.081   5.980   1.875
 7177SOL    HW222431   1.080   5.832   1.943
 7178SOL     OW22432   0.178   2.741   6.256
 7178SOL    HW122433   0.143   2.720   6.165
 7178SOL    HW222434   0.206   2.836   6.260
 7179SOL     OW22435   2.546   4.511   6.113
 7179SOL    HW122436   2.586   4.485   6.201
 7179SOL    HW222437   2.614   4.505   6.041
 7180SOL     OW22438   1.324   6.546   2.918
 7180SOL    HW122439   1.277   6.560   3.005
 7180SOL    HW222440   1.257   6.537   2.845
 7181SOL     OW22441   5.164   0.315   2.310
 7181SOL    HW122442   5.104   0.337   2.387
 7181SOL    HW222443   5.110   0.280   2.234
 7182SOL     OW22444   2.842   3.733   5.093
 7182SOL    HW122445   2.848   3.643   5.135
 7182SOL    HW222446   2.779   3.790   5.145
 7183SOL     OW22447   1.450   5.056   2.970
 7183SOL    HW122448   1.414   5.108   2.892
 7183SOL    HW222449   1.503   4.979   2.936
 7184SOL     OW22450   1.922   6.311   3.148
 7184SOL    HW122451   1.967   6.397   3.172
 7184SOL    HW222452   1.991   6.241   3.131
 7185SOL     OW22453   4.161   2.476   6.901
 7185SOL    HW122454   4.148   2.537   6.823
 7185SOL    HW222455   4.107   2.509   6.979
 7186SOL     OW22456   0.666   6.590   4.399
 7186SOL    HW122457   0.640   6.646   4.320
 7186SOL    HW222458   0.720   6.645   4.463
 7187SOL     OW22459   2.115   5.585   1.328
 7187SOL    HW122460   2.193   5.540   1.284
 7187SOL    HW222461   2.036   5.582   1.268
 7188SOL     OW22462   5.388   0.997   1.932
 7188SOL    HW122463   5.342   1.084   1.952
 7188SOL    HW222464   5.487   1.009   1.942
 7189SOL     OW22465   6.800   0.575   4.880
 7189SOL    HW122466   6.784   0.530   4.793
 7189SOL    HW222467   6.738   0.538   4.949
 7190SOL     OW22468   4.752   4.791   3.487
 7190SOL    HW122469   4.696   4.823   3.411
 7190SOL    HW222470   4.845   4.773   3.455
 7191SOL     OW22471   1.296   2.945   1.900
 7191SOL    HW122472   1.333   3.010   1.966
 7191SOL    HW222473   1.235   2.881   1.946
 7192SOL     OW22474   3.787   5.480   5.906
 7192SOL    HW122475   3.786   5.431   5.994
 7192SOL    HW222476   3.818   5.574   5.921
 7193SOL     OW22477   5.275   1.150   3.159
 7193SOL    HW122478   5.370   1.179   3.153
 7193SOL    HW222479   5.215   1.224   3.128
 7194SOL     OW22480   3.059   1.730   1.434
 7194SOL    HW122481   3.025   1.654   1.379
 7194SOL    HW222482   2.989   1.760   1.498
 7195SOL     OW22483   0.473   5.258   2.072
 7195SOL    HW122484   0.448   5.292   1.982
 7195SOL    HW222485   0.525   5.328   2.121
 7196SOL     OW22486   3.772   3.309   1.673
 7196SOL    HW122487   3.756   3.214   1.645
 7196SOL    HW222488   3.836   3.310   1.751
 7197SOL     OW22489   1.553   1.804   5.104
 7197SOL    HW122490   1.462   1.821   5.141
 7197SOL    HW222491   1.553   1.718   5.053
 7198SOL     OW22492   0.818   6.088   6.564
 7198SOL    HW122493   0.763   6.075   6.647
 7198SOL    HW222494   0.867   6.176   6.571
 7199SOL     OW22495   6.471   6.440   2.881
 7199SOL    HW122496   6.433   6.348   2.892
 7199SOL    HW222497   6.465   6.468   2.786
 7200SOL     OW22498   2.294   1.750   1.544
 7200SOL    HW122499   2.254   1.743   1.635
 7200SOL    HW222500   2.252   1.826   1.494
 7201SOL     OW22501   2.391   4.413   3.346
 7201SOL    HW122502   2.397   4.448   3.440
 7201SOL    HW222503   2.434   4.478   3.284
 7202SOL     OW22504   3.849   0.232   5.904
 7202SOL    HW122505   3.758   0.197   5.927
 7202SOL    HW222506   3.890   0.175   5.832
 7203SOL     OW22507   6.319   0.511   6.713
 7203SOL    HW122508   6.291   0.499   6.617
 7203SOL    HW222509   6.250   0.566   6.761
 7204SOL     OW22510   5.865   1.474   2.195
 7204SOL    HW122511   5.956   1.475   2.153
 7204SOL    HW222512   5.851   1.560   2.245
 7205SOL     OW22513   2.324   5.094   1.868
 7205SOL    HW122514   2.344   5.037   1.789
 7205SOL    HW222515   2.328   5.190   1.842
 7206SOL     OW22516   5.791   1.447   1.399
 7206SOL    HW122517   5.808   1.525   1.339
 7206SOL    HW222518   5.704   1.460   1.448
 7207SOL     OW22519   4.382   0.072   1.654
 7207SOL    HW122520   4.478   0.093   1.672
 7207SOL    HW222521   4.358   0.103   1.563
 7208SOL     OW22522   3.004   6.825   5.131
 7208SOL    HW122523   2.963   6.743   5.171
 7208SOL    HW222524   3.092   6.801   5.090
 7209SOL     OW22525   3.860   3.527   4.595
 7209SOL    HW122526   3.800   3.587   4.542
 7209SOL    HW222527   3.905   3.462   4.534
 7210SOL     OW22528   4.564   0.556   4.060
 7210SOL    HW122529   4.472   0.524   4.082
 7210SOL    HW222530   4.600   0.503   3.983
 7211SOL     OW22531   1.853   5.213   2.362
 7211SOL    HW122532   1.767   5.178   2.326
 7211SOL    HW222533   1.897   5.270   2.293
 7212SOL     OW22534   5.054   0.217   4.089
 7212SOL    HW122535   5.050   0.121   4.117
 7212SOL    HW222536   5.051   0.223   3.989
 7213SOL     OW22537   5.072   0.340   5.484
 7213SOL    HW122538   5.051   0.376   5.575
 7213SOL    HW222539   5.141   0.398   5.441
 7214SOL     OW22540   0.608   4.990   5.196
 7214SOL    HW122541   0.590   5.084   5.169
 7214SOL    HW222542   0.635   4.937   5.115
 7215SOL     OW22543   0.836   3.161   2.631
 7215SOL    HW122544   0.915   3.120   2.586
 7215SOL    HW222545   0.760   3.167   2.567
 7216SOL     OW22546   2.341   1.495   1.430
 7216SOL    HW122547   2.275   1.426   1.460
 7216SOL    HW222548   2.323   1.581   1.478
 7217SOL     OW22549   1.015   3.136   1.969
 7217SOL    HW122550   0.981   3.043   1.954
 7217SOL    HW222551   1.057   3.142   2.059
 7218SOL     OW22552   6.264   2.242   6.122
 7218SOL    HW122553   6.244   2.198   6.209
 7218SOL    HW222554   6.183   2.292   6.090
 7219SOL     OW22555   3.883   1.175   1.150
 7219SOL    HW122556   3.864   1.089   1.196
 7219SOL    HW222557   3.858   1.251   1.210
 7220SOL     OW22558   6.972   1.008   2.926
 7220SOL    HW122559   6.991   1.021   2.829
 7220SOL    HW222560   6.957   1.096   2.970
 7221SOL     OW22561   5.735   5.019   4.909
 7221SOL    HW122562   5.808   4.971   4.862
 7221SOL    HW222563   5.774   5.086   4.973
 7222SOL     OW22564   5.641   6.675   3.015
 7222SOL    HW122565   5.630   6.576   3.028
 7222SOL    HW222566   5.735   6.701   3.033
 7223SOL     OW22567   3.670   0.837   5.160
 7223SOL    HW122568   3.651   0.860   5.064
 7223SOL    HW222569   3.767   0.811   5.169
 7224SOL     OW22570   4.874   0.162   4.307
 7224SOL    HW122571   4.877   0.217   4.390
 7224SOL    HW222572   4.878   0.222   4.227
 7225SOL     OW22573   2.053   0.128   0.384
 7225SOL    HW122574   2.026   0.151   0.291
 7225SOL    HW222575   2.044   0.209   0.443
 7226SOL     OW22576   5.579   6.804   6.694
 7226SOL    HW122577   5.500   6.779   6.638
 7226SOL    HW222578   5.561   6.778   6.789
 7227SOL     OW22579   6.505   2.754   6.357
 7227SOL    HW122580   6.489   2.806   6.441
 7227SOL    HW222581   6.598   2.716   6.359
 7228SOL     OW22582   1.732   0.593   2.846
 7228SOL    HW122583   1.827   0.574   2.871
 7228SOL    HW222584   1.708   0.539   2.765
 7229SOL     OW22585   0.680   0.492   3.875
 7229SOL    HW122586   0.628   0.459   3.954
 7229SOL    HW222587   0.692   0.417   3.810
 7230SOL     OW22588   5.791   4.825   2.358
 7230SOL    HW122589   5.732   4.761   2.309
 7230SOL    HW222590   5.878   4.780   2.379
 7231SOL     OW22591   5.410   1.218   6.615
 7231SOL    HW122592   5.327   1.258   6.575
 7231SOL    HW222593   5.385   1.145   6.677
 7232SOL     OW22594   3.811   4.160   0.838
 7232SOL    HW122595   3.767   4.147   0.750
 7232SOL    HW222596   3.872   4.239   0.834
 7233SOL     OW22597   0.160   2.470   5.871
 7233SOL    HW122598   0.158   2.461   5.771
 7233SOL    HW222599   0.105   2.397   5.911
 7234SOL     OW22600   5.706   1.962   2.561
 7234SOL    HW122601   5.707   1.867   2.593
 7234SOL    HW222602   5.637   1.972   2.490
 7235SOL     OW22603   6.347   2.880   4.469
 7235SOL    HW122604   6.280   2.896   4.542
 7235SOL    HW222605   6.316   2.924   4.385
 7236SOL     OW22606   3.344   1.132   3.236
 7236SOL    HW122607   3.417   1.146   3.303
 7236SOL    HW222608   3.367   1.054   3.177
 7237SOL     OW22609   6.148   5.602   6.081
 7237SOL    HW122610   6.204   5.685   6.086
 7237SOL    HW222611   6.076   5.606   6.151
 7238SOL     OW22612   0.675   1.154   1.588
 7238SOL    HW122613   0.582   1.187   1.570
 7238SOL    HW222614   0.740   1.227   1.568
 7239SOL     OW22615   4.501   1.022   2.244
 7239SOL    HW122616   4.593   1.031   2.208
 7239SOL    HW222617   4.472   0.926   2.238
 7240SOL     OW22618   2.699   3.652   0.988
 7240SOL    HW122619   2.737   3.743   1.007
 7240SOL    HW222620   2.678   3.606   1.075
 7241SOL     OW22621   4.172   6.911   4.675
 7241SOL    HW122622   4.223   6.993   4.653
 7241SOL    HW222623   4.234   6.843   4.715
 7242SOL     OW22624   4.933   4.950   0.420
 7242SOL    HW122625   4.988   4.904   0.490
 7242SOL    HW222626   4.989   5.017   0.372
 7243SOL     OW22627   0.326   6.128   0.494
 7243SOL    HW122628   0.374   6.180   0.565
 7243SOL    HW222629   0.271   6.190   0.438
 7244SOL     OW22630   5.352   1.998   0.760
 7244SOL    HW122631   5.432   2.032   0.711
 7244SOL    HW222632   5.378   1.965   0.850
 7245SOL     OW22633   6.682   1.916   4.513
 7245SOL    HW122634   6.627   1.833   4.522
 7245SOL    HW222635   6.755   1.915   4.582
 7246SOL     OW22636   1.265   5.728   5.380
 7246SOL    HW122637   1.310   5.697   5.296
 7246SOL    HW222638   1.174   5.764   5.359
 7247SOL     OW22639   3.235   5.857   2.877
 7247SOL    HW122640   3.201   5.928   2.816
 7247SOL    HW222641   3.210   5.879   2.971
 7248SOL     OW22642   3.273   0.854   5.064
 7248SOL    HW122643   3.230   0.835   5.153
 7248SOL    HW222644   3.235   0.791   4.996
 7249SOL     OW22645   5.851   4.404   6.279
 7249SOL    HW122646   5.884   4.496   6.298
 7249SOL    HW222647   5.847   4.389   6.180
 7250SOL     OW22648   3.223   4.067   6.777
 7250SOL    HW122649   3.234   4.042   6.874
 7250SOL    HW222650   3.294   4.023   6.723
 7251SOL     OW22651   5.499   0.570   5.086
 7251SOL    HW122652   5.459   0.651   5.129
 7251SOL    HW222653   5.430   0.497   5.083
 7252SOL     OW22654   4.519   3.516   5.320
 7252SOL    HW122655   4.427   3.504   5.283
 7252SOL    HW222656   4.582   3.539   5.246
 7253SOL     OW22657   5.119   4.800   1.061
 7253SOL    HW122658   5.164   4.881   1.097
 7253SOL    HW222659   5.187   4.729   1.042
 7254SOL     OW22660   5.316   6.835   5.377
 7254SOL    HW122661   5.279   6.927   5.369
 7254SOL    HW222662   5.404   6.838   5.426
 7255SOL     OW22663   3.854   3.552   1.559
 7255SOL    HW122664   3.784   3.609   1.602
 7255SOL    HW222665   3.861   3.465   1.608
 7256SOL     OW22666   3.848   5.190   3.952
 7256SOL    HW122667   3.821   5.116   3.890
 7256SOL    HW222668   3.927   5.238   3.913
 7257SOL     OW22669   6.267   3.723   3.537
 7257SOL    HW122670   6.297   3.644   3.482
 7257SOL    HW222671   6.275   3.701   3.634
 7258SOL     OW22672   2.387   6.756   5.668
 7258SOL    HW122673   2.367   6.840   5.719
 7258SOL    HW222674   2.360   6.769   5.572
 7259SOL     OW22675   2.172   5.104   6.178
 7259SOL    HW122676   2.098   5.137   6.237
 7259SOL    HW222677   2.141   5.027   6.123
 7260SOL     OW22678   4.623   1.669   2.428
 7260SOL    HW122679   4.536   1.716   2.415
 7260SOL    HW222680   4.646   1.668   2.525
 7261SOL     OW22681   1.796   4.530   1.498
 7261SOL    HW122682   1.793   4.579   1.411
 7261SOL    HW222683   1.709   4.543   1.546
 7262SOL     OW22684   6.308   1.522   5.744
 7262SOL    HW122685   6.260   1.566   5.819
 7262SOL    HW222686   6.365   1.447   5.779
 7263SOL     OW22687   5.265   5.887   1.790
 7263SOL    HW122688   5.273   5.880   1.889
 7263SOL    HW222689   5.330   5.954   1.756
 7264SOL     OW22690   1.896   6.782   4.318
 7264SOL    HW122691   1.922   6.697   4.363
 7264SOL    HW222692   1.845   6.761   4.234
 7265SOL     OW22693   4.416   3.445   6.079
 7265SOL    HW122694   4.515   3.445   6.069
 7265SOL    HW222695   4.376   3.515   6.019
 7266SOL     OW22696   4.477   1.468   1.048
 7266SOL    HW122697   4.438   1.471   1.140
 7266SOL    HW222698   4.428   1.531   0.988
 7267SOL     OW22699   0.371   3.056   4.320
 7267SOL    HW122700   0.315   2.974   4.312
 7267SOL    HW222701   0.408   3.081   4.231
 7268SOL     OW22702   3.443   0.140   0.605
 7268SOL    HW122703   3.362   0.108   0.557
 7268SOL    HW222704   3.436   0.239   0.620
 7269SOL     OW22705   1.072   6.633   2.348
 7269SOL    HW122706   1.102   6.542   2.318
 7269SOL    HW222707   1.144   6.676   2.402
 7270SOL     OW22708   3.243   1.505   2.247
 7270SOL    HW122709   3.227   1.581   2.183
 7270SOL    HW222710   3.265   1.423   2.196
 7271SOL     OW22711   6.290   4.720   4.243
 7271SOL    HW122712   6.339   4.784   4.184
 7271SOL    HW222713   6.192   4.725   4.223
 7272SOL     OW22714   6.237   1.665   1.389
 7272SOL    HW122715   6.166   1.715   1.339
 7272SOL    HW222716   6.311   1.728   1.415
 7273SOL     OW22717   5.565   6.114   5.974
 7273SOL    HW122718   5.631   6.090   5.903
 7273SOL    HW222719   5.610   6.113   6.064
 7274SOL     OW22720   6.967   4.761   4.412
 7274SOL    HW122721   7.002   4.793   4.500
 7274SOL    HW222722   6.872   4.731   4.422
 7275SOL     OW22723   5.395   6.248   1.053
 7275SOL    HW122724   5.335   6.181   1.097
 7275SOL    HW222725   5.453   6.291   1.121
 7276SOL     OW22726   2.921   1.522   3.851
 7276SOL    HW122727   2.918   1.427   3.819
 7276SOL    HW222728   2.917   1.583   3.772
 7277SOL     OW22729   5.619   1.539   3.971
 7277SOL    HW122730   5.550   1.502   4.034
 7277SOL    HW222731   5.604   1.637   3.960
 7278SOL     OW22732   2.347   1.717   3.628
 7278SOL    HW122733   2.381   1.725   3.722
 7278SOL    HW222734   2.396   1.780   3.569
 7279SOL     OW22735   4.000   4.440   1.148
 7279SOL    HW122736   3.993   4.397   1.058
 7279SOL    HW222737   4.015   4.369   1.217
 7280SOL     OW22738   6.609   2.478   5.516
 7280SOL    HW122739   6.699   2.506   5.483
 7280SOL    HW222740   6.562   2.557   5.556
 7281SOL     OW22741   4.248   5.912   2.047
 7281SOL    HW122742   4.211   5.819   2.051
 7281SOL    HW222743   4.174   5.977   2.030
 7282SOL     OW22744   6.684   3.865   2.249
 7282SOL    HW122745   6.672   3.931   2.175
 7282SOL    HW222746   6.654   3.906   2.335
 7283SOL     OW22747   3.752   5.784   3.250
 7283SOL    HW122748   3.736   5.731   3.333
 7283SOL    HW222749   3.691   5.863   3.249
 7284SOL     OW22750   0.973   1.584   2.517
 7284SOL    HW122751   0.961   1.682   2.504
 7284SOL    HW222752   1.070   1.563   2.526
 7285SOL     OW22753   4.894   2.882   1.828
 7285SOL    HW122754   4.854   2.938   1.901
 7285SOL    HW222755   4.830   2.876   1.751
 7286SOL     OW22756   6.430   1.234   3.551
 7286SOL    HW122757   6.470   1.143   3.540
 7286SOL    HW222758   6.412   1.251   3.648
 7287SOL     OW22759   3.256   0.995   3.681
 7287SOL    HW122760   3.311   0.971   3.601
 7287SOL    HW222761   3.220   0.912   3.723
 7288SOL     OW22762   2.900   1.588   1.846
 7288SOL    HW122763   2.886   1.585   1.945
 7288SOL    HW222764   2.989   1.548   1.824
 7289SOL     OW22765   6.239   3.234   1.837
 7289SOL    HW122766   6.153   3.222   1.886
 7289SOL    HW222767   6.315   3.203   1.893
 7290SOL     OW22768   4.233   1.470   5.230
 7290SOL    HW122769   4.207   1.515   5.145
 7290SOL    HW222770   4.330   1.485   5.247
 7291SOL     OW22771   1.687   1.197   0.502
 7291SOL    HW122772   1.611   1.231   0.557
 7291SOL    HW222773   1.703   1.101   0.522
 7292SOL     OW22774   2.557   0.985   2.691
 7292SOL    HW122775   2.517   1.041   2.618
 7292SOL    HW222776   2.545   1.032   2.778
 7293SOL     OW22777   6.427   1.267   3.824
 7293SOL    HW122778   6.457   1.244   3.917
 7293SOL    HW222779   6.428   1.366   3.813
 7294SOL     OW22780   3.960   6.508   2.043
 7294SOL    HW122781   3.869   6.528   2.009
 7294SOL    HW222782   3.959   6.421   2.093
 7295SOL     OW22783   5.159   4.089   1.513
 7295SOL    HW122784   5.191   4.118   1.603
 7295SOL    HW222785   5.227   4.114   1.444
 7296SOL     OW22786   3.689   6.075   2.004
 7296SOL    HW122787   3.612   6.056   1.943
 7296SOL    HW222788   3.684   6.015   2.083
 7297SOL     OW22789   4.339   6.534   0.765
 7297SOL    HW122790   4.371   6.469   0.834
 7297SOL    HW222791   4.245   6.560   0.786
 7298SOL     OW22792   3.998   5.431   1.135
 7298SOL    HW122793   3.932   5.506   1.138
 7298SOL    HW222794   3.950   5.344   1.144
 7299SOL     OW22795   0.671   3.214   5.395
 7299SOL    HW122796   0.629   3.139   5.447
 7299SOL    HW222797   0.609   3.292   5.393
 7300SOL     OW22798   0.574   5.049   2.361
 7300SOL    HW122799   0.539   4.957   2.340
 7300SOL    HW222800   0.563   5.108   2.281
 7301SOL     OW22801   3.978   2.087   6.356
 7301SOL    HW122802   3.907   2.100   6.286
 7301SOL    HW222803   4.039   2.166   6.355
 7302SOL     OW22804   5.340   2.554   6.839
 7302SOL    HW122805   5.255   2.589   6.800
 7302SOL    HW222806   5.322   2.508   6.926
 7303SOL     OW22807   3.289   1.859   1.418
 7303SOL    HW122808   3.212   1.796   1.428
 7303SOL    HW222809   3.327   1.880   1.508
 7304SOL     OW22810   2.338   5.176   0.766
 7304SOL    HW122811   2.332   5.109   0.840
 7304SOL    HW222812   2.289   5.142   0.686
 7305SOL     OW22813   6.127   0.871   6.747
 7305SOL    HW122814   6.046   0.914   6.788
 7305SOL    HW222815   6.200   0.938   6.739
 7306SOL     OW22816   1.355   2.836   1.373
 7306SOL    HW122817   1.361   2.909   1.305
 7306SOL    HW222818   1.341   2.748   1.327
 7307SOL     OW22819   2.306   0.344   1.995
 7307SOL    HW122820   2.359   0.394   2.064
 7307SOL    HW222821   2.312   0.391   1.908
 7308SOL     OW22822   3.641   1.359   3.072
 7308SOL    HW122823   3.542   1.347   3.078
 7308SOL    HW222824   3.669   1.356   2.976
 7309SOL     OW22825   1.918   5.391   3.713
 7309SOL    HW122826   1.981   5.466   3.733
 7309SOL    HW222827   1.947   5.345   3.629
 7310SOL     OW22828   2.827   2.690   6.635
 7310SOL    HW122829   2.831   2.590   6.642
 7310SOL    HW222830   2.818   2.717   6.540
 7311SOL     OW22831   0.335   6.076   5.834
 7311SOL    HW122832   0.428   6.068   5.870
 7311SOL    HW222833   0.276   6.116   5.903
 7312SOL     OW22834   5.873   2.145   3.808
 7312SOL    HW122835   5.968   2.148   3.840
 7312SOL    HW222836   5.829   2.061   3.840
 7313SOL     OW22837   3.036   0.739   2.669
 7313SOL    HW122838   3.133   0.732   2.690
 7313SOL    HW222839   3.005   0.833   2.682
 7314SOL     OW22840   1.486   4.598   5.985
 7314SOL    HW122841   1.549   4.660   5.938
 7314SOL    HW222842   1.433   4.648   6.052
 7315SOL     OW22843   2.716   5.177   2.411
 7315SOL    HW122844   2.664   5.226   2.341
 7315SOL    HW222845   2.753   5.243   2.476
 7316SOL     OW22846   4.181   1.391   1.393
 7316SOL    HW122847   4.248   1.324   1.425
 7316SOL    HW222848   4.090   1.350   1.392
 7317SOL     OW22849   4.242   1.770   0.352
 7317SOL    HW122850   4.279   1.781   0.260
 7317SOL    HW222851   4.287   1.693   0.397
 7318SOL     OW22852   5.041   6.907   0.438
 7318SOL    HW122853   5.034   6.985   0.500
 7318SOL    HW222854   5.084   6.831   0.485
 7319SOL     OW22855   5.329   6.198   6.992
 7319SOL    HW122856   5.386   6.116   6.983
 7319SOL    HW222857   5.385   6.279   6.973
 7320SOL     OW22858   0.602   2.823   0.400
 7320SOL    HW122859   0.552   2.859   0.321
 7320SOL    HW222860   0.699   2.812   0.377
 7321SOL     OW22861   2.134   2.455   6.364
 7321SOL    HW122862   2.227   2.465   6.401
 7321SOL    HW222863   2.136   2.463   6.265
 7322SOL     OW22864   1.087   3.048   3.487
 7322SOL    HW122865   1.097   3.140   3.448
 7322SOL    HW222866   1.031   2.992   3.426
 7323SOL     OW22867   1.797   2.469   0.629
 7323SOL    HW122868   1.715   2.499   0.676
 7323SOL    HW222869   1.787   2.373   0.603
 7324SOL     OW22870   4.853   3.991   3.922
 7324SOL    HW122871   4.817   4.069   3.974
 7324SOL    HW222872   4.869   3.914   3.983
 7325SOL     OW22873   3.630   1.448   6.369
 7325SOL    HW122874   3.665   1.362   6.330
 7325SOL    HW222875   3.562   1.487   6.307
 7326SOL     OW22876   3.944   0.076   0.602
 7326SOL    HW122877   3.864   0.127   0.573
 7326SOL    HW222878   3.919   7.002   0.616
 7327SOL     OW22879   1.692   4.108   3.423
 7327SOL    HW122880   1.648   4.025   3.389
 7327SOL    HW222881   1.770   4.084   3.480
 7328SOL     OW22882   4.428   5.167   5.901
 7328SOL    HW122883   4.500   5.184   5.968
 7328SOL    HW222884   4.411   5.250   5.849
 7329SOL     OW22885   2.839   3.868   0.468
 7329SOL    HW122886   2.915   3.918   0.427
 7329SOL    HW222887   2.853   3.861   0.567
 7330SOL     OW22888   2.225   2.855   1.039
 7330SOL    HW122889   2.282   2.852   1.121
 7330SOL    HW222890   2.160   2.780   1.041
 7331SOL     OW22891   5.501   1.965   2.383
 7331SOL    HW122892   5.447   1.923   2.456
 7331SOL    HW222893   5.521   1.896   2.313
 7332SOL     OW22894   2.861   6.212   6.132
 7332SOL    HW122895   2.954   6.248   6.131
 7332SOL    HW222896   2.800   6.280   6.171
 7333SOL     OW22897   0.217   0.873   1.370
 7333SOL    HW122898   0.193   0.914   1.458
 7333SOL    HW222899   0.255   0.782   1.385
 7334SOL     OW22900   1.329   4.746   4.179
 7334SOL    HW122901   1.338   4.799   4.094
 7334SOL    HW222902   1.379   4.660   4.170
 7335SOL     OW22903   0.446   3.625   2.023
 7335SOL    HW122904   0.376   3.671   1.969
 7335SOL    HW222905   0.404   3.571   2.095
 7336SOL     OW22906   2.339   6.972   1.106
 7336SOL    HW122907   2.240   6.976   1.115
 7336SOL    HW222908   2.380   0.019   1.166
 7337SOL     OW22909   3.545   1.209   3.596
 7337SOL    HW122910   3.454   1.184   3.563
 7337SOL    HW222911   3.593   1.127   3.626
 7338SOL     OW22912   4.984   4.063   1.129
 7338SOL    HW122913   4.938   4.107   1.207
 7338SOL    HW222914   5.040   3.987   1.162
 7339SOL     OW22915   0.092   6.151   4.732
 7339SOL    HW122916   0.116   6.247   4.720
 7339SOL    HW222917   0.158   6.094   4.683
 7340SOL     OW22918   2.572   6.000   0.347
 7340SOL    HW122919   2.631   5.939   0.294
 7340SOL    HW222920   2.588   5.987   0.444
 7341SOL     OW22921   6.289   5.987   4.918
 7341SOL    HW122922   6.247   6.047   4.850
 7341SOL    HW222923   6.228   5.909   4.936
 7342SOL     OW22924   0.924   5.281   1.065
 7342SOL    HW122925   0.889   5.209   1.005
 7342SOL    HW222926   0.879   5.368   1.043
 7343SOL     OW22927   5.736   2.329   2.889
 7343SOL    HW122928   5.775   2.355   2.801
 7343SOL    HW222929   5.670   2.399   2.917
 7344SOL     OW22930   2.137   1.478   0.204
 7344SOL    HW122931   2.150   1.405   0.271
 7344SOL    HW222932   2.213   1.543   0.209
 7345SOL     OW22933   2.645   6.386   6.936
 7345SOL    HW122934   2.587   6.468   6.933
 7345SOL    HW222935   2.696   6.385   0.000
 7346SOL     OW22936   4.149   5.046   2.348
 7346SOL    HW122937   4.200   5.088   2.273
 7346SOL    HW222938   4.064   5.097   2.364
 7347SOL     OW22939   6.333   2.901   2.202
 7347SOL    HW122940   6.381   2.986   2.182
 7347SOL    HW222941   6.398   2.835   2.240
 7348SOL     OW22942   6.991   1.265   5.028
 7348SOL    HW122943   0.004   1.244   4.937
 7348SOL    HW222944   7.012   1.189   5.090
 7349SOL     OW22945   3.574   1.507   0.706
 7349SOL    HW122946   3.529   1.418   0.696
 7349SOL    HW222947   3.613   1.514   0.798
 7350SOL     OW22948   2.168   1.111   2.932
 7350SOL    HW122949   2.134   1.054   3.007
 7350SOL    HW222950   2.251   1.158   2.961
 7351SOL     OW22951   4.164   4.983   0.159
 7351SOL    HW122952   4.242   4.920   0.164
 7351SOL    HW222953   4.185   5.065   0.213
 7352SOL     OW22954   6.678   0.694   3.242
 7352SOL    HW122955   6.666   0.595   3.245
 7352SOL    HW222956   6.760   0.720   3.293
 7353SOL     OW22957   5.172   2.351   4.497
 7353SOL    HW122958   5.176   2.252   4.506
 7353SOL    HW222959   5.207   2.379   4.408
 7354SOL     OW22960   6.561   4.105   4.618
 7354SOL    HW122961   6.527   4.017   4.651
 7354SOL    HW222962   6.489   4.153   4.568
 7355SOL     OW22963   0.612   5.302   1.410
 7355SOL    HW122964   0.668   5.360   1.469
 7355SOL    HW222965   0.669   5.232   1.368
 7356SOL     OW22966   0.234   2.319   6.138
 7356SOL    HW122967   0.250   2.220   6.139
 7356SOL    HW222968   0.263   2.358   6.226
 7357SOL     OW22969   0.684   1.664   0.264
 7357SOL    HW122970   0.692   1.565   0.275
 7357SOL    HW222971   0.715   1.690   0.172
 7358SOL     OW22972   3.483   0.762   3.915
 7358SOL    HW122973   3.465   0.689   3.849
 7358SOL    HW222974   3.410   0.764   3.983
 7359SOL     OW22975   3.598   2.949   3.268
 7359SOL    HW122976   3.540   3.020   3.308
 7359SOL    HW222977   3.548   2.901   3.196
 7360SOL     OW22978   0.254   3.873   5.831
 7360SOL    HW122979   0.346   3.840   5.814
 7360SOL    HW222980   0.258   3.956   5.887
 7361SOL     OW22981   5.174   6.419   1.384
 7361SOL    HW122982   5.124   6.346   1.338
 7361SOL    HW222983   5.109   6.484   1.423
 7362SOL     OW22984   1.705   6.634   6.355
 7362SOL    HW122985   1.632   6.702   6.348
 7362SOL    HW222986   1.673   6.547   6.318
 7363SOL     OW22987   5.054   2.780   6.450
 7363SOL    HW122988   5.016   2.785   6.358
 7363SOL    HW222989   5.041   2.868   6.496
 7364SOL     OW22990   5.348   1.138   1.048
 7364SOL    HW122991   5.382   1.173   0.961
 7364SOL    HW222992   5.265   1.084   1.032
 7365SOL     OW22993   3.757   0.700   1.775
 7365SOL    HW122994   3.840   0.756   1.773
 7365SOL    HW222995   3.753   0.643   1.693
 7366SOL     OW22996   0.731   5.867   0.047
 7366SOL    HW122997   0.725   5.780   0.095
 7366SOL    HW222998   0.727   5.851   6.970
 7367SOL     OW22999   4.325   3.313   6.665
 7367SOL    HW123000   4.329   3.408   6.694
 7367SOL    HW223001   4.351   3.306   6.569
 7368SOL     OW23002   3.071   3.239   3.558
 7368SOL    HW123003   3.056   3.189   3.472
 7368SOL    HW223004   3.051   3.336   3.543
 7369SOL     OW23005   4.870   1.706   6.049
 7369SOL    HW123006   4.922   1.790   6.030
 7369SOL    HW223007   4.791   1.728   6.106
 7370SOL     OW23008   1.490   5.518   1.293
 7370SOL    HW123009   1.432   5.495   1.371
 7370SOL    HW223010   1.577   5.556   1.325
 7371SOL     OW23011   2.223   5.003   4.293
 7371SOL    HW123012   2.316   4.976   4.317
 7371SOL    HW223013   2.163   4.988   4.372
 7372SOL     OW23014   3.236   6.384   5.630
 7372SOL    HW123015   3.174   6.461   5.648
 7372SOL    HW223016   3.182   6.302   5.615
 7373SOL     OW23017   3.697   0.533   0.894
 7373SOL    HW123018   3.677   0.613   0.951
 7373SOL    HW223019   3.651   0.453   0.933
 7374SOL     OW23020   2.337   3.457   6.627
 7374SOL    HW123021   2.316   3.366   6.663
 7374SOL    HW223022   2.435   3.475   6.638
 7375SOL     OW23023   2.145   6.148   2.837
 7375SOL    HW123024   2.214   6.085   2.801
 7375SOL    HW223025   2.166   6.241   2.806
 7376SOL     OW23026   3.484   4.661   6.193
 7376SOL    HW123027   3.570   4.615   6.171
 7376SOL    HW223028   3.409   4.594   6.193
 7377SOL     OW23029   5.683   4.990   2.024
 7377SOL    HW123030   5.710   4.896   2.001
 7377SOL    HW223031   5.717   5.052   1.953
 7378SOL     OW23032   6.812   2.810   6.287
 7378SOL    HW123033   6.797   2.906   6.263
 7378SOL    HW223034   6.877   2.804   6.363
 7379SOL     OW23035   4.120   1.066   0.755
 7379SOL    HW123036   4.023   1.089   0.743
 7379SOL    HW223037   4.158   1.121   0.829
 7380SOL     OW23038   6.201   2.524   5.497
 7380SOL    HW123039   6.255   2.605   5.476
 7380SOL    HW223040   6.235   2.446   5.444
 7381SOL     OW23041   4.610   2.335   0.038
 7381SOL    HW123042   4.516   2.312   0.015
 7381SOL    HW223043   4.658   2.252   0.067
 7382SOL     OW23044   0.484   5.884   3.703
 7382SOL    HW123045   0.446   5.914   3.615
 7382SOL    HW223046   0.580   5.860   3.691
 7383SOL     OW23047   0.180   5.174   3.301
 7383SOL    HW123048   0.274   5.202   3.318
 7383SOL    HW223049   0.151   5.205   3.211
 7384SOL     OW23050   6.308   2.025   1.660
 7384SOL    HW123051   6.309   1.939   1.608
 7384SOL    HW223052   6.397   2.038   1.704
 7385SOL     OW23053   5.304   0.869   1.613
 7385SOL    HW123054   5.325   0.810   1.691
 7385SOL    HW223055   5.221   0.922   1.632
 7386SOL     OW23056   6.994   2.944   5.756
 7386SOL    HW123057   7.022   2.863   5.808
 7386SOL    HW223058   0.052   2.996   5.730
 7387SOL     OW23059   5.261   6.285   3.751
 7387SOL    HW123060   5.322   6.286   3.673
 7387SOL    HW223061   5.183   6.347   3.734
 7388SOL     OW23062   5.298   4.182   4.835
 7388SOL    HW123063   5.361   4.122   4.786
 7388SOL    HW223064   5.240   4.230   4.769
 7389SOL     OW23065   0.873   4.256   4.415
 7389SOL    HW123066   0.875   4.345   4.461
 7389SOL    HW223067   0.790   4.207   4.441
 7390SOL     OW23068   2.926   0.391   6.183
 7390SOL    HW123069   2.948   0.386   6.280
 7390SOL    HW223070   3.002   0.433   6.134
 7391SOL     OW23071   6.901   4.420   0.043
 7391SOL    HW123072   6.992   4.461   0.034
 7391SOL    HW223073   6.884   4.401   0.140
 7392SOL     OW23074   2.312   4.155   2.848
 7392SOL    HW123075   2.307   4.213   2.930
 7392SOL    HW223076   2.299   4.059   2.874
 7393SOL     OW23077   0.446   3.688   0.192
 7393SOL    HW123078   0.471   3.706   0.287
 7393SOL    HW223079   0.524   3.709   0.133
 7394SOL     OW23080   2.842   3.206   6.539
 7394SOL    HW123081   2.745   3.182   6.526
 7394SOL    HW223082   2.857   3.301   6.514
 7395SOL     OW23083   2.177   6.534   0.145
 7395SOL    HW123084   2.144   6.446   0.180
 7395SOL    HW223085   2.158   6.541   0.048
 7396SOL     OW23086   7.011   6.884   1.992
 7396SOL    HW123087   0.008   6.786   1.986
 7396SOL    HW223088   6.960   6.913   1.911
 7397SOL     OW23089   5.750   4.367   4.565
 7397SOL    HW123090   5.765   4.299   4.636
 7397SOL    HW223091   5.838   4.391   4.523
 7398SOL     OW23092   4.748   6.284   2.891
 7398SOL    HW123093   4.757   6.265   2.989
 7398SOL    HW223094   4.656   6.259   2.861
 7399SOL     OW23095   5.220   4.734   4.906
 7399SOL    HW123096   5.219   4.665   4.978
 7399SOL    HW223097   5.160   4.704   4.831
 7400SOL     OW23098   2.448   4.426   6.875
 7400SOL    HW123099   2.498   4.499   6.831
 7400SOL    HW223100   2.510   4.373   6.934
 7401SOL     OW23101   5.815   1.603   4.899
 7401SOL    HW123102   5.869   1.687   4.892
 7401SOL    HW223103   5.724   1.617   4.860
 7402SOL     OW23104   2.298   6.346   4.198
 7402SOL    HW123105   2.363   6.273   4.222
 7402SOL    HW223106   2.265   6.332   4.105
 7403SOL     OW23107   2.074   3.222   1.256
 7403SOL    HW123108   2.011   3.283   1.209
 7403SOL    HW223109   2.165   3.230   1.216
 7404SOL     OW23110   1.244   1.654   2.288
 7404SOL    HW123111   1.215   1.750   2.296
 7404SOL    HW223112   1.176   1.595   2.330
 7405SOL     OW23113   3.736   5.079   6.606
 7405SOL    HW123114   3.661   5.080   6.671
 7405SOL    HW223115   3.700   5.078   6.513
 7406SOL     OW23116   0.570   6.064   1.684
 7406SOL    HW123117   0.537   5.983   1.732
 7406SOL    HW223118   0.650   6.041   1.629
 7407SOL     OW23119   2.221   0.883   5.767
 7407SOL    HW123120   2.293   0.824   5.804
 7407SOL    HW223121   2.249   0.919   5.679
 7408SOL     OW23122   0.407   3.951   5.141
 7408SOL    HW123123   0.362   3.874   5.186
 7408SOL    HW223124   0.341   4.001   5.085
 7409SOL     OW23125   2.710   6.443   5.531
 7409SOL    HW123126   2.756   6.440   5.619
 7409SOL    HW223127   2.762   6.499   5.467
 7410SOL     OW23128   5.026   4.749   6.840
 7410SOL    HW123129   4.936   4.747   6.796
 7410SOL    HW223130   5.018   4.796   6.928
 7411SOL     OW23131   5.244   4.874   5.896
 7411SOL    HW123132   5.216   4.877   5.800
 7411SOL    HW223133   5.168   4.838   5.951
 7412SOL     OW23134   1.631   1.460   6.761
 7412SOL    HW123135   1.725   1.494   6.757
 7412SOL    HW223136   1.601   1.435   6.669
 7413SOL     OW23137   0.155   3.416   4.296
 7413SOL    HW123138   0.167   3.503   4.248
 7413SOL    HW223139   0.242   3.389   4.338
 7414SOL     OW23140   0.019   5.579   2.676
 7414SOL    HW123141   0.107   5.562   2.632
 7414SOL    HW223142   7.015   5.500   2.731
 7415SOL     OW23143   2.640   1.602   3.246
 7415SOL    HW123144   2.559   1.598   3.304
 7415SOL    HW223145   2.722   1.612   3.303
 7416SOL     OW23146   5.693   0.241   3.459
 7416SOL    HW123147   5.790   0.234   3.482
 7416SOL    HW223148   5.656   0.150   3.443
 7417SOL     OW23149   0.867   5.852   1.180
 7417SOL    HW123150   0.958   5.810   1.183
 7417SOL    HW223151   0.844   5.886   1.271
 7418SOL     OW23152   0.780   3.767   0.324
 7418SOL    HW123153   0.738   3.679   0.348
 7418SOL    HW223154   0.840   3.755   0.245
 7419SOL     OW23155   5.824   1.113   5.792
 7419SOL    HW123156   5.903   1.154   5.745
 7419SOL    HW223157   5.788   1.178   5.859
 7420SOL     OW23158   6.887   5.787   2.233
 7420SOL    HW123159   6.850   5.857   2.173
 7420SOL    HW223160   6.823   5.769   2.308
 7421SOL     OW23161   3.763   2.673   1.461
 7421SOL    HW123162   3.829   2.672   1.386
 7421SOL    HW223163   3.792   2.741   1.529
 7422SOL     OW23164   0.847   1.740   1.127
 7422SOL    HW123165   0.892   1.794   1.197
 7422SOL    HW223166   0.813   1.800   1.055
 7423SOL     OW23167   2.170   5.187   0.110
 7423SOL    HW123168   2.103   5.152   0.045
 7423SOL    HW223169   2.218   5.265   0.070
 7424SOL     OW23170   5.661   0.747   4.711
 7424SOL    HW123171   5.579   0.794   4.678
 7424SOL    HW223172   5.678   0.772   4.806
 7425SOL     OW23173   4.045   0.150   5.367
 7425SOL    HW123174   3.998   0.221   5.314
 7425SOL    HW223175   4.139   0.179   5.385
 7426SOL     OW23176   0.804   1.495   6.962
 7426SOL    HW123177   0.806   1.482   0.039
 7426SOL    HW223178   0.792   1.592   6.941
 7427SOL     OW23179   4.504   5.683   5.080
 7427SOL    HW123180   4.561   5.678   4.998
 7427SOL    HW223181   4.426   5.621   5.069
 7428SOL     OW23182   3.138   1.376   5.829
 7428SOL    HW123183   3.184   1.408   5.745
 7428SOL    HW223184   3.131   1.452   5.893
 7429SOL     OW23185   6.706   0.070   3.826
 7429SOL    HW123186   6.720   0.067   3.727
 7429SOL    HW223187   6.773   0.010   3.871
 7430SOL     OW23188   0.272   4.813   4.598
 7430SOL    HW123189   0.272   4.866   4.513
 7430SOL    HW223190   0.214   4.732   4.587
 7431SOL     OW23191   0.877   4.447   1.969
 7431SOL    HW123192   0.960   4.438   2.024
 7431SOL    HW223193   0.796   4.437   2.027
 7432SOL     OW23194   1.506   6.385   4.879
 7432SOL    HW123195   1.586   6.347   4.926
 7432SOL    HW223196   1.536   6.431   4.795
 7433SOL     OW23197   0.034   6.350   1.258
 7433SOL    HW123198   6.977   6.408   1.241
 7433SOL    HW223199   0.016   6.291   1.337
 7434SOL     OW23200   3.997   7.009   6.983
 7434SOL    HW123201   4.075   6.988   6.924
 7434SOL    HW223202   3.980   0.086   6.981
 7435SOL     OW23203   1.284   5.494   6.826
 7435SOL    HW123204   1.383   5.505   6.817
 7435SOL    HW223205   1.255   5.412   6.776
 7436SOL     OW23206   4.874   3.201   6.818
 7436SOL    HW123207   4.953   3.263   6.822
 7436SOL    HW223208   4.790   3.254   6.817
 7437SOL     OW23209   0.018   5.522   5.786
 7437SOL    HW123210   0.041   5.594   5.720
 7437SOL    HW223211   0.072   5.440   5.766
 7438SOL     OW23212   6.072   4.189   2.038
 7438SOL    HW123213   6.097   4.094   2.057
 7438SOL    HW223214   5.986   4.190   1.987
 7439SOL     OW23215   1.473   6.120   3.619
 7439SOL    HW123216   1.494   6.182   3.543
 7439SOL    HW223217   1.455   6.028   3.583
 7440SOL     OW23218   0.675   1.782   3.428
 7440SOL    HW123219   0.690   1.692   3.470
 7440SOL    HW223220   0.730   1.788   3.345
 7441SOL     OW23221   5.996   6.765   4.073
 7441SOL    HW123222   5.970   6.755   3.977
 7441SOL    HW223223   6.042   6.853   4.086
 7442SOL     OW23224   1.943   0.922   6.500
 7442SOL    HW123225   1.888   0.914   6.417
 7442SOL    HW223226   1.892   0.883   6.577
 7443SOL     OW23227   6.853   1.385   0.478
 7443SOL    HW123228   6.764   1.374   0.521
 7443SOL    HW223229   6.925   1.371   0.546
 7444SOL     OW23230   0.606   2.628   5.719
 7444SOL    HW123231   0.696   2.598   5.748
 7444SOL    HW223232   0.549   2.548   5.699
 7445SOL     OW23233   5.866   2.245   1.697
 7445SOL    HW123234   5.869   2.147   1.677
 7445SOL    HW223235   5.802   2.290   1.636
 7446SOL     OW23236   6.488   3.260   1.686
 7446SOL    HW123237   6.406   3.279   1.741
 7446SOL    HW223238   6.569   3.287   1.737
 7447SOL     OW23239   6.816   3.883   6.168
 7447SOL    HW123240   6.846   3.914   6.078
 7447SOL    HW223241   6.728   3.835   6.159
 7448SOL     OW23242   6.515   6.446   5.797
 7448SOL    HW123243   6.615   6.450   5.793
 7448SOL    HW223244   6.480   6.535   5.827
 7449SOL     OW23245   4.239   0.856   1.607
 7449SOL    HW123246   4.187   0.868   1.522
 7449SOL    HW223247   4.305   0.930   1.617
 7450SOL     OW23248   3.332   0.375   1.839
 7450SOL    HW123249   3.430   0.387   1.854
 7450SOL    HW223250   3.312   0.277   1.834
 7451SOL     OW23251   1.591   1.011   2.651
 7451SOL    HW123252   1.526   0.937   2.630
 7451SOL    HW223253   1.548   1.075   2.715
 7452SOL     OW23254   1.744   6.635   4.089
 7452SOL    HW123255   1.696   6.723   4.090
 7452SOL    HW223256   1.684   6.564   4.128
 7453SOL     OW23257   5.898   5.766   5.472
 7453SOL    HW123258   5.922   5.670   5.465
 7453SOL    HW223259   5.864   5.799   5.383
 7454SOL     OW23260   0.885   2.977   6.871
 7454SOL    HW123261   0.962   2.997   6.931
 7454SOL    HW223262   0.810   2.937   6.924
 7455SOL     OW23263   5.431   1.287   0.372
 7455SOL    HW123264   5.427   1.326   0.464
 7455SOL    HW223265   5.389   1.351   0.307
 7456SOL     OW23266   1.456   3.141   5.759
 7456SOL    HW123267   1.364   3.132   5.720
 7456SOL    HW223268   1.449   3.177   5.852
 7457SOL     OW23269   6.375   6.968   6.145
 7457SOL    HW123270   6.295   6.947   6.088
 7457SOL    HW223271   6.359   6.934   6.238
 7458SOL     OW23272   2.296   0.446   0.755
 7458SOL    HW123273   2.227   0.447   0.828
 7458SOL    HW223274   2.252   0.429   0.667
 7459SOL     OW23275   4.794   0.332   4.528
 7459SOL    HW123276   4.712   0.389   4.531
 7459SOL    HW223277   4.857   0.360   4.600
 7460SOL     OW23278   0.754   5.328   6.579
 7460SOL    HW123279   0.763   5.239   6.622
 7460SOL    HW223280   0.710   5.319   6.490
 7461SOL     OW23281   4.829   0.915   4.234
 7461SOL    HW123282   4.838   0.998   4.178
 7461SOL    HW223283   4.804   0.838   4.175
 7462SOL     OW23284   1.829   1.108   2.451
 7462SOL    HW123285   1.748   1.061   2.488
 7462SOL    HW223286   1.866   1.054   2.375
 7463SOL     OW23287   3.493   4.026   2.153
 7463SOL    HW123288   3.567   4.020   2.220
 7463SOL    HW223289   3.524   4.076   2.073
 7464SOL     OW23290   4.820   6.998   6.705
 7464SOL    HW123291   4.918   6.980   6.715
 7464SOL    HW223292   4.781   6.934   6.639
 7465SOL     OW23293   3.441   1.039   1.999
 7465SOL    HW123294   3.477   0.994   1.917
 7465SOL    HW223295   3.501   1.021   2.077
 7466SOL     OW23296   0.166   0.497   6.620
 7466SOL    HW123297   0.212   0.460   6.540
 7466SOL    HW223298   0.221   0.480   6.702
 7467SOL     OW23299   5.373   1.531   1.467
 7467SOL    HW123300   5.290   1.487   1.502
 7467SOL    HW223301   5.375   1.523   1.367
 7468SOL     OW23302   5.947   3.251   4.290
 7468SOL    HW123303   5.961   3.294   4.201
 7468SOL    HW223304   5.973   3.315   4.362
 7469SOL     OW23305   6.074   1.223   1.862
 7469SOL    HW123306   6.116   1.302   1.817
 7469SOL    HW223307   5.975   1.232   1.860
 7470SOL     OW23308   0.406   2.707   2.138
 7470SOL    HW123309   0.483   2.770   2.147
 7470SOL    HW223310   0.339   2.745   2.073
 7471SOL     OW23311   5.943   4.474   5.710
 7471SOL    HW123312   5.920   4.477   5.808
 7471SOL    HW223313   6.031   4.429   5.698
 7472SOL     OW23314   3.911   5.232   3.294
 7472SOL    HW123315   3.841   5.303   3.293
 7472SOL    HW223316   3.904   5.179   3.379
 7473SOL     OW23317   0.841   3.493   5.150
 7473SOL    HW123318   0.877   3.559   5.215
 7473SOL    HW223319   0.893   3.408   5.156
 7474SOL     OW23320   4.099   1.680   3.272
 7474SOL    HW123321   4.044   1.669   3.354
 7474SOL    HW223322   4.122   1.590   3.234
 7475SOL     OW23323   4.292   0.933   6.997
 7475SOL    HW123324   4.309   0.885   0.060
 7475SOL    HW223325   4.312   0.873   6.920
 7476SOL     OW23326   3.442   0.016   5.299
 7476SOL    HW123327   3.429   0.104   5.347
 7476SOL    HW223328   3.449   0.033   5.201
 7477SOL     OW23329   5.183   3.234   3.500
 7477SOL    HW123330   5.162   3.181   3.582
 7477SOL    HW223331   5.105   3.229   3.437
 7478SOL     OW23332   1.585   4.561   1.237
 7478SOL    HW123333   1.539   4.541   1.323
 7478SOL    HW223334   1.518   4.567   1.164
 7479SOL     OW23335   4.457   0.668   6.011
 7479SOL    HW123336   4.518   0.611   5.955
 7479SOL    HW223337   4.453   0.631   6.103
 7480SOL     OW23338   6.882   4.960   0.929
 7480SOL    HW123339   6.959   4.950   0.866
 7480SOL    HW223340   6.802   4.993   0.880
 7481SOL     OW23341   6.246   5.868   0.752
 7481SOL    HW123342   6.214   5.823   0.835
 7481SOL    HW223343   6.239   5.805   0.675
 7482SOL     OW23344   5.204   0.434   3.806
 7482SOL    HW123345   5.177   0.350   3.760
 7482SOL    HW223346   5.286   0.472   3.762
 7483SOL     OW23347   3.409   6.927   5.962
 7483SOL    HW123348   3.351   6.996   6.007
 7483SOL    HW223349   3.448   6.866   6.030
 7484SOL     OW23350   3.067   0.342   2.211
 7484SOL    HW123351   3.082   0.361   2.308
 7484SOL    HW223352   3.061   0.429   2.161
 7485SOL     OW23353   0.931   6.787   5.885
 7485SOL    HW123354   1.016   6.818   5.928
 7485SOL    HW223355   0.872   6.747   5.955
 7486SOL     OW23356   1.738   0.280   5.005
 7486SOL    HW123357   1.702   0.307   4.915
 7486SOL    HW223358   1.820   0.333   5.025
 7487SOL     OW23359   4.024   5.577   3.417
 7487SOL    HW123360   3.941   5.583   3.362
 7487SOL    HW223361   4.083   5.656   3.396
 7488SOL     OW23362   3.307   1.105   5.401
 7488SOL    HW123363   3.391   1.066   5.362
 7488SOL    HW223364   3.240   1.119   5.329
 7489SOL     OW23365   6.196   3.428   3.454
 7489SOL    HW123366   6.161   3.404   3.545
 7489SOL    HW223367   6.280   3.376   3.436
 7490SOL     OW23368   5.752   1.216   2.534
 7490SOL    HW123369   5.678   1.283   2.542
 7490SOL    HW223370   5.830   1.258   2.487
 7491SOL     OW23371   0.035   6.486   6.515
 7491SOL    HW123372   6.971   6.466   6.468
 7491SOL    HW223373   0.023   6.473   6.613
 7492SOL     OW23374   1.919   2.573   3.970
 7492SOL    HW123375   2.005   2.524   3.954
 7492SOL    HW223376   1.875   2.593   3.883
 7493SOL     OW23377   5.626   4.627   0.472
 7493SOL    HW123378   5.541   4.592   0.511
 7493SOL    HW223379   5.651   4.571   0.393
 7494SOL     OW23380   4.665   1.788   1.141
 7494SOL    HW123381   4.688   1.818   1.048
 7494SOL    HW223382   4.717   1.842   1.207
 7495SOL     OW23383   0.621   1.710   2.489
 7495SOL    HW123384   0.710   1.755   2.490
 7495SOL    HW223385   0.617   1.645   2.413
 7496SOL     OW23386   1.063   4.533   5.248
 7496SOL    HW123387   1.064   4.624   5.206
 7496SOL    HW223388   1.157   4.506   5.270
 7497SOL     OW23389   2.227   5.005   2.452
 7497SOL    HW123390   2.249   4.934   2.385
 7497SOL    HW223391   2.301   5.073   2.452
 7498SOL     OW23392   5.073   0.850   4.343
 7498SOL    HW123393   4.997   0.867   4.280
 7498SOL    HW223394   5.075   0.753   4.368
 7499SOL     OW23395   4.453   5.579   3.882
 7499SOL    HW123396   4.402   5.534   3.809
 7499SOL    HW223397   4.411   5.668   3.903
 7500SOL     OW23398   4.891   4.149   1.788
 7500SOL    HW123399   4.956   4.076   1.808
 7500SOL    HW223400   4.818   4.149   1.856
 7501SOL     OW23401   0.526   4.337   3.787
 7501SOL    HW123402   0.561   4.426   3.814
 7501SOL    HW223403   0.428   4.331   3.808
 7502SOL     OW23404   2.328   1.739   4.465
 7502SOL    HW123405   2.403   1.782   4.516
 7502SOL    HW223406   2.359   1.651   4.429
 7503SOL     OW23407   1.914   2.524   6.828
 7503SOL    HW123408   1.908   2.456   6.756
 7503SOL    HW223409   1.857   2.603   6.806
 7504SOL     OW23410   4.033   5.825   3.850
 7504SOL    HW123411   4.064   5.871   3.767
 7504SOL    HW223412   3.972   5.750   3.826
 7505SOL     OW23413   1.920   1.984   4.222
 7505SOL    HW123414   1.968   1.944   4.144
 7505SOL    HW223415   1.986   2.027   4.284
 7506SOL     OW23416   3.864   1.839   3.612
 7506SOL    HW123417   3.941   1.902   3.619
 7506SOL    HW223418   3.779   1.888   3.630
 7507SOL     OW23419   1.774   6.663   5.925
 7507SOL    HW123420   1.680   6.697   5.922
 7507SOL    HW223421   1.782   6.594   5.996
 7508SOL     OW23422   4.785   5.938   4.454
 7508SOL    HW123423   4.706   5.880   4.471
 7508SOL    HW223424   4.833   5.907   4.372
 7509SOL     OW23425   4.342   3.648   5.882
 7509SOL    HW123426   4.435   3.666   5.849
 7509SOL    HW223427   4.283   3.625   5.805
 7510SOL     OW23428   3.056   3.968   4.412
 7510SOL    HW123429   3.093   3.948   4.502
 7510SOL    HW223430   3.052   4.067   4.398
 7511SOL     OW23431   1.362   0.891   2.390
 7511SOL    HW123432   1.387   0.847   2.476
 7511SOL    HW223433   1.263   0.909   2.389
 7512SOL     OW23434   2.205   2.917   1.746
 7512SOL    HW123435   2.272   2.857   1.789
 7512SOL    HW223436   2.237   3.011   1.749
 7513SOL     OW23437   0.574   3.393   6.120
 7513SOL    HW123438   0.623   3.343   6.048
 7513SOL    HW223439   0.630   3.393   6.203
 7514SOL     OW23440   2.735   5.692   2.897
 7514SOL    HW123441   2.702   5.706   2.991
 7514SOL    HW223442   2.678   5.624   2.851
 7515SOL     OW23443   0.120   5.194   3.011
 7515SOL    HW123444   0.170   5.125   2.959
 7515SOL    HW223445   0.162   5.284   2.996
 7516SOL     OW23446   1.253   1.095   2.799
 7516SOL    HW123447   1.298   1.025   2.855
 7516SOL    HW223448   1.316   1.171   2.784
 7517SOL     OW23449   0.420   5.117   1.387
 7517SOL    HW123450   0.496   5.177   1.413
 7517SOL    HW223451   0.418   5.038   1.448
 7518SOL     OW23452   5.212   5.122   2.981
 7518SOL    HW123453   5.192   5.156   3.072
 7518SOL    HW223454   5.153   5.168   2.914
 7519SOL     OW23455   1.942   6.141   3.561
 7519SOL    HW123456   1.966   6.066   3.499
 7519SOL    HW223457   1.867   6.111   3.620
 7520SOL     OW23458   2.483   6.988   4.066
 7520SOL    HW123459   2.398   0.018   4.064
 7520SOL    HW223460   2.561   0.027   4.053
 7521SOL     OW23461   5.097   3.843   6.001
 7521SOL    HW123462   5.026   3.773   6.009
 7521SOL    HW223463   5.116   3.882   6.091
 7522SOL     OW23464   1.775   0.424   2.129
 7522SOL    HW123465   1.686   0.380   2.137
 7522SOL    HW223466   1.840   0.379   2.191
 7523SOL     OW23467   5.603   0.035   6.782
 7523SOL    HW123468   5.617   6.972   6.732
 7523SOL    HW223469   5.657   0.108   6.740
 7524SOL     OW23470   6.167   1.286   4.303
 7524SOL    HW123471   6.220   1.272   4.219
 7524SOL    HW223472   6.073   1.312   4.279
 7525SOL     OW23473   0.979   5.932   0.905
 7525SOL    HW123474   0.944   5.925   0.999
 7525SOL    HW223475   1.040   5.855   0.886
 7526SOL     OW23476   3.439   2.821   5.199
 7526SOL    HW123477   3.529   2.780   5.215
 7526SOL    HW223478   3.368   2.757   5.227
 7527SOL     OW23479   5.378   5.370   2.391
 7527SOL    HW123480   5.356   5.317   2.309
 7527SOL    HW223481   5.355   5.317   2.472
 7528SOL     OW23482   5.876   3.109   5.933
 7528SOL    HW123483   5.897   3.064   6.020
 7528SOL    HW223484   5.898   3.048   5.857
 7529SOL     OW23485   3.129   0.177   5.227
 7529SOL    HW123486   3.150   0.110   5.298
 7529SOL    HW223487   3.031   0.193   5.224
 7530SOL     OW23488   6.657   3.126   2.985
 7530SOL    HW123489   6.568   3.171   2.994
 7530SOL    HW223490   6.722   3.169   3.048
 7531SOL     OW23491   3.097   1.730   4.369
 7531SOL    HW123492   3.139   1.780   4.293
 7531SOL    HW223493   3.079   1.793   4.445
 7532SOL     OW23494   4.803   4.602   2.354
 7532SOL    HW123495   4.856   4.558   2.282
 7532SOL    HW223496   4.711   4.562   2.358
 7533SOL     OW23497   3.477   0.245   4.713
 7533SOL    HW123498   3.497   0.147   4.710
 7533SOL    HW223499   3.526   0.287   4.789
 7534SOL     OW23500   5.491   6.722   4.434
 7534SOL    HW123501   5.458   6.812   4.407
 7534SOL    HW223502   5.417   6.672   4.478
 7535SOL     OW23503   3.673   4.732   7.020
 7535SOL    HW123504   3.679   4.660   0.067
 7535SOL    HW223505   3.592   4.718   6.964
 7536SOL     OW23506   4.054   6.022   4.363
 7536SOL    HW123507   4.142   6.045   4.406
 7536SOL    HW223508   4.026   5.931   4.392
 7537SOL     OW23509   1.799   4.492   5.443
 7537SOL    HW123510   1.834   4.417   5.499
 7537SOL    HW223511   1.867   4.519   5.375
 7538SOL     OW23512   3.274   2.943   3.295
 7538SOL    HW123513   3.281   2.920   3.392
 7538SOL    HW223514   3.180   2.970   3.274
 7539SOL     OW23515   1.745   2.457   4.141
 7539SOL    HW123516   1.769   2.483   4.235
 7539SOL    HW223517   1.799   2.512   4.077
 7540SOL     OW23518   1.755   1.524   0.174
 7540SOL    HW123519   1.830   1.565   0.123
 7540SOL    HW223520   1.680   1.501   0.111
 7541SOL     OW23521   0.080   2.697   5.310
 7541SOL    HW123522   0.019   2.625   5.277
 7541SOL    HW223523   0.156   2.656   5.361
 7542SOL     OW23524   1.981   0.422   6.523
 7542SOL    HW123525   2.042   0.453   6.450
 7542SOL    HW223526   2.036   0.393   6.602
 7543SOL     OW23527   4.062   3.052   6.833
 7543SOL    HW123528   4.030   3.037   6.739
 7543SOL    HW223529   4.148   3.003   6.846
 7544SOL     OW23530   1.527   2.097   2.772
 7544SOL    HW123531   1.619   2.081   2.736
 7544SOL    HW223532   1.475   2.153   2.707
 7545SOL     OW23533   5.255   6.598   3.765
 7545SOL    HW123534   5.260   6.693   3.736
 7545SOL    HW223535   5.175   6.554   3.723
 7546SOL     OW23536   5.112   6.896   6.360
 7546SOL    HW123537   5.167   6.908   6.278
 7546SOL    HW223538   5.090   6.985   6.399
 7547SOL     OW23539   3.227   0.051   0.482
 7547SOL    HW123540   3.230   6.990   0.428
 7547SOL    HW223541   3.138   0.095   0.471
 7548SOL     OW23542   1.236   2.872   1.085
 7548SOL    HW123543   1.178   2.881   1.004
 7548SOL    HW223544   1.323   2.920   1.069
 7549SOL     OW23545   6.141   2.133   2.035
 7549SOL    HW123546   6.126   2.113   1.938
 7549SOL    HW223547   6.174   2.051   2.081
 7550SOL     OW23548   1.028   5.124   1.288
 7550SOL    HW123549   1.012   5.187   1.213
 7550SOL    HW223550   1.122   5.133   1.320
 7551SOL     OW23551   4.468   3.820   6.137
 7551SOL    HW123552   4.515   3.888   6.195
 7551SOL    HW223553   4.374   3.850   6.121
 7552SOL     OW23554   3.098   5.573   3.944
 7552SOL    HW123555   3.094   5.517   4.027
 7552SOL    HW223556   3.005   5.588   3.910
 7553SOL     OW23557   4.913   4.161   6.264
 7553SOL    HW123558   4.972   4.082   6.247
 7553SOL    HW223559   4.908   4.179   6.362
 7554SOL     OW23560   6.552   1.101   0.825
 7554SOL    HW123561   6.543   1.118   0.727
 7554SOL    HW223562   6.598   1.013   0.840
 7555SOL     OW23563   1.426   5.523   5.870
 7555SOL    HW123564   1.487   5.546   5.946
 7555SOL    HW223565   1.369   5.445   5.895
 7556SOL     OW23566   0.008   3.361   3.862
 7556SOL    HW123567   6.969   3.393   3.934
 7556SOL    HW223568   0.089   3.420   3.858
 7557SOL     OW23569   4.460   3.375   0.042
 7557SOL    HW123570   4.454   3.294   0.100
 7557SOL    HW223571   4.374   3.386   7.014
 7558SOL     OW23572   1.390   3.198   3.360
 7558SOL    HW123573   1.312   3.245   3.402
 7558SOL    HW223574   1.392   3.102   3.390
 7559SOL     OW23575   1.086   4.885   0.608
 7559SOL    HW123576   1.127   4.875   0.698
 7559SOL    HW223577   1.083   4.796   0.563
 7560SOL     OW23578   4.828   6.796   5.868
 7560SOL    HW123579   4.729   6.781   5.871
 7560SOL    HW223580   4.869   6.739   5.798
 7561SOL     OW23581   0.473   3.677   0.450
 7561SOL    HW123582   0.385   3.645   0.485
 7561SOL    HW223583   0.546   3.644   0.510
 7562SOL     OW23584   4.810   6.175   5.656
 7562SOL    HW123585   4.883   6.152   5.720
 7562SOL    HW223586   4.733   6.113   5.669
 7563SOL     OW23587   2.533   1.030   2.407
 7563SOL    HW123588   2.524   0.976   2.323
 7563SOL    HW223589   2.443   1.042   2.448
 7564SOL     OW23590   5.128   6.809   4.360
 7564SOL    HW123591   5.100   6.768   4.447
 7564SOL    HW223592   5.162   6.737   4.299
 7565SOL     OW23593   4.863   4.469   0.476
 7565SOL    HW123594   4.782   4.411   0.486
 7565SOL    HW223595   4.855   4.547   0.538
 7566SOL     OW23596   1.826   5.576   5.215
 7566SOL    HW123597   1.903   5.633   5.246
 7566SOL    HW223598   1.741   5.612   5.253
 7567SOL     OW23599   2.526   3.123   6.945
 7567SOL    HW123600   2.513   3.089   0.016
 7567SOL    HW223601   2.609   3.081   6.906
 7568SOL     OW23602   4.588   4.349   3.445
 7568SOL    HW123603   4.531   4.423   3.481
 7568SOL    HW223604   4.586   4.272   3.508
 7569SOL     OW23605   3.829   0.839   0.884
 7569SOL    HW123606   3.828   0.827   0.785
 7569SOL    HW223607   3.923   0.838   0.917
 7570SOL     OW23608   5.962   4.697   4.698
 7570SOL    HW123609   5.888   4.643   4.738
 7570SOL    HW223610   6.037   4.637   4.673
 7571SOL     OW23611   5.076   3.950   1.862
 7571SOL    HW123612   5.054   3.921   1.955
 7571SOL    HW223613   5.152   3.894   1.827
 7572SOL     OW23614   1.605   1.674   3.975
 7572SOL    HW123615   1.562   1.626   4.051
 7572SOL    HW223616   1.614   1.771   3.998
 7573SOL     OW23617   3.141   5.334   5.507
 7573SOL    HW123618   3.046   5.336   5.475
 7573SOL    HW223619   3.144   5.355   5.605
 7574SOL     OW23620   5.399   5.825   2.395
 7574SOL    HW123621   5.323   5.890   2.396
 7574SOL    HW223622   5.368   5.739   2.356
 7575SOL     OW23623   4.938   2.488   4.566
 7575SOL    HW123624   5.021   2.472   4.513
 7575SOL    HW223625   4.889   2.401   4.578
 7576SOL     OW23626   6.435   3.557   1.231
 7576SOL    HW123627   6.496   3.510   1.295
 7576SOL    HW223628   6.370   3.614   1.282
 7577SOL     OW23629   4.266   0.474   5.119
 7577SOL    HW123630   4.305   0.494   5.209
 7577SOL    HW223631   4.193   0.540   5.099
 7578SOL     OW23632   2.596   5.125   4.381
 7578SOL    HW123633   2.662   5.158   4.450
 7578SOL    HW223634   2.509   5.172   4.394
 7579SOL     OW23635   4.258   2.315   3.695
 7579SOL    HW123636   4.335   2.375   3.719
 7579SOL    HW223637   4.272   2.279   3.602
 7580SOL     OW23638   2.085   3.314   2.742
 7580SOL    HW123639   2.101   3.297   2.839
 7580SOL    HW223640   2.104   3.231   2.690
 7581SOL     OW23641   6.008   0.882   1.115
 7581SOL    HW123642   5.952   0.894   1.198
 7581SOL    HW223643   5.983   0.951   1.048
 7582SOL     OW23644   3.172   1.784   1.108
 7582SOL    HW123645   3.099   1.721   1.135
 7582SOL    HW223646   3.223   1.812   1.189
 7583SOL     OW23647   6.904   3.493   2.884
 7583SOL    HW123648   6.808   3.469   2.869
 7583SOL    HW223649   6.935   3.454   2.970
 7584SOL     OW23650   2.070   1.450   1.117
 7584SOL    HW123651   2.000   1.511   1.081
 7584SOL    HW223652   2.028   1.387   1.182
 7585SOL     OW23653   1.778   5.135   6.273
 7585SOL    HW123654   1.840   5.170   6.343
 7585SOL    HW223655   1.712   5.206   6.248
 7586SOL     OW23656   2.335   1.283   1.795
 7586SOL    HW123657   2.243   1.246   1.814
 7586SOL    HW223658   2.379   1.226   1.726
 7587SOL     OW23659   2.109   1.007   5.985
 7587SOL    HW123660   2.089   1.104   5.971
 7587SOL    HW223661   2.152   0.970   5.903
 7588SOL     OW23662   0.727   4.061   1.545
 7588SOL    HW123663   0.771   4.045   1.457
 7588SOL    HW223664   0.795   4.054   1.618
 7589SOL     OW23665   5.590   6.408   0.349
 7589SOL    HW123666   5.658   6.397   0.421
 7589SOL    HW223667   5.501   6.429   0.389
 7590SOL     OW23668   2.007   0.736   0.131
 7590SOL    HW123669   2.028   0.678   0.052
 7590SOL    HW223670   2.087   0.792   0.153
 7591SOL     OW23671   6.952   5.245   0.149
 7591SOL    HW123672   6.979   5.258   0.245
 7591SOL    HW223673   6.942   5.147   0.131
 7592SOL     OW23674   5.532   5.894   6.740
 7592SOL    HW123675   5.522   5.992   6.722
 7592SOL    HW223676   5.523   5.843   6.654
 7593SOL     OW23677   6.088   3.538   0.057
 7593SOL    HW123678   5.999   3.501   0.085
 7593SOL    HW223679   6.082   3.637   0.050
 7594SOL     OW23680   1.031   5.898   3.306
 7594SOL    HW123681   1.105   5.832   3.291
 7594SOL    HW223682   0.944   5.849   3.307
 7595SOL     OW23683   6.735   2.084   0.190
 7595SOL    HW123684   6.762   2.162   0.132
 7595SOL    HW223685   6.728   2.114   0.285
 7596SOL     OW23686   4.904   4.697   1.872
 7596SOL    HW123687   4.883   4.778   1.927
 7596SOL    HW223688   4.892   4.615   1.928
 7597SOL     OW23689   2.718   5.870   2.163
 7597SOL    HW123690   2.633   5.850   2.212
 7597SOL    HW223691   2.699   5.873   2.064
 7598SOL     OW23692   6.879   0.225   3.346
 7598SOL    HW123693   6.901   0.315   3.309
 7598SOL    HW223694   6.886   0.157   3.272
 7599SOL     OW23695   6.578   2.369   2.143
 7599SOL    HW123696   6.565   2.354   2.046
 7599SOL    HW223697   6.494   2.348   2.193
 7600SOL     OW23698   2.472   1.896   1.879
 7600SOL    HW123699   2.394   1.839   1.853
 7600SOL    HW223700   2.456   1.990   1.850
 7601SOL     OW23701   1.777   6.922   4.560
 7601SOL    HW123702   1.678   6.907   4.567
 7601SOL    HW223703   1.820   6.841   4.520
 7602SOL     OW23704   2.130   3.139   5.043
 7602SOL    HW123705   2.221   3.098   5.039
 7602SOL    HW223706   2.120   3.191   5.127
 7603SOL     OW23707   0.768   0.865   2.395
 7603SOL    HW123708   0.673   0.858   2.427
 7603SOL    HW223709   0.818   0.782   2.422
 7604SOL     OW23710   4.749   6.614   6.833
 7604SOL    HW123711   4.726   6.709   6.849
 7604SOL    HW223712   4.740   6.593   6.735
 7605SOL     OW23713   5.816   4.273   5.465
 7605SOL    HW123714   5.903   4.302   5.505
 7605SOL    HW223715   5.752   4.350   5.465
 7606SOL     OW23716   6.331   2.117   2.893
 7606SOL    HW123717   6.391   2.044   2.861
 7606SOL    HW223718   6.314   2.182   2.819
 7607SOL     OW23719   5.074   6.883   6.709
 7607SOL    HW123720   5.075   6.808   6.775
 7607SOL    HW223721   5.162   6.931   6.711
 7608SOL     OW23722   3.693   3.260   3.330
 7608SOL    HW123723   3.758   3.194   3.292
 7608SOL    HW223724   3.601   3.223   3.324
 7609SOL     OW23725   1.545   2.958   4.644
 7609SOL    HW123726   1.616   2.903   4.601
 7609SOL    HW223727   1.471   2.976   4.579
 7610SOL     OW23728   5.425   0.691   1.419
 7610SOL    HW123729   5.416   0.725   1.325
 7610SOL    HW223730   5.395   0.762   1.483
 7611SOL     OW23731   1.794   1.599   1.231
 7611SOL    HW123732   1.735   1.679   1.237
 7611SOL    HW223733   1.823   1.572   1.322
 7612SOL     OW23734   4.432   1.431   2.905
 7612SOL    HW123735   4.456   1.390   2.817
 7612SOL    HW223736   4.344   1.479   2.897
 7613SOL     OW23737   5.459   1.363   2.318
 7613SOL    HW123738   5.492   1.423   2.245
 7613SOL    HW223739   5.506   1.384   2.403
 7614SOL     OW23740   4.029   1.650   0.043
 7614SOL    HW123741   4.034   1.623   0.139
 7614SOL    HW223742   4.033   1.750   0.036
 7615SOL     OW23743   3.994   4.908   6.041
 7615SOL    HW123744   4.065   4.972   6.010
 7615SOL    HW223745   3.969   4.930   6.135
 7616SOL     OW23746   6.973   5.032   3.795
 7616SOL    HW123747   6.956   4.942   3.835
 7616SOL    HW223748   6.886   5.079   3.782
 7617SOL     OW23749   3.352   6.068   2.172
 7617SOL    HW123750   3.256   6.049   2.190
 7617SOL    HW223751   3.398   5.984   2.145
 7618SOL     OW23752   2.004   2.825   0.514
 7618SOL    HW123753   1.952   2.829   0.599
 7618SOL    HW223754   1.963   2.757   0.453
 7619SOL     OW23755   5.624   3.177   5.860
 7619SOL    HW123756   5.723   3.168   5.853
 7619SOL    HW223757   5.582   3.087   5.873
 7620SOL     OW23758   3.267   6.406   1.718
 7620SOL    HW123759   3.237   6.421   1.812
 7620SOL    HW223760   3.360   6.440   1.706
 7621SOL     OW23761   2.819   1.637   1.097
 7621SOL    HW123762   2.828   1.723   1.147
 7621SOL    HW223763   2.887   1.572   1.130
 7622SOL     OW23764   4.711   1.806   0.615
 7622SOL    HW123765   4.710   1.859   0.700
 7622SOL    HW223766   4.666   1.718   0.630
 7623SOL     OW23767   5.194   0.392   5.899
 7623SOL    HW123768   5.261   0.458   5.865
 7623SOL    HW223769   5.104   0.412   5.859
 7624SOL     OW23770   6.868   0.781   4.075
 7624SOL    HW123771   6.924   0.703   4.047
 7624SOL    HW223772   6.878   0.855   4.007
 7625SOL     OW23773   4.330   6.699   1.062
 7625SOL    HW123774   4.334   6.599   1.050
 7625SOL    HW223775   4.266   6.738   0.997
 7626SOL     OW23776   2.004   4.736   4.878
 7626SOL    HW123777   1.963   4.648   4.902
 7626SOL    HW223778   2.102   4.723   4.858
 7627SOL     OW23779   0.218   1.898   0.099
 7627SOL    HW123780   0.256   1.896   0.006
 7627SOL    HW223781   0.288   1.867   0.164
 7628SOL     OW23782   4.199   2.218   0.804
 7628SOL    HW123783   4.112   2.255   0.771
 7628SOL    HW223784   4.265   2.292   0.812
 7629SOL     OW23785   6.528   5.080   3.522
 7629SOL    HW123786   6.480   5.168   3.524
 7629SOL    HW223787   6.583   5.070   3.605
 7630SOL     OW23788   6.772   1.102   2.297
 7630SOL    HW123789   6.823   1.102   2.211
 7630SOL    HW223790   6.699   1.034   2.292
 7631SOL     OW23791   1.146   2.125   3.277
 7631SOL    HW123792   1.236   2.170   3.277
 7631SOL    HW223793   1.117   2.110   3.372
 7632SOL     OW23794   4.198   1.913   6.429
 7632SOL    HW123795   4.197   1.834   6.368
 7632SOL    HW223796   4.118   1.971   6.409
 7633SOL     OW23797   5.702   4.488   6.721
 7633SOL    HW123798   5.774   4.535   6.773
 7633SOL    HW223799   5.618   4.486   6.776
 7634SOL     OW23800   1.023   1.599   1.843
 7634SOL    HW123801   0.984   1.688   1.866
 7634SOL    HW223802   1.087   1.571   1.914
 7635SOL     OW23803   3.075   5.200   6.147
 7635SOL    HW123804   3.153   5.186   6.207
 7635SOL    HW223805   3.047   5.296   6.151
 7636SOL     OW23806   1.759   0.444   3.769
 7636SOL    HW123807   1.844   0.407   3.730
 7636SOL    HW223808   1.745   0.405   3.860
 7637SOL     OW23809   2.156   5.702   4.271
 7637SOL    HW123810   2.216   5.749   4.206
 7637SOL    HW223811   2.134   5.611   4.235
 7638SOL     OW23812   4.484   4.533   2.152
 7638SOL    HW123813   4.483   4.443   2.108
 7638SOL    HW223814   4.497   4.522   2.250
 7639SOL     OW23815   0.533   2.073   4.495
 7639SOL    HW123816   0.465   2.058   4.423
 7639SOL    HW223817   0.548   2.171   4.507
 7640SOL     OW23818   2.280   3.203   6.419
 7640SOL    HW123819   2.332   3.148   6.354
 7640SOL    HW223820   2.309   3.182   6.512
 7641SOL     OW23821   6.293   2.677   3.668
 7641SOL    HW123822   6.392   2.668   3.666
 7641SOL    HW223823   6.268   2.763   3.712
 7642SOL     OW23824   2.632   1.663   2.972
 7642SOL    HW123825   2.621   1.618   3.061
 7642SOL    HW223826   2.592   1.755   2.977
 7643SOL     OW23827   4.888   3.239   3.392
 7643SOL    HW123828   4.932   3.284   3.313
 7643SOL    HW223829   4.841   3.157   3.361
 7644SOL     OW23830   6.512   3.565   3.393
 7644SOL    HW123831   6.566   3.554   3.477
 7644SOL    HW223832   6.485   3.475   3.359
 7645SOL     OW23833   4.642   3.342   6.820
 7645SOL    HW123834   4.656   3.439   6.799
 7645SOL    HW223835   4.580   3.334   6.898
 7646SOL     OW23836   1.059   1.875   1.601
 7646SOL    HW123837   1.006   1.864   1.685
 7646SOL    HW223838   1.147   1.827   1.611
 7647SOL     OW23839   2.044   4.784   1.312
 7647SOL    HW123840   2.113   4.749   1.248
 7647SOL    HW223841   1.954   4.781   1.268
 7648SOL     OW23842   4.306   0.558   3.249
 7648SOL    HW123843   4.297   0.597   3.158
 7648SOL    HW223844   4.221   0.513   3.275
 7649SOL     OW23845   2.685   1.421   1.828
 7649SOL    HW123846   2.643   1.419   1.918
 7649SOL    HW223847   2.768   1.478   1.831
 7650SOL     OW23848   5.355   4.912   2.392
 7650SOL    HW123849   5.354   4.945   2.298
 7650SOL    HW223850   5.339   4.813   2.393
 7651SOL     OW23851   3.916   1.400   6.337
 7651SOL    HW123852   3.845   1.463   6.369
 7651SOL    HW223853   3.890   1.363   6.248
 7652SOL     OW23854   0.789   3.128   2.893
 7652SOL    HW123855   0.816   3.147   2.798
 7652SOL    HW223856   0.730   3.202   2.926
 7653SOL     OW23857   3.595   2.151   1.421
 7653SOL    HW123858   3.659   2.106   1.483
 7653SOL    HW223859   3.563   2.237   1.461
 7654SOL     OW23860   4.873   3.778   4.097
 7654SOL    HW123861   4.821   3.743   4.175
 7654SOL    HW223862   4.935   3.706   4.063
 7655SOL     OW23863   4.626   6.278   5.388
 7655SOL    HW123864   4.546   6.325   5.350
 7655SOL    HW223865   4.600   6.185   5.415
 7656SOL     OW23866   1.134   6.188   4.816
 7656SOL    HW123867   1.226   6.147   4.816
 7656SOL    HW223868   1.085   6.159   4.898
 7657SOL     OW23869   4.575   1.452   4.428
 7657SOL    HW123870   4.563   1.359   4.464
 7657SOL    HW223871   4.639   1.450   4.351
 7658SOL     OW23872   3.839   0.550   6.246
 7658SOL    HW123873   3.923   0.499   6.261
 7658SOL    HW223874   3.804   0.531   6.154
 7659SOL     OW23875   5.342   0.102   0.179
 7659SOL    HW123876   5.438   0.076   0.175
 7659SOL    HW223877   5.287   0.033   0.130
 7660SOL     OW23878   6.477   4.486   4.255
 7660SOL    HW123879   6.397   4.543   4.275
 7660SOL    HW223880   6.559   4.542   4.255
 7661SOL     OW23881   5.566   3.506   3.472
 7661SOL    HW123882   5.523   3.437   3.414
 7661SOL    HW223883   5.499   3.540   3.539
 7662SOL     OW23884   6.961   5.725   1.882
 7662SOL    HW123885   0.030   5.753   1.911
 7662SOL    HW223886   6.940   5.635   1.920
 7663SOL     OW23887   6.883   5.405   6.702
 7663SOL    HW123888   6.878   5.453   6.789
 7663SOL    HW223889   6.973   5.419   6.661
 7664SOL     OW23890   2.675   5.261   4.837
 7664SOL    HW123891   2.685   5.356   4.808
 7664SOL    HW223892   2.670   5.256   4.936
 7665SOL     OW23893   2.188   6.133   4.586
 7665SOL    HW123894   2.214   6.037   4.591
 7665SOL    HW223895   2.262   6.186   4.545
 7666SOL     OW23896   1.408   1.675   1.043
 7666SOL    HW123897   1.366   1.592   1.082
 7666SOL    HW223898   1.420   1.743   1.115
 7667SOL     OW23899   4.957   5.454   6.291
 7667SOL    HW123900   4.893   5.438   6.216
 7667SOL    HW223901   4.973   5.552   6.301
 7668SOL     OW23902   2.612   4.023   1.676
 7668SOL    HW123903   2.563   4.047   1.592
 7668SOL    HW223904   2.685   4.090   1.692
 7669SOL     OW23905   4.555   6.385   5.006
 7669SOL    HW123906   4.651   6.357   5.006
 7669SOL    HW223907   4.531   6.421   4.915
 7670SOL     OW23908   1.857   4.932   0.885
 7670SOL    HW123909   1.952   4.918   0.912
 7670SOL    HW223910   1.849   5.017   0.833
 7671SOL     OW23911   5.404   2.605   4.653
 7671SOL    HW123912   5.328   2.670   4.659
 7671SOL    HW223913   5.394   2.551   4.569
 7672SOL     OW23914   5.434   0.120   2.280
 7672SOL    HW123915   5.338   0.123   2.253
 7672SOL    HW223916   5.482   0.055   2.221
 7673SOL     OW23917   0.383   4.419   0.483
 7673SOL    HW123918   0.312   4.490   0.482
 7673SOL    HW223919   0.355   4.345   0.544
 7674SOL     OW23920   6.881   1.192   4.590
 7674SOL    HW123921   6.878   1.107   4.537
 7674SOL    HW223922   6.789   1.218   4.616
 7675SOL     OW23923   4.751   0.223   3.236
 7675SOL    HW123924   4.723   0.231   3.331
 7675SOL    HW223925   4.730   0.131   3.202
 7676SOL     OW23926   1.554   6.730   0.953
 7676SOL    HW123927   1.625   6.737   0.884
 7676SOL    HW223928   1.593   6.746   1.044
 7677SOL     OW23929   2.017   2.659   2.561
 7677SOL    HW123930   1.959   2.662   2.479
 7677SOL    HW223931   2.107   2.697   2.539
 7678SOL     OW23932   5.788   6.869   6.548
 7678SOL    HW123933   5.717   6.824   6.602
 7678SOL    HW223934   5.747   6.939   6.490
 7679SOL     OW23935   0.560   5.503   5.390
 7679SOL    HW123936   0.492   5.485   5.319
 7679SOL    HW223937   0.649   5.470   5.360
 7680SOL     OW23938   4.037   2.209   6.622
 7680SOL    HW123939   4.028   2.151   6.541
 7680SOL    HW223940   4.134   2.226   6.640
 7681SOL     OW23941   2.244   1.850   6.422
 7681SOL    HW123942   2.233   1.946   6.447
 7681SOL    HW223943   2.257   1.795   6.504
 7682SOL     OW23944   3.204   0.106   0.998
 7682SOL    HW123945   3.292   0.108   0.949
 7682SOL    HW223946   3.209   0.039   1.072
 7683SOL     OW23947   6.011   1.394   3.198
 7683SOL    HW123948   5.974   1.481   3.231
 7683SOL    HW223949   5.946   1.321   3.215
 7684SOL     OW23950   4.098   1.579   5.702
 7684SOL    HW123951   4.110   1.571   5.603
 7684SOL    HW223952   4.179   1.620   5.742
 7685SOL     OW23953   3.735   3.855   0.753
 7685SOL    HW123954   3.835   3.860   0.746
 7685SOL    HW223955   3.708   3.759   0.760
 7686SOL     OW23956   3.196   0.468   4.059
 7686SOL    HW123957   3.158   0.548   4.013
 7686SOL    HW223958   3.215   0.397   3.991
 7687SOL     OW23959   4.740   5.209   5.499
 7687SOL    HW123960   4.672   5.275   5.531
 7687SOL    HW223961   4.769   5.152   5.575
 7688SOL     OW23962   7.009   0.192   4.143
 7688SOL    HW123963   6.965   0.105   4.119
 7688SOL    HW223964   0.060   0.211   4.078
 7689SOL     OW23965   3.992   0.088   4.397
 7689SOL    HW123966   3.959   0.074   4.491
 7689SOL    HW223967   3.939   0.030   4.335
 7690SOL     OW23968   0.175   6.022   3.359
 7690SOL    HW123969   0.271   5.993   3.364
 7690SOL    HW223970   0.116   5.951   3.398
 7691SOL     OW23971   5.415   4.373   5.027
 7691SOL    HW123972   5.423   4.300   5.095
 7691SOL    HW223973   5.421   4.334   4.936
 7692SOL     OW23974   1.873   6.363   1.149
 7692SOL    HW123975   1.807   6.364   1.074
 7692SOL    HW223976   1.887   6.269   1.180
 7693SOL     OW23977   5.744   0.723   6.880
 7693SOL    HW123978   5.811   0.794   6.903
 7693SOL    HW223979   5.761   0.642   6.935
 7694SOL     OW23980   6.296   4.743   4.498
 7694SOL    HW123981   6.256   4.834   4.514
 7694SOL    HW223982   6.299   4.725   4.400
 7695SOL     OW23983   3.743   0.355   6.705
 7695SOL    HW123984   3.832   0.386   6.673
 7695SOL    HW223985   3.693   0.432   6.745
 7696SOL     OW23986   0.336   3.489   5.684
 7696SOL    HW123987   0.270   3.439   5.627
 7696SOL    HW223988   0.307   3.484   5.780
 7697SOL     OW23989   4.193   1.749   1.699
 7697SOL    HW123990   4.229   1.671   1.649
 7697SOL    HW223991   4.107   1.724   1.743
 7698SOL     OW23992   0.001   3.473   5.720
 7698SOL    HW123993   6.930   3.467   5.685
 7698SOL    HW223994   0.007   3.544   5.790
 7699SOL     OW23995   2.188   4.387   7.012
 7699SOL    HW123996   2.284   4.395   6.984
 7699SOL    HW223997   2.161   4.291   7.014
 7700SOL     OW23998   5.177   0.048   5.423
 7700SOL    HW123999   5.139   0.012   5.508
 7700SOL    HW224000   5.144   0.141   5.409
 7701SOL     OW24001   6.413   2.316   5.427
 7701SOL    HW124002   6.478   2.379   5.469
 7701SOL    HW224003   6.426   2.224   5.463
 7702SOL     OW24004   2.252   6.094   5.761
 7702SOL    HW124005   2.222   6.164   5.826
 7702SOL    HW224006   2.281   6.013   5.811
 7703SOL     OW24007   0.146   2.348   6.453
 7703SOL    HW124008   0.058   2.300   6.443
 7703SOL    HW224009   0.219   2.281   6.464
 7704SOL     OW24010   4.340   4.963   0.538
 7704SOL    HW124011   4.340   5.002   0.446
 7704SOL    HW224012   4.264   5.002   0.591
 7705SOL     OW24013   3.637   5.140   5.307
 7705SOL    HW124014   3.662   5.078   5.233
 7705SOL    HW224015   3.586   5.090   5.377
 7706SOL     OW24016   6.661   0.777   5.213
 7706SOL    HW124017   6.720   0.706   5.252
 7706SOL    HW224018   6.642   0.846   5.283
 7707SOL     OW24019   0.148   4.928   6.326
 7707SOL    HW124020   0.060   4.898   6.288
 7707SOL    HW224021   0.137   5.017   6.369
 7708SOL     OW24022   4.792   0.133   4.995
 7708SOL    HW124023   4.728   0.197   4.954
 7708SOL    HW224024   4.763   0.039   4.977
 7709SOL     OW24025   3.422   2.022   1.937
 7709SOL    HW124026   3.366   2.070   1.870
 7709SOL    HW224027   3.508   2.071   1.951
 7710SOL     OW24028   2.815   2.278   6.706
 7710SOL    HW124029   2.859   2.189   6.715
 7710SOL    HW224030   2.807   2.321   6.795
 7711SOL     OW24031   5.074   6.502   6.132
 7711SOL    HW124032   5.118   6.417   6.157
 7711SOL    HW224033   5.140   6.562   6.086
 7712SOL     OW24034   5.001   5.265   1.067
 7712SOL    HW124035   4.938   5.223   1.003
 7712SOL    HW224036   4.961   5.264   1.159
 7713SOL     OW24037   1.055   4.662   6.992
 7713SOL    HW124038   1.012   4.575   7.017
 7713SOL    HW224039   1.138   4.675   0.024
 7714SOL     OW24040   5.589   4.329   3.837
 7714SOL    HW124041   5.649   4.252   3.858
 7714SOL    HW224042   5.626   4.412   3.880
 7715SOL     OW24043   4.403   1.795   1.275
 7715SOL    HW124044   4.499   1.800   1.247
 7715SOL    HW224045   4.368   1.887   1.293
 7716SOL     OW24046   4.975   2.756   3.070
 7716SOL    HW124047   5.031   2.735   3.151
 7716SOL    HW224048   4.968   2.855   3.060
 7717SOL     OW24049   3.605   0.628   6.387
 7717SOL    HW124050   3.651   0.572   6.318
 7717SOL    HW224051   3.518   0.585   6.412
 7718SOL     OW24052   3.072   6.050   3.562
 7718SOL    HW124053   3.042   6.005   3.478
 7718SOL    HW224054   3.117   5.984   3.621
 7719SOL     OW24055   6.426   2.112   5.638
 7719SOL    HW124056   6.413   2.117   5.737
 7719SOL    HW224057   6.495   2.043   5.616
 7720SOL     OW24058   5.687   5.621   1.750
 7720SOL    HW124059   5.615   5.631   1.819
 7720SOL    HW224060   5.660   5.550   1.684
 7721SOL     OW24061   1.691   4.696   2.526
 7721SOL    HW124062   1.681   4.611   2.577
 7721SOL    HW224063   1.635   4.767   2.568
 7722SOL     OW24064   0.817   5.691   4.401
 7722SOL    HW124065   0.817   5.594   4.376
 7722SOL    HW224066   0.723   5.723   4.409
 7723SOL     OW24067   6.566   3.375   0.478
 7723SOL    HW124068   6.533   3.469   0.483
 7723SOL    HW224069   6.628   3.358   0.555
 7724SOL     OW24070   1.629   5.288   0.811
 7724SOL    HW124071   1.639   5.270   0.713
 7724SOL    HW224072   1.549   5.238   0.846
 7725SOL     OW24073   5.102   3.554   4.481
 7725SOL    HW124074   5.072   3.645   4.509
 7725SOL    HW224075   5.136   3.558   4.387
 7726SOL     OW24076   5.870   4.057   3.431
 7726SOL    HW124077   5.881   3.974   3.485
 7726SOL    HW224078   5.959   4.101   3.418
 7727SOL     OW24079   6.677   2.883   2.164
 7727SOL    HW124080   6.711   2.789   2.178
 7727SOL    HW224081   6.636   2.889   2.073
 7728SOL     OW24082   2.510   2.229   3.209
 7728SOL    HW124083   2.505   2.258   3.113
 7728SOL    HW224084   2.423   2.248   3.254
 7729SOL     OW24085   5.756   2.324   0.926
 7729SOL    HW124086   5.798   2.400   0.976
 7729SOL    HW224087   5.742   2.247   0.987
 7730SOL     OW24088   4.983   0.311   1.658
 7730SOL    HW124089   4.931   0.261   1.727
 7730SOL    HW224090   5.044   0.376   1.703
 7731SOL     OW24091   6.680   1.128   5.447
 7731SOL    HW124092   6.695   1.030   5.463
 7731SOL    HW224093   6.733   1.181   5.512
 7732SOL     OW24094   4.533   4.574   0.329
 7732SOL    HW124095   4.618   4.621   0.353
 7732SOL    HW224096   4.461   4.600   0.393
 7733SOL     OW24097   3.372   6.744   1.123
 7733SOL    HW124098   3.385   6.662   1.180
 7733SOL    HW224099   3.304   6.724   1.052
 7734SOL     OW24100   1.370   1.777   2.983
 7734SOL    HW124101   1.354   1.854   2.921
 7734SOL    HW224102   1.309   1.784   3.062
 7735SOL     OW24103   5.087   4.012   0.718
 7735SOL    HW124104   5.141   4.042   0.797
 7735SOL    HW224105   5.062   4.091   0.663
 7736SOL     OW24106   5.837   4.427   5.954
 7736SOL    HW124107   5.787   4.512   5.967
 7736SOL    HW224108   5.777   4.358   5.914
 7737SOL     OW24109   5.454   1.832   0.440
 7737SOL    HW124110   5.501   1.776   0.371
 7737SOL    HW224111   5.368   1.788   0.466
 7738SOL     OW24112   2.853   4.681   6.689
 7738SOL    HW124113   2.773   4.708   6.635
 7738SOL    HW224114   2.852   4.582   6.702
 7739SOL     OW24115   6.262   3.516   1.583
 7739SOL    HW124116   6.204   3.540   1.661
 7739SOL    HW224117   6.244   3.421   1.557
 7740SOL     OW24118   0.772   6.827   3.249
 7740SOL    HW124119   0.718   6.793   3.326
 7740SOL    HW224120   0.797   6.922   3.266
 7741SOL     OW24121   2.931   5.422   4.690
 7741SOL    HW124122   2.912   5.470   4.776
 7741SOL    HW224123   3.016   5.458   4.650
 7742SOL     OW24124   6.351   0.976   4.208
 7742SOL    HW124125   6.415   1.042   4.170
 7742SOL    HW224126   6.398   0.918   4.274
 7743SOL     OW24127   5.021   2.587   2.856
 7743SOL    HW124128   5.094   2.617   2.794
 7743SOL    HW224129   5.018   2.648   2.935
 7744SOL     OW24130   0.058   6.995   5.073
 7744SOL    HW124131   0.046   0.071   5.058
 7744SOL    HW224132   0.134   6.962   5.016
 7745SOL     OW24133   5.102   3.196   5.202
 7745SOL    HW124134   5.099   3.230   5.296
 7745SOL    HW224135   5.037   3.247   5.145
 7746SOL     OW24136   1.439   0.589   0.570
 7746SOL    HW124137   1.489   0.658   0.518
 7746SOL    HW224138   1.484   0.500   0.559
 7747SOL     OW24139   5.199   5.059   1.017
 7747SOL    HW124140   5.143   5.035   0.938
 7747SOL    HW224141   5.147   5.119   1.078
 7748SOL     OW24142   3.137   3.471   6.402
 7748SOL    HW124143   3.093   3.520   6.326
 7748SOL    HW224144   3.069   3.449   6.472
 7749SOL     OW24145   5.366   3.381   6.487
 7749SOL    HW124146   5.274   3.415   6.471
 7749SOL    HW224147   5.432   3.440   6.442
 7750SOL     OW24148   6.205   5.013   3.035
 7750SOL    HW124149   6.132   4.975   2.978
 7750SOL    HW224150   6.192   4.982   3.130
 7751SOL     OW24151   0.201   2.410   1.904
 7751SOL    HW124152   0.157   2.340   1.960
 7751SOL    HW224153   0.218   2.374   1.813
 7752SOL     OW24154   4.485   1.933   3.048
 7752SOL    HW124155   4.471   1.926   3.147
 7752SOL    HW224156   4.565   1.990   3.030
 7753SOL     OW24157   3.349   1.863   4.876
 7753SOL    HW124158   3.437   1.829   4.908
 7753SOL    HW224159   3.294   1.892   4.954
 7754SOL     OW24160   5.370   6.227   2.534
 7754SOL    HW124161   5.326   6.283   2.604
 7754SOL    HW224162   5.308   6.152   2.508
 7755SOL     OW24163   0.749   4.722   4.422
 7755SOL    HW124164   0.723   4.770   4.338
 7755SOL    HW224165   0.670   4.718   4.484
 7756SOL     OW24166   2.960   5.109   2.653
 7756SOL    HW124167   2.913   5.036   2.604
 7756SOL    HW224168   2.911   5.196   2.641
 7757SOL     OW24169   0.075   4.870   1.982
 7757SOL    HW124170   0.149   4.930   1.950
 7757SOL    HW224171   0.070   4.790   1.921
 7758SOL     OW24172   1.458   2.080   4.854
 7758SOL    HW124173   1.491   2.071   4.760
 7758SOL    HW224174   1.370   2.033   4.863
 7759SOL     OW24175   3.695   1.755   1.439
 7759SOL    HW124176   3.789   1.766   1.407
 7759SOL    HW224177   3.680   1.815   1.518
 7760SOL     OW24178   4.835   3.088   0.342
 7760SOL    HW124179   4.888   3.163   0.381
 7760SOL    HW224180   4.894   3.033   0.282
 7761SOL     OW24181   4.417   5.069   3.774
 7761SOL    HW124182   4.486   5.094   3.706
 7761SOL    HW224183   4.385   5.151   3.821
 7762SOL     OW24184   5.560   1.475   1.692
 7762SOL    HW124185   5.496   1.464   1.617
 7762SOL    HW224186   5.611   1.389   1.705
 7763SOL     OW24187   2.284   0.349   4.484
 7763SOL    HW124188   2.229   0.316   4.408
 7763SOL    HW224189   2.287   0.279   4.556
 7764SOL     OW24190   2.607   4.405   5.594
 7764SOL    HW124191   2.631   4.497   5.624
 7764SOL    HW224192   2.673   4.340   5.630
 7765SOL     OW24193   5.093   3.281   4.111
 7765SOL    HW124194   5.071   3.192   4.150
 7765SOL    HW224195   5.122   3.270   4.016
 7766SOL     OW24196   6.821   3.398   6.535
 7766SOL    HW124197   6.762   3.440   6.603
 7766SOL    HW224198   6.839   3.303   6.560
 7767SOL     OW24199   4.053   0.452   3.747
 7767SOL    HW124200   4.149   0.424   3.747
 7767SOL    HW224201   4.044   0.540   3.700
 7768SOL     OW24202   3.538   5.729   3.682
 7768SOL    HW124203   3.574   5.798   3.744
 7768SOL    HW224204   3.450   5.695   3.716
 7769SOL     OW24205   3.503   2.938   5.892
 7769SOL    HW124206   3.403   2.933   5.895
 7769SOL    HW224207   3.530   3.032   5.869
 7770SOL     OW24208   1.272   3.119   3.926
 7770SOL    HW124209   1.325   3.036   3.909
 7770SOL    HW224210   1.188   3.116   3.872
 7771SOL     OW24211   1.996   3.704   6.279
 7771SOL    HW124212   1.929   3.636   6.250
 7771SOL    HW224213   2.049   3.669   6.356
 7772SOL     OW24214   5.193   6.562   2.124
 7772SOL    HW124215   5.252   6.633   2.085
 7772SOL    HW224216   5.131   6.528   2.054
 7773SOL     OW24217   2.204   6.508   6.874
 7773SOL    HW124218   2.236   6.595   6.837
 7773SOL    HW224219   2.277   6.440   6.869
 7774SOL     OW24220   5.511   1.355   2.589
 7774SOL    HW124221   5.412   1.361   2.572
 7774SOL    HW224222   5.533   1.403   2.674
 7775SOL     OW24223   2.825   1.902   1.185
 7775SOL    HW124224   2.868   1.993   1.190
 7775SOL    HW224225   2.810   1.878   1.089
 7776SOL     OW24226   2.805   1.284   4.603
 7776SOL    HW124227   2.830   1.380   4.595
 7776SOL    HW224228   2.840   1.234   4.523
 7777SOL     OW24229   6.419   6.299   3.357
 7777SOL    HW124230   6.372   6.243   3.289
 7777SOL    HW224231   6.467   6.240   3.422
 7778SOL     OW24232   0.061   4.875   2.597
 7778SOL    HW124233   0.047   4.938   2.521
 7778SOL    HW224234   0.102   4.790   2.563
 7779SOL     OW24235   4.285   6.182   1.791
 7779SOL    HW124236   4.303   6.091   1.754
 7779SOL    HW224237   4.272   6.246   1.716
 7780SOL     OW24238   6.053   6.446   5.282
 7780SOL    HW124239   6.110   6.370   5.315
 7780SOL    HW224240   6.042   6.514   5.354
 7781SOL     OW24241   1.743   3.187   0.960
 7781SOL    HW124242   1.761   3.149   0.870
 7781SOL    HW224243   1.675   3.260   0.953
 7782SOL     OW24244   5.241   3.129   4.370
 7782SOL    HW124245   5.301   3.139   4.449
 7782SOL    HW224246   5.146   3.141   4.398
 7783SOL     OW24247   1.958   6.553   4.466
 7783SOL    HW124248   1.870   6.526   4.506
 7783SOL    HW224249   2.006   6.471   4.434
 7784SOL     OW24250   1.983   1.674   1.744
 7784SOL    HW124251   1.951   1.768   1.733
 7784SOL    HW224252   1.959   1.641   1.835
 7785SOL     OW24253   7.014   6.821   2.934
 7785SOL    HW124254   6.975   6.765   2.861
 7785SOL    HW224255   0.053   6.889   2.896
 7786SOL     OW24256   4.280   1.059   6.062
 7786SOL    HW124257   4.348   0.999   6.103
 7786SOL    HW224258   4.188   1.022   6.078
 7787SOL     OW24259   2.498   2.524   2.031
 7787SOL    HW124260   2.565   2.484   2.093
 7787SOL    HW224261   2.514   2.490   1.938
 7788SOL     OW24262   0.718   3.997   1.894
 7788SOL    HW124263   0.664   4.079   1.910
 7788SOL    HW224264   0.668   3.936   1.832
 7789SOL     OW24265   3.422   1.239   6.277
 7789SOL    HW124266   3.395   1.285   6.361
 7789SOL    HW224267   3.340   1.218   6.223
 7790SOL     OW24268   4.215   5.023   2.612
 7790SOL    HW124269   4.147   5.086   2.650
 7790SOL    HW224270   4.208   5.022   2.513
 7791SOL     OW24271   3.037   6.018   2.709
 7791SOL    HW124272   3.057   5.954   2.635
 7791SOL    HW224273   2.941   6.010   2.736
 7792SOL     OW24274   1.219   1.408   3.136
 7792SOL    HW124275   1.174   1.454   3.059
 7792SOL    HW224276   1.316   1.433   3.138
 7793SOL     OW24277   5.047   1.241   0.588
 7793SOL    HW124278   5.047   1.187   0.504
 7793SOL    HW224279   5.055   1.338   0.565
 7794SOL     OW24280   1.329   6.924   2.998
 7794SOL    HW124281   1.271   6.983   2.942
 7794SOL    HW224282   1.275   6.852   3.039
 7795SOL     OW24283   3.653   4.413   0.870
 7795SOL    HW124284   3.613   4.397   0.780
 7795SOL    HW224285   3.716   4.491   0.866
 7796SOL     OW24286   3.296   2.271   0.482
 7796SOL    HW124287   3.381   2.304   0.440
 7796SOL    HW224288   3.219   2.317   0.439
 7797SOL     OW24289   1.108   5.357   3.083
 7797SOL    HW124290   1.140   5.272   3.125
 7797SOL    HW224291   1.169   5.381   3.007
 7798SOL     OW24292   1.785   3.183   0.417
 7798SOL    HW124293   1.714   3.123   0.381
 7798SOL    HW224294   1.843   3.215   0.342
 7799SOL     OW24295   3.218   5.906   3.732
 7799SOL    HW124296   3.264   5.819   3.715
 7799SOL    HW224297   3.186   5.909   3.827
 7800SOL     OW24298   1.100   0.459   2.129
 7800SOL    HW124299   1.006   0.484   2.104
 7800SOL    HW224300   1.162   0.483   2.054
 7801SOL     OW24301   0.943   1.924   1.332
 7801SOL    HW124302   0.981   1.904   1.422
 7801SOL    HW224303   0.970   2.016   1.303
 7802SOL     OW24304   6.931   3.626   3.806
 7802SOL    HW124305   6.976   3.688   3.742
 7802SOL    HW224306   6.888   3.552   3.756
 7803SOL     OW24307   2.787   2.699   5.766
 7803SOL    HW124308   2.696   2.659   5.766
 7803SOL    HW224309   2.814   2.720   5.860
 7804SOL     OW24310   3.745   1.696   5.320
 7804SOL    HW124311   3.758   1.690   5.419
 7804SOL    HW224312   3.653   1.662   5.297
 7805SOL     OW24313   5.009   2.927   0.178
 7805SOL    HW124314   4.990   2.839   0.221
 7805SOL    HW224315   5.096   2.922   0.128
 7806SOL     OW24316   6.812   1.551   6.022
 7806SOL    HW124317   6.850   1.482   6.083
 7806SOL    HW224318   6.713   1.560   6.039
 7807SOL     OW24319   1.932   5.670   5.753
 7807SOL    HW124320   1.855   5.623   5.797
 7807SOL    HW224321   2.018   5.629   5.783
 7808SOL     OW24322   6.351   3.991   3.578
 7808SOL    HW124323   6.313   3.899   3.563
 7808SOL    HW224324   6.293   4.059   3.534
 7809SOL     OW24325   4.807   6.026   2.169
 7809SOL    HW124326   4.806   6.105   2.108
 7809SOL    HW224327   4.758   5.951   2.127
 7810SOL     OW24328   2.453   6.724   6.312
 7810SOL    HW124329   2.528   6.707   6.377
 7810SOL    HW224330   2.492   6.745   6.222
 7811SOL     OW24331   1.512   5.811   2.470
 7811SOL    HW124332   1.502   5.868   2.388
 7811SOL    HW224333   1.606   5.779   2.478
 7812SOL     OW24334   2.926   0.629   5.907
 7812SOL    HW124335   2.973   0.592   5.827
 7812SOL    HW224336   2.988   0.625   5.986
 7813SOL     OW24337   5.416   0.761   1.156
 7813SOL    HW124338   5.512   0.738   1.170
 7813SOL    HW224339   5.400   0.784   1.060
 7814SOL     OW24340   6.050   2.605   2.249
 7814SOL    HW124341   6.105   2.523   2.233
 7814SOL    HW224342   5.991   2.591   2.328
 7815SOL     OW24343   5.161   5.732   3.921
 7815SOL    HW124344   5.138   5.672   3.997
 7815SOL    HW224345   5.225   5.803   3.952
 7816SOL     OW24346   0.903   1.082   5.303
 7816SOL    HW124347   0.968   1.035   5.243
 7816SOL    HW224348   0.851   1.014   5.355
 7817SOL     OW24349   3.903   2.850   0.181
 7817SOL    HW124350   3.811   2.862   0.143
 7817SOL    HW224351   3.951   2.778   0.130
 7818SOL     OW24352   5.744   1.055   2.971
 7818SOL    HW124353   5.725   0.957   2.976
 7818SOL    HW224354   5.839   1.070   2.943
 7819SOL     OW24355   1.490   3.428   5.059
 7819SOL    HW124356   1.519   3.494   5.128
 7819SOL    HW224357   1.395   3.401   5.077
 7820SOL     OW24358   1.329   1.185   5.631
 7820SOL    HW124359   1.285   1.224   5.712
 7820SOL    HW224360   1.302   1.237   5.550
 7821SOL     OW24361   3.641   6.499   6.680
 7821SOL    HW124362   3.559   6.450   6.650
 7821SOL    HW224363   3.620   6.596   6.689
 7822SOL     OW24364   0.411   1.621   5.362
 7822SOL    HW124365   0.353   1.543   5.338
 7822SOL    HW224366   0.485   1.629   5.294
 7823SOL     OW24367   2.461   3.229   5.650
 7823SOL    HW124368   2.458   3.328   5.640
 7823SOL    HW224369   2.370   3.191   5.633
 7824SOL     OW24370   5.365   3.614   2.982
 7824SOL    HW124371   5.355   3.644   2.887
 7824SOL    HW224372   5.345   3.690   3.044
 7825SOL     OW24373   3.354   3.468   2.632
 7825SOL    HW124374   3.284   3.413   2.586
 7825SOL    HW224375   3.445   3.437   2.605
 7826SOL     OW24376   6.658   0.390   0.696
 7826SOL    HW124377   6.596   0.313   0.683
 7826SOL    HW224378   6.752   0.359   0.685
 7827SOL     OW24379   4.509   3.228   0.504
 7827SOL    HW124380   4.459   3.142   0.490
 7827SOL    HW224381   4.573   3.242   0.428
 7828SOL     OW24382   0.683   5.754   1.028
 7828SOL    HW124383   0.597   5.797   1.057
 7828SOL    HW224384   0.759   5.792   1.082
 7829SOL     OW24385   4.038   3.810   2.996
 7829SOL    HW124386   3.977   3.838   3.070
 7829SOL    HW224387   4.105   3.882   2.978
 7830SOL     OW24388   5.564   3.736   0.220
 7830SOL    HW124389   5.533   3.830   0.204
 7830SOL    HW224390   5.644   3.718   0.162
 7831SOL     OW24391   1.607   2.816   6.979
 7831SOL    HW124392   1.696   2.804   7.022
 7831SOL    HW224393   1.540   2.842   0.026
 7832SOL     OW24394   2.956   2.669   5.446
 7832SOL    HW124395   2.897   2.628   5.376
 7832SOL    HW224396   2.991   2.598   5.507
 7833SOL     OW24397   0.019   0.271   1.131
 7833SOL    HW124398   6.968   0.205   1.144
 7833SOL    HW224399   0.098   0.226   1.089
 7834SOL     OW24400   6.534   0.380   1.540
 7834SOL    HW124401   6.614   0.420   1.585
 7834SOL    HW224402   6.460   0.448   1.537
 7835SOL     OW24403   2.613   2.475   4.529
 7835SOL    HW124404   2.606   2.381   4.497
 7835SOL    HW224405   2.650   2.477   4.622
 7836SOL     OW24406   2.000   0.896   0.550
 7836SOL    HW124407   2.087   0.931   0.585
 7836SOL    HW224408   1.983   0.935   0.459
 7837SOL     OW24409   4.705   6.783   2.368
 7837SOL    HW124410   4.792   6.773   2.320
 7837SOL    HW224411   4.646   6.706   2.347
 7838SOL     OW24412   3.923   6.463   4.142
 7838SOL    HW124413   3.904   6.552   4.100
 7838SOL    HW224414   3.859   6.395   4.106
 7839SOL     OW24415   6.879   4.401   3.735
 7839SOL    HW124416   6.833   4.477   3.689
 7839SOL    HW224417   6.811   4.335   3.766
 7840SOL     OW24418   5.044   3.305   5.470
 7840SOL    HW124419   5.069   3.398   5.443
 7840SOL    HW224420   4.951   3.304   5.505
 7841SOL     OW24421   1.122   1.704   6.395
 7841SOL    HW124422   1.202   1.669   6.446
 7841SOL    HW224423   1.053   1.632   6.389
 7842SOL     OW24424   3.306   0.771   2.033
 7842SOL    HW124425   3.283   0.863   2.002
 7842SOL    HW224426   3.402   0.769   2.063
 7843SOL     OW24427   6.887   3.260   1.739
 7843SOL    HW124428   6.926   3.334   1.794
 7843SOL    HW224429   6.956   3.188   1.728
 7844SOL     OW24430   3.845   1.331   4.505
 7844SOL    HW124431   3.817   1.330   4.409
 7844SOL    HW224432   3.896   1.415   4.524
 7845SOL     OW24433   1.186   1.109   4.014
 7845SOL    HW124434   1.106   1.166   4.036
 7845SOL    HW224435   1.170   1.061   3.927
 7846SOL     OW24436   4.278   6.396   1.584
 7846SOL    HW124437   4.322   6.427   1.499
 7846SOL    HW224438   4.238   6.475   1.632
 7847SOL     OW24439   0.358   0.391   0.380
 7847SOL    HW124440   0.297   0.367   0.455
 7847SOL    HW224441   0.324   0.350   0.295
 7848SOL     OW24442   4.137   4.650   0.966
 7848SOL    HW124443   4.087   4.598   1.035
 7848SOL    HW224444   4.162   4.589   0.890
 7849SOL     OW24445   5.519   3.828   4.367
 7849SOL    HW124446   5.596   3.765   4.377
 7849SOL    HW224447   5.544   3.918   4.404
 7850SOL     OW24448   1.012   2.004   4.371
 7850SOL    HW124449   0.940   1.935   4.376
 7850SOL    HW224450   0.980   2.089   4.415
 7851SOL     OW24451   5.001   6.721   0.835
 7851SOL    HW124452   5.080   6.661   0.847
 7851SOL    HW224453   4.934   6.677   0.775
 7852SOL     OW24454   2.569   6.669   0.213
 7852SOL    HW124455   2.480   6.644   0.250
 7852SOL    HW224456   2.638   6.662   0.285
 7853SOL     OW24457   1.820   2.811   0.191
 7853SOL    HW124458   1.855   2.774   0.278
 7853SOL    HW224459   1.888   2.796   0.119
 7854SOL     OW24460   3.365   4.138   2.885
 7854SOL    HW124461   3.372   4.178   2.793
 7854SOL    HW224462   3.273   4.104   2.900
 7855SOL     OW24463   3.918   6.933   5.412
 7855SOL    HW124464   3.945   0.005   5.392
 7855SOL    HW224465   3.845   6.933   5.481
 7856SOL     OW24466   3.627   3.527   6.404
 7856SOL    HW124467   3.679   3.525   6.490
 7856SOL    HW224468   3.687   3.507   6.327
 7857SOL     OW24469   0.996   2.564   4.952
 7857SOL    HW124470   0.932   2.595   4.882
 7857SOL    HW224471   1.056   2.493   4.915
 7858SOL     OW24472   5.734   4.383   3.092
 7858SOL    HW124473   5.740   4.376   3.192
 7858SOL    HW224474   5.667   4.317   3.058
 7859SOL     OW24475   0.865   5.426   0.323
 7859SOL    HW124476   0.943   5.404   0.264
 7859SOL    HW224477   0.781   5.392   0.282
 7860SOL     OW24478   4.287   0.109   2.132
 7860SOL    HW124479   4.213   0.163   2.173
 7860SOL    HW224480   4.361   0.169   2.103
 7861SOL     OW24481   5.098   3.783   0.874
 7861SOL    HW124482   5.175   3.735   0.831
 7861SOL    HW224483   5.070   3.860   0.816
 7862SOL     OW24484   2.834   4.210   1.697
 7862SOL    HW124485   2.905   4.146   1.667
 7862SOL    HW224486   2.873   4.273   1.764
 7863SOL     OW24487   5.672   5.691   2.672
 7863SOL    HW124488   5.636   5.627   2.604
 7863SOL    HW224489   5.697   5.641   2.755
 7864SOL     OW24490   0.874   5.795   3.953
 7864SOL    HW124491   0.804   5.759   4.015
 7864SOL    HW224492   0.923   5.719   3.911
 7865SOL     OW24493   3.610   0.983   2.833
 7865SOL    HW124494   3.583   1.056   2.770
 7865SOL    HW224495   3.669   1.020   2.904
 7866SOL     OW24496   2.154   2.590   4.514
 7866SOL    HW124497   2.237   2.638   4.541
 7866SOL    HW224498   2.089   2.589   4.590
 7867SOL     OW24499   5.555   3.955   2.156
 7867SOL    HW124500   5.470   4.003   2.138
 7867SOL    HW224501   5.558   3.870   2.103
 7868SOL     OW24502   5.604   0.402   0.594
 7868SOL    HW124503   5.608   0.444   0.685
 7868SOL    HW224504   5.559   0.313   0.600
 7869SOL     OW24505   6.399   1.951   4.080
 7869SOL    HW124506   6.384   1.857   4.110
 7869SOL    HW224507   6.423   2.007   4.160
 7870SOL     OW24508   6.750   6.870   3.068
 7870SOL    HW124509   6.841   6.828   3.064
 7870SOL    HW224510   6.757   6.960   3.111
 7871SOL     OW24511   5.717   3.131   3.747
 7871SOL    HW124512   5.763   3.059   3.798
 7871SOL    HW224513   5.652   3.178   3.806
 7872SOL     OW24514   6.411   3.602   4.017
 7872SOL    HW124515   6.386   3.661   4.094
 7872SOL    HW224516   6.404   3.506   4.045
 7873SOL     OW24517   6.752   5.766   4.478
 7873SOL    HW124518   6.799   5.778   4.565
 7873SOL    HW224519   6.797   5.693   4.426
 7874SOL     OW24520   6.051   1.635   0.688
 7874SOL    HW124521   6.141   1.663   0.655
 7874SOL    HW224522   6.053   1.537   0.710
 7875SOL     OW24523   4.562   2.672   0.498
 7875SOL    HW124524   4.631   2.679   0.569
 7875SOL    HW224525   4.585   2.733   0.423
 7876SOL     OW24526   0.319   0.688   4.982
 7876SOL    HW124527   0.285   0.604   5.025
 7876SOL    HW224528   0.320   0.676   4.883
 7877SOL     OW24529   5.957   2.636   2.768
 7877SOL    HW124530   5.933   2.659   2.862
 7877SOL    HW224531   6.054   2.608   2.764
 7878SOL     OW24532   4.478   4.134   1.455
 7878SOL    HW124533   4.391   4.094   1.427
 7878SOL    HW224534   4.480   4.231   1.431
 7879SOL     OW24535   5.437   0.805   5.238
 7879SOL    HW124536   5.342   0.836   5.225
 7879SOL    HW224537   5.451   0.780   5.333
 7880SOL     OW24538   1.475   6.513   6.122
 7880SOL    HW124539   1.516   6.454   6.193
 7880SOL    HW224540   1.471   6.463   6.036
 7881SOL     OW24541   0.647   5.061   3.383
 7881SOL    HW124542   0.577   5.040   3.452
 7881SOL    HW224543   0.651   5.160   3.369
 7882SOL     OW24544   1.119   4.325   1.717
 7882SOL    HW124545   1.154   4.408   1.759
 7882SOL    HW224546   1.060   4.276   1.781
 7883SOL     OW24547   3.478   2.063   3.095
 7883SOL    HW124548   3.477   2.078   3.193
 7883SOL    HW224549   3.570   2.033   3.067
 7884SOL     OW24550   0.748   3.569   4.170
 7884SOL    HW124551   0.755   3.471   4.186
 7884SOL    HW224552   0.793   3.592   4.083
 7885SOL     OW24553   5.723   4.823   2.771
 7885SOL    HW124554   5.665   4.779   2.839
 7885SOL    HW224555   5.678   4.906   2.738
 7886SOL     OW24556   4.923   3.672   2.613
 7886SOL    HW124557   4.916   3.717   2.524
 7886SOL    HW224558   5.008   3.618   2.617
 7887SOL     OW24559   1.758   2.822   1.745
 7887SOL    HW124560   1.716   2.848   1.832
 7887SOL    HW224561   1.692   2.836   1.671
 7888SOL     OW24562   6.285   0.925   4.703
 7888SOL    HW124563   6.224   0.850   4.728
 7888SOL    HW224564   6.238   0.988   4.642
 7889SOL     OW24565   5.587   5.124   0.126
 7889SOL    HW124566   5.537   5.209   0.107
 7889SOL    HW224567   5.665   5.144   0.185
 7890SOL     OW24568   2.205   3.061   4.091
 7890SOL    HW124569   2.290   3.041   4.138
 7890SOL    HW224570   2.155   2.976   4.072
 7891SOL     OW24571   6.607   2.172   4.494
 7891SOL    HW124572   6.569   2.223   4.571
 7891SOL    HW224573   6.647   2.087   4.526
 7892SOL     OW24574   0.785   1.642   5.166
 7892SOL    HW124575   0.687   1.640   5.145
 7892SOL    HW224576   0.802   1.708   5.239
 7893SOL     OW24577   5.789   0.560   0.174
 7893SOL    HW124578   5.743   0.473   0.153
 7893SOL    HW224579   5.729   0.616   0.231
 7894SOL     OW24580   2.897   0.787   7.016
 7894SOL    HW124581   2.953   0.822   0.069
 7894SOL    HW224582   2.893   0.854   6.943
 7895SOL     OW24583   6.511   6.580   3.620
 7895SOL    HW124584   6.560   6.559   3.535
 7895SOL    HW224585   6.426   6.628   3.599
 7896SOL     OW24586   2.590   2.243   0.859
 7896SOL    HW124587   2.553   2.150   0.854
 7896SOL    HW224588   2.672   2.250   0.802
 7897SOL     OW24589   2.903   2.693   0.658
 7897SOL    HW124590   2.942   2.773   0.703
 7897SOL    HW224591   2.865   2.631   0.726
 7898SOL     OW24592   5.456   0.098   2.958
 7898SOL    HW124593   5.417   0.091   2.867
 7898SOL    HW224594   5.431   0.017   3.012
 7899SOL     OW24595   6.428   4.275   4.472
 7899SOL    HW124596   6.407   4.307   4.564
 7899SOL    HW224597   6.468   4.350   4.419
 7900SOL     OW24598   0.516   3.851   0.674
 7900SOL    HW124599   0.451   3.921   0.704
 7900SOL    HW224600   0.494   3.823   0.580
 7901SOL     OW24601   0.621   1.942   6.750
 7901SOL    HW124602   0.622   1.985   6.840
 7901SOL    HW224603   0.684   1.990   6.689
 7902SOL     OW24604   1.907   6.680   2.243
 7902SOL    HW124605   1.891   6.719   2.152
 7902SOL    HW224606   1.907   6.581   2.237
 7903SOL     OW24607   2.627   1.848   5.269
 7903SOL    HW124608   2.712   1.900   5.278
 7903SOL    HW224609   2.618   1.814   5.175
 7904SOL     OW24610   4.687   2.098   3.008
 7904SOL    HW124611   4.678   2.160   3.086
 7904SOL    HW224612   4.784   2.090   2.983
 7905SOL     OW24613   5.262   1.957   1.237
 7905SOL    HW124614   5.228   2.046   1.207
 7905SOL    HW224615   5.188   1.890   1.231
 7906SOL     OW24616   1.633   4.869   0.091
 7906SOL    HW124617   1.576   4.930   0.145
 7906SOL    HW224618   1.677   4.920   0.018
 7907SOL     OW24619   5.855   6.600   2.448
 7907SOL    HW124620   5.779   6.560   2.501
 7907SOL    HW224621   5.875   6.540   2.370
 7908SOL     OW24622   1.586   7.011   6.615
 7908SOL    HW124623   1.568   6.989   6.711
 7908SOL    HW224624   1.659   6.952   6.580
 7909SOL     OW24625   5.975   4.324   2.294
 7909SOL    HW124626   6.062   4.299   2.336
 7909SOL    HW224627   5.980   4.310   2.195
 7910SOL     OW24628   0.669   3.925   6.491
 7910SOL    HW124629   0.665   3.825   6.499
 7910SOL    HW224630   0.720   3.962   6.568
 7911SOL     OW24631   6.923   4.613   6.007
 7911SOL    HW124632   6.864   4.570   6.075
 7911SOL    HW224633   6.948   4.545   5.937
 7912SOL     OW24634   6.065   5.013   1.114
 7912SOL    HW124635   5.993   4.956   1.152
 7912SOL    HW224636   6.068   5.100   1.163
 7913SOL     OW24637   1.364   5.107   0.536
 7913SOL    HW124638   1.317   5.033   0.488
 7913SOL    HW224639   1.303   5.186   0.542
 7914SOL     OW24640   0.953   6.786   5.195
 7914SOL    HW124641   0.963   6.881   5.167
 7914SOL    HW224642   0.968   6.778   5.293
 7915SOL     OW24643   3.574   5.199   2.599
 7915SOL    HW124644   3.492   5.198   2.657
 7915SOL    HW224645   3.607   5.293   2.589
 7916SOL     OW24646   1.292   0.199   4.150
 7916SOL    HW124647   1.365   0.162   4.092
 7916SOL    HW224648   1.271   0.293   4.122
 7917SOL     OW24649   4.218   2.151   1.546
 7917SOL    HW124650   4.291   2.197   1.596
 7917SOL    HW224651   4.186   2.211   1.472
 7918SOL     OW24652   1.966   2.351   3.646
 7918SOL    HW124653   1.914   2.303   3.717
 7918SOL    HW224654   1.979   2.446   3.673
 7919SOL     OW24655   1.438   5.950   5.226
 7919SOL    HW124656   1.506   6.011   5.185
 7919SOL    HW224657   1.409   5.987   5.314
 7920SOL     OW24658   4.978   0.357   1.023
 7920SOL    HW124659   4.954   0.426   1.091
 7920SOL    HW224660   4.904   0.290   1.016
 7921SOL     OW24661   5.197   2.697   1.061
 7921SOL    HW124662   5.265   2.644   1.112
 7921SOL    HW224663   5.243   2.749   0.989
 7922SOL     OW24664   2.804   0.016   1.533
 7922SOL    HW124665   2.786   0.114   1.532
 7922SOL    HW224666   2.804   7.005   1.627
 7923SOL     OW24667   4.677   1.475   6.754
 7923SOL    HW124668   4.722   1.411   6.691
 7923SOL    HW224669   4.746   1.532   6.799
 7924SOL     OW24670   5.907   6.148   0.377
 7924SOL    HW124671   5.957   6.065   0.402
 7924SOL    HW224672   5.950   6.189   0.296
 7925SOL     OW24673   1.450   5.055   6.603
 7925SOL    HW124674   1.482   4.966   6.636
 7925SOL    HW224675   1.510   5.127   6.639
 7926SOL     OW24676   4.969   6.007   6.612
 7926SOL    HW124677   5.056   6.046   6.584
 7926SOL    HW224678   4.978   5.968   6.704
 7927SOL     OW24679   4.158   0.448   2.700
 7927SOL    HW124680   4.064   0.450   2.733
 7927SOL    HW224681   4.204   0.368   2.738
 7928SOL     OW24682   6.009   2.156   2.929
 7928SOL    HW124683   5.975   2.084   2.990
 7928SOL    HW224684   6.006   2.123   2.834
 7929SOL     OW24685   4.669   4.540   5.967
 7929SOL    HW124686   4.686   4.442   5.975
 7929SOL    HW224687   4.731   4.580   5.900
 7930SOL     OW24688   4.109   6.746   6.592
 7930SOL    HW124689   4.051   6.682   6.643
 7930SOL    HW224690   4.133   6.823   6.652
 7931SOL     OW24691   3.780   2.065   1.593
 7931SOL    HW124692   3.770   2.154   1.636
 7931SOL    HW224693   3.869   2.026   1.618
 7932SOL     OW24694   1.285   3.510   1.383
 7932SOL    HW124695   1.322   3.538   1.473
 7932SOL    HW224696   1.231   3.585   1.345
 7933SOL     OW24697   1.079   1.950   6.941
 7933SOL    HW124698   1.127   1.898   7.013
 7933SOL    HW224699   1.003   2.000   6.981
 7934SOL     OW24700   0.842   5.526   0.956
 7934SOL    HW124701   0.782   5.600   0.986
 7934SOL    HW224702   0.817   5.497   0.864
 7935SOL     OW24703   5.653   2.881   3.002
 7935SOL    HW124704   5.645   2.888   2.902
 7935SOL    HW224705   5.721   2.947   3.034
 7936SOL     OW24706   2.872   5.705   3.830
 7936SOL    HW124707   2.912   5.797   3.825
 7936SOL    HW224708   2.805   5.694   3.756
 7937SOL     OW24709   3.611   1.269   0.271
 7937SOL    HW124710   3.514   1.292   0.279
 7937SOL    HW224711   3.656   1.337   0.213
 7938SOL     OW24712   3.514   6.673   3.953
 7938SOL    HW124713   3.589   6.641   4.010
 7938SOL    HW224714   3.511   6.773   3.954
 7939SOL     OW24715   0.745   1.007   3.045
 7939SOL    HW124716   0.681   1.020   3.121
 7939SOL    HW224717   0.713   1.059   2.966
 7940SOL     OW24718   5.614   1.749   4.207
 7940SOL    HW124719   5.541   1.763   4.273
 7940SOL    HW224720   5.591   1.794   4.121
 7941SOL     OW24721   3.521   0.329   0.973
 7941SOL    HW124722   3.457   0.402   0.947
 7941SOL    HW224723   3.504   0.248   0.917
 7942SOL     OW24724   0.990   5.015   0.912
 7942SOL    HW124725   0.973   4.929   0.864
 7942SOL    HW224726   1.067   5.005   0.974
 7943SOL     OW24727   1.473   5.911   6.271
 7943SOL    HW124728   1.526   5.966   6.207
 7943SOL    HW224729   1.376   5.929   6.258
 7944SOL     OW24730   1.196   2.443   1.076
 7944SOL    HW124731   1.099   2.430   1.095
 7944SOL    HW224732   1.208   2.464   0.978
 7945SOL     OW24733   6.296   4.359   3.076
 7945SOL    HW124734   6.206   4.384   3.040
 7945SOL    HW224735   6.291   4.268   3.119
 7946SOL     OW24736   3.897   1.044   6.391
 7946SOL    HW124737   3.877   1.131   6.346
 7946SOL    HW224738   3.928   0.978   6.323
 7947SOL     OW24739   7.018   4.011   6.561
 7947SOL    HW124740   0.025   4.018   6.466
 7947SOL    HW224741   6.942   4.074   6.578
 7948SOL     OW24742   2.103   5.101   3.056
 7948SOL    HW124743   2.036   5.031   3.032
 7948SOL    HW224744   2.060   5.191   3.050
 7949SOL     OW24745   2.682   5.976   6.129
 7949SOL    HW124746   2.764   6.031   6.115
 7949SOL    HW224747   2.664   5.922   6.046
 7950SOL     OW24748   5.966   4.714   5.354
 7950SOL    HW124749   6.029   4.695   5.279
 7950SOL    HW224750   5.990   4.801   5.398
 7951SOL     OW24751   4.548   6.550   2.319
 7951SOL    HW124752   4.483   6.533   2.393
 7951SOL    HW224753   4.507   6.615   2.253
 7952SOL     OW24754   6.247   4.043   5.425
 7952SOL    HW124755   6.203   3.957   5.450
 7952SOL    HW224756   6.345   4.026   5.412
 7953SOL     OW24757   1.461   6.363   0.483
 7953SOL    HW124758   1.478   6.417   0.566
 7953SOL    HW224759   1.525   6.392   0.411
 7954SOL     OW24760   3.954   3.939   6.903
 7954SOL    HW124761   3.975   3.860   6.962
 7954SOL    HW224762   4.035   3.995   6.892
 7955SOL     OW24763   1.548   1.578   6.388
 7955SOL    HW124764   1.561   1.676   6.407
 7955SOL    HW224765   1.504   1.567   6.299
 7956SOL     OW24766   6.449   6.295   0.378
 7956SOL    HW124767   6.430   6.253   0.467
 7956SOL    HW224768   6.473   6.391   0.391
 7957SOL     OW24769   5.102   1.383   5.820
 7957SOL    HW124770   5.125   1.469   5.775
 7957SOL    HW224771   5.183   1.325   5.823
 7958SOL     OW24772   5.577   2.881   0.428
 7958SOL    HW124773   5.512   2.810   0.400
 7958SOL    HW224774   5.637   2.904   0.351
 7959SOL     OW24775   5.931   2.268   0.124
 7959SOL    HW124776   5.875   2.342   0.087
 7959SOL    HW224777   5.901   2.181   0.085
 7960SOL     OW24778   1.086   1.273   5.478
 7960SOL    HW124779   1.158   1.241   5.416
 7960SOL    HW224780   1.011   1.208   5.479
 7961SOL     OW24781   6.410   6.622   0.227
 7961SOL    HW124782   6.398   6.544   0.165
 7961SOL    HW224783   6.461   6.593   0.308
 7962SOL     OW24784   5.808   6.996   4.850
 7962SOL    HW124785   5.765   6.957   4.769
 7962SOL    HW224786   5.886   0.030   4.823
 7963SOL     OW24787   6.718   0.089   3.564
 7963SOL    HW124788   6.692   0.186   3.563
 7963SOL    HW224789   6.690   0.046   3.479
 7964SOL     OW24790   6.296   4.093   1.791
 7964SOL    HW124791   6.295   3.998   1.824
 7964SOL    HW224792   6.203   4.119   1.763
 7965SOL     OW24793   4.269   2.398   6.258
 7965SOL    HW124794   4.309   2.442   6.339
 7965SOL    HW224795   4.170   2.399   6.264
 7966SOL     OW24796   4.945   3.776   4.878
 7966SOL    HW124797   4.930   3.823   4.791
 7966SOL    HW224798   4.901   3.686   4.876
 7967SOL     OW24799   1.606   4.932   0.968
 7967SOL    HW124800   1.701   4.933   0.938
 7967SOL    HW224801   1.558   5.011   0.928
 7968SOL     OW24802   0.818   2.938   4.704
 7968SOL    HW124803   0.737   2.996   4.698
 7968SOL    HW224804   0.897   2.993   4.731
 7969SOL     OW24805   3.484   5.485   6.473
 7969SOL    HW124806   3.482   5.410   6.408
 7969SOL    HW224807   3.463   5.451   6.565
 7970SOL     OW24808   6.436   2.665   3.988
 7970SOL    HW124809   6.343   2.701   3.997
 7970SOL    HW224810   6.475   2.649   4.078
 7971SOL     OW24811   2.593   1.310   6.395
 7971SOL    HW124812   2.536   1.319   6.477
 7971SOL    HW224813   2.596   1.397   6.346
 7972SOL     OW24814   3.506   4.060   4.043
 7972SOL    HW124815   3.469   3.967   4.041
 7972SOL    HW224816   3.530   4.084   4.137
 7973SOL     OW24817   5.525   4.495   2.644
 7973SOL    HW124818   5.475   4.509   2.730
 7973SOL    HW224819   5.589   4.420   2.655
 7974SOL     OW24820   0.359   2.651   5.397
 7974SOL    HW124821   0.455   2.650   5.367
 7974SOL    HW224822   0.352   2.698   5.485
 7975SOL     OW24823   5.675   0.691   1.167
 7975SOL    HW124824   5.745   0.679   1.096
 7975SOL    HW224825   5.690   0.778   1.214
 7976SOL     OW24826   0.819   0.456   0.832
 7976SOL    HW124827   0.803   0.553   0.813
 7976SOL    HW224828   0.916   0.443   0.857
 7977SOL     OW24829   5.445   5.880   3.651
 7977SOL    HW124830   5.494   5.957   3.691
 7977SOL    HW224831   5.467   5.873   3.553
 7978SOL     OW24832   0.065   4.555   1.339
 7978SOL    HW124833   0.128   4.631   1.348
 7978SOL    HW224834   0.026   4.533   1.428
 7979SOL     OW24835   2.091   2.157   4.664
 7979SOL    HW124836   2.060   2.216   4.589
 7979SOL    HW224837   2.106   2.213   4.746
 7980SOL     OW24838   3.710   5.759   0.686
 7980SOL    HW124839   3.797   5.730   0.726
 7980SOL    HW224840   3.657   5.679   0.660
 7981SOL     OW24841   1.317   3.999   3.769
 7981SOL    HW124842   1.382   4.057   3.819
 7981SOL    HW224843   1.266   3.943   3.834
 7982SOL     OW24844   6.909   0.849   5.951
 7982SOL    HW124845   6.911   0.753   5.922
 7982SOL    HW224846   6.904   0.854   6.050
 7983SOL     OW24847   4.655   1.267   1.391
 7983SOL    HW124848   4.564   1.228   1.399
 7983SOL    HW224849   4.651   1.366   1.405
 7984SOL     OW24850   0.251   2.343   2.970
 7984SOL    HW124851   0.256   2.437   3.002
 7984SOL    HW224852   0.272   2.339   2.873
 7985SOL     OW24853   3.140   2.886   5.251
 7985SOL    HW124854   3.176   2.940   5.327
 7985SOL    HW224855   3.162   2.789   5.265
 7986SOL     OW24856   3.631   0.719   4.464
 7986SOL    HW124857   3.533   0.701   4.468
 7986SOL    HW224858   3.649   0.794   4.401
 7987SOL     OW24859   0.807   3.420   6.864
 7987SOL    HW124860   0.836   3.364   6.941
 7987SOL    HW224861   0.720   3.465   6.886
 7988SOL     OW24862   6.923   1.208   2.081
 7988SOL    HW124863   6.963   1.294   2.112
 7988SOL    HW224864   6.997   1.143   2.061
 7989SOL     OW24865   7.000   4.113   1.237
 7989SOL    HW124866   6.938   4.048   1.280
 7989SOL    HW224867   0.021   4.071   1.157
 7990SOL     OW24868   4.950   5.847   5.386
 7990SOL    HW124869   5.007   5.929   5.388
 7990SOL    HW224870   4.860   5.870   5.351
 7991SOL     OW24871   5.717   0.827   4.992
 7991SOL    HW124872   5.734   0.925   4.994
 7991SOL    HW224873   5.736   0.788   5.082
 7992SOL     OW24874   2.184   6.835   0.008
 7992SOL    HW124875   2.148   6.751   0.049
 7992SOL    HW224876   2.201   6.820   6.933
 7993SOL     OW24877   6.107   5.336   1.159
 7993SOL    HW124878   6.135   5.289   1.075
 7993SOL    HW224879   6.160   5.420   1.169
 7994SOL     OW24880   6.166   6.987   4.157
 7994SOL    HW124881   6.203   6.981   4.249
 7994SOL    HW224882   6.172   0.059   4.125
 7995SOL     OW24883   0.796   5.473   1.560
 7995SOL    HW124884   0.792   5.494   1.658
 7995SOL    HW224885   0.830   5.553   1.510
 7996SOL     OW24886   3.301   6.998   3.402
 7996SOL    HW124887   3.357   6.943   3.463
 7996SOL    HW224888   3.265   6.940   3.328
 7997SOL     OW24889   1.777   1.695   5.853
 7997SOL    HW124890   1.872   1.726   5.850
 7997SOL    HW224891   1.768   1.612   5.797
 7998SOL     OW24892   2.603   1.003   0.447
 7998SOL    HW124893   2.561   1.055   0.521
 7998SOL    HW224894   2.555   0.916   0.436
 7999SOL     OW24895   1.436   0.223   4.446
 7999SOL    HW124896   1.390   0.311   4.437
 7999SOL    HW224897   1.533   0.237   4.462
 8000SOL     OW24898   3.695   5.278   0.608
 8000SOL    HW124899   3.758   5.302   0.681
 8000SOL    HW224900   3.720   5.327   0.524
 8001SOL     OW24901   4.441   4.956   1.179
 8001SOL    HW124902   4.351   4.923   1.151
 8001SOL    HW224903   4.451   4.945   1.278
 8002SOL     OW24904   1.138   6.809   4.338
 8002SOL    HW124905   1.098   6.739   4.397
 8002SOL    HW224906   1.231   6.784   4.314
 8003SOL     OW24907   2.462   5.807   2.323
 8003SOL    HW124908   2.475   5.749   2.404
 8003SOL    HW224909   2.411   5.889   2.349
 8004SOL     OW24910   1.118   2.933   3.714
 8004SOL    HW124911   1.025   2.928   3.750
 8004SOL    HW224912   1.122   3.000   3.640
 8005SOL     OW24913   2.545   0.832   2.927
 8005SOL    HW124914   2.526   0.857   2.832
 8005SOL    HW224915   2.472   0.772   2.960
 8006SOL     OW24916   4.185   4.374   5.641
 8006SOL    HW124917   4.140   4.298   5.688
 8006SOL    HW224918   4.200   4.349   5.545
 8007SOL     OW24919   0.170   0.368   0.820
 8007SOL    HW124920   0.182   0.290   0.881
 8007SOL    HW224921   0.172   0.452   0.874
 8008SOL     OW24922   5.166   5.475   0.306
 8008SOL    HW124923   5.150   5.482   0.405
 8008SOL    HW224924   5.256   5.435   0.290
 8009SOL     OW24925   5.693   1.111   6.991
 8009SOL    HW124926   5.629   1.182   7.019
 8009SOL    HW224927   5.749   1.145   6.916
 8010SOL     OW24928   2.778   0.318   5.623
 8010SOL    HW124929   2.790   0.415   5.602
 8010SOL    HW224930   2.695   0.306   5.677
 8011SOL     OW24931   3.722   1.981   3.050
 8011SOL    HW124932   3.756   1.975   2.957
 8011SOL    HW224933   3.795   2.016   3.110
 8012SOL     OW24934   6.131   1.408   4.718
 8012SOL    HW124935   6.151   1.376   4.810
 8012SOL    HW224936   6.032   1.407   4.703
 8013SOL     OW24937   3.424   1.154   2.580
 8013SOL    HW124938   3.503   1.216   2.574
 8013SOL    HW224939   3.342   1.207   2.603
 8014SOL     OW24940   2.323   2.566   2.958
 8014SOL    HW124941   2.313   2.666   2.962
 8014SOL    HW224942   2.252   2.528   2.899
 8015SOL     OW24943   3.607   0.258   5.131
 8015SOL    HW124944   3.588   0.340   5.077
 8015SOL    HW224945   3.584   0.177   5.077
 8016SOL     OW24946   3.779   2.217   5.422
 8016SOL    HW124947   3.762   2.306   5.465
 8016SOL    HW224948   3.693   2.171   5.403
 8017SOL     OW24949   6.838   5.791   1.186
 8017SOL    HW124950   6.902   5.860   1.221
 8017SOL    HW224951   6.889   5.713   1.150
 8018SOL     OW24952   4.216   2.714   6.742
 8018SOL    HW124953   4.254   2.770   6.669
 8018SOL    HW224954   4.277   2.715   6.821
 8019SOL     OW24955   2.590   3.636   0.723
 8019SOL    HW124956   2.626   3.633   0.816
 8019SOL    HW224957   2.656   3.596   0.660
 8020SOL     OW24958   0.695   0.666   5.787
 8020SOL    HW124959   0.728   0.670   5.692
 8020SOL    HW224960   0.624   0.596   5.794
 8021SOL     OW24961   1.183   3.077   0.793
 8021SOL    HW124962   1.220   3.130   0.869
 8021SOL    HW224963   1.101   3.123   0.758
 8022SOL     OW24964   4.423   0.914   1.849
 8022SOL    HW124965   4.492   0.869   1.905
 8022SOL    HW224966   4.337   0.918   1.900
 8023SOL     OW24967   4.838   6.315   1.401
 8023SOL    HW124968   4.840   6.232   1.457
 8023SOL    HW224969   4.864   6.394   1.457
 8024SOL     OW24970   2.524   0.927   6.847
 8024SOL    HW124971   2.584   0.928   6.768
 8024SOL    HW224972   2.537   0.843   6.899
 8025SOL     OW24973   1.473   5.494   1.603
 8025SOL    HW124974   1.427   5.510   1.690
 8025SOL    HW224975   1.477   5.579   1.551
 8026SOL     OW24976   0.377   5.913   6.587
 8026SOL    HW124977   0.431   5.919   6.671
 8026SOL    HW224978   0.309   5.840   6.596
 8027SOL     OW24979   3.780   0.265   0.222
 8027SOL    HW124980   3.683   0.286   0.213
 8027SOL    HW224981   3.803   0.189   0.160
 8028SOL     OW24982   3.757   5.626   5.343
 8028SOL    HW124983   3.670   5.624   5.295
 8028SOL    HW224984   3.742   5.656   5.437
 8029SOL     OW24985   1.048   0.063   1.199
 8029SOL    HW124986   1.010   0.062   1.106
 8029SOL    HW224987   1.117   0.135   1.205
 8030SOL     OW24988   0.675   4.626   1.144
 8030SOL    HW124989   0.619   4.576   1.078
 8030SOL    HW224990   0.661   4.589   1.236
 8031SOL     OW24991   0.190   0.544   3.153
 8031SOL    HW124992   0.110   0.496   3.187
 8031SOL    HW224993   0.261   0.478   3.128
 8032SOL     OW24994   0.614   3.012   1.167
 8032SOL    HW124995   0.710   3.041   1.166
 8032SOL    HW224996   0.563   3.070   1.230
 8033SOL     OW24997   4.211   4.069   1.503
 8033SOL    HW124998   4.123   4.038   1.540
 8033SOL    HW224999   4.266   4.109   1.576
 8034SOL     OW25000   6.865   6.863   6.291
 8034SOL    HW125001   6.954   6.908   6.297
 8034SOL    HW225002   6.879   6.764   6.287
 8035SOL     OW25003   6.115   0.549   3.576
 8035SOL    HW125004   6.145   0.523   3.485
 8035SOL    HW225005   6.085   0.644   3.575
 8036SOL     OW25006   4.989   2.583   4.188
 8036SOL    HW125007   5.051   2.658   4.208
 8036SOL    HW225008   4.904   2.619   4.149
 8037SOL     OW25009   1.983   1.519   6.144
 8037SOL    HW125010   2.033   1.471   6.073
 8037SOL    HW225011   1.885   1.514   6.126
 8038SOL     OW25012   6.755   5.373   2.324
 8038SOL    HW125013   6.754   5.371   2.224
 8038SOL    HW225014   6.663   5.392   2.358
 8039SOL     OW25015   1.634   2.322   5.239
 8039SOL    HW125016   1.644   2.277   5.327
 8039SOL    HW225017   1.658   2.259   5.165
 8040SOL     OW25018   1.072   5.836   6.489
 8040SOL    HW125019   1.044   5.910   6.549
 8040SOL    HW225020   0.991   5.791   6.452
 8041SOL     OW25021   3.296   0.977   2.905
 8041SOL    HW125022   3.356   1.014   2.835
 8041SOL    HW225023   3.346   0.968   2.991
 8042SOL     OW25024   4.301   4.188   6.013
 8042SOL    HW125025   4.213   4.224   6.047
 8042SOL    HW225026   4.374   4.217   6.075
 8043SOL     OW25027   5.376   5.461   6.575
 8043SOL    HW125028   5.297   5.425   6.524
 8043SOL    HW225029   5.393   5.556   6.546
 8044SOL     OW25030   2.490   3.220   1.454
 8044SOL    HW125031   2.508   3.163   1.373
 8044SOL    HW225032   2.443   3.304   1.425
 8045SOL     OW25033   6.977   2.849   4.005
 8045SOL    HW125034   0.046   2.830   3.969
 8045SOL    HW225035   6.962   2.948   4.009
 8046SOL     OW25036   6.755   4.268   1.844
 8046SOL    HW125037   6.700   4.312   1.914
 8046SOL    HW225038   6.699   4.252   1.762
 8047SOL     OW25039   3.333   6.307   6.955
 8047SOL    HW125040   3.430   6.314   6.933
 8047SOL    HW225041   3.305   6.211   6.957
 8048SOL     OW25042   3.494   2.153   5.970
 8048SOL    HW125043   3.482   2.240   6.017
 8048SOL    HW225044   3.477   2.078   6.033
 8049SOL     OW25045   1.642   1.652   0.596
 8049SOL    HW125046   1.617   1.588   0.522
 8049SOL    HW225047   1.574   1.647   0.668
 8050SOL     OW25048   0.680   4.524   5.761
 8050SOL    HW125049   0.765   4.534   5.709
 8050SOL    HW225050   0.696   4.463   5.839
 8051SOL     OW25051   4.347   0.175   3.346
 8051SOL    HW125052   4.393   0.090   3.370
 8051SOL    HW225053   4.357   0.192   3.248
 8052SOL     OW25054   3.130   1.701   2.492
 8052SOL    HW125055   3.223   1.666   2.482
 8052SOL    HW225056   3.121   1.788   2.443
 8053SOL     OW25057   1.827   2.761   6.719
 8053SOL    HW125058   1.874   2.841   6.756
 8053SOL    HW225059   1.741   2.790   6.676
 8054SOL     OW25060   4.880   3.323   5.103
 8054SOL    HW125061   4.850   3.374   5.023
 8054SOL    HW225062   4.800   3.298   5.158
 8055SOL     OW25063   6.080   0.611   6.827
 8055SOL    HW125064   6.098   0.698   6.782
 8055SOL    HW225065   6.084   0.622   6.926
 8056SOL     OW25066   2.481   0.786   3.897
 8056SOL    HW125067   2.496   0.696   3.858
 8056SOL    HW225068   2.432   0.844   3.832
 8057SOL     OW25069   3.005   2.113   2.007
 8057SOL    HW125070   2.973   2.207   2.015
 8057SOL    HW225071   3.013   2.089   1.910
 8058SOL     OW25072   3.677   6.148   1.558
 8058SOL    HW125073   3.587   6.105   1.544
 8058SOL    HW225074   3.707   6.132   1.652
 8059SOL     OW25075   2.774   2.444   5.965
 8059SOL    HW125076   2.713   2.507   6.012
 8059SOL    HW225077   2.835   2.400   6.031
 8060SOL     OW25078   6.496   0.923   6.348
 8060SOL    HW125079   6.467   1.014   6.319
 8060SOL    HW225080   6.425   0.882   6.405
 8061SOL     OW25081   6.754   0.849   2.915
 8061SOL    HW125082   6.690   0.880   2.985
 8061SOL    HW225083   6.839   0.901   2.923
 8062SOL     OW25084   4.280   5.475   5.524
 8062SOL    HW125085   4.314   5.568   5.508
 8062SOL    HW225086   4.304   5.417   5.446
 8063SOL     OW25087   2.725   4.650   3.090
 8063SOL    HW125088   2.795   4.687   3.030
 8063SOL    HW225089   2.768   4.616   3.174
 8064SOL     OW25090   6.448   1.988   0.653
 8064SOL    HW125091   6.438   1.953   0.746
 8064SOL    HW225092   6.545   1.994   0.629
 8065SOL     OW25093   4.239   6.252   6.608
 8065SOL    HW125094   4.329   6.211   6.619
 8065SOL    HW225095   4.218   6.309   6.687
 8066SOL     OW25096   0.595   6.819   5.820
 8066SOL    HW125097   0.593   6.810   5.920
 8066SOL    HW225098   0.578   6.731   5.778
 8067SOL     OW25099   5.761   1.523   3.506
 8067SOL    HW125100   5.813   1.531   3.422
 8067SOL    HW225101   5.715   1.609   3.526
 8068SOL     OW25102   5.808   3.806   1.478
 8068SOL    HW125103   5.767   3.859   1.403
 8068SOL    HW225104   5.741   3.792   1.550
 8069SOL     OW25105   1.683   3.937   2.835
 8069SOL    HW125106   1.711   3.904   2.925
 8069SOL    HW225107   1.754   3.997   2.798
 8070SOL     OW25108   4.778   4.670   0.645
 8070SOL    HW125109   4.714   4.736   0.605
 8070SOL    HW225110   4.741   4.635   0.731
 8071SOL     OW25111   2.242   6.908   6.281
 8071SOL    HW125112   2.312   6.845   6.315
 8071SOL    HW225113   2.243   6.906   6.181
 8072SOL     OW25114   2.504   1.763   5.001
 8072SOL    HW125115   2.587   1.753   4.946
 8072SOL    HW225116   2.484   1.677   5.046
 8073SOL     OW25117   5.204   0.480   6.327
 8073SOL    HW125118   5.226   0.383   6.318
 8073SOL    HW225119   5.231   0.528   6.243
 8074SOL     OW25120   1.155   0.609   6.907
 8074SOL    HW125121   1.119   0.643   6.819
 8074SOL    HW225122   1.098   0.645   6.981
 8075SOL     OW25123   6.946   0.028   1.483
 8075SOL    HW125124   6.974   0.018   1.387
 8075SOL    HW225125   6.945   0.125   1.507
 8076SOL     OW25126   6.738   6.341   0.500
 8076SOL    HW125127   6.800   6.413   0.531
 8076SOL    HW225128   6.717   6.279   0.575
 8077SOL     OW25129   5.225   4.803   0.437
 8077SOL    HW125130   5.158   4.791   0.509
 8077SOL    HW225131   5.275   4.889   0.451
 8078SOL     OW25132   0.020   1.241   1.146
 8078SOL    HW125133   0.029   1.146   1.116
 8078SOL    HW225134   0.043   1.247   1.244
 8079SOL     OW25135   1.526   0.853   6.432
 8079SOL    HW125136   1.604   0.907   6.400
 8079SOL    HW225137   1.456   0.851   6.360
 8080SOL     OW25138   0.856   2.979   3.295
 8080SOL    HW125139   0.819   3.072   3.293
 8080SOL    HW225140   0.781   2.913   3.295
 8081SOL     OW25141   6.172   0.022   5.182
 8081SOL    HW125142   6.251   6.991   5.211
 8081SOL    HW225143   6.156   0.009   5.084
 8082SOL     OW25144   3.813   2.035   3.978
 8082SOL    HW125145   3.909   2.016   4.000
 8082SOL    HW225146   3.777   2.104   4.041
 8083SOL     OW25147   6.024   1.696   4.418
 8083SOL    HW125148   6.075   1.765   4.470
 8083SOL    HW225149   6.075   1.610   4.419
 8084SOL     OW25150   4.121   0.940   5.786
 8084SOL    HW125151   4.185   0.938   5.863
 8084SOL    HW225152   4.070   0.854   5.782
 8085SOL     OW25153   1.729   6.232   4.400
 8085SOL    HW125154   1.741   6.251   4.303
 8085SOL    HW225155   1.776   6.148   4.425
 8086SOL     OW25156   6.854   1.256   2.502
 8086SOL    HW125157   6.837   1.207   2.416
 8086SOL    HW225158   6.769   1.260   2.555
 8087SOL     OW25159   0.690   0.633   6.885
 8087SOL    HW125160   0.649   0.724   6.877
 8087SOL    HW225161   0.778   0.641   6.933
 8088SOL     OW25162   6.792   0.573   5.326
 8088SOL    HW125163   6.787   0.526   5.415
 8088SOL    HW225164   6.878   0.548   5.281
 8089SOL     OW25165   6.402   1.779   6.551
 8089SOL    HW125166   6.366   1.863   6.511
 8089SOL    HW225167   6.410   1.790   6.650
 8090SOL     OW25168   4.194   2.122   5.386
 8090SOL    HW125169   4.171   2.116   5.484
 8090SOL    HW225170   4.245   2.040   5.359
 8091SOL     OW25171   1.165   4.704   3.852
 8091SOL    HW125172   1.251   4.754   3.862
 8091SOL    HW225173   1.102   4.732   3.924
 8092SOL     OW25174   4.798   1.034   6.183
 8092SOL    HW125175   4.857   0.998   6.254
 8092SOL    HW225176   4.853   1.086   6.117
 8093SOL     OW25177   3.608   6.002   3.180
 8093SOL    HW125178   3.689   6.058   3.194
 8093SOL    HW225179   3.536   6.057   3.138
 8094SOL     OW25180   2.013   3.833   3.891
 8094SOL    HW125181   1.916   3.827   3.867
 8094SOL    HW225182   2.048   3.741   3.913
 8095SOL     OW25183   1.298   4.768   5.267
 8095SOL    HW125184   1.370   4.831   5.239
 8095SOL    HW225185   1.210   4.799   5.231
 8096SOL     OW25186   0.485   5.433   0.663
 8096SOL    HW125187   0.434   5.379   0.730
 8096SOL    HW225188   0.581   5.403   0.662
 8097SOL     OW25189   4.479   6.091   0.128
 8097SOL    HW125190   4.555   6.154   0.113
 8097SOL    HW225191   4.480   6.060   0.223
 8098SOL     OW25192   1.963   5.629   4.795
 8098SOL    HW125193   1.996   5.601   4.885
 8098SOL    HW225194   1.950   5.728   4.794
 8099SOL     OW25195   1.759   3.885   2.411
 8099SOL    HW125196   1.729   3.811   2.471
 8099SOL    HW225197   1.772   3.968   2.465
 8100SOL     OW25198   6.698   0.855   6.695
 8100SOL    HW125199   6.737   0.763   6.694
 8100SOL    HW225200   6.714   0.896   6.785
 8101SOL     OW25201   3.192   5.509   0.690
 8101SOL    HW125202   3.189   5.603   0.656
 8101SOL    HW225203   3.137   5.502   0.774
 8102SOL     OW25204   1.100   3.951   4.640
 8102SOL    HW125205   1.085   3.986   4.548
 8102SOL    HW225206   1.106   3.851   4.637
 8103SOL     OW25207   3.547   0.881   1.811
 8103SOL    HW125208   3.487   0.814   1.766
 8103SOL    HW225209   3.630   0.835   1.842
 8104SOL     OW25210   1.773   5.263   0.298
 8104SOL    HW125211   1.831   5.183   0.289
 8104SOL    HW225212   1.752   5.300   0.207
 8105SOL     OW25213   0.145   0.132   3.732
 8105SOL    HW125214   0.076   0.072   3.691
 8105SOL    HW225215   0.232   0.120   3.685
 8106SOL     OW25216   1.870   6.878   6.088
 8106SOL    HW125217   1.871   6.798   6.028
 8106SOL    HW225218   1.963   6.915   6.095
 8107SOL     OW25219   1.360   6.323   6.528
 8107SOL    HW125220   1.312   6.236   6.513
 8107SOL    HW225221   1.314   6.375   6.600
 8108SOL     OW25222   1.227   1.436   0.028
 8108SOL    HW125223   1.250   1.519   6.999
 8108SOL    HW225224   1.156   1.456   0.095
 8109SOL     OW25225   6.497   2.990   1.249
 8109SOL    HW125226   6.432   3.022   1.319
 8109SOL    HW225227   6.575   3.052   1.246
 8110SOL     OW25228   3.595   4.984   1.263
 8110SOL    HW125229   3.561   5.002   1.171
 8110SOL    HW225230   3.687   5.022   1.273
 8111SOL     OW25231   6.443   1.466   2.340
 8111SOL    HW125232   6.515   1.431   2.400
 8111SOL    HW225233   6.477   1.471   2.246
 8112SOL     OW25234   1.658   4.592   6.720
 8112SOL    HW125235   1.636   4.671   6.663
 8112SOL    HW225236   1.734   4.615   6.781
 8113SOL     OW25237   5.510   3.866   5.857
 8113SOL    HW125238   5.457   3.938   5.812
 8113SOL    HW225239   5.588   3.906   5.906
 8114SOL     OW25240   1.569   4.416   2.291
 8114SOL    HW125241   1.498   4.365   2.242
 8114SOL    HW225242   1.659   4.381   2.264
 8115SOL     OW25243   2.986   1.785   5.820
 8115SOL    HW125244   2.908   1.828   5.866
 8115SOL    HW225245   3.050   1.750   5.888
 8116SOL     OW25246   3.738   3.160   0.887
 8116SOL    HW125247   3.751   3.243   0.941
 8116SOL    HW225248   3.640   3.145   0.873
 8117SOL     OW25249   2.501   6.929   3.601
 8117SOL    HW125250   2.468   6.896   3.688
 8117SOL    HW225251   2.494   6.857   3.532
 8118SOL     OW25252   6.342   3.170   0.408
 8118SOL    HW125253   6.388   3.081   0.402
 8118SOL    HW225254   6.410   3.243   0.409
 8119SOL     OW25255   5.933   6.447   0.751
 8119SOL    HW125256   5.950   6.467   0.847
 8119SOL    HW225257   5.918   6.532   0.701
 8120SOL     OW25258   2.056   6.992   1.789
 8120SOL    HW125259   2.110   6.924   1.739
 8120SOL    HW225260   1.966   7.002   1.746
 8121SOL     OW25261   0.782   3.183   2.203
 8121SOL    HW125262   0.806   3.246   2.130
 8121SOL    HW225263   0.759   3.094   2.164
 8122SOL     OW25264   0.331   5.057   1.137
 8122SOL    HW125265   0.269   4.979   1.135
 8122SOL    HW225266   0.360   5.074   1.231
 8123SOL     OW25267   6.958   1.581   6.359
 8123SOL    HW125268   6.880   1.638   6.386
 8123SOL    HW225269   0.019   1.635   6.363
 8124SOL     OW25270   5.072   5.531   5.000
 8124SOL    HW125271   5.158   5.530   4.948
 8124SOL    HW225272   5.089   5.571   5.091
 8125SOL     OW25273   2.012   5.362   3.073
 8125SOL    HW125274   1.923   5.339   3.112
 8125SOL    HW225275   2.037   5.455   3.100
 8126SOL     OW25276   3.788   5.068   4.607
 8126SOL    HW125277   3.840   5.004   4.550
 8126SOL    HW225278   3.703   5.024   4.636
 8127SOL     OW25279   3.939   2.541   0.107
 8127SOL    HW125280   3.937   2.488   0.192
 8127SOL    HW225281   3.851   2.532   0.061
 8128SOL     OW25282   3.578   3.403   1.473
 8128SOL    HW125283   3.629   3.394   1.387
 8128SOL    HW225284   3.640   3.387   1.550
 8129SOL     OW25285   1.591   2.170   2.457
 8129SOL    HW125286   1.615   2.103   2.387
 8129SOL    HW225287   1.492   2.182   2.461
 8130SOL     OW25288   0.532   5.395   6.748
 8130SOL    HW125289   0.617   5.388   6.696
 8130SOL    HW225290   0.547   5.450   6.830
 8131SOL     OW25291   1.771   3.718   7.017
 8131SOL    HW125292   1.728   3.772   0.067
 8131SOL    HW225293   1.870   3.730   7.020
 8132SOL     OW25294   0.760   0.508   5.090
 8132SOL    HW125295   0.695   0.441   5.124
 8132SOL    HW225296   0.813   0.469   5.015
 8133SOL     OW25297   3.649   4.863   0.562
 8133SOL    HW125298   3.617   4.956   0.579
 8133SOL    HW225299   3.586   4.816   0.500
 8134SOL     OW25300   5.729   1.345   5.909
 8134SOL    HW125301   5.640   1.361   5.952
 8134SOL    HW225302   5.751   1.420   5.847
 8135SOL     OW25303   2.403   6.866   1.935
 8135SOL    HW125304   2.480   6.818   1.892
 8135SOL    HW225305   2.420   6.872   2.034
 8136SOL     OW25306   5.002   4.457   2.173
 8136SOL    HW125307   4.986   4.361   2.152
 8136SOL    HW225308   5.069   4.496   2.109
 8137SOL     OW25309   4.066   1.546   5.435
 8137SOL    HW125310   4.140   1.518   5.374
 8137SOL    HW225311   4.010   1.466   5.458
 8138SOL     OW25312   5.212   0.752   2.262
 8138SOL    HW125313   5.272   0.823   2.224
 8138SOL    HW225314   5.223   0.748   2.361
 8139SOL     OW25315   0.456   2.054   3.285
 8139SOL    HW125316   0.519   2.054   3.362
 8139SOL    HW225317   0.428   2.148   3.265
 8140SOL     OW25318   4.445   1.168   3.336
 8140SOL    HW125319   4.387   1.111   3.278
 8140SOL    HW225320   4.526   1.116   3.364
 8141SOL     OW25321   5.097   4.929   4.664
 8141SOL    HW125322   5.020   4.942   4.727
 8141SOL    HW225323   5.123   4.833   4.662
 8142SOL     OW25324   0.049   5.867   0.010
 8142SOL    HW125325   0.081   5.831   0.098
 8142SOL    HW225326   6.972   5.880   0.014
 8143SOL     OW25327   6.688   3.445   5.211
 8143SOL    HW125328   6.640   3.406   5.289
 8143SOL    HW225329   6.699   3.375   5.140
 8144SOL     OW25330   5.457   0.253   6.409
 8144SOL    HW125331   5.454   0.251   6.309
 8144SOL    HW225332   5.533   0.310   6.439
 8145SOL     OW25333   5.342   6.248   2.900
 8145SOL    HW125334   5.366   6.299   2.983
 8145SOL    HW225335   5.376   6.155   2.907
 8146SOL     OW25336   3.403   0.939   4.152
 8146SOL    HW125337   3.424   1.026   4.107
 8146SOL    HW225338   3.482   0.878   4.147
 8147SOL     OW25339   4.530   0.601   3.670
 8147SOL    HW125340   4.599   0.671   3.685
 8147SOL    HW225341   4.542   0.527   3.736
 8148SOL     OW25342   5.223   4.183   3.595
 8148SOL    HW125343   5.322   4.200   3.588
 8148SOL    HW225344   5.180   4.200   3.506
 8149SOL     OW25345   4.222   4.737   3.532
 8149SOL    HW125346   4.288   4.688   3.474
 8149SOL    HW225347   4.131   4.731   3.492
 8150SOL     OW25348   0.268   5.728   1.416
 8150SOL    HW125349   0.239   5.633   1.404
 8150SOL    HW225350   0.366   5.732   1.433
 8151SOL     OW25351   1.265   1.542   4.956
 8151SOL    HW125352   1.225   1.619   5.006
 8151SOL    HW225353   1.214   1.459   4.975
 8152SOL     OW25354   1.353   0.767   2.927
 8152SOL    HW125355   1.277   0.811   2.973
 8152SOL    HW225356   1.328   0.673   2.904
 8153SOL     OW25357   2.069   6.887   0.511
 8153SOL    HW125358   1.985   6.845   0.477
 8153SOL    HW225359   2.068   6.985   0.490
 8154SOL     OW25360   2.379   6.694   3.435
 8154SOL    HW125361   2.435   6.632   3.490
 8154SOL    HW225362   2.429   6.720   3.353
 8155SOL     OW25363   3.538   3.260   3.718
 8155SOL    HW125364   3.608   3.320   3.678
 8155SOL    HW225365   3.577   3.213   3.797
 8156SOL     OW25366   6.598   0.689   5.689
 8156SOL    HW125367   6.576   0.670   5.784
 8156SOL    HW225368   6.675   0.632   5.661
 8157SOL     OW25369   5.856   3.173   6.773
 8157SOL    HW125370   5.873   3.248   6.837
 8157SOL    HW225371   5.927   3.174   6.702
 8158SOL     OW25372   1.980   5.118   2.574
 8158SOL    HW125373   2.079   5.110   2.563
 8158SOL    HW225374   1.942   5.165   2.495
 8159SOL     OW25375   1.049   5.110   1.895
 8159SOL    HW125376   0.980   5.179   1.916
 8159SOL    HW225377   1.030   5.071   1.805
 8160SOL     OW25378   4.231   2.227   2.183
 8160SOL    HW125379   4.310   2.168   2.169
 8160SOL    HW225380   4.196   2.257   2.095
 8161SOL     OW25381   4.185   2.071   1.275
 8161SOL    HW125382   4.134   2.146   1.316
 8161SOL    HW225383   4.249   2.107   1.207
 8162SOL     OW25384   6.253   0.891   1.272
 8162SOL    HW125385   6.312   0.814   1.247
 8162SOL    HW225386   6.181   0.901   1.204
 8163SOL     OW25387   2.117   3.721   5.057
 8163SOL    HW125388   2.087   3.803   5.106
 8163SOL    HW225389   2.186   3.673   5.111
 8164SOL     OW25390   4.711   1.992   2.107
 8164SOL    HW125391   4.663   1.947   2.031
 8164SOL    HW225392   4.771   2.063   2.070
 8165SOL     OW25393   2.414   4.980   1.601
 8165SOL    HW125394   2.486   5.049   1.607
 8165SOL    HW225395   2.444   4.906   1.541
 8166SOL     OW25396   3.043   6.995   1.399
 8166SOL    HW125397   3.031   6.983   1.300
 8166SOL    HW225398   2.954   7.006   1.443
 8167SOL     OW25399   4.937   2.909   4.057
 8167SOL    HW125400   4.930   2.935   3.960
 8167SOL    HW225401   4.850   2.926   4.102
 8168SOL     OW25402   3.330   1.566   2.668
 8168SOL    HW125403   3.395   1.628   2.711
 8168SOL    HW225404   3.373   1.520   2.590
 8169SOL     OW25405   5.302   4.345   5.903
 8169SOL    HW125406   5.314   4.441   5.880
 8169SOL    HW225407   5.205   4.325   5.916
 8170SOL     OW25408   0.632   5.045   3.810
 8170SOL    HW125409   0.640   4.966   3.749
 8170SOL    HW225410   0.537   5.076   3.812
 8171SOL     OW25411   1.746   1.471   5.707
 8171SOL    HW125412   1.726   1.436   5.615
 8171SOL    HW225413   1.772   1.394   5.766
 8172SOL     OW25414   0.070   6.664   1.461
 8172SOL    HW125415   0.147   6.609   1.429
 8172SOL    HW225416   7.009   6.635   1.414
 8173SOL     OW25417   5.429   3.098   6.501
 8173SOL    HW125418   5.398   3.193   6.495
 8173SOL    HW225419   5.361   3.038   6.461
 8174SOL     OW25420   5.311   0.338   2.106
 8174SOL    HW125421   5.403   0.312   2.138
 8174SOL    HW225422   5.246   0.326   2.181
 8175SOL     OW25423   1.577   3.073   5.351
 8175SOL    HW125424   1.671   3.049   5.329
 8175SOL    HW225425   1.576   3.157   5.405
 8176SOL     OW25426   3.988   5.316   3.024
 8176SOL    HW125427   3.929   5.395   3.007
 8176SOL    HW225428   3.958   5.268   3.107
 8177SOL     OW25429   1.376   0.327   6.045
 8177SOL    HW125430   1.440   0.393   6.006
 8177SOL    HW225431   1.286   0.370   6.055
 8178SOL     OW25432   1.878   6.490   6.147
 8178SOL    HW125433   1.956   6.544   6.114
 8178SOL    HW225434   1.869   6.501   6.246
 8179SOL     OW25435   3.282   0.774   0.266
 8179SOL    HW125436   3.249   0.842   0.200
 8179SOL    HW225437   3.382   0.773   0.264
 8180SOL     OW25438   4.906   5.406   5.375
 8180SOL    HW125439   4.876   5.361   5.459
 8180SOL    HW225440   5.006   5.409   5.372
 8181SOL     OW25441   2.508   2.171   2.706
 8181SOL    HW125442   2.575   2.239   2.736
 8181SOL    HW225443   2.555   2.089   2.674
 8182SOL     OW25444   4.293   2.358   5.744
 8182SOL    HW125445   4.361   2.312   5.688
 8182SOL    HW225446   4.334   2.438   5.788
 8183SOL     OW25447   1.805   2.941   3.888
 8183SOL    HW125448   1.892   2.895   3.869
 8183SOL    HW225449   1.739   2.919   3.815
 8184SOL     OW25450   5.978   5.699   5.892
 8184SOL    HW125451   5.884   5.721   5.918
 8184SOL    HW225452   6.037   5.699   5.973
 8185SOL     OW25453   1.537   1.591   2.869
 8185SOL    HW125454   1.464   1.651   2.904
 8185SOL    HW225455   1.605   1.576   2.940
 8186SOL     OW25456   3.651   4.456   6.094
 8186SOL    HW125457   3.710   4.459   6.175
 8186SOL    HW225458   3.683   4.523   6.027
 8187SOL     OW25459   1.687   1.256   6.227
 8187SOL    HW125460   1.697   1.283   6.323
 8187SOL    HW225461   1.733   1.324   6.170
 8188SOL     OW25462   6.060   2.931   2.663
 8188SOL    HW125463   6.089   2.883   2.580
 8188SOL    HW225464   6.074   3.029   2.652
 8189SOL     OW25465   6.690   4.886   2.874
 8189SOL    HW125466   6.663   4.804   2.925
 8189SOL    HW225467   6.634   4.964   2.904
 8190SOL     OW25468   5.331   3.406   2.426
 8190SOL    HW125469   5.351   3.474   2.355
 8190SOL    HW225470   5.324   3.315   2.385
 8191SOL     OW25471   0.061   5.614   2.146
 8191SOL    HW125472   0.149   5.652   2.173
 8191SOL    HW225473   7.010   5.672   2.183
 8192SOL     OW25474   1.422   3.683   0.920
 8192SOL    HW125475   1.488   3.632   0.974
 8192SOL    HW225476   1.329   3.661   0.951
 8193SOL     OW25477   3.548   0.132   5.582
 8193SOL    HW125478   3.532   0.035   5.602
 8193SOL    HW225479   3.460   0.181   5.586
 8194SOL     OW25480   1.586   0.165   1.269
 8194SOL    HW125481   1.644   0.240   1.238
 8194SOL    HW225482   1.497   0.201   1.295
 8195SOL     OW25483   5.885   0.707   0.948
 8195SOL    HW125484   5.933   0.767   1.011
 8195SOL    HW225485   5.807   0.755   0.909
 8196SOL     OW25486   2.255   0.404   0.183
 8196SOL    HW125487   2.295   0.312   0.188
 8196SOL    HW225488   2.325   0.471   0.207
 8197SOL     OW25489   0.721   6.734   0.862
 8197SOL    HW125490   0.795   6.693   0.810
 8197SOL    HW225491   0.718   6.832   0.844
 8198SOL     OW25492   3.901   6.960   2.778
 8198SOL    HW125493   3.832   6.900   2.736
 8198SOL    HW225494   3.989   6.913   2.780
 8199SOL     OW25495   5.873   4.388   0.387
 8199SOL    HW125496   5.897   4.345   0.300
 8199SOL    HW225497   5.795   4.341   0.428
 8200SOL     OW25498   4.600   3.023   1.412
 8200SOL    HW125499   4.607   3.119   1.386
 8200SOL    HW225500   4.647   2.967   1.344
 8201SOL     OW25501   6.247   1.096   4.499
 8201SOL    HW125502   6.216   1.158   4.427
 8201SOL    HW225503   6.346   1.085   4.493
 8202SOL     OW25504   1.410   3.894   4.281
 8202SOL    HW125505   1.496   3.851   4.253
 8202SOL    HW225506   1.381   3.856   4.369
 8203SOL     OW25507   6.025   3.943   0.628
 8203SOL    HW125508   5.949   3.995   0.667
 8203SOL    HW225509   6.093   3.926   0.699
 8204SOL     OW25510   3.460   0.401   0.560
 8204SOL    HW125511   3.515   0.476   0.524
 8204SOL    HW225512   3.424   0.426   0.650
 8205SOL     OW25513   5.899   5.873   2.769
 8205SOL    HW125514   5.807   5.840   2.748
 8205SOL    HW225515   5.936   5.821   2.846
 8206SOL     OW25516   3.840   1.606   4.652
 8206SOL    HW125517   3.787   1.558   4.721
 8206SOL    HW225518   3.888   1.683   4.694
 8207SOL     OW25519   2.927   5.791   6.978
 8207SOL    HW125520   3.027   5.790   6.975
 8207SOL    HW225521   2.891   5.794   6.885
 8208SOL     OW25522   1.359   5.430   6.416
 8208SOL    HW125523   1.321   5.344   6.450
 8208SOL    HW225524   1.326   5.506   6.473
 8209SOL     OW25525   1.011   5.824   5.332
 8209SOL    HW125526   0.935   5.866   5.282
 8209SOL    HW225527   1.003   5.845   5.429
 8210SOL     OW25528   2.665   1.759   0.060
 8210SOL    HW125529   2.750   1.708   0.061
 8210SOL    HW225530   2.672   1.837   0.123
 8211SOL     OW25531   2.949   3.470   4.225
 8211SOL    HW125532   3.044   3.459   4.252
 8211SOL    HW225533   2.920   3.393   4.168
 8212SOL     OW25534   4.085   6.055   0.777
 8212SOL    HW125535   4.090   6.094   0.869
 8212SOL    HW225536   3.993   6.068   0.740
 8213SOL     OW25537   4.497   4.489   1.756
 8213SOL    HW125538   4.472   4.400   1.793
 8213SOL    HW225539   4.591   4.486   1.721
 8214SOL     OW25540   4.187   5.330   3.331
 8214SOL    HW125541   4.099   5.317   3.286
 8214SOL    HW225542   4.178   5.401   3.401
 8215SOL     OW25543   2.304   5.921   6.470
 8215SOL    HW125544   2.350   5.932   6.557
 8215SOL    HW225545   2.205   5.929   6.484
 8216SOL     OW25546   5.495   5.254   1.359
 8216SOL    HW125547   5.554   5.323   1.401
 8216SOL    HW225548   5.417   5.299   1.316
 8217SOL     OW25549   2.710   6.311   3.900
 8217SOL    HW125550   2.658   6.370   3.961
 8217SOL    HW225551   2.807   6.314   3.924
 8218SOL     OW25552   2.425   5.847   4.986
 8218SOL    HW125553   2.377   5.803   5.062
 8218SOL    HW225554   2.382   5.935   4.966
 8219SOL     OW25555   4.213   3.275   1.970
 8219SOL    HW125556   4.271   3.221   1.909
 8219SOL    HW225557   4.181   3.217   2.045
 8220SOL     OW25558   3.166   4.165   5.187
 8220SOL    HW125559   3.125   4.253   5.211
 8220SOL    HW225560   3.098   4.109   5.139
 8221SOL     OW25561   5.974   3.519   4.105
 8221SOL    HW125562   5.955   3.595   4.168
 8221SOL    HW225563   5.999   3.556   4.016
 8222SOL     OW25564   6.434   2.727   0.146
 8222SOL    HW125565   6.530   2.742   0.169
 8222SOL    HW225566   6.423   2.634   0.110
 8223SOL     OW25567   2.288   6.298   5.976
 8223SOL    HW125568   2.376   6.302   6.023
 8223SOL    HW225569   2.224   6.243   6.030
 8224SOL     OW25570   4.916   1.194   6.968
 8224SOL    HW125571   4.851   1.195   0.021
 8224SOL    HW225572   4.946   1.100   6.951
 8225SOL     OW25573   5.589   2.675   0.046
 8225SOL    HW125574   5.589   2.658   6.970
 8225SOL    HW225575   5.577   2.773   0.063
 8226SOL     OW25576   3.815   0.615   7.019
 8226SOL    HW125577   3.796   0.653   0.087
 8226SOL    HW225578   3.840   0.689   6.956
 8227SOL     OW25579   4.319   2.330   2.974
 8227SOL    HW125580   4.270   2.246   2.996
 8227SOL    HW225581   4.361   2.321   2.883
 8228SOL     OW25582   2.899   6.766   4.632
 8228SOL    HW125583   2.856   6.789   4.544
 8228SOL    HW225584   2.858   6.821   4.704
 8229SOL     OW25585   4.607   4.722   1.034
 8229SOL    HW125586   4.706   4.714   1.035
 8229SOL    HW225587   4.580   4.808   1.078
 8230SOL     OW25588   6.538   0.593   5.991
 8230SOL    HW125589   6.439   0.591   5.976
 8230SOL    HW225590   6.558   0.624   6.084
 8231SOL     OW25591   3.147   1.038   2.221
 8231SOL    HW125592   3.124   0.998   2.133
 8231SOL    HW225593   3.097   0.991   2.294
 8232SOL     OW25594   3.565   6.148   3.440
 8232SOL    HW125595   3.548   6.096   3.356
 8232SOL    HW225596   3.623   6.094   3.502
 8233SOL     OW25597   2.079   1.298   6.726
 8233SOL    HW125598   2.113   1.269   6.815
 8233SOL    HW225599   2.001   1.241   6.699
 8234SOL     OW25600   1.186   2.813   0.782
 8234SOL    HW125601   1.286   2.801   0.780
 8234SOL    HW225602   1.164   2.909   0.768
 8235SOL     OW25603   0.973   1.184   1.293
 8235SOL    HW125604   0.944   1.116   1.226
 8235SOL    HW225605   0.892   1.224   1.337
 8236SOL     OW25606   0.660   0.210   1.852
 8236SOL    HW125607   0.635   0.120   1.887
 8236SOL    HW225608   0.760   0.218   1.848
 8237SOL     OW25609   3.807   4.463   5.413
 8237SOL    HW125610   3.897   4.423   5.399
 8237SOL    HW225611   3.742   4.391   5.438
 8238SOL     OW25612   0.329   5.410   1.317
 8238SOL    HW125613   0.379   5.330   1.350
 8238SOL    HW225614   0.362   5.435   1.226
 8239SOL     OW25615   3.021   1.333   6.175
 8239SOL    HW125616   2.997   1.385   6.093
 8239SOL    HW225617   2.954   1.351   6.247
 8240SOL     OW25618   3.607   2.939   4.630
 8240SOL    HW125619   3.525   2.946   4.687
 8240SOL    HW225620   3.684   2.909   4.687
 8241SOL     OW25621   1.957   3.476   5.913
 8241SOL    HW125622   1.928   3.570   5.931
 8241SOL    HW225623   2.053   3.477   5.884
 8242SOL     OW25624   0.757   2.895   2.192
 8242SOL    HW125625   0.689   2.898   2.265
 8242SOL    HW225626   0.736   2.818   2.130
 8243SOL     OW25627   0.983   6.555   3.632
 8243SOL    HW125628   1.061   6.614   3.650
 8243SOL    HW225629   0.944   6.577   3.543
 8244SOL     OW25630   6.995   1.410   3.249
 8244SOL    HW125631   0.063   1.435   3.284
 8244SOL    HW225632   6.936   1.383   3.325
 8245SOL     OW25633   5.227   2.735   2.723
 8245SOL    HW125634   5.233   2.820   2.776
 8245SOL    HW225635   5.286   2.742   2.643
 8246SOL     OW25636   1.672   4.910   6.805
 8246SOL    HW125637   1.585   4.873   6.837
 8246SOL    HW225638   1.658   5.004   6.773
 8247SOL     OW25639   3.078   5.276   3.681
 8247SOL    HW125640   3.122   5.318   3.760
 8247SOL    HW225641   3.023   5.198   3.711
 8248SOL     OW25642   6.779   5.450   3.792
 8248SOL    HW125643   6.700   5.512   3.786
 8248SOL    HW225644   6.771   5.393   3.873
 8249SOL     OW25645   3.475   1.200   6.981
 8249SOL    HW125646   3.476   1.200   6.881
 8249SOL    HW225647   3.567   1.182   7.016
 8250SOL     OW25648   1.080   1.963   6.449
 8250SOL    HW125649   1.016   2.001   6.381
 8250SOL    HW225650   1.096   1.866   6.428
 8251SOL     OW25651   0.481   2.338   5.411
 8251SOL    HW125652   0.415   2.366   5.341
 8251SOL    HW225653   0.570   2.323   5.369
 8252SOL     OW25654   0.475   2.280   6.362
 8252SOL    HW125655   0.554   2.268   6.421
 8252SOL    HW225656   0.505   2.280   6.266
 8253SOL     OW25657   5.053   4.657   6.525
 8253SOL    HW125658   4.976   4.692   6.578
 8253SOL    HW225659   5.019   4.606   6.446
 8254SOL     OW25660   6.501   5.747   0.182
 8254SOL    HW125661   6.521   5.680   0.254
 8254SOL    HW225662   6.498   5.838   0.223
 8255SOL     OW25663   1.564   0.442   5.727
 8255SOL    HW125664   1.634   0.487   5.672
 8255SOL    HW225665   1.576   0.466   5.823
 8256SOL     OW25666   0.980   6.122   4.571
 8256SOL    HW125667   1.051   6.164   4.628
 8256SOL    HW225668   0.970   6.174   4.487
 8257SOL     OW25669   4.914   3.908   3.667
 8257SOL    HW125670   4.882   3.957   3.748
 8257SOL    HW225671   5.014   3.905   3.667
 8258SOL     OW25672   0.372   2.743   3.565
 8258SOL    HW125673   0.282   2.769   3.600
 8258SOL    HW225674   0.377   2.644   3.557
 8259SOL     OW25675   5.644   2.118   4.354
 8259SOL    HW125676   5.731   2.110   4.305
 8259SOL    HW225677   5.568   2.115   4.289
 8260SOL     OW25678   4.969   3.242   0.534
 8260SOL    HW125679   4.913   3.186   0.596
 8260SOL    HW225680   5.041   3.288   0.586
 8261SOL     OW25681   6.182   1.394   2.397
 8261SOL    HW125682   6.267   1.437   2.368
 8261SOL    HW225683   6.199   1.299   2.423
 8262SOL     OW25684   5.357   4.156   2.162
 8262SOL    HW125685   5.377   4.186   2.256
 8262SOL    HW225686   5.384   4.228   2.098
 8263SOL     OW25687   6.652   1.829   5.982
 8263SOL    HW125688   6.731   1.789   5.936
 8263SOL    HW225689   6.576   1.837   5.917
 8264SOL     OW25690   3.088   0.498   1.863
 8264SOL    HW125691   3.114   0.589   1.897
 8264SOL    HW225692   3.171   0.444   1.849
 8265SOL     OW25693   4.489   5.476   0.445
 8265SOL    HW125694   4.548   5.400   0.471
 8265SOL    HW225695   4.397   5.461   0.481
 8266SOL     OW25696   3.919   1.144   3.413
 8266SOL    HW125697   3.889   1.052   3.437
 8266SOL    HW225698   4.011   1.159   3.449
 8267SOL     OW25699   1.676   2.467   3.268
 8267SOL    HW125700   1.582   2.494   3.288
 8267SOL    HW225701   1.707   2.400   3.335
 8268SOL     OW25702   3.288   4.813   6.641
 8268SOL    HW125703   3.203   4.821   6.694
 8268SOL    HW225704   3.291   4.723   6.596
 8269SOL     OW25705   6.246   2.166   5.274
 8269SOL    HW125706   6.312   2.231   5.310
 8269SOL    HW225707   6.279   2.130   5.187
 8270SOL     OW25708   4.458   5.321   0.038
 8270SOL    HW125709   4.493   5.415   0.041
 8270SOL    HW225710   4.363   5.322   0.009
 8271SOL     OW25711   3.180   6.714   6.001
 8271SOL    HW125712   3.203   6.804   5.966
 8271SOL    HW225713   3.137   6.723   6.091
 8272SOL     OW25714   0.717   0.397   2.059
 8272SOL    HW125715   0.680   0.312   2.023
 8272SOL    HW225716   0.673   0.420   2.145
 8273SOL     OW25717   3.600   0.255   6.941
 8273SOL    HW125718   3.680   0.310   6.921
 8273SOL    HW225719   3.626   0.178   6.999
 8274SOL     OW25720   5.327   5.854   5.377
 8274SOL    HW125721   5.337   5.952   5.357
 8274SOL    HW225722   5.277   5.810   5.302
 8275SOL     OW25723   5.225   1.313   4.930
 8275SOL    HW125724   5.148   1.367   4.897
 8275SOL    HW225725   5.193   1.249   5.001
 8276SOL     OW25726   6.267   2.105   0.003
 8276SOL    HW125727   6.225   2.090   6.935
 8276SOL    HW225728   6.338   2.174   7.018
 8277SOL     OW25729   1.527   6.438   1.107
 8277SOL    HW125730   1.588   6.493   1.164
 8277SOL    HW225731   1.496   6.493   1.030
 8278SOL     OW25732   2.000   0.857   0.987
 8278SOL    HW125733   2.034   0.829   1.076
 8278SOL    HW225734   2.071   0.907   0.938
 8279SOL     OW25735   4.266   6.007   5.818
 8279SOL    HW125736   4.266   6.104   5.842
 8279SOL    HW225737   4.325   5.993   5.738
 8280SOL     OW25738   5.117   4.011   0.104
 8280SOL    HW125739   5.030   4.042   0.142
 8280SOL    HW225740   5.105   3.992   0.006
 8281SOL     OW25741   2.845   5.656   6.321
 8281SOL    HW125742   2.777   5.704   6.377
 8281SOL    HW225743   2.932   5.651   6.371
 8282SOL     OW25744   3.302   2.973   1.727
 8282SOL    HW125745   3.366   2.914   1.776
 8282SOL    HW225746   3.341   3.000   1.639
 8283SOL     OW25747   0.454   0.292   3.565
 8283SOL    HW125748   0.535   0.238   3.543
 8283SOL    HW225749   0.452   0.374   3.507
 8284SOL     OW25750   4.551   1.870   1.906
 8284SOL    HW125751   4.521   1.920   1.825
 8284SOL    HW225752   4.533   1.773   1.894
 8285SOL     OW25753   1.084   4.272   0.686
 8285SOL    HW125754   1.091   4.205   0.759
 8285SOL    HW225755   1.171   4.276   0.636
 8286SOL     OW25756   6.523   2.150   6.278
 8286SOL    HW125757   6.506   2.202   6.362
 8286SOL    HW225758   6.518   2.212   6.199
 8287SOL     OW25759   1.560   1.373   3.223
 8287SOL    HW125760   1.633   1.334   3.167
 8287SOL    HW225761   1.588   1.372   3.319
 8288SOL     OW25762   2.027   0.592   2.908
 8288SOL    HW125763   2.051   0.498   2.884
 8288SOL    HW225764   2.106   0.652   2.891
 8289SOL     OW25765   5.579   0.039   0.051
 8289SOL    HW125766   5.545   0.032   6.980
 8289SOL    HW225767   5.604   0.135   0.070
 8290SOL     OW25768   4.692   2.527   2.009
 8290SOL    HW125769   4.751   2.564   2.081
 8290SOL    HW225770   4.672   2.599   1.942
 8291SOL     OW25771   4.746   6.199   6.643
 8291SOL    HW125772   4.778   6.270   6.581
 8291SOL    HW225773   4.795   6.113   6.624
 8292SOL     OW25774   0.260   3.059   5.467
 8292SOL    HW125775   0.345   3.018   5.501
 8292SOL    HW225776   0.202   3.083   5.545
 8293SOL     OW25777   2.764   5.500   4.447
 8293SOL    HW125778   2.670   5.468   4.437
 8293SOL    HW225779   2.819   5.427   4.488
 8294SOL     OW25780   5.592   3.595   5.372
 8294SOL    HW125781   5.597   3.502   5.407
 8294SOL    HW225782   5.653   3.654   5.425
 8295SOL     OW25783   4.416   4.794   2.910
 8295SOL    HW125784   4.407   4.698   2.883
 8295SOL    HW225785   4.484   4.802   2.983
 8296SOL     OW25786   3.873   0.194   2.352
 8296SOL    HW125787   3.781   0.231   2.336
 8296SOL    HW225788   3.897   0.206   2.449
 8297SOL     OW25789   5.387   4.611   2.424
 8297SOL    HW125790   5.471   4.579   2.468
 8297SOL    HW225791   5.308   4.569   2.468
 8298SOL     OW25792   6.452   6.857   0.452
 8298SOL    HW125793   6.370   6.807   0.480
 8298SOL    HW225794   6.432   6.909   0.369
 8299SOL     OW25795   1.291   3.502   6.880
 8299SOL    HW125796   1.292   3.402   6.882
 8299SOL    HW225797   1.375   3.537   6.922
 8300SOL     OW25798   6.138   5.020   4.044
 8300SOL    HW125799   6.061   4.963   4.073
 8300SOL    HW225800   6.215   4.961   4.019
 8301SOL     OW25801   6.237   6.002   0.422
 8301SOL    HW125802   6.158   5.944   0.444
 8301SOL    HW225803   6.249   6.072   0.492
 8302SOL     OW25804   4.095   6.626   5.100
 8302SOL    HW125805   4.039   6.603   5.021
 8302SOL    HW225806   4.191   6.636   5.072
 8303SOL     OW25807   0.410   5.030   3.579
 8303SOL    HW125808   0.329   5.026   3.638
 8303SOL    HW225809   0.435   4.938   3.549
 8304SOL     OW25810   6.228   3.107   3.719
 8304SOL    HW125811   6.261   3.202   3.719
 8304SOL    HW225812   6.306   3.046   3.733
 8305SOL     OW25813   4.840   0.137   5.818
 8305SOL    HW125814   4.909   0.145   5.890
 8305SOL    HW225815   4.765   0.079   5.850
 8306SOL     OW25816   6.349   0.738   3.898
 8306SOL    HW125817   6.445   0.722   3.922
 8306SOL    HW225818   6.335   0.835   3.880
 8307SOL     OW25819   1.302   3.689   3.211
 8307SOL    HW125820   1.359   3.724   3.137
 8307SOL    HW225821   1.273   3.765   3.270
 8308SOL     OW25822   1.214   5.330   0.571
 8308SOL    HW125823   1.130   5.278   0.556
 8308SOL    HW225824   1.198   5.426   0.545
 8309SOL     OW25825   6.261   5.290   4.345
 8309SOL    HW125826   6.308   5.223   4.288
 8309SOL    HW225827   6.163   5.289   4.323
 8310SOL     OW25828   2.808   0.156   2.825
 8310SOL    HW125829   2.720   0.154   2.873
 8310SOL    HW225830   2.830   0.064   2.792
 8311SOL     OW25831   4.268   5.695   2.873
 8311SOL    HW125832   4.259   5.617   2.935
 8311SOL    HW225833   4.177   5.726   2.845
 8312SOL     OW25834   6.108   2.103   0.759
 8312SOL    HW125835   6.057   2.018   0.772
 8312SOL    HW225836   6.153   2.102   0.670
 8313SOL     OW25837   5.503   2.537   6.284
 8313SOL    HW125838   5.597   2.539   6.318
 8313SOL    HW225839   5.501   2.494   6.194
 8314SOL     OW25840   4.382   5.824   4.362
 8314SOL    HW125841   4.283   5.813   4.348
 8314SOL    HW225842   4.427   5.737   4.344
 8315SOL     OW25843   2.995   2.919   5.567
 8315SOL    HW125844   2.974   2.837   5.514
 8315SOL    HW225845   2.956   2.910   5.659
 8316SOL     OW25846   2.076   2.044   5.277
 8316SOL    HW125847   2.113   1.951   5.280
 8316SOL    HW225848   1.976   2.040   5.269
 8317SOL     OW25849   1.168   2.057   3.927
 8317SOL    HW125850   1.194   2.095   4.016
 8317SOL    HW225851   1.229   1.982   3.903
 8318SOL     OW25852   4.374   6.674   5.982
 8318SOL    HW125853   4.414   6.628   6.062
 8318SOL    HW225854   4.277   6.652   5.977
 8319SOL     OW25855   2.031   5.247   6.369
 8319SOL    HW125856   1.960   5.314   6.393
 8319SOL    HW225857   2.111   5.262   6.427
 8320SOL     OW25858   3.812   3.739   5.666
 8320SOL    HW125859   3.791   3.643   5.647
 8320SOL    HW225860   3.737   3.796   5.634
 8321SOL     OW25861   0.577   0.529   0.971
 8321SOL    HW125862   0.661   0.490   0.933
 8321SOL    HW225863   0.600   0.587   1.049
 8322SOL     OW25864   1.464   0.283   0.663
 8322SOL    HW125865   1.561   0.284   0.685
 8322SOL    HW225866   1.411   0.308   0.744
 8323SOL     OW25867   5.343   4.337   6.403
 8323SOL    HW125868   5.370   4.249   6.442
 8323SOL    HW225869   5.287   4.322   6.322
 8324SOL     OW25870   5.584   6.550   0.058
 8324SOL    HW125871   5.556   6.550   0.154
 8324SOL    HW225872   5.633   6.635   0.038
 8325SOL     OW25873   1.590   6.642   4.781
 8325SOL    HW125874   1.689   6.637   4.788
 8325SOL    HW225875   1.550   6.641   4.872
 8326SOL     OW25876   2.237   2.879   6.579
 8326SOL    HW125877   2.258   2.864   6.676
 8326SOL    HW225878   2.169   2.812   6.549
 8327SOL     OW25879   0.325   6.461   4.946
 8327SOL    HW125880   0.389   6.386   4.929
 8327SOL    HW225881   0.354   6.542   4.895
 8328SOL     OW25882   1.535   6.061   0.416
 8328SOL    HW125883   1.521   6.048   0.318
 8328SOL    HW225884   1.510   6.154   0.441
 8329SOL     OW25885   1.849   2.399   4.940
 8329SOL    HW125886   1.913   2.335   4.982
 8329SOL    HW225887   1.823   2.469   5.006
 8330SOL     OW25888   2.516   6.612   6.929
 8330SOL    HW125889   2.524   6.648   7.022
 8330SOL    HW225890   2.543   6.682   6.863
 8331SOL     OW25891   2.509   2.135   6.309
 8331SOL    HW125892   2.429   2.122   6.368
 8331SOL    HW225893   2.481   2.183   6.226
 8332SOL     OW25894   6.275   4.249   1.349
 8332SOL    HW125895   6.331   4.268   1.429
 8332SOL    HW225896   6.186   4.212   1.378
 8333SOL     OW25897   2.359   4.192   6.672
 8333SOL    HW125898   2.430   4.122   6.665
 8333SOL    HW225899   2.371   4.243   6.757
 8334SOL     OW25900   3.407   2.307   5.309
 8334SOL    HW125901   3.316   2.323   5.270
 8334SOL    HW225902   3.453   2.235   5.257
 8335SOL     OW25903   5.504   4.838   5.544
 8335SOL    HW125904   5.469   4.880   5.460
 8335SOL    HW225905   5.600   4.813   5.531
 8336SOL     OW25906   1.172   3.323   3.751
 8336SOL    HW125907   1.157   3.419   3.727
 8336SOL    HW225908   1.199   3.316   3.847
 8337SOL     OW25909   6.517   1.014   4.462
 8337SOL    HW125910   6.590   0.978   4.405
 8337SOL    HW225911   6.534   0.990   4.558
 8338SOL     OW25912   2.426   5.975   0.951
 8338SOL    HW125913   2.473   5.905   1.004
 8338SOL    HW225914   2.346   6.007   1.003
 8339SOL     OW25915   5.871   0.255   2.087
 8339SOL    HW125916   5.791   0.283   2.141
 8339SOL    HW225917   5.862   0.290   1.994
 8340SOL     OW25918   5.763   2.521   6.378
 8340SOL    HW125919   5.832   2.590   6.356
 8340SOL    HW225920   5.805   2.430   6.372
 8341SOL     OW25921   3.908   1.249   0.621
 8341SOL    HW125922   3.978   1.319   0.615
 8341SOL    HW225923   3.903   1.214   0.715
 8342SOL     OW25924   4.130   0.469   0.350
 8342SOL    HW125925   4.126   0.461   0.251
 8342SOL    HW225926   4.127   0.378   0.391
 8343SOL     OW25927   5.560   4.701   2.969
 8343SOL    HW125928   5.523   4.620   2.924
 8343SOL    HW225929   5.485   4.760   2.998
 8344SOL     OW25930   1.498   5.110   5.689
 8344SOL    HW125931   1.552   5.170   5.631
 8344SOL    HW225932   1.546   5.023   5.701
 8345SOL     OW25933   5.778   0.541   3.785
 8345SOL    HW125934   5.827   0.456   3.805
 8345SOL    HW225935   5.840   0.604   3.738
 8346SOL     OW25936   5.229   3.495   4.222
 8346SOL    HW125937   5.194   3.415   4.175
 8346SOL    HW225938   5.328   3.484   4.237
 8347SOL     OW25939   2.015   1.733   5.710
 8347SOL    HW125940   1.948   1.768   5.644
 8347SOL    HW225941   2.045   1.641   5.682
 8348SOL     OW25942   2.605   5.792   1.922
 8348SOL    HW125943   2.569   5.721   1.982
 8348SOL    HW225944   2.624   5.753   1.831
 8349SOL     OW25945   5.345   6.333   1.838
 8349SOL    HW125946   5.404   6.255   1.856
 8349SOL    HW225947   5.282   6.310   1.763
 8350SOL     OW25948   1.215   0.107   0.270
 8350SOL    HW125949   1.223   0.098   0.171
 8350SOL    HW225950   1.142   0.171   0.292
 8351SOL     OW25951   0.364   2.051   2.865
 8351SOL    HW125952   0.406   2.112   2.798
 8351SOL    HW225953   0.422   2.047   2.947
 8352SOL     OW25954   2.425   6.208   7.013
 8352SOL    HW125955   2.513   6.254   7.005
 8352SOL    HW225956   2.398   6.203   0.087
 8353SOL     OW25957   0.553   5.904   1.996
 8353SOL    HW125958   0.651   5.908   2.015
 8353SOL    HW225959   0.510   5.990   2.024
 8354SOL     OW25960   4.146   1.447   3.537
 8354SOL    HW125961   4.078   1.487   3.476
 8354SOL    HW225962   4.125   1.351   3.553
 8355SOL     OW25963   3.508   5.307   6.236
 8355SOL    HW125964   3.485   5.334   6.143
 8355SOL    HW225965   3.567   5.226   6.234
 8356SOL     OW25966   2.868   4.648   1.085
 8356SOL    HW125967   2.838   4.622   1.177
 8356SOL    HW225968   2.824   4.734   1.060
 8357SOL     OW25969   4.651   0.082   5.345
 8357SOL    HW125970   4.704   0.001   5.371
 8357SOL    HW225971   4.668   0.156   5.411
 8358SOL     OW25972   0.803   0.419   5.604
 8358SOL    HW125973   0.753   0.335   5.623
 8358SOL    HW225974   0.888   0.397   5.557
 8359SOL     OW25975   4.377   1.493   5.840
 8359SOL    HW125976   4.413   1.569   5.895
 8359SOL    HW225977   4.440   1.473   5.765
 8360SOL     OW25978   4.321   0.135   1.167
 8360SOL    HW125979   4.230   0.102   1.144
 8360SOL    HW225980   4.346   0.210   1.106
 8361SOL     OW25981   4.861   1.627   6.912
 8361SOL    HW125982   4.877   1.724   6.898
 8361SOL    HW225983   4.920   1.594   6.986
 8362SOL     OW25984   6.605   3.773   1.337
 8362SOL    HW125985   6.509   3.753   1.353
 8362SOL    HW225986   6.613   3.840   1.263
 8363SOL     OW25987   1.587   2.387   1.368
 8363SOL    HW125988   1.621   2.478   1.393
 8363SOL    HW225989   1.601   2.324   1.445
 8364SOL     OW25990   0.508   1.841   4.657
 8364SOL    HW125991   0.480   1.913   4.594
 8364SOL    HW225992   0.607   1.846   4.672
 8365SOL     OW25993   1.598   2.210   1.571
 8365SOL    HW125994   1.615   2.111   1.574
 8365SOL    HW225995   1.605   2.247   1.663
 8366SOL     OW25996   5.434   5.250   2.113
 8366SOL    HW125997   5.404   5.154   2.122
 8366SOL    HW225998   5.506   5.256   2.044
 8367SOL     OW25999   2.048   4.467   3.547
 8367SOL    HW126000   2.033   4.406   3.469
 8367SOL    HW226001   2.093   4.550   3.516
 8368SOL     OW26002   5.877   5.368   5.668
 8368SOL    HW126003   5.809   5.301   5.639
 8368SOL    HW226004   5.906   5.423   5.589
 8369SOL     OW26005   2.242   6.668   0.612
 8369SOL    HW126006   2.169   6.717   0.565
 8369SOL    HW226007   2.224   6.667   0.710
 8370SOL     OW26008   2.799   3.403   0.897
 8370SOL    HW126009   2.768   3.359   0.982
 8370SOL    HW226010   2.766   3.497   0.895
 8371SOL     OW26011   2.793   3.684   6.251
 8371SOL    HW126012   2.720   3.688   6.183
 8371SOL    HW226013   2.775   3.749   6.324
 8372SOL     OW26014   1.382   6.193   1.165
 8372SOL    HW126015   1.396   6.283   1.124
 8372SOL    HW226016   1.453   6.130   1.132
 8373SOL     OW26017   6.640   1.514   3.915
 8373SOL    HW126018   6.556   1.536   3.864
 8373SOL    HW226019   6.655   1.415   3.913
 8374SOL     OW26020   0.357   0.921   3.935
 8374SOL    HW126021   0.281   0.950   3.878
 8374SOL    HW226022   0.442   0.925   3.882
 8375SOL     OW26023   2.218   1.636   4.998
 8375SOL    HW126024   2.191   1.726   4.964
 8375SOL    HW226025   2.157   1.610   5.073
 8376SOL     OW26026   0.723   2.096   3.967
 8376SOL    HW126027   0.698   2.009   4.010
 8376SOL    HW226028   0.820   2.093   3.942
 8377SOL     OW26029   4.145   5.422   6.682
 8377SOL    HW126030   4.171   5.499   6.624
 8377SOL    HW226031   4.067   5.449   6.740
 8378SOL     OW26032   4.588   6.002   4.814
 8378SOL    HW126033   4.664   5.977   4.874
 8378SOL    HW226034   4.579   5.935   4.741
 8379SOL     OW26035   6.114   1.958   1.801
 8379SOL    HW126036   6.189   1.997   1.748
 8379SOL    HW226037   6.033   1.949   1.742
 8380SOL     OW26038   0.249   6.159   1.542
 8380SOL    HW126039   0.277   6.090   1.609
 8380SOL    HW226040   0.206   6.114   1.463
 8381SOL     OW26041   0.622   1.572   2.825
 8381SOL    HW126042   0.535   1.589   2.779
 8381SOL    HW226043   0.618   1.484   2.872
 8382SOL     OW26044   0.958   0.301   1.563
 8382SOL    HW126045   0.923   0.277   1.654
 8382SOL    HW226046   0.884   0.296   1.496
 8383SOL     OW26047   2.767   6.872   6.096
 8383SOL    HW126048   2.756   6.960   6.050
 8383SOL    HW226049   2.684   6.817   6.085
 8384SOL     OW26050   0.632   3.872   3.076
 8384SOL    HW126051   0.701   3.847   3.142
 8384SOL    HW226052   0.667   3.944   3.016
 8385SOL     OW26053   4.163   2.276   1.913
 8385SOL    HW126054   4.235   2.299   1.847
 8385SOL    HW226055   4.074   2.285   1.869
 8386SOL     OW26056   2.572   6.060   1.876
 8386SOL    HW126057   2.592   6.109   1.961
 8386SOL    HW226058   2.511   5.983   1.896
 8387SOL     OW26059   1.117   1.326   3.698
 8387SOL    HW126060   1.187   1.357   3.635
 8387SOL    HW226061   1.151   1.333   3.792
 8388SOL     OW26062   3.611   5.354   0.949
 8388SOL    HW126063   3.710   5.346   0.946
 8388SOL    HW226064   3.585   5.449   0.931
 8389SOL     OW26065   0.532   2.818   4.632
 8389SOL    HW126066   0.594   2.740   4.642
 8389SOL    HW226067   0.449   2.789   4.583
 8390SOL     OW26068   2.613   0.018   5.801
 8390SOL    HW126069   2.566   6.955   5.823
 8390SOL    HW226070   2.711   0.001   5.792
 8391SOL     OW26071   5.424   5.706   1.040
 8391SOL    HW126072   5.498   5.644   1.067
 8391SOL    HW226073   5.458   5.800   1.038
 8392SOL     OW26074   4.646   6.284   0.074
 8392SOL    HW126075   4.705   6.257   7.021
 8392SOL    HW226076   4.702   6.316   0.151
 8393SOL     OW26077   0.355   4.815   3.088
 8393SOL    HW126078   0.305   4.745   3.037
 8393SOL    HW226079   0.300   4.842   3.168
 8394SOL     OW26080   1.002   1.374   2.696
 8394SOL    HW126081   0.960   1.447   2.644
 8394SOL    HW226082   0.945   1.351   2.774
 8395SOL     OW26083   0.885   6.326   5.663
 8395SOL    HW126084   0.841   6.246   5.703
 8395SOL    HW226085   0.882   6.319   5.563
 8396SOL     OW26086   4.439   2.719   1.633
 8396SOL    HW126087   4.480   2.748   1.547
 8396SOL    HW226088   4.360   2.660   1.614
 8397SOL     OW26089   2.433   5.193   3.730
 8397SOL    HW126090   2.514   5.155   3.777
 8397SOL    HW226091   2.359   5.127   3.735
 8398SOL     OW26092   5.913   1.344   0.062
 8398SOL    HW126093   5.937   1.299   0.149
 8398SOL    HW226094   5.815   1.364   0.061
 8399SOL     OW26095   5.489   5.983   0.062
 8399SOL    HW126096   5.501   6.023   0.153
 8399SOL    HW226097   5.570   6.001   0.007
 8400SOL     OW26098   6.086   6.585   4.250
 8400SOL    HW126099   6.185   6.578   4.244
 8400SOL    HW226100   6.050   6.627   4.167
 8401SOL     OW26101   2.878   4.322   6.030
 8401SOL    HW126102   2.837   4.231   6.032
 8401SOL    HW226103   2.938   4.330   5.951
 8402SOL     OW26104   4.538   0.941   6.130
 8402SOL    HW126105   4.627   0.956   6.173
 8402SOL    HW226106   4.538   0.852   6.084
 8403SOL     OW26107   1.143   2.357   4.814
 8403SOL    HW126108   1.070   2.325   4.754
 8403SOL    HW226109   1.185   2.439   4.776
 8404SOL     OW26110   4.630   5.058   5.297
 8404SOL    HW126111   4.686   5.069   5.215
 8404SOL    HW226112   4.668   5.114   5.371
 8405SOL     OW26113   1.263   2.488   4.530
 8405SOL    HW126114   1.268   2.477   4.431
 8405SOL    HW226115   1.220   2.409   4.571
 8406SOL     OW26116   5.124   3.823   1.257
 8406SOL    HW126117   5.190   3.838   1.331
 8406SOL    HW226118   5.065   3.746   1.281
 8407SOL     OW26119   4.858   3.400   2.725
 8407SOL    HW126120   4.776   3.343   2.721
 8407SOL    HW226121   4.842   3.484   2.673
 8408SOL     OW26122   5.051   4.247   4.357
 8408SOL    HW126123   5.092   4.209   4.440
 8408SOL    HW226124   5.108   4.321   4.322
 8409SOL     OW26125   0.575   1.564   4.016
 8409SOL    HW126126   0.654   1.525   3.969
 8409SOL    HW226127   0.491   1.522   3.981
 8410SOL     OW26128   2.298   6.547   2.603
 8410SOL    HW126129   2.344   6.550   2.692
 8410SOL    HW226130   2.221   6.483   2.608
 8411SOL     OW26131   1.734   2.965   3.449
 8411SOL    HW126132   1.794   3.044   3.442
 8411SOL    HW226133   1.683   2.954   3.363
 8412SOL     OW26134   6.231   3.048   2.459
 8412SOL    HW126135   6.230   2.948   2.454
 8412SOL    HW226136   6.292   3.084   2.389
 8413SOL     OW26137   2.531   4.747   1.502
 8413SOL    HW126138   2.562   4.742   1.596
 8413SOL    HW226139   2.500   4.657   1.471
 8414SOL     OW26140   5.711   7.018   3.035
 8414SOL    HW126141   5.620   0.013   2.997
 8414SOL    HW226142   5.759   6.952   2.977
 8415SOL     OW26143   6.344   3.844   1.904
 8415SOL    HW126144   6.382   3.757   1.874
 8415SOL    HW226145   6.246   3.833   1.921
 8416SOL     OW26146   4.573   4.455   2.401
 8416SOL    HW126147   4.560   4.429   2.497
 8416SOL    HW226148   4.618   4.381   2.352
 8417SOL     OW26149   2.227   5.367   6.651
 8417SOL    HW126150   2.310   5.383   6.596
 8417SOL    HW226151   2.217   5.269   6.669
 8418SOL     OW26152   6.080   5.910   3.076
 8418SOL    HW126153   6.046   6.003   3.088
 8418SOL    HW226154   6.105   5.896   2.980
 8419SOL     OW26155   4.992   0.500   3.980
 8419SOL    HW126156   5.068   0.510   3.915
 8419SOL    HW226157   5.002   0.414   4.028
 8420SOL     OW26158   3.324   2.042   5.706
 8420SOL    HW126159   3.400   2.059   5.643
 8420SOL    HW226160   3.339   2.093   5.790
 8421SOL     OW26161   0.814   6.860   1.520
 8421SOL    HW126162   0.742   6.925   1.548
 8421SOL    HW226163   0.894   6.910   1.488
 8422SOL     OW26164   4.336   0.199   1.416
 8422SOL    HW126165   4.278   0.280   1.422
 8422SOL    HW226166   4.318   0.152   1.330
 8423SOL     OW26167   1.791   3.739   1.533
 8423SOL    HW126168   1.857   3.664   1.536
 8423SOL    HW226169   1.735   3.731   1.451
 8424SOL     OW26170   2.844   2.287   2.310
 8424SOL    HW126171   2.854   2.363   2.374
 8424SOL    HW226172   2.853   2.322   2.216
 8425SOL     OW26173   6.400   4.545   6.576
 8425SOL    HW126174   6.417   4.642   6.560
 8425SOL    HW226175   6.435   4.519   6.666
 8426SOL     OW26176   4.065   3.775   2.528
 8426SOL    HW126177   4.081   3.677   2.542
 8426SOL    HW226178   4.038   3.817   2.614
 8427SOL     OW26179   2.053   2.697   6.500
 8427SOL    HW126180   1.975   2.667   6.555
 8427SOL    HW226181   2.093   2.617   6.454
 8428SOL     OW26182   6.220   4.463   2.023
 8428SOL    HW126183   6.199   4.520   1.943
 8428SOL    HW226184   6.182   4.372   2.009
 8429SOL     OW26185   2.871   6.536   3.119
 8429SOL    HW126186   2.786   6.551   3.168
 8429SOL    HW226187   2.865   6.451   3.066
 8430SOL     OW26188   5.192   4.124   3.315
 8430SOL    HW126189   5.290   4.114   3.301
 8430SOL    HW226190   5.149   4.033   3.318
 8431SOL     OW26191   2.811   3.461   1.747
 8431SOL    HW126192   2.857   3.423   1.667
 8431SOL    HW226193   2.719   3.489   1.723
 8432SOL     OW26194   4.566   6.907   0.544
 8432SOL    HW126195   4.654   6.875   0.511
 8432SOL    HW226196   4.580   6.972   0.619
 8433SOL     OW26197   1.304   1.775   4.253
 8433SOL    HW126198   1.253   1.861   4.248
 8433SOL    HW226199   1.293   1.736   4.344
 8434SOL     OW26200   5.190   6.167   6.621
 8434SOL    HW126201   5.154   6.211   6.704
 8434SOL    HW226202   5.289   6.160   6.627
 8435SOL     OW26203   5.363   2.952   1.654
 8435SOL    HW126204   5.267   2.966   1.632
 8435SOL    HW226205   5.417   3.030   1.620
 8436SOL     OW26206   3.162   4.456   1.659
 8436SOL    HW126207   3.224   4.379   1.671
 8436SOL    HW226208   3.085   4.447   1.722
 8437SOL     OW26209   6.690   1.620   1.134
 8437SOL    HW126210   6.717   1.669   1.052
 8437SOL    HW226211   6.769   1.613   1.196
 8438SOL     OW26212   2.140   6.404   1.026
 8438SOL    HW126213   2.162   6.394   0.929
 8438SOL    HW226214   2.041   6.407   1.038
 8439SOL     OW26215   6.528   0.273   2.201
 8439SOL    HW126216   6.455   0.205   2.208
 8439SOL    HW226217   6.520   0.322   2.115
 8440SOL     OW26218   6.802   2.112   4.164
 8440SOL    HW126219   6.788   2.198   4.214
 8440SOL    HW226220   6.820   2.038   4.230
 8441SOL     OW26221   4.358   5.436   2.064
 8441SOL    HW126222   4.352   5.497   2.144
 8441SOL    HW226223   4.447   5.447   2.021
 8442SOL     OW26224   1.876   3.491   0.223
 8442SOL    HW126225   1.811   3.567   0.231
 8442SOL    HW226226   1.836   3.419   0.167
 8443SOL     OW26227   0.623   2.058   2.025
 8443SOL    HW126228   0.614   1.978   2.085
 8443SOL    HW226229   0.704   2.110   2.050
 8444SOL     OW26230   4.730   0.963   2.711
 8444SOL    HW126231   4.667   1.016   2.653
 8444SOL    HW226232   4.789   1.026   2.761
 8445SOL     OW26233   4.591   5.713   1.750
 8445SOL    HW126234   4.543   5.793   1.784
 8445SOL    HW226235   4.690   5.726   1.758
 8446SOL     OW26236   6.518   4.044   3.197
 8446SOL    HW126237   6.505   3.944   3.201
 8446SOL    HW226238   6.568   4.068   3.114
 8447SOL     OW26239   4.558   3.245   1.268
 8447SOL    HW126240   4.554   3.249   1.169
 8447SOL    HW226241   4.615   3.320   1.302
 8448SOL     OW26242   1.501   2.871   5.786
 8448SOL    HW126243   1.444   2.805   5.738
 8448SOL    HW226244   1.485   2.962   5.748
 8449SOL     OW26245   1.426   1.494   4.686
 8449SOL    HW126246   1.369   1.532   4.760
 8449SOL    HW226247   1.407   1.543   4.601
 8450SOL     OW26248   2.352   5.384   1.791
 8450SOL    HW126249   2.337   5.457   1.725
 8450SOL    HW226250   2.450   5.366   1.800
 8451SOL     OW26251   4.414   3.008   0.413
 8451SOL    HW126252   4.482   2.954   0.364
 8451SOL    HW226253   4.327   3.005   0.363
 8452SOL     OW26254   6.716   5.491   1.281
 8452SOL    HW126255   6.667   5.441   1.352
 8452SOL    HW226256   6.781   5.554   1.324
 8453SOL     OW26257   6.432   5.583   5.269
 8453SOL    HW126258   6.488   5.520   5.215
 8453SOL    HW226259   6.491   5.643   5.323
 8454SOL     OW26260   1.867   6.354   4.796
 8454SOL    HW126261   1.879   6.255   4.787
 8454SOL    HW226262   1.955   6.397   4.814
 8455SOL     OW26263   6.297   2.763   0.588
 8455SOL    HW126264   6.361   2.734   0.659
 8455SOL    HW226265   6.255   2.850   0.614
 8456SOL     OW26266   5.606   5.353   3.328
 8456SOL    HW126267   5.523   5.360   3.272
 8456SOL    HW226268   5.665   5.281   3.292
 8457SOL     OW26269   6.129   6.002   6.934
 8457SOL    HW126270   6.136   6.099   6.913
 8457SOL    HW226271   6.220   5.963   6.944
 8458SOL     OW26272   1.659   1.827   1.288
 8458SOL    HW126273   1.567   1.859   1.263
 8458SOL    HW226274   1.672   1.837   1.387
 8459SOL     OW26275   2.978   5.832   2.505
 8459SOL    HW126276   2.919   5.752   2.502
 8459SOL    HW226277   2.959   5.891   2.426
 8460SOL     OW26278   3.870   1.200   0.352
 8460SOL    HW126279   3.861   1.210   0.451
 8460SOL    HW226280   3.780   1.206   0.310
 8461SOL     OW26281   4.941   3.707   3.085
 8461SOL    HW126282   4.895   3.657   3.158
 8461SOL    HW226283   4.976   3.643   3.017
 8462SOL     OW26284   2.755   4.465   0.355
 8462SOL    HW126285   2.724   4.549   0.401
 8462SOL    HW226286   2.840   4.484   0.305
 8463SOL     OW26287   6.452   0.565   0.176
 8463SOL    HW126288   6.419   0.620   0.099
 8463SOL    HW226289   6.396   0.585   0.257
 8464SOL     OW26290   6.529   3.905   6.845
 8464SOL    HW126291   6.621   3.878   6.872
 8464SOL    HW226292   6.527   4.003   6.827
 8465SOL     OW26293   4.486   3.245   1.003
 8465SOL    HW126294   4.526   3.274   0.916
 8465SOL    HW226295   4.467   3.147   1.000
 8466SOL     OW26296   0.235   1.178   5.750
 8466SOL    HW126297   0.279   1.153   5.836
 8466SOL    HW226298   0.238   1.277   5.738
 8467SOL     OW26299   3.264   1.759   0.126
 8467SOL    HW126300   3.314   1.841   0.154
 8467SOL    HW226301   3.248   1.701   0.205
 8468SOL     OW26302   5.644   3.368   6.638
 8468SOL    HW126303   5.735   3.378   6.599
 8468SOL    HW226304   5.578   3.349   6.565
 8469SOL     OW26305   3.801   3.485   5.597
 8469SOL    HW126306   3.747   3.400   5.594
 8469SOL    HW226307   3.894   3.464   5.627
 8470SOL     OW26308   2.005   5.005   1.903
 8470SOL    HW126309   2.057   5.001   1.988
 8470SOL    HW226310   2.063   4.978   1.827
 8471SOL     OW26311   4.000   1.700   4.106
 8471SOL    HW126312   4.048   1.700   4.194
 8471SOL    HW226313   4.058   1.743   4.036
 8472SOL     OW26314   6.051   2.038   6.272
 8472SOL    HW126315   6.085   1.968   6.335
 8472SOL    HW226316   5.955   2.057   6.293
 8473SOL     OW26317   4.921   4.822   0.153
 8473SOL    HW126318   4.945   4.869   0.238
 8473SOL    HW226319   4.945   4.880   0.075
 8474SOL     OW26320   3.740   3.923   3.979
 8474SOL    HW126321   3.691   3.847   3.936
 8474SOL    HW226322   3.696   4.009   3.952
 8475SOL     OW26323   6.292   2.427   3.118
 8475SOL    HW126324   6.203   2.418   3.073
 8475SOL    HW226325   6.301   2.519   3.155
 8476SOL     OW26326   5.972   1.033   1.601
 8476SOL    HW126327   6.049   0.975   1.626
 8476SOL    HW226328   5.890   1.003   1.650
 8477SOL     OW26329   5.793   0.026   1.867
 8477SOL    HW126330   5.791   7.016   1.772
 8477SOL    HW226331   5.841   0.113   1.872
 8478SOL     OW26332   0.247   0.132   5.570
 8478SOL    HW126333   0.268   0.038   5.593
 8478SOL    HW226334   0.162   0.135   5.517
 8479SOL     OW26335   0.643   3.229   0.483
 8479SOL    HW126336   0.717   3.182   0.436
 8479SOL    HW226337   0.681   3.290   0.552
 8480SOL     OW26338   4.102   3.835   0.471
 8480SOL    HW126339   4.197   3.866   0.477
 8480SOL    HW226340   4.061   3.838   0.562
 8481SOL     OW26341   4.332   2.316   3.278
 8481SOL    HW126342   4.386   2.327   3.194
 8481SOL    HW226343   4.242   2.280   3.255
 8482SOL     OW26344   4.376   0.789   0.206
 8482SOL    HW126345   4.432   0.777   0.287
 8482SOL    HW226346   4.327   0.876   0.212
 8483SOL     OW26347   4.068   5.004   3.271
 8483SOL    HW126348   4.005   5.081   3.259
 8483SOL    HW226349   4.120   4.989   3.187
 8484SOL     OW26350   5.435   5.850   4.986
 8484SOL    HW126351   5.387   5.806   4.910
 8484SOL    HW226352   5.439   5.788   5.063
 8485SOL     OW26353   3.609   1.978   0.278
 8485SOL    HW126354   3.653   1.929   0.202
 8485SOL    HW226355   3.648   1.946   0.365
 8486SOL     OW26356   6.192   2.218   3.581
 8486SOL    HW126357   6.131   2.284   3.625
 8486SOL    HW226358   6.188   2.131   3.630
 8487SOL     OW26359   6.814   1.987   6.580
 8487SOL    HW126360   6.718   2.010   6.566
 8487SOL    HW226361   6.830   1.892   6.557
 8488SOL     OW26362   4.830   5.495   1.961
 8488SOL    HW126363   4.837   5.409   1.911
 8488SOL    HW226364   4.763   5.484   2.036
 8489SOL     OW26365   6.293   2.490   1.620
 8489SOL    HW126366   6.245   2.575   1.596
 8489SOL    HW226367   6.259   2.456   1.707
 8490SOL     OW26368   3.323   0.540   6.854
 8490SOL    HW126369   3.257   0.601   6.811
 8490SOL    HW226370   3.337   0.567   6.949
 8491SOL     OW26371   3.001   5.759   1.826
 8491SOL    HW126372   3.010   5.695   1.749
 8491SOL    HW226373   2.922   5.818   1.811
 8492SOL     OW26374   6.277   6.625   4.807
 8492SOL    HW126375   6.319   6.535   4.823
 8492SOL    HW226376   6.234   6.657   4.891
 8493SOL     OW26377   5.214   1.353   6.448
 8493SOL    HW126378   5.202   1.444   6.409
 8493SOL    HW226379   5.130   1.300   6.438
 8494SOL     OW26380   6.654   3.635   2.088
 8494SOL    HW126381   6.559   3.626   2.117
 8494SOL    HW226382   6.701   3.700   2.147
 8495SOL     OW26383   6.255   5.104   6.053
 8495SOL    HW126384   6.183   5.103   5.983
 8495SOL    HW226385   6.251   5.020   6.106
 8496SOL     OW26386   5.092   2.562   2.494
 8496SOL    HW126387   5.015   2.549   2.431
 8496SOL    HW226388   5.088   2.492   2.565
 8497SOL     OW26389   6.612   0.405   3.241
 8497SOL    HW126390   6.682   0.374   3.305
 8497SOL    HW226391   6.586   0.328   3.182
 8498SOL     OW26392   4.975   0.260   3.813
 8498SOL    HW126393   4.953   0.184   3.751
 8498SOL    HW226394   4.925   0.341   3.784
 8499SOL     OW26395   5.847   6.803   5.315
 8499SOL    HW126396   5.892   6.737   5.376
 8499SOL    HW226397   5.897   6.890   5.319
 8500SOL     OW26398   1.119   0.665   6.434
 8500SOL    HW126399   1.163   0.579   6.410
 8500SOL    HW226400   1.176   0.741   6.405
 8501SOL     OW26401   1.940   1.600   6.510
 8501SOL    HW126402   2.031   1.590   6.471
 8501SOL    HW226403   1.945   1.592   6.609
 8502SOL     OW26404   0.047   3.858   7.002
 8502SOL    HW126405   7.006   3.903   0.042
 8502SOL    HW226406   0.101   3.790   0.030
 8503SOL     OW26407   4.752   2.037   5.608
 8503SOL    HW126408   4.693   2.106   5.650
 8503SOL    HW226409   4.831   2.021   5.667
 8504SOL     OW26410   1.426   0.486   2.531
 8504SOL    HW126411   1.367   0.507   2.454
 8504SOL    HW226412   1.431   0.387   2.543
 8505SOL     OW26413   5.872   2.891   2.384
 8505SOL    HW126414   5.903   2.799   2.407
 8505SOL    HW226415   5.781   2.907   2.423
 8506SOL     OW26416   1.547   0.288   6.261
 8506SOL    HW126417   1.535   0.382   6.291
 8506SOL    HW226418   1.484   0.268   6.186
 8507SOL     OW26419   2.857   6.199   5.478
 8507SOL    HW126420   2.936   6.187   5.539
 8507SOL    HW226421   2.787   6.253   5.525
 8508SOL     OW26422   2.754   1.425   6.950
 8508SOL    HW126423   2.766   1.492   0.002
 8508SOL    HW226424   2.751   1.473   6.862
 8509SOL     OW26425   5.975   2.027   2.680
 8509SOL    HW126426   5.882   2.007   2.649
 8509SOL    HW226427   6.018   1.943   2.713
 8510SOL     OW26428   0.118   1.532   4.777
 8510SOL    HW126429   0.030   1.577   4.793
 8510SOL    HW226430   0.175   1.591   4.720
 8511SOL     OW26431   5.728   1.867   2.930
 8511SOL    HW126432   5.714   1.798   2.860
 8511SOL    HW226433   5.702   1.957   2.895
 8512SOL     OW26434   2.226   6.540   5.860
 8512SOL    HW126435   2.287   6.545   5.781
 8512SOL    HW226436   2.242   6.455   5.910
 8513SOL     OW26437   5.480   6.084   0.319
 8513SOL    HW126438   5.487   6.179   0.349
 8513SOL    HW226439   5.398   6.042   0.359
 8514SOL     OW26440   3.630   6.588   4.186
 8514SOL    HW126441   3.704   6.653   4.201
 8514SOL    HW226442   3.642   6.509   4.246
 8515SOL     OW26443   5.904   2.300   0.686
 8515SOL    HW126444   5.855   2.316   0.772
 8515SOL    HW226445   5.989   2.251   0.705
 8516SOL     OW26446   6.881   2.232   2.014
 8516SOL    HW126447   6.859   2.299   2.085
 8516SOL    HW226448   6.830   2.148   2.032
 8517SOL     OW26449   1.124   4.119   0.262
 8517SOL    HW126450   1.058   4.165   0.321
 8517SOL    HW226451   1.076   4.068   0.191
 8518SOL     OW26452   2.869   5.713   0.582
 8518SOL    HW126453   2.823   5.640   0.632
 8518SOL    HW226454   2.802   5.780   0.550
 8519SOL     OW26455   2.805   5.972   3.214
 8519SOL    HW126456   2.751   6.052   3.187
 8519SOL    HW226457   2.744   5.900   3.247
 8520SOL     OW26458   3.347   0.247   6.838
 8520SOL    HW126459   3.338   0.346   6.854
 8520SOL    HW226460   3.440   0.218   6.861
 8521SOL     OW26461   1.615   0.449   1.442
 8521SOL    HW126462   1.637   0.359   1.481
 8521SOL    HW226463   1.687   0.514   1.466
 8522SOL     OW26464   2.047   6.352   4.308
 8522SOL    HW126465   2.019   6.262   4.275
 8522SOL    HW226466   2.138   6.374   4.273
 8523SOL     OW26467   1.141   6.657   6.895
 8523SOL    HW126468   1.123   6.743   6.943
 8523SOL    HW226469   1.237   6.631   6.906
 8524SOL     OW26470   1.163   1.629   6.771
 8524SOL    HW126471   1.233   1.613   6.701
 8524SOL    HW226472   1.097   1.554   6.770
 8525SOL     OW26473   5.361   3.426   3.646
 8525SOL    HW126474   5.298   3.500   3.621
 8525SOL    HW226475   5.334   3.342   3.599
 8526SOL     OW26476   1.853   3.151   2.204
 8526SOL    HW126477   1.867   3.059   2.242
 8526SOL    HW226478   1.914   3.164   2.126
 8527SOL     OW26479   4.370   1.008   3.736
 8527SOL    HW126480   4.347   1.070   3.811
 8527SOL    HW226481   4.344   0.915   3.760
 8528SOL     OW26482   5.138   2.096   0.181
 8528SOL    HW126483   5.195   2.014   0.181
 8528SOL    HW226484   5.090   2.102   0.093
 8529SOL     OW26485   6.897   5.463   6.192
 8529SOL    HW126486   6.955   5.388   6.162
 8529SOL    HW226487   6.941   5.511   6.268
 8530SOL     OW26488   1.637   4.660   6.420
 8530SOL    HW126489   1.640   4.596   6.343
 8530SOL    HW226490   1.730   4.679   6.451
 8531SOL     OW26491   4.036   4.799   1.996
 8531SOL    HW126492   3.976   4.831   2.070
 8531SOL    HW226493   4.124   4.771   2.035
 8532SOL     OW26494   0.970   4.050   0.047
 8532SOL    HW126495   1.032   4.081   6.997
 8532SOL    HW226496   0.892   4.111   0.053
 8533SOL     OW26497   4.095   6.602   5.947
 8533SOL    HW126498   4.038   6.521   5.934
 8533SOL    HW226499   4.058   6.678   5.893
 8534SOL     OW26500   1.844   2.703   2.030
 8534SOL    HW126501   1.771   2.642   2.060
 8534SOL    HW226502   1.805   2.785   1.988
 8535SOL     OW26503   6.674   3.188   5.063
 8535SOL    HW126504   6.756   3.180   5.119
 8535SOL    HW226505   6.610   3.114   5.087
 8536SOL     OW26506   6.314   1.572   5.057
 8536SOL    HW126507   6.254   1.492   5.050
 8536SOL    HW226508   6.407   1.542   5.077
 8537SOL     OW26509   5.044   6.561   2.918
 8537SOL    HW126510   5.027   6.523   3.009
 8537SOL    HW226511   5.093   6.648   2.927
 8538SOL     OW26512   5.187   0.777   5.802
 8538SOL    HW126513   5.150   0.828   5.880
 8538SOL    HW226514   5.113   0.728   5.756
 8539SOL     OW26515   0.323   3.041   2.966
 8539SOL    HW126516   0.422   3.022   2.971
 8539SOL    HW226517   0.308   3.124   2.913
 8540SOL     OW26518   3.572   6.798   0.016
 8540SOL    HW126519   3.487   6.807   6.987
 8540SOL    HW226520   3.647   6.777   6.975
 8541SOL     OW26521   3.000   6.295   5.239
 8541SOL    HW126522   2.934   6.242   5.293
 8541SOL    HW226523   3.048   6.359   5.299
 8542SOL     OW26524   0.823   5.304   5.574
 8542SOL    HW126525   0.804   5.205   5.575
 8542SOL    HW226526   0.761   5.350   5.637
 8543SOL     OW26527   2.623   2.787   5.489
 8543SOL    HW126528   2.687   2.808   5.562
 8543SOL    HW226529   2.560   2.715   5.519
 8544SOL     OW26530   5.257   4.724   5.322
 8544SOL    HW126531   5.302   4.664   5.255
 8544SOL    HW226532   5.173   4.761   5.282
 8545SOL     OW26533   2.144   6.732   6.534
 8545SOL    HW126534   2.135   6.817   6.483
 8545SOL    HW226535   2.150   6.655   6.471
 8546SOL     OW26536   4.554   1.349   3.525
 8546SOL    HW126537   4.613   1.404   3.467
 8546SOL    HW226538   4.491   1.296   3.468
 8547SOL     OW26539   5.366   6.328   5.986
 8547SOL    HW126540   5.381   6.405   5.924
 8547SOL    HW226541   5.438   6.260   5.972
 8548SOL     OW26542   0.753   4.596   4.799
 8548SOL    HW126543   0.848   4.583   4.827
 8548SOL    HW226544   0.692   4.577   4.877
 8549SOL     OW26545   1.494   0.144   3.966
 8549SOL    HW126546   1.486   0.124   3.868
 8549SOL    HW226547   1.562   0.216   3.979
 8550SOL     OW26548   6.597   5.242   5.733
 8550SOL    HW126549   6.588   5.288   5.821
 8550SOL    HW226550   6.550   5.154   5.736
 8551SOL     OW26551   3.665   0.271   5.401
 8551SOL    HW126552   3.652   0.247   5.305
 8551SOL    HW226553   3.630   0.197   5.459
 8552SOL     OW26554   3.148   1.403   1.842
 8552SOL    HW126555   3.192   1.336   1.781
 8552SOL    HW226556   3.193   1.402   1.931
 8553SOL     OW26557   4.674   3.603   0.668
 8553SOL    HW126558   4.773   3.601   0.682
 8553SOL    HW226559   4.631   3.654   0.743
 8554SOL     OW26560   1.571   1.045   0.252
 8554SOL    HW126561   1.623   1.099   0.317
 8554SOL    HW226562   1.613   1.052   0.161
 8555SOL     OW26563   4.102   2.269   3.963
 8555SOL    HW126564   4.125   2.281   3.867
 8555SOL    HW226565   4.184   2.283   4.019
 8556SOL     OW26566   0.493   5.807   6.045
 8556SOL    HW126567   0.471   5.734   6.109
 8556SOL    HW226568   0.465   5.780   5.952
 8557SOL     OW26569   6.886   0.603   6.713
 8557SOL    HW126570   6.827   0.538   6.664
 8557SOL    HW226571   6.974   0.560   6.732
 8558SOL     OW26572   2.941   5.689   4.398
 8558SOL    HW126573   2.946   5.753   4.475
 8558SOL    HW226574   2.867   5.624   4.414
 8559SOL     OW26575   1.572   4.038   2.301
 8559SOL    HW126576   1.543   4.092   2.380
 8559SOL    HW226577   1.637   3.969   2.330
 8560SOL     OW26578   3.109   4.418   1.332
 8560SOL    HW126579   3.117   4.332   1.382
 8560SOL    HW226580   3.013   4.431   1.304
 8561SOL     OW26581   3.899   0.439   2.751
 8561SOL    HW126582   3.819   0.417   2.695
 8561SOL    HW226583   3.906   0.538   2.761
 8562SOL     OW26584   5.241   2.890   6.726
 8562SOL    HW126585   5.163   2.931   6.679
 8562SOL    HW226586   5.227   2.791   6.734
 8563SOL     OW26587   2.885   5.027   2.918
 8563SOL    HW126588   2.900   5.081   2.836
 8563SOL    HW226589   2.895   5.086   2.999
 8564SOL     OW26590   4.117   6.812   0.922
 8564SOL    HW126591   4.121   6.901   0.968
 8564SOL    HW226592   4.092   6.824   0.826
 8565SOL     OW26593   1.188   4.838   1.364
 8565SOL    HW126594   1.218   4.918   1.416
 8565SOL    HW226595   1.230   4.840   1.273
 8566SOL     OW26596   3.450   0.574   2.605
 8566SOL    HW126597   3.372   0.605   2.661
 8566SOL    HW226598   3.531   0.626   2.630
 8567SOL     OW26599   1.564   2.318   2.175
 8567SOL    HW126600   1.631   2.314   2.249
 8567SOL    HW226601   1.572   2.235   2.119
 8568SOL     OW26602   6.226   0.809   6.141
 8568SOL    HW126603   6.276   0.866   6.075
 8568SOL    HW226604   6.274   0.809   6.228
 8569SOL     OW26605   5.181   2.111   0.464
 8569SOL    HW126606   5.125   2.084   0.385
 8569SOL    HW226607   5.128   2.097   0.548
 8570SOL     OW26608   2.351   2.000   2.418
 8570SOL    HW126609   2.400   1.935   2.476
 8570SOL    HW226610   2.293   2.059   2.474
 8571SOL     OW26611   2.316   0.435   3.102
 8571SOL    HW126612   2.258   0.506   3.142
 8571SOL    HW226613   2.277   0.345   3.123
 8572SOL     OW26614   2.767   4.075   6.043
 8572SOL    HW126615   2.671   4.052   6.027
 8572SOL    HW226616   2.824   3.996   6.024
 8573SOL     OW26617   2.650   5.891   6.403
 8573SOL    HW126618   2.674   5.901   6.307
 8573SOL    HW226619   2.555   5.860   6.411
 8574SOL     OW26620   5.015   0.756   5.565
 8574SOL    HW126621   4.981   0.741   5.473
 8574SOL    HW226622   4.947   0.728   5.632
 8575SOL     OW26623   3.408   5.934   4.063
 8575SOL    HW126624   3.329   5.880   4.035
 8575SOL    HW226625   3.402   6.026   4.025
 8576SOL     OW26626   1.837   4.648   3.905
 8576SOL    HW126627   1.809   4.576   3.969
 8576SOL    HW226628   1.916   4.617   3.853
 8577SOL     OW26629   1.265   0.993   0.470
 8577SOL    HW126630   1.259   0.996   0.370
 8577SOL    HW226631   1.308   0.907   0.498
 8578SOL     OW26632   1.494   6.846   6.374
 8578SOL    HW126633   1.507   6.902   6.456
 8578SOL    HW226634   1.450   6.900   6.303
 8579SOL     OW26635   3.174   6.962   2.500
 8579SOL    HW126636   3.259   7.004   2.468
 8579SOL    HW226637   3.137   6.903   2.427
 8580SOL     OW26638   1.291   0.359   1.804
 8580SOL    HW126639   1.224   0.430   1.782
 8580SOL    HW226640   1.348   0.389   1.881
 8581SOL     OW26641   3.573   4.434   1.443
 8581SOL    HW126642   3.603   4.443   1.348
 8581SOL    HW226643   3.492   4.375   1.447
 8582SOL     OW26644   4.101   5.263   5.555
 8582SOL    HW126645   4.015   5.313   5.546
 8582SOL    HW226646   4.177   5.328   5.561
 8583SOL     OW26647   3.708   6.783   2.713
 8583SOL    HW126648   3.721   6.768   2.615
 8583SOL    HW226649   3.611   6.796   2.732
 8584SOL     OW26650   6.224   1.514   4.422
 8584SOL    HW126651   6.206   1.434   4.365
 8584SOL    HW226652   6.271   1.486   4.505
 8585SOL     OW26653   5.374   2.920   2.236
 8585SOL    HW126654   5.363   2.881   2.327
 8585SOL    HW226655   5.302   2.886   2.175
 8586SOL     OW26656   6.188   5.960   6.333
 8586SOL    HW126657   6.245   5.949   6.252
 8586SOL    HW226658   6.207   5.887   6.398
 8587SOL     OW26659   6.790   1.906   6.903
 8587SOL    HW126660   6.771   1.958   6.820
 8587SOL    HW226661   6.716   1.920   6.969
 8588SOL     OW26662   2.014   0.814   5.631
 8588SOL    HW126663   2.098   0.816   5.685
 8588SOL    HW226664   2.031   0.767   5.544
 8589SOL     OW26665   5.292   2.866   0.133
 8589SOL    HW126666   5.374   2.925   0.132
 8589SOL    HW226667   5.319   2.771   0.117
 8590SOL     OW26668   0.543   0.743   4.277
 8590SOL    HW126669   0.465   0.730   4.337
 8590SOL    HW226670   0.537   0.681   4.199
 8591SOL     OW26671   6.502   4.722   5.852
 8591SOL    HW126672   6.419   4.723   5.908
 8591SOL    HW226673   6.500   4.644   5.791
 8592SOL     OW26674   0.415   1.953   4.224
 8592SOL    HW126675   0.318   1.962   4.246
 8592SOL    HW226676   0.447   2.038   4.182
 8593SOL     OW26677   5.975   1.445   6.820
 8593SOL    HW126678   5.938   1.436   6.913
 8593SOL    HW226679   5.900   1.460   6.756
 8594SOL     OW26680   6.136   4.010   6.518
 8594SOL    HW126681   6.203   3.937   6.506
 8594SOL    HW226682   6.181   4.099   6.506
 8595SOL     OW26683   5.614   6.444   3.250
 8595SOL    HW126684   5.649   6.522   3.303
 8595SOL    HW226685   5.679   6.421   3.178
 8596SOL     OW26686   0.800   1.429   4.182
 8596SOL    HW126687   0.719   1.465   4.135
 8596SOL    HW226688   0.771   1.367   4.255
 8597SOL     OW26689   6.173   2.948   6.045
 8597SOL    HW126690   6.222   2.987   6.124
 8597SOL    HW226691   6.109   2.879   6.077
 8598SOL     OW26692   6.772   0.453   5.572
 8598SOL    HW126693   6.728   0.370   5.606
 8598SOL    HW226694   6.870   0.451   5.595
 8599SOL     OW26695   6.435   3.571   4.619
 8599SOL    HW126696   6.402   3.538   4.708
 8599SOL    HW226697   6.524   3.530   4.601
 8600SOL     OW26698   4.564   2.253   1.044
 8600SOL    HW126699   4.603   2.220   0.957
 8600SOL    HW226700   4.637   2.293   1.099
 8601SOL     OW26701   6.488   6.249   3.756
 8601SOL    HW126702   6.417   6.313   3.786
 8601SOL    HW226703   6.527   6.202   3.835
 8602SOL     OW26704   2.024   6.733   5.828
 8602SOL    HW126705   2.085   6.663   5.867
 8602SOL    HW226706   1.929   6.702   5.837
 8603SOL     OW26707   0.650   0.403   0.003
 8603SOL    HW126708   0.744   0.370   7.022
 8603SOL    HW226709   0.637   0.475   6.957
 8604SOL     OW26710   1.884   5.112   6.032
 8604SOL    HW126711   1.957   5.044   6.028
 8604SOL    HW226712   1.844   5.112   6.124
 8605SOL     OW26713   0.640   5.308   4.118
 8605SOL    HW126714   0.590   5.338   4.037
 8605SOL    HW226715   0.628   5.210   4.130
 8606SOL     OW26716   1.515   2.010   0.596
 8606SOL    HW126717   1.507   1.925   0.648
 8606SOL    HW226718   1.602   2.012   0.547
 8607SOL     OW26719   1.960   3.618   1.219
 8607SOL    HW126720   1.984   3.620   1.316
 8607SOL    HW226721   2.037   3.585   1.166
 8608SOL     OW26722   1.910   5.975   2.762
 8608SOL    HW126723   1.946   5.946   2.673
 8608SOL    HW226724   1.981   6.023   2.814
 8609SOL     OW26725   4.285   1.838   4.808
 8609SOL    HW126726   4.372   1.828   4.856
 8609SOL    HW226727   4.238   1.920   4.839
 8610SOL     OW26728   0.538   6.093   3.214
 8610SOL    HW126729   0.603   6.030   3.171
 8610SOL    HW226730   0.463   6.113   3.151
 8611SOL     OW26731   2.132   1.175   4.912
 8611SOL    HW126732   2.093   1.089   4.943
 8611SOL    HW226733   2.230   1.164   4.898
 8612SOL     OW26734   3.043   3.134   4.349
 8612SOL    HW126735   3.073   3.041   4.326
 8612SOL    HW226736   3.112   3.179   4.406
 8613SOL     OW26737   3.955   3.045   2.698
 8613SOL    HW126738   3.950   3.090   2.609
 8613SOL    HW226739   3.887   2.971   2.702
 8614SOL     OW26740   0.588   2.414   3.000
 8614SOL    HW126741   0.671   2.423   2.944
 8614SOL    HW226742   0.612   2.375   3.089
 8615SOL     OW26743   3.478   2.120   5.496
 8615SOL    HW126744   3.474   2.035   5.444
 8615SOL    HW226745   3.465   2.197   5.435
 8616SOL     OW26746   5.395   3.729   3.864
 8616SOL    HW126747   5.428   3.803   3.924
 8616SOL    HW226748   5.450   3.647   3.880
 8617SOL     OW26749   2.336   0.469   3.567
 8617SOL    HW126750   2.366   0.499   3.658
 8617SOL    HW226751   2.371   0.377   3.550
 8618SOL     OW26752   5.584   4.250   1.375
 8618SOL    HW126753   5.663   4.266   1.315
 8618SOL    HW226754   5.610   4.271   1.470
 8619SOL     OW26755   5.295   5.312   0.880
 8619SOL    HW126756   5.230   5.238   0.895
 8619SOL    HW226757   5.388   5.275   0.873
 8620SOL     OW26758   2.125   0.244   4.284
 8620SOL    HW126759   2.094   0.171   4.344
 8620SOL    HW226760   2.046   0.299   4.254
 8621SOL     OW26761   5.508   3.711   1.153
 8621SOL    HW126762   5.449   3.792   1.154
 8621SOL    HW226763   5.469   3.642   1.214
 8622SOL     OW26764   0.263   5.026   2.369
 8622SOL    HW126765   0.306   5.058   2.453
 8622SOL    HW226766   0.173   5.069   2.358
 8623SOL     OW26767   1.799   2.774   4.135
 8623SOL    HW126768   1.861   2.703   4.101
 8623SOL    HW226769   1.776   2.836   4.060
 8624SOL     OW26770   3.505   3.663   4.732
 8624SOL    HW126771   3.527   3.566   4.726
 8624SOL    HW226772   3.432   3.685   4.668
 8625SOL     OW26773   3.489   2.883   5.504
 8625SOL    HW126774   3.478   2.919   5.596
 8625SOL    HW226775   3.577   2.836   5.496
 8626SOL     OW26776   4.091   2.329   1.378
 8626SOL    HW126777   4.077   2.360   1.285
 8626SOL    HW226778   4.036   2.384   1.441
 8627SOL     OW26779   2.068   1.236   2.520
 8627SOL    HW126780   1.996   1.187   2.471
 8627SOL    HW226781   2.046   1.238   2.618
 8628SOL     OW26782   0.825   6.457   0.924
 8628SOL    HW126783   0.770   6.395   0.979
 8628SOL    HW226784   0.847   6.539   0.977
 8629SOL     OW26785   0.588   6.436   4.773
 8629SOL    HW126786   0.687   6.424   4.761
 8629SOL    HW226787   0.540   6.360   4.730
 8630SOL     OW26788   4.823   2.727   2.246
 8630SOL    HW126789   4.734   2.715   2.289
 8630SOL    HW226790   4.877   2.793   2.299
 8631SOL     OW26791   2.399   5.679   6.319
 8631SOL    HW126792   2.386   5.610   6.389
 8631SOL    HW226793   2.365   5.768   6.351
 8632SOL     OW26794   5.639   6.081   4.151
 8632SOL    HW126795   5.665   6.031   4.233
 8632SOL    HW226796   5.584   6.161   4.177
 8633SOL     OW26797   5.839   3.630   4.935
 8633SOL    HW126798   5.785   3.570   4.994
 8633SOL    HW226799   5.881   3.576   4.863
 8634SOL     OW26800   4.892   4.139   0.152
 8634SOL    HW126801   4.842   4.054   0.167
 8634SOL    HW226802   4.833   4.217   0.173
 8635SOL     OW26803   5.273   2.273   6.964
 8635SOL    HW126804   5.293   2.226   6.878
 8635SOL    HW226805   5.331   2.235   0.014
 8636SOL     OW26806   4.952   6.578   1.461
 8636SOL    HW126807   4.876   6.611   1.516
 8636SOL    HW226808   4.950   6.623   1.371
 8637SOL     OW26809   1.996   1.904   5.960
 8637SOL    HW126810   2.027   1.854   5.880
 8637SOL    HW226811   2.017   1.852   6.043
 8638SOL     OW26812   4.816   2.814   3.539
 8638SOL    HW126813   4.759   2.751   3.487
 8638SOL    HW226814   4.905   2.823   3.494
 8639SOL     OW26815   3.521   3.858   0.083
 8639SOL    HW126816   3.562   3.875   7.015
 8639SOL    HW226817   3.577   3.899   0.154
 8640SOL     OW26818   3.153   2.784   0.911
 8640SOL    HW126819   3.231   2.756   0.856
 8640SOL    HW226820   3.099   2.852   0.861
 8641SOL     OW26821   4.175   4.741   2.324
 8641SOL    HW126822   4.153   4.835   2.350
 8641SOL    HW226823   4.191   4.686   2.406
 8642SOL     OW26824   1.070   5.680   2.901
 8642SOL    HW126825   1.004   5.714   2.968
 8642SOL    HW226826   1.068   5.738   2.820
 8643SOL     OW26827   4.078   0.020   1.110
 8643SOL    HW126828   4.023   0.077   1.048
 8643SOL    HW226829   4.019   7.003   1.180
 8644SOL     OW26830   6.264   2.612   6.352
 8644SOL    HW126831   6.262   2.571   6.443
 8644SOL    HW226832   6.347   2.668   6.343
 8645SOL     OW26833   6.185   5.824   3.328
 8645SOL    HW126834   6.191   5.906   3.385
 8645SOL    HW226835   6.139   5.846   3.242
 8646SOL     OW26836   6.590   2.692   4.917
 8646SOL    HW126837   6.583   2.651   5.008
 8646SOL    HW226838   6.499   2.715   4.883
 8647SOL     OW26839   1.969   5.601   1.867
 8647SOL    HW126840   1.873   5.588   1.842
 8647SOL    HW226841   2.015   5.653   1.795
 8648SOL     OW26842   5.113   5.133   0.294
 8648SOL    HW126843   5.058   5.215   0.281
 8648SOL    HW226844   5.208   5.152   0.268
 8649SOL     OW26845   5.412   1.378   1.182
 8649SOL    HW126846   5.387   1.296   1.132
 8649SOL    HW226847   5.485   1.357   1.248
 8650SOL     OW26848   2.167   0.082   5.572
 8650SOL    HW126849   2.182   0.119   5.480
 8650SOL    HW226850   2.116   0.148   5.627
 8651SOL     OW26851   4.208   2.568   1.602
 8651SOL    HW126852   4.115   2.547   1.572
 8651SOL    HW226853   4.246   2.488   1.648
 8652SOL     OW26854   0.936   2.601   3.170
 8652SOL    HW126855   0.864   2.576   3.235
 8652SOL    HW226856   0.963   2.520   3.118
 8653SOL     OW26857   5.892   1.778   6.295
 8653SOL    HW126858   5.916   1.706   6.230
 8653SOL    HW226859   5.818   1.833   6.257
 8654SOL     OW26860   0.481   4.113   2.424
 8654SOL    HW126861   0.446   4.082   2.513
 8654SOL    HW226862   0.546   4.045   2.389
 8655SOL     OW26863   0.529   0.394   4.654
 8655SOL    HW126864   0.598   0.466   4.648
 8655SOL    HW226865   0.535   0.335   4.573
 8656SOL     OW26866   5.623   6.599   1.288
 8656SOL    HW126867   5.547   6.534   1.288
 8656SOL    HW226868   5.655   6.612   1.194
 8657SOL     OW26869   3.373   2.101   3.388
 8657SOL    HW126870   3.365   2.046   3.471
 8657SOL    HW226871   3.284   2.103   3.342
 8658SOL     OW26872   5.307   4.752   1.619
 8658SOL    HW126873   5.299   4.670   1.676
 8658SOL    HW226874   5.350   4.825   1.671
 8659SOL     OW26875   3.615   0.703   2.085
 8659SOL    HW126876   3.618   0.675   2.181
 8659SOL    HW226877   3.706   0.729   2.055
 8660SOL     OW26878   0.340   5.021   2.096
 8660SOL    HW126879   0.291   5.021   2.183
 8660SOL    HW226880   0.393   5.105   2.087
 8661SOL     OW26881   6.986   3.827   2.464
 8661SOL    HW126882   6.971   3.732   2.437
 8661SOL    HW226883   6.924   3.887   2.412
 8662SOL     OW26884   1.938   2.763   3.046
 8662SOL    HW126885   1.912   2.855   3.016
 8662SOL    HW226886   1.982   2.715   2.970
 8663SOL     OW26887   3.825   4.945   2.684
 8663SOL    HW126888   3.801   4.956   2.588
 8663SOL    HW226889   3.745   4.915   2.735
 8664SOL     OW26890   4.257   6.442   3.462
 8664SOL    HW126891   4.191   6.516   3.447
 8664SOL    HW226892   4.264   6.386   3.380
 8665SOL     OW26893   4.784   3.840   6.839
 8665SOL    HW126894   4.743   3.930   6.856
 8665SOL    HW226895   4.883   3.849   6.832
 8666SOL     OW26896   4.301   6.672   2.918
 8666SOL    HW126897   4.351   6.592   2.883
 8666SOL    HW226898   4.359   6.753   2.910
 8667SOL     OW26899   5.475   2.220   2.429
 8667SOL    HW126900   5.427   2.228   2.516
 8667SOL    HW226901   5.480   2.123   2.403
 8668SOL     OW26902   5.135   2.335   5.016
 8668SOL    HW126903   5.058   2.279   4.987
 8668SOL    HW226904   5.110   2.432   5.009
 8669SOL     OW26905   6.125   6.476   5.960
 8669SOL    HW126906   6.120   6.447   5.865
 8669SOL    HW226907   6.187   6.416   6.011
 8670SOL     OW26908   6.318   4.700   5.294
 8670SOL    HW126909   6.304   4.604   5.320
 8670SOL    HW226910   6.415   4.723   5.305
 8671SOL     OW26911   0.054   3.305   2.764
 8671SOL    HW126912   7.012   3.377   2.792
 8671SOL    HW226913   0.017   3.216   2.789
 8672SOL     OW26914   0.102   1.231   2.438
 8672SOL    HW126915   0.139   1.313   2.394
 8672SOL    HW226916   0.015   1.254   2.482
 8673SOL     OW26917   1.003   1.594   0.954
 8673SOL    HW126918   1.051   1.681   0.964
 8673SOL    HW226919   0.921   1.593   1.011
 8674SOL     OW26920   6.936   3.974   3.073
 8674SOL    HW126921   6.897   3.906   3.011
 8674SOL    HW226922   6.974   3.928   3.154
 8675SOL     OW26923   4.204   2.261   4.880
 8675SOL    HW126924   4.281   2.197   4.888
 8675SOL    HW226925   4.201   2.319   4.961
 8676SOL     OW26926   5.267   1.670   0.582
 8676SOL    HW126927   5.171   1.649   0.596
 8676SOL    HW226928   5.300   1.726   0.658
 8677SOL     OW26929   2.276   6.853   6.024
 8677SOL    HW126930   2.239   6.761   6.009
 8677SOL    HW226931   2.275   6.904   5.938
 8678SOL     OW26932   2.523   2.640   0.345
 8678SOL    HW126933   2.462   2.704   0.391
 8678SOL    HW226934   2.521   2.656   0.247
 8679SOL     OW26935   1.356   1.765   6.000
 8679SOL    HW126936   1.356   1.683   6.056
 8679SOL    HW226937   1.451   1.794   5.984
 8680SOL     OW26938   6.981   0.195   0.405
 8680SOL    HW126939   6.960   0.199   0.503
 8680SOL    HW226940   0.058   0.190   0.393
 8681SOL     OW26941   4.723   5.404   0.889
 8681SOL    HW126942   4.652   5.392   0.819
 8681SOL    HW226943   4.808   5.433   0.845
 8682SOL     OW26944   1.983   0.704   2.388
 8682SOL    HW126945   1.990   0.658   2.299
 8682SOL    HW226946   2.072   0.704   2.433
 8683SOL     OW26947   2.444   4.482   4.334
 8683SOL    HW126948   2.344   4.482   4.333
 8683SOL    HW226949   2.477   4.393   4.303
 8684SOL     OW26950   2.275   4.282   3.772
 8684SOL    HW126951   2.265   4.199   3.827
 8684SOL    HW226952   2.204   4.348   3.798
 8685SOL     OW26953   4.626   2.651   4.527
 8685SOL    HW126954   4.636   2.736   4.578
 8685SOL    HW226955   4.707   2.594   4.539
 8686SOL     OW26956   1.436   5.410   3.347
 8686SOL    HW126957   1.400   5.322   3.317
 8686SOL    HW226958   1.517   5.395   3.404
 8687SOL     OW26959   5.474   4.691   4.838
 8687SOL    HW126960   5.381   4.720   4.862
 8687SOL    HW226961   5.501   4.735   4.752
 8688SOL     OW26962   1.634   3.865   5.090
 8688SOL    HW126963   1.544   3.827   5.112
 8688SOL    HW226964   1.679   3.895   5.174
 8689SOL     OW26965   4.362   3.003   0.718
 8689SOL    HW126966   4.387   2.976   0.625
 8689SOL    HW226967   4.343   3.101   0.721
 8690SOL     OW26968   1.712   1.611   2.451
 8690SOL    HW126969   1.660   1.614   2.366
 8690SOL    HW226970   1.809   1.600   2.430
 8691SOL     OW26971   3.512   2.682   5.802
 8691SOL    HW126972   3.474   2.639   5.720
 8691SOL    HW226973   3.481   2.777   5.806
 8692SOL     OW26974   4.684   2.746   4.278
 8692SOL    HW126975   4.650   2.726   4.370
 8692SOL    HW226976   4.720   2.840   4.275
 8693SOL     OW26977   6.650   6.943   5.731
 8693SOL    HW126978   6.616   6.869   5.673
 8693SOL    HW226979   6.627   6.923   5.826
 8694SOL     OW26980   5.332   2.543   5.332
 8694SOL    HW126981   5.318   2.634   5.371
 8694SOL    HW226982   5.244   2.498   5.322
 8695SOL     OW26983   3.518   5.030   0.992
 8695SOL    HW126984   3.459   5.110   1.002
 8695SOL    HW226985   3.537   5.015   0.895
 8696SOL     OW26986   2.445   5.219   5.823
 8696SOL    HW126987   2.506   5.198   5.899
 8696SOL    HW226988   2.356   5.175   5.838
 8697SOL     OW26989   1.375   3.807   5.361
 8697SOL    HW126990   1.428   3.798   5.445
 8697SOL    HW226991   1.356   3.904   5.343
 8698SOL     OW26992   4.666   5.076   6.453
 8698SOL    HW126993   4.611   5.057   6.373
 8698SOL    HW226994   4.709   5.166   6.444
 8699SOL     OW26995   1.774   2.433   0.103
 8699SOL    HW126996   1.863   2.472   0.127
 8699SOL    HW226997   1.724   2.411   0.187
 8700SOL     OW26998   1.097   1.268   4.359
 8700SOL    HW126999   1.046   1.272   4.445
 8700SOL    HW227000   1.048   1.211   4.293
 8701SOL     OW27001   1.259   3.229   6.950
 8701SOL    HW127002   1.215   3.146   6.986
 8701SOL    HW227003   1.346   3.243   6.997
 8702SOL     OW27004   5.391   4.671   1.049
 8702SOL    HW127005   5.357   4.642   0.959
 8702SOL    HW227006   5.464   4.738   1.037
 8703SOL     OW27007   3.099   5.489   0.987
 8703SOL    HW127008   3.114   5.402   1.033
 8703SOL    HW227009   3.009   5.490   0.944
 8704SOL     OW27010   0.087   0.922   5.086
 8704SOL    HW127011   0.175   0.884   5.114
 8704SOL    HW227012   0.060   0.994   5.149
 8705SOL     OW27013   3.750   2.154   6.944
 8705SOL    HW127014   3.690   2.193   6.874
 8705SOL    HW227015   3.747   2.211   0.004
 8706SOL     OW27016   4.693   2.908   6.524
 8706SOL    HW127017   4.720   2.900   6.620
 8706SOL    HW227018   4.659   3.000   6.507
 8707SOL     OW27019   2.302   0.879   4.360
 8707SOL    HW127020   2.329   0.858   4.266
 8707SOL    HW227021   2.373   0.848   4.423
 8708SOL     OW27022   6.112   2.537   0.899
 8708SOL    HW127023   6.178   2.464   0.916
 8708SOL    HW227024   6.148   2.624   0.934
 8709SOL     OW27025   6.155   6.691   5.040
 8709SOL    HW127026   6.073   6.747   5.026
 8709SOL    HW227027   6.129   6.602   5.078
 8710SOL     OW27028   1.963   1.871   3.484
 8710SOL    HW127029   1.879   1.878   3.431
 8710SOL    HW227030   1.985   1.775   3.501
 8711SOL     OW27031   1.432   1.305   1.556
 8711SOL    HW127032   1.499   1.283   1.486
 8711SOL    HW227033   1.358   1.359   1.515
 8712SOL     OW27034   1.551   4.530   4.455
 8712SOL    HW127035   1.604   4.613   4.473
 8712SOL    HW227036   1.544   4.476   4.539
 8713SOL     OW27037   0.284   3.104   1.554
 8713SOL    HW127038   0.270   3.188   1.502
 8713SOL    HW227039   0.206   3.088   1.614
 8714SOL     OW27040   6.578   4.156   6.541
 8714SOL    HW127041   6.515   4.142   6.465
 8714SOL    HW227042   6.628   4.071   6.559
 8715SOL     OW27043   2.020   4.063   1.515
 8715SOL    HW127044   1.924   4.036   1.512
 8715SOL    HW227045   2.029   4.148   1.566
 8716SOL     OW27046   0.031   0.385   2.612
 8716SOL    HW127047   6.960   0.420   2.621
 8716SOL    HW227048   0.080   0.397   2.698
 8717SOL     OW27049   3.077   3.098   0.454
 8717SOL    HW127050   3.167   3.101   0.412
 8717SOL    HW227051   3.035   3.009   0.437
 8718SOL     OW27052   2.713   5.447   6.579
 8718SOL    HW127053   2.748   5.453   6.485
 8718SOL    HW227054   2.697   5.351   6.603
 8719SOL     OW27055   3.590   1.267   4.586
 8719SOL    HW127056   3.685   1.280   4.557
 8719SOL    HW227057   3.559   1.177   4.557
 8720SOL     OW27058   0.634   5.579   4.767
 8720SOL    HW127059   0.733   5.568   4.766
 8720SOL    HW227060   0.596   5.556   4.677
 8721SOL     OW27061   0.032   6.615   6.936
 8721SOL    HW127062   0.054   6.534   6.882
 8721SOL    HW227063   6.985   6.669   6.888
 8722SOL     OW27064   3.081   1.069   1.076
 8722SOL    HW127065   3.141   1.013   1.134
 8722SOL    HW227066   2.986   1.038   1.088
 8723SOL     OW27067   4.127   0.014   1.875
 8723SOL    HW127068   4.197   6.973   1.910
 8723SOL    HW227069   4.085   0.063   1.951
 8724SOL     OW27070   3.918   1.557   5.126
 8724SOL    HW127071   4.012   1.589   5.111
 8724SOL    HW227072   3.881   1.599   5.209
 8725SOL     OW27073   6.999   0.356   3.614
 8725SOL    HW127074   6.966   0.320   3.527
 8725SOL    HW227075   0.030   0.285   3.661
 8726SOL     OW27076   6.476   1.136   1.114
 8726SOL    HW127077   6.531   1.061   1.150
 8726SOL    HW227078   6.478   1.135   1.014
 8727SOL     OW27079   5.250   5.926   0.399
 8727SOL    HW127080   5.162   5.943   0.355
 8727SOL    HW227081   5.280   5.833   0.378
 8728SOL     OW27082   6.688   0.310   4.952
 8728SOL    HW127083   6.656   0.292   5.045
 8728SOL    HW227084   6.635   0.256   4.888
 8729SOL     OW27085   5.720   5.792   6.456
 8729SOL    HW127086   5.750   5.884   6.483
 8729SOL    HW227087   5.743   5.727   6.529
 8730SOL     OW27088   4.634   5.151   1.325
 8730SOL    HW127089   4.609   5.209   1.248
 8730SOL    HW227090   4.562   5.083   1.340
 8731SOL     OW27091   0.058   1.549   4.080
 8731SOL    HW127092   0.086   1.455   4.099
 8731SOL    HW227093   0.001   1.551   3.998
 8732SOL     OW27094   5.170   6.543   6.405
 8732SOL    HW127095   5.112   6.590   6.472
 8732SOL    HW227096   5.125   6.544   6.316
 8733SOL     OW27097   6.589   4.442   2.450
 8733SOL    HW127098   6.553   4.372   2.512
 8733SOL    HW227099   6.602   4.404   2.359
 8734SOL     OW27100   0.980   4.463   1.085
 8734SOL    HW127101   0.994   4.560   1.102
 8734SOL    HW227102   0.898   4.432   1.132
 8735SOL     OW27103   0.671   3.234   5.060
 8735SOL    HW127104   0.741   3.260   4.993
 8735SOL    HW227105   0.698   3.267   5.151
 8736SOL     OW27106   1.859   5.970   3.056
 8736SOL    HW127107   1.843   5.919   3.140
 8736SOL    HW227108   1.928   6.040   3.072
 8737SOL     OW27109   1.011   5.889   0.113
 8737SOL    HW127110   0.932   5.865   0.057
 8737SOL    HW227111   1.064   5.807   0.134
 8738SOL     OW27112   1.570   2.863   2.598
 8738SOL    HW127113   1.521   2.853   2.685
 8738SOL    HW227114   1.666   2.883   2.616
 8739SOL     OW27115   5.886   4.921   3.996
 8739SOL    HW127116   5.844   4.870   3.921
 8739SOL    HW227117   5.865   5.018   3.986
 8740SOL     OW27118   3.519   1.516   3.828
 8740SOL    HW127119   3.604   1.565   3.808
 8740SOL    HW227120   3.474   1.491   3.742
 8741SOL     OW27121   1.195   1.481   2.878
 8741SOL    HW127122   1.284   1.437   2.869
 8741SOL    HW227123   1.129   1.438   2.816
 8742SOL     OW27124   2.649   2.421   1.823
 8742SOL    HW127125   2.635   2.334   1.871
 8742SOL    HW227126   2.740   2.457   1.846
 8743SOL     OW27127   0.942   2.703   1.004
 8743SOL    HW127128   0.948   2.717   1.103
 8743SOL    HW227129   0.969   2.787   0.957
 8744SOL     OW27130   3.448   3.730   5.609
 8744SOL    HW127131   3.475   3.683   5.693
 8744SOL    HW227132   3.503   3.812   5.597
 8745SOL     OW27133   5.897   1.577   6.096
 8745SOL    HW127134   5.875   1.492   6.145
 8745SOL    HW227135   5.972   1.560   6.032
 8746SOL     OW27136   4.148   4.657   5.338
 8746SOL    HW127137   4.164   4.710   5.421
 8746SOL    HW227138   4.105   4.570   5.362
 8747SOL     OW27139   1.501   0.471   3.056
 8747SOL    HW127140   1.503   0.565   3.092
 8747SOL    HW227141   1.452   0.412   3.120
 8748SOL     OW27142   5.201   2.052   4.517
 8748SOL    HW127143   5.294   2.014   4.516
 8748SOL    HW227144   5.135   1.977   4.530
 8749SOL     OW27145   2.964   1.323   4.331
 8749SOL    HW127146   2.979   1.304   4.234
 8749SOL    HW227147   3.033   1.387   4.363
 8750SOL     OW27148   4.040   4.029   0.909
 8750SOL    HW127149   3.965   4.093   0.898
 8750SOL    HW227150   4.062   4.019   1.006
 8751SOL     OW27151   2.828   7.001   0.138
 8751SOL    HW127152   2.842   0.072   0.105
 8751SOL    HW227153   2.755   6.958   0.084
 8752SOL     OW27154   6.900   2.902   5.473
 8752SOL    HW127155   6.940   2.927   5.561
 8752SOL    HW227156   6.965   2.847   5.421
 8753SOL     OW27157   2.439   2.373   0.648
 8753SOL    HW127158   2.365   2.311   0.672
 8753SOL    HW227159   2.512   2.365   0.716
 8754SOL     OW27160   0.903   5.646   6.915
 8754SOL    HW127161   0.978   5.624   6.977
 8754SOL    HW227162   0.922   5.606   6.825
 8755SOL     OW27163   0.716   2.714   2.002
 8755SOL    HW127164   0.641   2.742   1.942
 8755SOL    HW227165   0.739   2.618   1.985
 8756SOL     OW27166   1.928   1.539   2.304
 8756SOL    HW127167   2.023   1.511   2.315
 8756SOL    HW227168   1.870   1.458   2.294
 8757SOL     OW27169   5.554   6.309   5.636
 8757SOL    HW127170   5.555   6.363   5.720
 8757SOL    HW227171   5.603   6.223   5.651
 8758SOL     OW27172   3.354   5.591   5.686
 8758SOL    HW127173   3.312   5.593   5.595
 8758SOL    HW227174   3.453   5.589   5.678
 8759SOL     OW27175   6.257   1.490   1.600
 8759SOL    HW127176   6.251   1.528   1.508
 8759SOL    HW227177   6.237   1.561   1.667
 8760SOL     OW27178   2.642   2.446   4.236
 8760SOL    HW127179   2.543   2.456   4.220
 8760SOL    HW227180   2.664   2.472   4.330
 8761SOL     OW27181   4.889   1.990   2.729
 8761SOL    HW127182   4.943   1.957   2.651
 8761SOL    HW227183   4.811   1.930   2.743
 8762SOL     OW27184   3.768   6.013   3.585
 8762SOL    HW127185   3.845   6.075   3.600
 8762SOL    HW227186   3.761   5.949   3.661
 8763SOL     OW27187   0.215   0.749   6.534
 8763SOL    HW127188   0.205   0.651   6.550
 8763SOL    HW227189   0.141   0.798   6.579
 8764SOL     OW27190   3.508   4.805   5.816
 8764SOL    HW127191   3.549   4.838   5.902
 8764SOL    HW227192   3.420   4.762   5.835
 8765SOL     OW27193   4.236   0.037   3.589
 8765SOL    HW127194   4.301   6.992   3.552
 8765SOL    HW227195   4.250   0.125   3.542
 8766SOL     OW27196   4.826   6.838   5.303
 8766SOL    HW127197   4.836   6.889   5.217
 8766SOL    HW227198   4.915   6.803   5.331
 8767SOL     OW27199   1.445   1.619   3.271
 8767SOL    HW127200   1.512   1.547   3.255
 8767SOL    HW227201   1.490   1.699   3.311
 8768SOL     OW27202   6.888   2.228   6.540
 8768SOL    HW127203   6.846   2.270   6.621
 8768SOL    HW227204   6.886   2.128   6.550
 8769SOL     OW27205   6.083   6.777   6.284
 8769SOL    HW127206   6.076   6.860   6.339
 8769SOL    HW227207   6.074   6.697   6.343
 8770SOL     OW27208   5.182   2.345   0.277
 8770SOL    HW127209   5.145   2.401   0.203
 8770SOL    HW227210   5.203   2.254   0.242
 8771SOL     OW27211   0.506   2.969   6.462
 8771SOL    HW127212   0.600   2.959   6.495
 8771SOL    HW227213   0.498   2.929   6.371
 8772SOL     OW27214   0.249   0.365   4.596
 8772SOL    HW127215   0.203   0.453   4.606
 8772SOL    HW227216   0.348   0.378   4.609
 8773SOL     OW27217   6.992   1.201   3.881
 8773SOL    HW127218   0.025   1.196   3.798
 8773SOL    HW227219   0.023   1.244   3.954
 8774SOL     OW27220   1.070   1.712   0.049
 8774SOL    HW127221   1.066   1.640   0.118
 8774SOL    HW227222   1.135   1.686   7.000
 8775SOL     OW27223   5.430   2.695   3.522
 8775SOL    HW127224   5.386   2.731   3.604
 8775SOL    HW227225   5.527   2.723   3.521
 8776SOL     OW27226   4.577   2.808   1.062
 8776SOL    HW127227   4.586   2.709   1.077
 8776SOL    HW227228   4.629   2.834   0.981
 8777SOL     OW27229   0.123   2.106   3.662
 8777SOL    HW127230   0.034   2.064   3.645
 8777SOL    HW227231   0.180   2.045   3.717
 8778SOL     OW27232   2.956   3.934   6.625
 8778SOL    HW127233   3.030   3.991   6.588
 8778SOL    HW227234   2.963   3.933   6.725
 8779SOL     OW27235   4.165   4.902   3.025
 8779SOL    HW127236   4.111   4.878   2.944
 8779SOL    HW227237   4.262   4.903   3.001
 8780SOL     OW27238   1.069   3.857   3.647
 8780SOL    HW127239   1.119   3.942   3.661
 8780SOL    HW227240   0.984   3.875   3.597
 8781SOL     OW27241   2.488   0.932   1.197
 8781SOL    HW127242   2.488   1.004   1.128
 8781SOL    HW227243   2.401   0.932   1.245
 8782SOL     OW27244   5.952   2.592   0.621
 8782SOL    HW127245   6.013   2.615   0.697
 8782SOL    HW227246   5.937   2.493   0.617
 8783SOL     OW27247   4.891   4.330   4.968
 8783SOL    HW127248   4.879   4.234   4.941
 8783SOL    HW227249   4.803   4.377   4.962
 8784SOL     OW27250   4.733   0.638   0.113
 8784SOL    HW127251   4.662   0.627   0.182
 8784SOL    HW227252   4.691   0.662   0.025
 8785SOL     OW27253   0.012   5.525   5.026
 8785SOL    HW127254   0.060   5.558   4.945
 8785SOL    HW227255   0.056   5.561   5.108
 8786SOL     OW27256   5.721   1.698   2.676
 8786SOL    HW127257   5.808   1.669   2.716
 8786SOL    HW227258   5.651   1.630   2.697
 8787SOL     OW27259   3.462   5.947   1.544
 8787SOL    HW127260   3.512   5.862   1.527
 8787SOL    HW227261   3.375   5.945   1.494
 8788SOL     OW27262   0.411   6.526   4.308
 8788SOL    HW127263   0.493   6.534   4.364
 8788SOL    HW227264   0.437   6.500   4.215
 8789SOL     OW27265   1.421   2.154   5.821
 8789SOL    HW127266   1.447   2.191   5.910
 8789SOL    HW227267   1.342   2.092   5.833
 8790SOL     OW27268   4.205   2.974   5.558
 8790SOL    HW127269   4.242   2.925   5.637
 8790SOL    HW227270   4.112   3.004   5.579
 8791SOL     OW27271   3.716   6.261   4.569
 8791SOL    HW127272   3.769   6.181   4.542
 8791SOL    HW227273   3.760   6.305   4.647
 8792SOL     OW27274   5.602   4.988   2.468
 8792SOL    HW127275   5.679   4.937   2.431
 8792SOL    HW227276   5.516   4.949   2.436
 8793SOL     OW27277   6.895   6.295   5.102
 8793SOL    HW127278   6.873   6.293   5.005
 8793SOL    HW227279   6.878   6.387   5.138
 8794SOL     OW27280   6.973   1.343   2.741
 8794SOL    HW127281   6.909   1.331   2.665
 8794SOL    HW227282   0.001   1.429   2.729
 8795SOL     OW27283   0.902   6.523   0.045
 8795SOL    HW127284   0.936   6.480   6.983
 8795SOL    HW227285   0.938   6.615   0.052
 8796SOL     OW27286   5.958   3.713   4.573
 8796SOL    HW127287   5.946   3.812   4.582
 8796SOL    HW227288   6.048   3.693   4.533
 8797SOL     OW27289   4.552   6.999   4.347
 8797SOL    HW127290   4.642   6.999   4.390
 8797SOL    HW227291   4.513   6.907   4.350
 8798SOL     OW27292   2.590   6.475   5.934
 8798SOL    HW127293   2.676   6.443   5.893
 8798SOL    HW227294   2.517   6.469   5.866
 8799SOL     OW27295   1.635   5.734   1.754
 8799SOL    HW127296   1.694   5.814   1.763
 8799SOL    HW227297   1.679   5.668   1.692
 8800SOL     OW27298   6.155   6.206   4.819
 8800SOL    HW127299   6.072   6.261   4.822
 8800SOL    HW227300   6.234   6.263   4.839
 8801SOL     OW27301   5.792   2.967   5.488
 8801SOL    HW127302   5.781   2.869   5.472
 8801SOL    HW227303   5.721   3.017   5.438
 8802SOL     OW27304   1.224   5.984   6.228
 8802SOL    HW127305   1.227   5.985   6.128
 8802SOL    HW227306   1.182   5.898   6.259
 8803SOL     OW27307   5.699   6.107   5.705
 8803SOL    HW127308   5.667   6.023   5.663
 8803SOL    HW227309   5.786   6.091   5.752
 8804SOL     OW27310   1.435   5.976   1.749
 8804SOL    HW127311   1.335   5.977   1.749
 8804SOL    HW227312   1.467   5.908   1.683
 8805SOL     OW27313   5.018   4.767   3.406
 8805SOL    HW127314   5.110   4.778   3.367
 8805SOL    HW227315   4.986   4.673   3.389
 8806SOL     OW27316   1.144   6.991   1.782
 8806SOL    HW127317   1.073   6.940   1.734
 8806SOL    HW227318   1.105   0.015   1.862
 8807SOL     OW27319   5.948   3.092   0.654
 8807SOL    HW127320   5.909   3.123   0.740
 8807SOL    HW227321   5.907   3.005   0.627
 8808SOL     OW27322   1.817   2.394   6.189
 8808SOL    HW127323   1.758   2.400   6.269
 8808SOL    HW227324   1.825   2.298   6.160
 8809SOL     OW27325   7.013   3.421   3.113
 8809SOL    HW127326   0.090   3.410   3.108
 8809SOL    HW227327   6.971   3.332   3.129
 8810SOL     OW27328   0.526   1.604   5.049
 8810SOL    HW127329   0.493   1.537   4.982
 8810SOL    HW227330   0.504   1.696   5.017
 8811SOL     OW27331   4.227   4.735   2.625
 8811SOL    HW127332   4.313   4.701   2.587
 8811SOL    HW227333   4.235   4.834   2.641
 8812SOL     OW27334   5.028   0.965   6.878
 8812SOL    HW127335   4.983   0.894   6.825
 8812SOL    HW227336   5.090   0.922   6.944
 8813SOL     OW27337   2.100   3.250   3.037
 8813SOL    HW127338   2.026   3.260   3.103
 8813SOL    HW227339   2.186   3.235   3.086
 8814SOL     OW27340   5.051   0.225   5.046
 8814SOL    HW127341   5.111   0.175   4.983
 8814SOL    HW227342   4.961   0.182   5.046
 8815SOL     OW27343   5.695   0.902   1.338
 8815SOL    HW127344   5.622   0.969   1.354
 8815SOL    HW227345   5.783   0.944   1.358
 8816SOL     OW27346   1.031   6.534   4.413
 8816SOL    HW127347   0.958   6.577   4.466
 8816SOL    HW227348   1.003   6.441   4.387
 8817SOL     OW27349   1.330   2.707   3.139
 8817SOL    HW127350   1.387   2.789   3.144
 8817SOL    HW227351   1.238   2.727   3.172
 8818SOL     OW27352   0.941   6.952   6.433
 8818SOL    HW127353   1.035   6.923   6.451
 8818SOL    HW227354   0.902   6.895   6.361
 8819SOL     OW27355   4.441   5.570   6.169
 8819SOL    HW127356   4.510   5.636   6.198
 8819SOL    HW227357   4.380   5.550   6.245
 8820SOL     OW27358   4.423   6.762   5.590
 8820SOL    HW127359   4.485   6.738   5.665
 8820SOL    HW227360   4.474   6.766   5.505
 8821SOL     OW27361   0.368   4.571   6.263
 8821SOL    HW127362   0.423   4.505   6.314
 8821SOL    HW227363   0.369   4.547   6.166
 8822SOL     OW27364   6.370   0.477   5.160
 8822SOL    HW127365   6.328   0.537   5.229
 8822SOL    HW227366   6.299   0.419   5.120
 8823SOL     OW27367   3.442   1.854   2.841
 8823SOL    HW127368   3.357   1.905   2.849
 8823SOL    HW227369   3.483   1.843   2.932
 8824SOL     OW27370   1.993   6.987   3.246
 8824SOL    HW127371   1.950   6.967   3.334
 8824SOL    HW227372   1.923   7.005   3.178
 8825SOL     OW27373   0.200   0.222   0.566
 8825SOL    HW127374   0.199   0.279   0.648
 8825SOL    HW227375   0.257   0.142   0.582
 8826SOL     OW27376   0.236   4.784   1.152
 8826SOL    HW127377   0.180   4.714   1.108
 8826SOL    HW227378   0.282   4.743   1.232
 8827SOL     OW27379   4.445   6.881   3.187
 8827SOL    HW127380   4.485   6.882   3.095
 8827SOL    HW227381   4.350   6.912   3.182
 8828SOL     OW27382   5.019   2.255   6.446
 8828SOL    HW127383   5.062   2.344   6.436
 8828SOL    HW227384   4.921   2.264   6.426
 8829SOL     OW27385   0.241   1.172   3.050
 8829SOL    HW127386   0.155   1.222   3.043
 8829SOL    HW227387   0.241   1.096   2.985
 8830SOL     OW27388   3.343   0.545   3.748
 8830SOL    HW127389   3.401   0.479   3.795
 8830SOL    HW227390   3.290   0.499   3.678
 8831SOL     OW27391   0.236   3.011   2.361
 8831SOL    HW127392   0.222   3.105   2.391
 8831SOL    HW227393   0.317   3.007   2.302
 8832SOL     OW27394   5.753   0.170   6.013
 8832SOL    HW127395   5.675   0.223   6.046
 8832SOL    HW227396   5.782   0.106   6.084
 8833SOL     OW27397   5.103   2.155   1.107
 8833SOL    HW127398   5.078   2.238   1.158
 8833SOL    HW227399   5.162   2.180   1.030
 8834SOL     OW27400   5.762   4.149   5.855
 8834SOL    HW127401   5.722   4.099   5.933
 8834SOL    HW227402   5.858   4.121   5.844
 8835SOL     OW27403   6.963   0.817   5.401
 8835SOL    HW127404   6.997   0.736   5.449
 8835SOL    HW227405   0.016   0.882   5.388
 8836SOL     OW27406   4.675   1.529   1.487
 8836SOL    HW127407   4.767   1.552   1.519
 8836SOL    HW227408   4.615   1.608   1.499
 8837SOL     OW27409   4.592   6.660   0.784
 8837SOL    HW127410   4.637   6.673   0.872
 8837SOL    HW227411   4.508   6.607   0.797
 8838SOL     OW27412   1.886   3.451   3.522
 8838SOL    HW127413   1.981   3.466   3.546
 8838SOL    HW227414   1.838   3.411   3.600
 8839SOL     OW27415   4.997   5.693   1.428
 8839SOL    HW127416   5.090   5.655   1.427
 8839SOL    HW227417   4.988   5.754   1.506
 8840SOL     OW27418   6.277   0.900   0.805
 8840SOL    HW127419   6.306   0.834   0.736
 8840SOL    HW227420   6.352   0.965   0.823
 8841SOL     OW27421   3.198   1.585   0.621
 8841SOL    HW127422   3.215   1.622   0.713
 8841SOL    HW227423   3.196   1.485   0.625
 8842SOL     OW27424   3.231   3.386   4.248
 8842SOL    HW127425   3.267   3.346   4.163
 8842SOL    HW227426   3.236   3.317   4.320
 8843SOL     OW27427   2.254   5.525   5.624
 8843SOL    HW127428   2.235   5.488   5.715
 8843SOL    HW227429   2.263   5.624   5.629
 8844SOL     OW27430   3.309   2.451   6.304
 8844SOL    HW127431   3.261   2.490   6.225
 8844SOL    HW227432   3.402   2.488   6.309
 8845SOL     OW27433   0.521   3.248   2.300
 8845SOL    HW127434   0.492   3.206   2.214
 8845SOL    HW227435   0.617   3.224   2.318
 8846SOL     OW27436   5.374   4.693   4.455
 8846SOL    HW127437   5.445   4.622   4.453
 8846SOL    HW227438   5.414   4.780   4.485
 8847SOL     OW27439   1.284   2.434   3.961
 8847SOL    HW127440   1.209   2.386   4.006
 8847SOL    HW227441   1.371   2.404   4.000
 8848SOL     OW27442   5.691   1.569   0.507
 8848SOL    HW127443   5.648   1.599   0.422
 8848SOL    HW227444   5.790   1.565   0.495
 8849SOL     OW27445   3.267   5.222   4.511
 8849SOL    HW127446   3.356   5.233   4.466
 8849SOL    HW227447   3.251   5.125   4.530
 8850SOL     OW27448   3.188   1.437   1.520
 8850SOL    HW127449   3.240   1.457   1.437
 8850SOL    HW227450   3.165   1.522   1.567
 8851SOL     OW27451   6.881   5.113   2.803
 8851SOL    HW127452   6.819   5.188   2.782
 8851SOL    HW227453   6.930   5.133   2.888
 8852SOL     OW27454   4.448   2.481   4.426
 8852SOL    HW127455   4.494   2.562   4.462
 8852SOL    HW227456   4.415   2.425   4.501
 8853SOL     OW27457   4.710   1.759   5.637
 8853SOL    HW127458   4.722   1.846   5.590
 8853SOL    HW227459   4.644   1.769   5.711
 8854SOL     OW27460   1.843   1.175   6.648
 8854SOL    HW127461   1.874   1.103   6.585
 8854SOL    HW227462   1.803   1.250   6.596
 8855SOL     OW27463   6.570   4.901   0.092
 8855SOL    HW127464   6.527   4.811   0.101
 8855SOL    HW227465   6.552   4.955   0.174
 8856SOL     OW27466   5.131   1.127   5.109
 8856SOL    HW127467   5.040   1.152   5.143
 8856SOL    HW227468   5.147   1.029   5.125
 8857SOL     OW27469   0.193   2.612   4.911
 8857SOL    HW127470   0.136   2.657   4.843
 8857SOL    HW227471   0.207   2.674   4.989
 8858SOL     OW27472   6.780   3.937   5.656
 8858SOL    HW127473   6.725   4.007   5.703
 8858SOL    HW227474   6.863   3.980   5.620
 8859SOL     OW27475   2.942   5.879   5.465
 8859SOL    HW127476   3.009   5.945   5.430
 8859SOL    HW227477   2.973   5.786   5.444
 8860SOL     OW27478   1.715   1.891   1.536
 8860SOL    HW127479   1.641   1.915   1.598
 8860SOL    HW227480   1.802   1.894   1.586
 8861SOL     OW27481   2.581   3.090   1.222
 8861SOL    HW127482   2.548   3.017   1.163
 8861SOL    HW227483   2.582   3.176   1.172
 8862SOL     OW27484   6.506   2.224   4.914
 8862SOL    HW127485   6.485   2.267   4.826
 8862SOL    HW227486   6.539   2.293   4.978
 8863SOL     OW27487   1.026   5.521   5.286
 8863SOL    HW127488   1.067   5.608   5.258
 8863SOL    HW227489   1.060   5.447   5.227
 8864SOL     OW27490   1.546   3.490   6.032
 8864SOL    HW127491   1.574   3.513   6.125
 8864SOL    HW227492   1.612   3.427   5.992
 8865SOL     OW27493   2.329   1.851   5.553
 8865SOL    HW127494   2.420   1.885   5.530
 8865SOL    HW227495   2.300   1.890   5.641
 8866SOL     OW27496   4.606   6.654   5.814
 8866SOL    HW127497   4.525   6.646   5.871
 8866SOL    HW227498   4.655   6.566   5.812
 8867SOL     OW27499   6.606   1.639   3.430
 8867SOL    HW127500   6.596   1.697   3.511
 8867SOL    HW227501   6.584   1.692   3.348
 8868SOL     OW27502   4.780   3.403   1.115
 8868SOL    HW127503   4.824   3.463   1.048
 8868SOL    HW227504   4.753   3.455   1.195
 8869SOL     OW27505   4.653   2.689   3.758
 8869SOL    HW127506   4.687   2.779   3.733
 8869SOL    HW227507   4.714   2.619   3.720
 8870SOL     OW27508   4.743   1.139   1.630
 8870SOL    HW127509   4.661   1.177   1.587
 8870SOL    HW227510   4.720   1.107   1.722
 8871SOL     OW27511   1.003   2.668   4.439
 8871SOL    HW127512   0.986   2.651   4.342
 8871SOL    HW227513   1.081   2.731   4.449
 8872SOL     OW27514   2.027   2.860   3.303
 8872SOL    HW127515   2.018   2.820   3.212
 8872SOL    HW227516   1.974   2.805   3.369
 8873SOL     OW27517   6.977   6.002   4.891
 8873SOL    HW127518   7.020   6.069   4.830
 8873SOL    HW227519   0.009   5.994   4.974
 8874SOL     OW27520   0.994   1.413   6.787
 8874SOL    HW127521   1.041   1.331   6.820
 8874SOL    HW227522   0.921   1.437   6.851
 8875SOL     OW27523   1.658   1.201   3.938
 8875SOL    HW127524   1.756   1.216   3.940
 8875SOL    HW227525   1.616   1.242   4.020
 8876SOL     OW27526   2.446   1.081   5.065
 8876SOL    HW127527   2.513   1.051   5.132
 8876SOL    HW227528   2.492   1.132   4.992
 8877SOL     OW27529   2.900   6.079   4.480
 8877SOL    HW127530   2.875   6.172   4.453
 8877SOL    HW227531   2.914   6.024   4.399
 8878SOL     OW27532   5.570   4.503   5.457
 8878SOL    HW127533   5.626   4.585   5.468
 8878SOL    HW227534   5.578   4.469   5.364
 8879SOL     OW27535   4.315   5.507   5.073
 8879SOL    HW127536   4.248   5.486   5.144
 8879SOL    HW227537   4.270   5.503   4.983
 8880SOL     OW27538   6.974   6.108   5.762
 8880SOL    HW127539   0.031   6.145   5.810
 8880SOL    HW227540   6.961   6.158   5.676
 8881SOL     OW27541   0.201   0.442   1.614
 8881SOL    HW127542   0.226   0.407   1.704
 8881SOL    HW227543   0.145   0.375   1.566
 8882SOL     OW27544   5.519   2.116   6.473
 8882SOL    HW127545   5.475   2.199   6.508
 8882SOL    HW227546   5.502   2.108   6.375
 8883SOL     OW27547   0.115   1.053   5.529
 8883SOL    HW127548   0.158   0.963   5.532
 8883SOL    HW227549   0.177   1.121   5.570
 8884SOL     OW27550   6.672   0.848   5.479
 8884SOL    HW127551   6.766   0.825   5.453
 8884SOL    HW227552   6.649   0.802   5.565
 8885SOL     OW27553   5.443   3.700   1.477
 8885SOL    HW127554   5.354   3.743   1.494
 8885SOL    HW227555   5.429   3.612   1.433
 8886SOL     OW27556   2.793   6.109   6.514
 8886SOL    HW127557   2.746   6.021   6.501
 8886SOL    HW227558   2.890   6.099   6.488
 8887SOL     OW27559   1.751   0.329   1.136
 8887SOL    HW127560   1.714   0.422   1.147
 8887SOL    HW227561   1.842   0.324   1.178
 8888SOL     OW27562   3.585   1.783   3.441
 8888SOL    HW127563   3.590   1.687   3.469
 8888SOL    HW227564   3.647   1.797   3.363
 8889SOL     OW27565   3.255   6.412   4.773
 8889SOL    HW127566   3.267   6.391   4.870
 8889SOL    HW227567   3.318   6.357   4.718
 8890SOL     OW27568   1.336   4.357   3.751
 8890SOL    HW127569   1.373   4.382   3.661
 8890SOL    HW227570   1.398   4.293   3.796
 8891SOL     OW27571   2.374   1.801   6.695
 8891SOL    HW127572   2.379   1.775   6.792
 8891SOL    HW227573   2.404   1.895   6.684
 8892SOL     OW27574   1.339   6.695   2.430
 8892SOL    HW127575   1.416   6.645   2.392
 8892SOL    HW227576   1.373   6.770   2.488
 8893SOL     OW27577   0.703   1.273   1.292
 8893SOL    HW127578   0.697   1.301   1.387
 8893SOL    HW227579   0.676   1.349   1.232
 8894SOL     OW27580   3.961   2.629   6.311
 8894SOL    HW127581   4.026   2.659   6.241
 8894SOL    HW227582   3.991   2.661   6.400
 8895SOL     OW27583   1.218   0.802   2.090
 8895SOL    HW127584   1.163   0.751   2.023
 8895SOL    HW227585   1.171   0.802   2.178
 8896SOL     OW27586   2.283   4.287   4.917
 8896SOL    HW127587   2.304   4.192   4.939
 8896SOL    HW227588   2.228   4.327   4.990
 8897SOL     OW27589   1.377   1.855   1.251
 8897SOL    HW127590   1.346   1.815   1.337
 8897SOL    HW227591   1.305   1.913   1.213
 8898SOL     OW27592   6.791   3.024   4.635
 8898SOL    HW127593   6.724   3.078   4.686
 8898SOL    HW227594   6.812   2.940   4.686
 8899SOL     OW27595   3.047   4.715   0.359
 8899SOL    HW127596   3.047   4.662   0.274
 8899SOL    HW227597   3.139   4.716   0.397
 8900SOL     OW27598   6.413   1.629   3.111
 8900SOL    HW127599   6.423   1.560   3.184
 8900SOL    HW227600   6.319   1.629   3.078
 8901SOL     OW27601   1.895   6.632   1.691
 8901SOL    HW127602   1.940   6.616   1.603
 8901SOL    HW227603   1.799   6.605   1.684
 8902SOL     OW27604   2.867   5.350   5.422
 8902SOL    HW127605   2.827   5.275   5.475
 8902SOL    HW227606   2.858   5.331   5.325
 8903SOL     OW27607   0.768   1.464   3.817
 8903SOL    HW127608   0.815   1.388   3.862
 8903SOL    HW227609   0.776   1.453   3.718
 8904SOL     OW27610   1.347   5.641   3.439
 8904SOL    HW127611   1.388   5.561   3.394
 8904SOL    HW227612   1.336   5.714   3.372
 8905SOL     OW27613   2.283   4.263   5.267
 8905SOL    HW127614   2.235   4.322   5.203
 8905SOL    HW227615   2.306   4.177   5.222
 8906SOL     OW27616   1.573   5.066   4.467
 8906SOL    HW127617   1.612   5.151   4.501
 8906SOL    HW227618   1.546   5.008   4.544
 8907SOL     OW27619   3.893   2.577   5.912
 8907SOL    HW127620   3.896   2.478   5.926
 8907SOL    HW227621   3.813   2.615   5.959
 8908SOL     OW27622   0.281   2.853   1.953
 8908SOL    HW127623   0.200   2.894   1.993
 8908SOL    HW227624   0.270   2.846   1.854
 8909SOL     OW27625   2.455   6.241   5.617
 8909SOL    HW127626   2.467   6.332   5.657
 8909SOL    HW227627   2.386   6.191   5.669
 8910SOL     OW27628   3.705   3.097   6.386
 8910SOL    HW127629   3.638   3.110   6.313
 8910SOL    HW227630   3.681   3.154   6.464
 8911SOL     OW27631   4.638   2.416   3.931
 8911SOL    HW127632   4.661   2.503   3.975
 8911SOL    HW227633   4.663   2.341   3.993
 8912SOL     OW27634   5.034   1.921   6.037
 8912SOL    HW127635   5.108   1.879   5.984
 8912SOL    HW227636   5.073   1.981   6.107
 8913SOL     OW27637   4.705   4.273   0.946
 8913SOL    HW127638   4.719   4.263   1.044
 8913SOL    HW227639   4.743   4.193   0.898
 8914SOL     OW27640   4.799   1.907   3.449
 8914SOL    HW127641   4.840   1.979   3.392
 8914SOL    HW227642   4.708   1.935   3.478
 8915SOL     OW27643   1.260   5.424   1.838
 8915SOL    HW127644   1.283   5.330   1.864
 8915SOL    HW227645   1.260   5.482   1.920
 8916SOL     OW27646   6.447   3.630   1.760
 8916SOL    HW127647   6.383   3.604   1.688
 8916SOL    HW227648   6.535   3.585   1.745
 8917SOL     OW27649   5.925   5.698   6.260
 8917SOL    HW127650   5.918   5.598   6.262
 8917SOL    HW227651   5.864   5.737   6.329
 8918SOL     OW27652   5.096   4.536   6.147
 8918SOL    HW127653   5.036   4.548   6.226
 8918SOL    HW227654   5.086   4.443   6.112
 8919SOL     OW27655   2.492   3.861   1.418
 8919SOL    HW127656   2.572   3.919   1.403
 8919SOL    HW227657   2.411   3.918   1.431
 8920SOL     OW27658   6.004   5.508   5.434
 8920SOL    HW127659   6.086   5.503   5.492
 8920SOL    HW227660   6.031   5.518   5.339
 8921SOL     OW27661   1.423   5.854   3.602
 8921SOL    HW127662   1.458   5.821   3.690
 8921SOL    HW227663   1.410   5.776   3.541
 8922SOL     OW27664   6.562   4.431   6.775
 8922SOL    HW127665   6.657   4.399   6.777
 8922SOL    HW227666   6.552   4.508   6.838
 8923SOL     OW27667   2.012   4.317   4.590
 8923SOL    HW127668   1.969   4.236   4.549
 8923SOL    HW227669   1.942   4.384   4.615
 8924SOL     OW27670   2.641   5.733   5.257
 8924SOL    HW127671   2.552   5.692   5.277
 8924SOL    HW227672   2.646   5.824   5.298
 8925SOL     OW27673   5.604   6.802   1.532
 8925SOL    HW127674   5.510   6.771   1.543
 8925SOL    HW227675   5.653   6.741   1.470
 8926SOL     OW27676   5.040   1.417   0.054
 8926SOL    HW127677   5.027   1.326   0.015
 8926SOL    HW227678   5.131   1.452   0.029
 8927SOL     OW27679   2.713   1.527   4.307
 8927SOL    HW127680   2.757   1.569   4.227
 8927SOL    HW227681   2.725   1.428   4.302
 8928SOL     OW27682   0.903   6.694   4.777
 8928SOL    HW127683   0.921   6.598   4.755
 8928SOL    HW227684   0.985   6.736   4.814
 8929SOL     OW27685   5.174   4.427   4.199
 8929SOL    HW127686   5.158   4.401   4.104
 8929SOL    HW227687   5.152   4.523   4.212
 8930SOL     OW27688   1.313   5.116   4.975
 8930SOL    HW127689   1.356   5.030   4.950
 8930SOL    HW227690   1.308   5.176   4.896
 8931SOL     OW27691   5.427   1.147   1.652
 8931SOL    HW127692   5.427   1.047   1.641
 8931SOL    HW227693   5.522   1.179   1.659
 8932SOL     OW27694   6.770   0.789   6.968
 8932SOL    HW127695   6.781   0.855   0.021
 8932SOL    HW227696   6.711   0.714   6.997
 8933SOL     OW27697   1.340   0.531   5.335
 8933SOL    HW127698   1.403   0.453   5.335
 8933SOL    HW227699   1.306   0.546   5.242
 8934SOL     OW27700   4.889   6.487   3.170
 8934SOL    HW127701   4.860   6.418   3.236
 8934SOL    HW227702   4.815   6.505   3.106
 8935SOL     OW27703   5.773   2.341   2.620
 8935SOL    HW127704   5.778   2.293   2.532
 8935SOL    HW227705   5.705   2.413   2.615
 8936SOL     OW27706   1.787   3.546   2.863
 8936SOL    HW127707   1.766   3.567   2.958
 8936SOL    HW227708   1.820   3.451   2.856
 8937SOL     OW27709   4.314   0.217   5.444
 8937SOL    HW127710   4.386   0.270   5.487
 8937SOL    HW227711   4.349   0.126   5.420
 8938SOL     OW27712   5.841   6.842   2.041
 8938SOL    HW127713   5.816   6.756   1.996
 8938SOL    HW227714   5.825   6.918   1.979
 8939SOL     OW27715   0.493   2.648   4.191
 8939SOL    HW127716   0.400   2.658   4.226
 8939SOL    HW227717   0.552   2.616   4.265
 8940SOL     OW27718   6.361   3.057   1.518
 8940SOL    HW127719   6.406   3.130   1.568
 8940SOL    HW227720   6.340   2.981   1.580
 8941SOL     OW27721   5.044   2.245   2.587
 8941SOL    HW127722   5.004   2.233   2.496
 8941SOL    HW227723   4.972   2.272   2.652
 8942SOL     OW27724   4.902   4.628   4.182
 8942SOL    HW127725   4.936   4.590   4.096
 8942SOL    HW227726   4.979   4.646   4.243
 8943SOL     OW27727   4.655   2.532   1.032
 8943SOL    HW127728   4.577   2.502   0.977
 8943SOL    HW227729   4.684   2.457   1.092
 8944SOL     OW27730   4.723   5.629   5.281
 8944SOL    HW127731   4.665   5.590   5.209
 8944SOL    HW227732   4.807   5.576   5.289
 8945SOL     OW27733   6.015   3.931   2.744
 8945SOL    HW127734   5.933   3.943   2.687
 8945SOL    HW227735   6.007   3.987   2.826
 8946SOL     OW27736   4.641   0.847   5.660
 8946SOL    HW127737   4.712   0.779   5.680
 8946SOL    HW227738   4.635   0.859   5.561
 8947SOL     OW27739   2.042   4.517   6.764
 8947SOL    HW127740   2.074   4.489   6.854
 8947SOL    HW227741   1.977   4.593   6.773
 8948SOL     OW27742   5.576   0.986   2.630
 8948SOL    HW127743   5.569   1.041   2.713
 8948SOL    HW227744   5.616   1.041   2.557
 8949SOL     OW27745   4.099   6.150   1.038
 8949SOL    HW127746   4.046   6.218   1.088
 8949SOL    HW227747   4.157   6.099   1.102
 8950SOL     OW27748   3.390   3.571   2.252
 8950SOL    HW127749   3.326   3.498   2.274
 8950SOL    HW227750   3.375   3.601   2.157
 8951SOL     OW27751   1.649   0.230   4.762
 8951SOL    HW127752   1.686   0.143   4.795
 8951SOL    HW227753   1.551   0.234   4.782
 8952SOL     OW27754   1.029   4.668   4.121
 8952SOL    HW127755   1.017   4.571   4.143
 8952SOL    HW227756   1.120   4.698   4.149
 8953SOL     OW27757   0.773   5.052   1.354
 8953SOL    HW127758   0.866   5.085   1.334
 8953SOL    HW227759   0.777   4.957   1.385
 8954SOL     OW27760   2.142   4.396   5.455
 8954SOL    HW127761   2.186   4.349   5.378
 8954SOL    HW227762   2.094   4.477   5.421
 8955SOL     OW27763   5.665   2.609   4.803
 8955SOL    HW127764   5.655   2.575   4.896
 8955SOL    HW227765   5.576   2.612   4.758
 8956SOL     OW27766   0.444   5.906   1.044
 8956SOL    HW127767   0.359   5.905   1.096
 8956SOL    HW227768   0.441   5.981   0.977
 8957SOL     OW27769   1.160   5.898   2.734
 8957SOL    HW127770   1.258   5.912   2.746
 8957SOL    HW227771   1.111   5.978   2.769
 8958SOL     OW27772   1.161   4.125   5.067
 8958SOL    HW127773   1.065   4.144   5.089
 8958SOL    HW227774   1.181   4.029   5.086
 8959SOL     OW27775   5.782   2.288   3.596
 8959SOL    HW127776   5.831   2.258   3.678
 8959SOL    HW227777   5.847   2.313   3.525
 8960SOL     OW27778   4.747   5.026   3.231
 8960SOL    HW127779   4.717   5.113   3.190
 8960SOL    HW227780   4.832   5.041   3.280
 8961SOL     OW27781   2.761   1.707   4.844
 8961SOL    HW127782   2.757   1.611   4.869
 8961SOL    HW227783   2.846   1.747   4.879
 8962SOL     OW27784   6.506   5.721   2.026
 8962SOL    HW127785   6.425   5.673   1.991
 8962SOL    HW227786   6.554   5.766   1.951
 8963SOL     OW27787   3.613   6.525   6.285
 8963SOL    HW127788   3.704   6.558   6.256
 8963SOL    HW227789   3.616   6.426   6.295
 8964SOL     OW27790   2.087   3.297   4.016
 8964SOL    HW127791   2.144   3.217   4.031
 8964SOL    HW227792   2.006   3.272   3.963
 8965SOL     OW27793   3.527   5.601   0.186
 8965SOL    HW127794   3.534   5.503   0.203
 8965SOL    HW227795   3.482   5.645   0.264
 8966SOL     OW27796   5.356   6.775   5.103
 8966SOL    HW127797   5.344   6.832   5.021
 8966SOL    HW227798   5.412   6.824   5.169
 8967SOL     OW27799   3.376   0.275   3.477
 8967SOL    HW127800   3.286   0.306   3.506
 8967SOL    HW227801   3.368   0.188   3.428
 8968SOL     OW27802   3.860   4.929   2.165
 8968SOL    HW127803   3.764   4.922   2.194
 8968SOL    HW227804   3.917   4.956   2.243
 8969SOL     OW27805   0.648   0.540   3.107
 8969SOL    HW127806   0.740   0.501   3.097
 8969SOL    HW227807   0.646   0.601   3.186
 8970SOL     OW27808   1.726   1.120   3.601
 8970SOL    HW127809   1.663   1.044   3.583
 8970SOL    HW227810   1.808   1.085   3.646
 8971SOL     OW27811   3.035   4.217   1.010
 8971SOL    HW127812   3.053   4.315   1.019
 8971SOL    HW227813   2.972   4.202   0.933
 8972SOL     OW27814   5.227   4.046   6.851
 8972SOL    HW127815   5.234   4.069   6.754
 8972SOL    HW227816   5.301   4.092   6.901
 8973SOL     OW27817   2.125   2.517   3.390
 8973SOL    HW127818   2.082   2.529   3.479
 8973SOL    HW227819   2.054   2.510   3.320
 8974SOL     OW27820   1.914   4.215   3.955
 8974SOL    HW127821   1.915   4.232   4.053
 8974SOL    HW227822   2.000   4.174   3.927
 8975SOL     OW27823   6.771   4.785   5.895
 8975SOL    HW127824   6.820   4.704   5.929
 8975SOL    HW227825   6.679   4.758   5.867
 8976SOL     OW27826   6.032   0.100   2.224
 8976SOL    HW127827   5.971   0.151   2.164
 8976SOL    HW227828   5.989   0.087   2.313
 8977SOL     OW27829   6.145   4.461   6.784
 8977SOL    HW127830   6.161   4.543   6.730
 8977SOL    HW227831   6.215   4.393   6.763
 8978SOL     OW27832   6.108   5.602   6.886
 8978SOL    HW127833   6.072   5.677   6.830
 8978SOL    HW227834   6.206   5.590   6.866
 8979SOL     OW27835   1.565   4.867   3.856
 8979SOL    HW127836   1.517   4.783   3.832
 8979SOL    HW227837   1.660   4.861   3.828
 8980SOL     OW27838   3.580   0.634   0.477
 8980SOL    HW127839   3.604   0.703   0.545
 8980SOL    HW227840   3.556   0.678   0.391
 8981SOL     OW27841   4.287   2.825   6.455
 8981SOL    HW127842   4.280   2.892   6.529
 8981SOL    HW227843   4.274   2.871   6.367
 8982SOL     OW27844   0.130   1.473   1.753
 8982SOL    HW127845   0.138   1.425   1.665
 8982SOL    HW227846   0.149   1.409   1.827
 8983SOL     OW27847   1.608   6.663   1.712
 8983SOL    HW127848   1.556   6.628   1.634
 8983SOL    HW227849   1.553   6.729   1.762
 8984SOL     OW27850   6.724   1.291   4.925
 8984SOL    HW127851   6.821   1.294   4.948
 8984SOL    HW227852   6.713   1.283   4.826
 8985SOL     OW27853   5.080   1.198   2.568
 8985SOL    HW127854   5.060   1.102   2.548
 8985SOL    HW227855   5.078   1.213   2.667
 8986SOL     OW27856   6.694   4.956   0.647
 8986SOL    HW127857   6.718   4.888   0.577
 8986SOL    HW227858   6.708   5.048   0.609
 8987SOL     OW27859   2.175   6.796   1.650
 8987SOL    HW127860   2.173   6.696   1.659
 8987SOL    HW227861   2.151   6.822   1.557
 8988SOL     OW27862   2.955   0.123   0.909
 8988SOL    HW127863   3.051   0.135   0.931
 8988SOL    HW227864   2.935   0.166   0.821
 8989SOL     OW27865   5.850   1.698   2.331
 8989SOL    HW127866   5.874   1.781   2.281
 8989SOL    HW227867   5.794   1.722   2.410
 8990SOL     OW27868   3.544   0.705   2.892
 8990SOL    HW127869   3.578   0.685   2.984
 8990SOL    HW227870   3.582   0.792   2.861
 8991SOL     OW27871   1.292   2.454   0.580
 8991SOL    HW127872   1.382   2.409   0.586
 8991SOL    HW227873   1.236   2.407   0.511
 8992SOL     OW27874   6.219   4.262   6.491
 8992SOL    HW127875   6.263   4.247   6.580
 8992SOL    HW227876   6.202   4.360   6.479
 8993SOL     OW27877   5.291   3.998   5.061
 8993SOL    HW127878   5.314   4.043   4.975
 8993SOL    HW227879   5.253   4.065   5.124
 8994SOL     OW27880   1.843   6.350   2.646
 8994SOL    HW127881   1.802   6.280   2.703
 8994SOL    HW227882   1.874   6.310   2.560
 8995SOL     OW27883   1.962   3.924   4.688
 8995SOL    HW127884   2.060   3.937   4.705
 8995SOL    HW227885   1.913   3.930   4.775
 8996SOL     OW27886   1.523   4.034   1.631
 8996SOL    HW127887   1.474   3.968   1.687
 8996SOL    HW227888   1.466   4.115   1.616
 8997SOL     OW27889   4.597   1.083   5.889
 8997SOL    HW127890   4.550   1.072   5.976
 8997SOL    HW227891   4.549   1.031   5.818
 8998SOL     OW27892   0.937   1.443   6.396
 8998SOL    HW127893   0.859   1.413   6.341
 8998SOL    HW227894   0.905   1.500   6.472
 8999SOL     OW27895   5.136   1.886   5.136
 8999SOL    HW127896   5.109   1.827   5.212
 8999SOL    HW227897   5.227   1.924   5.154
 9000SOL     OW27898   2.869   4.822   0.787
 9000SOL    HW127899   2.899   4.756   0.718
 9000SOL    HW227900   2.941   4.835   0.855
 9001SOL     OW27901   1.990   4.130   3.569
 9001SOL    HW127902   2.082   4.116   3.606
 9001SOL    HW227903   1.988   4.215   3.516
 9002SOL     OW27904   5.539   4.092   5.193
 9002SOL    HW127905   5.446   4.055   5.182
 9002SOL    HW227906   5.580   4.054   5.276
 9003SOL     OW27907   6.019   3.152   6.556
 9003SOL    HW127908   6.102   3.196   6.589
 9003SOL    HW227909   5.966   3.217   6.501
 9004SOL     OW27910   4.716   5.518   0.610
 9004SOL    HW127911   4.772   5.552   0.535
 9004SOL    HW227912   4.620   5.519   0.583
 9005SOL     OW27913   4.745   2.596   3.065
 9005SOL    HW127914   4.821   2.659   3.052
 9005SOL    HW227915   4.778   2.512   3.109
 9006SOL     OW27916   2.108   6.881   0.874
 9006SOL    HW127917   2.168   6.945   0.825
 9006SOL    HW227918   2.161   6.801   0.902
 9007SOL     OW27919   2.383   6.529   4.553
 9007SOL    HW127920   2.421   6.437   4.546
 9007SOL    HW227921   2.451   6.591   4.592
 9008SOL     OW27922   0.233   4.079   2.297
 9008SOL    HW127923   0.242   4.083   2.198
 9008SOL    HW227924   0.324   4.074   2.339
 9009SOL     OW27925   4.299   6.421   0.521
 9009SOL    HW127926   4.383   6.366   0.512
 9009SOL    HW227927   4.294   6.458   0.613
 9010SOL     OW27928   0.272   5.395   5.226
 9010SOL    HW127929   0.317   5.448   5.154
 9010SOL    HW227930   0.190   5.444   5.257
 9011SOL     OW27931   4.645   2.224   2.431
 9011SOL    HW127932   4.594   2.144   2.461
 9011SOL    HW227933   4.634   2.298   2.497
 9012SOL     OW27934   5.617   5.525   2.418
 9012SOL    HW127935   5.533   5.479   2.392
 9012SOL    HW227936   5.696   5.470   2.391
 9013SOL     OW27937   4.242   6.507   2.229
 9013SOL    HW127938   4.191   6.457   2.158
 9013SOL    HW227939   4.274   6.593   2.191
 9014SOL     OW27940   2.175   0.770   1.202
 9014SOL    HW127941   2.220   0.684   1.224
 9014SOL    HW227942   2.208   0.841   1.265
 9015SOL     OW27943   6.003   1.067   4.774
 9015SOL    HW127944   6.058   1.111   4.703
 9015SOL    HW227945   5.938   1.004   4.731
 9016SOL     OW27946   6.933   5.652   6.373
 9016SOL    HW127947   6.972   5.743   6.383
 9016SOL    HW227948   6.848   5.658   6.320
 9017SOL     OW27949   0.015   3.901   3.306
 9017SOL    HW127950   0.051   3.808   3.301
 9017SOL    HW227951   0.050   3.945   3.389
 9018SOL     OW27952   3.938   1.672   6.426
 9018SOL    HW127953   4.008   1.708   6.364
 9018SOL    HW227954   3.972   1.588   6.469
 9019SOL     OW27955   1.207   5.590   0.426
 9019SOL    HW127956   1.124   5.641   0.444
 9019SOL    HW227957   1.283   5.654   0.410
 9020SOL     OW27958   0.764   5.003   3.112
 9020SOL    HW127959   0.735   4.908   3.098
 9020SOL    HW227960   0.711   5.044   3.186
 9021SOL     OW27961   6.209   5.797   5.273
 9021SOL    HW127962   6.115   5.764   5.260
 9021SOL    HW227963   6.220   5.829   5.367
 9022SOL     OW27964   3.313   0.076   6.386
 9022SOL    HW127965   3.409   0.053   6.370
 9022SOL    HW227966   3.308   0.158   6.444
 9023SOL     OW27967   3.292   2.908   3.564
 9023SOL    HW127968   3.344   2.852   3.629
 9023SOL    HW227969   3.268   2.995   3.606
 9024SOL     OW27970   0.958   0.323   7.005
 9024SOL    HW127971   1.058   0.330   7.000
 9024SOL    HW227972   0.919   0.355   6.919
 9025SOL     OW27973   0.232   3.959   0.798
 9025SOL    HW127974   0.160   4.008   0.749
 9025SOL    HW227975   0.203   3.866   0.818
 9026SOL     OW27976   2.949   3.325   5.499
 9026SOL    HW127977   2.902   3.413   5.509
 9026SOL    HW227978   2.904   3.257   5.556
 9027SOL     OW27979   2.595   2.481   3.300
 9027SOL    HW127980   2.668   2.537   3.338
 9027SOL    HW227981   2.579   2.402   3.359
 9028SOL     OW27982   2.605   4.584   4.540
 9028SOL    HW127983   2.565   4.527   4.468
 9028SOL    HW227984   2.580   4.546   4.629
 9029SOL     OW27985   6.126   5.727   2.851
 9029SOL    HW127986   6.132   5.628   2.849
 9029SOL    HW227987   6.181   5.766   2.777
 9030SOL     OW27988   3.607   1.565   2.100
 9030SOL    HW127989   3.600   1.475   2.058
 9030SOL    HW227990   3.571   1.634   2.036
 9031SOL     OW27991   1.191   1.444   0.860
 9031SOL    HW127992   1.238   1.398   0.935
 9031SOL    HW227993   1.104   1.482   0.892
 9032SOL     OW27994   1.061   2.898   2.266
 9032SOL    HW127995   0.962   2.892   2.277
 9032SOL    HW227996   1.089   2.994   2.261
 9033SOL     OW27997   1.155   3.968   1.883
 9033SOL    HW127998   1.104   3.885   1.861
 9033SOL    HW227999   1.090   4.044   1.894
 9034SOL     OW28000   1.419   6.748   6.678
 9034SOL    HW128001   1.497   6.706   6.632
 9034SOL    HW228002   1.349   6.678   6.695
 9035SOL     OW28003   0.017   0.551   4.280
 9035SOL    HW128004   6.963   0.499   4.317
 9035SOL    HW228005   0.004   0.565   4.182
 9036SOL     OW28006   1.679   1.299   4.554
 9036SOL    HW128007   1.620   1.374   4.583
 9036SOL    HW228008   1.626   1.235   4.499
 9037SOL     OW28009   2.501   3.986   5.964
 9037SOL    HW128010   2.483   3.998   5.866
 9037SOL    HW228011   2.436   4.040   6.017
 9038SOL     OW28012   4.789   6.426   5.569
 9038SOL    HW128013   4.812   6.329   5.575
 9038SOL    HW228014   4.701   6.435   5.521
 9039SOL     OW28015   2.407   4.783   6.734
 9039SOL    HW128016   2.487   4.784   6.675
 9039SOL    HW228017   2.357   4.698   6.722
 9040SOL     OW28018   2.832   2.015   2.415
 9040SOL    HW128019   2.849   2.111   2.393
 9040SOL    HW228020   2.818   1.964   2.330
 9041SOL     OW28021   1.718   3.153   6.559
 9041SOL    HW128022   1.804   3.170   6.511
 9041SOL    HW228023   1.730   3.078   6.624
 9042SOL     OW28024   2.497   5.395   3.551
 9042SOL    HW128025   2.502   5.346   3.464
 9042SOL    HW228026   2.478   5.330   3.624
 9043SOL     OW28027   6.676   2.706   0.579
 9043SOL    HW128028   6.612   2.704   0.656
 9043SOL    HW228029   6.727   2.791   0.580
 9044SOL     OW28030   6.809   4.650   0.823
 9044SOL    HW128031   6.740   4.723   0.824
 9044SOL    HW228032   6.772   4.568   0.866
 9045SOL     OW28033   2.875   5.306   4.204
 9045SOL    HW128034   2.787   5.297   4.251
 9045SOL    HW228035   2.876   5.390   4.150
 9046SOL     OW28036   3.804   4.325   5.841
 9046SOL    HW128037   3.785   4.414   5.801
 9046SOL    HW228038   3.751   4.314   5.925
 9047SOL     OW28039   1.343   4.616   4.747
 9047SOL    HW128040   1.271   4.567   4.699
 9047SOL    HW228041   1.360   4.573   4.835
 9048SOL     OW28042   2.059   1.866   4.530
 9048SOL    HW128043   2.082   1.954   4.573
 9048SOL    HW228044   2.141   1.809   4.527
 9049SOL     OW28045   4.868   6.418   6.509
 9049SOL    HW128046   4.916   6.363   6.441
 9049SOL    HW228047   4.924   6.498   6.533
 9050SOL     OW28048   0.238   5.246   5.449
 9050SOL    HW128049   0.148   5.210   5.426
 9050SOL    HW228050   0.279   5.286   5.367
 9051SOL     OW28051   5.461   6.533   5.837
 9051SOL    HW128052   5.491   6.616   5.884
 9051SOL    HW228053   5.409   6.558   5.755
 9052SOL     OW28054   2.313   5.028   4.874
 9052SOL    HW128055   2.318   5.012   4.972
 9052SOL    HW228056   2.404   5.046   4.838
 9053SOL     OW28057   3.179   1.694   3.603
 9053SOL    HW128058   3.139   1.702   3.511
 9053SOL    HW228059   3.253   1.761   3.613
 9054SOL     OW28060   2.871   0.147   0.652
 9054SOL    HW128061   2.873   0.135   0.553
 9054SOL    HW228062   2.776   0.148   0.684
 9055SOL     OW28063   0.469   1.838   4.944
 9055SOL    HW128064   0.468   1.832   4.844
 9055SOL    HW228065   0.518   1.921   4.972
 9056SOL     OW28066   4.561   2.246   2.709
 9056SOL    HW128067   4.612   2.261   2.793
 9056SOL    HW228068   4.543   2.148   2.697
 9057SOL     OW28069   4.832   6.199   6.907
 9057SOL    HW128070   4.907   6.138   6.932
 9057SOL    HW228071   4.827   6.206   6.807
 9058SOL     OW28072   2.068   2.603   4.255
 9058SOL    HW128073   2.100   2.562   4.340
 9058SOL    HW228074   2.011   2.683   4.275
 9059SOL     OW28075   0.206   1.005   2.328
 9059SOL    HW128076   0.158   1.086   2.362
 9059SOL    HW228077   0.304   1.015   2.344
 9060SOL     OW28078   0.779   5.579   1.823
 9060SOL    HW128079   0.758   5.677   1.816
 9060SOL    HW228080   0.848   5.565   1.894
 9061SOL     OW28081   5.218   4.245   2.649
 9061SOL    HW128082   5.277   4.219   2.725
 9061SOL    HW228083   5.126   4.209   2.664
 9062SOL     OW28084   0.724   5.352   3.114
 9062SOL    HW128085   0.744   5.302   3.030
 9062SOL    HW228086   0.696   5.288   3.185
 9063SOL     OW28087   4.358   1.842   2.112
 9063SOL    HW128088   4.429   1.869   2.047
 9063SOL    HW228089   4.268   1.860   2.073
 9064SOL     OW28090   0.785   5.605   3.160
 9064SOL    HW128091   0.733   5.658   3.093
 9064SOL    HW228092   0.776   5.507   3.141
 9065SOL     OW28093   3.211   4.131   6.320
 9065SOL    HW128094   3.169   4.217   6.288
 9065SOL    HW228095   3.265   4.091   6.247
 9066SOL     OW28096   5.067   5.220   4.303
 9066SOL    HW128097   5.088   5.136   4.354
 9066SOL    HW228098   5.138   5.235   4.234
 9067SOL     OW28099   1.501   6.142   4.625
 9067SOL    HW128100   1.459   6.105   4.543
 9067SOL    HW228101   1.587   6.188   4.601
 9068SOL     OW28102   3.942   0.475   5.909
 9068SOL    HW128103   3.894   0.387   5.912
 9068SOL    HW228104   4.023   0.471   5.967
 9069SOL     OW28105   4.872   2.745   1.487
 9069SOL    HW128106   4.836   2.800   1.412
 9069SOL    HW228107   4.972   2.745   1.484
 9070SOL     OW28108   2.234   1.043   5.501
 9070SOL    HW128109   2.234   1.068   5.404
 9070SOL    HW228110   2.171   1.102   5.551
 9071SOL     OW28111   5.615   2.634   6.798
 9071SOL    HW128112   5.627   2.555   6.738
 9071SOL    HW228113   5.517   2.650   6.812
 9072SOL     OW28114   5.622   0.581   2.521
 9072SOL    HW128115   5.571   0.667   2.521
 9072SOL    HW228116   5.559   0.506   2.541
 9073SOL     OW28117   4.609   2.770   4.979
 9073SOL    HW128118   4.570   2.713   5.051
 9073SOL    HW228119   4.544   2.842   4.955
 9074SOL     OW28120   1.809   0.829   2.725
 9074SOL    HW128121   1.770   0.746   2.766
 9074SOL    HW228122   1.737   0.898   2.717
 9075SOL     OW28123   5.815   5.946   0.929
 9075SOL    HW128124   5.725   5.969   0.891
 9075SOL    HW228125   5.868   6.030   0.942
 9076SOL     OW28126   0.410   6.553   2.334
 9076SOL    HW128127   0.426   6.624   2.403
 9076SOL    HW228128   0.450   6.467   2.364
 9077SOL     OW28129   6.419   1.868   6.844
 9077SOL    HW128130   6.327   1.868   6.882
 9077SOL    HW228131   6.472   1.942   6.886
 9078SOL     OW28132   5.506   0.330   6.728
 9078SOL    HW128133   5.507   0.427   6.705
 9078SOL    HW228134   5.577   0.283   6.675
 9079SOL     OW28135   1.276   1.291   6.638
 9079SOL    HW128136   1.357   1.244   6.672
 9079SOL    HW228137   1.195   1.235   6.655
 9080SOL     OW28138   6.175   3.677   2.423
 9080SOL    HW128139   6.152   3.588   2.461
 9080SOL    HW228140   6.092   3.734   2.422
 9081SOL     OW28141   5.109   1.360   0.318
 9081SOL    HW128142   5.102   1.260   0.323
 9081SOL    HW228143   5.083   1.391   0.227
 9082SOL     OW28144   3.376   5.727   6.472
 9082SOL    HW128145   3.412   5.797   6.410
 9082SOL    HW228146   3.439   5.650   6.474
 9083SOL     OW28147   3.824   6.418   0.415
 9083SOL    HW128148   3.744   6.359   0.417
 9083SOL    HW228149   3.904   6.367   0.447
 9084SOL     OW28150   0.144   3.213   4.908
 9084SOL    HW128151   0.209   3.218   4.832
 9084SOL    HW228152   0.194   3.205   4.994
 9085SOL     OW28153   2.615   4.665   0.527
 9085SOL    HW128154   2.673   4.624   0.598
 9085SOL    HW228155   2.586   4.756   0.557
 9086SOL     OW28156   0.103   3.713   0.858
 9086SOL    HW128157   0.097   3.639   0.792
 9086SOL    HW228158   0.023   3.712   0.917
 9087SOL     OW28159   5.492   1.100   1.296
 9087SOL    HW128160   5.400   1.116   1.332
 9087SOL    HW228161   5.485   1.066   1.202
 9088SOL     OW28162   6.014   5.868   0.475
 9088SOL    HW128163   5.965   5.851   0.561
 9088SOL    HW228164   5.957   5.839   0.398
 9089SOL     OW28165   5.803   5.528   3.412
 9089SOL    HW128166   5.731   5.460   3.394
 9089SOL    HW228167   5.787   5.569   3.502
 9090SOL     OW28168   4.942   6.078   5.877
 9090SOL    HW128169   4.954   5.980   5.861
 9090SOL    HW228170   4.927   6.095   5.974
 9091SOL     OW28171   2.617   1.835   1.615
 9091SOL    HW128172   2.535   1.805   1.663
 9091SOL    HW228173   2.644   1.925   1.648
 9092SOL     OW28174   2.350   0.798   5.409
 9092SOL    HW128175   2.450   0.802   5.402
 9092SOL    HW228176   2.316   0.884   5.445
 9093SOL     OW28177   2.232   4.105   0.825
 9093SOL    HW128178   2.154   4.161   0.853
 9093SOL    HW228179   2.224   4.013   0.865
 9094SOL     OW28180   6.402   4.128   1.104
 9094SOL    HW128181   6.462   4.204   1.078
 9094SOL    HW228182   6.354   4.152   1.189
 9095SOL     OW28183   2.717   3.340   6.834
 9095SOL    HW128184   2.628   3.309   6.868
 9095SOL    HW228185   2.789   3.309   6.896
 9096SOL     OW28186   6.029   3.261   3.113
 9096SOL    HW128187   6.088   3.180   3.115
 9096SOL    HW228188   5.961   3.255   3.185
 9097SOL     OW28189   0.047   5.098   5.794
 9097SOL    HW128190   0.111   5.021   5.788
 9097SOL    HW228191   6.986   5.069   5.841
 9098SOL     OW28192   3.280   3.526   3.655
 9098SOL    HW128193   3.274   3.538   3.754
 9098SOL    HW228194   3.279   3.428   3.633
 9099SOL     OW28195   2.230   2.862   0.364
 9099SOL    HW128196   2.138   2.845   0.399
 9099SOL    HW228197   2.298   2.836   0.433
 9100SOL     OW28198   1.143   3.382   0.397
 9100SOL    HW128199   1.088   3.377   0.481
 9100SOL    HW228200   1.169   3.478   0.381
 9101SOL     OW28201   2.109   2.206   6.742
 9101SOL    HW128202   2.024   2.250   6.714
 9101SOL    HW228203   2.103   2.179   6.838
 9102SOL     OW28204   4.474   6.062   2.280
 9102SOL    HW128205   4.399   6.083   2.217
 9102SOL    HW228206   4.532   6.143   2.290
 9103SOL     OW28207   0.152   4.000   6.808
 9103SOL    HW128208   0.113   3.942   6.880
 9103SOL    HW228209   0.089   4.004   6.731
 9104SOL     OW28210   4.432   6.991   1.932
 9104SOL    HW128211   4.384   0.010   2.008
 9104SOL    HW228212   4.391   7.021   1.846
 9105SOL     OW28213   2.576   1.704   5.490
 9105SOL    HW128214   2.583   1.768   5.414
 9105SOL    HW228215   2.480   1.686   5.510
 9106SOL     OW28216   6.386   5.046   1.329
 9106SOL    HW128217   6.422   5.098   1.251
 9106SOL    HW228218   6.457   4.987   1.366
 9107SOL     OW28219   4.405   0.610   1.611
 9107SOL    HW128220   4.343   0.689   1.612
 9107SOL    HW228221   4.488   0.633   1.560
 9108SOL     OW28222   4.563   5.842   6.770
 9108SOL    HW128223   4.605   5.761   6.729
 9108SOL    HW228224   4.607   5.861   6.858
 9109SOL     OW28225   3.014   1.848   4.576
 9109SOL    HW128226   2.931   1.793   4.576
 9109SOL    HW228227   2.992   1.942   4.601
 9110SOL     OW28228   1.899   3.018   2.962
 9110SOL    HW128229   1.859   3.031   2.871
 9110SOL    HW228230   1.986   3.069   2.967
 9111SOL     OW28231   4.233   4.282   1.693
 9111SOL    HW128232   4.258   4.356   1.630
 9111SOL    HW228233   4.305   4.272   1.761
 9112SOL     OW28234   0.235   5.027   2.818
 9112SOL    HW128235   0.176   5.001   2.742
 9112SOL    HW228236   0.329   5.001   2.798
 9113SOL     OW28237   3.389   6.256   0.481
 9113SOL    HW128238   3.419   6.321   0.410
 9113SOL    HW228239   3.294   6.230   0.464
 9114SOL     OW28240   2.325   4.549   2.051
 9114SOL    HW128241   2.344   4.451   2.057
 9114SOL    HW228242   2.392   4.592   1.991
 9115SOL     OW28243   1.543   4.128   4.161
 9115SOL    HW128244   1.581   4.180   4.237
 9115SOL    HW228245   1.499   4.045   4.195
 9116SOL     OW28246   1.457   1.192   6.093
 9116SOL    HW128247   1.439   1.095   6.078
 9116SOL    HW228248   1.545   1.203   6.138
 9117SOL     OW28249   6.596   3.004   0.026
 9117SOL    HW128250   6.515   3.054   7.015
 9117SOL    HW228251   6.604   2.918   6.998
 9118SOL     OW28252   6.360   5.776   1.573
 9118SOL    HW128253   6.403   5.820   1.652
 9118SOL    HW228254   6.337   5.845   1.504
 9119SOL     OW28255   6.786   0.185   1.258
 9119SOL    HW128256   6.704   0.237   1.231
 9119SOL    HW228257   6.842   0.240   1.320
 9120SOL     OW28258   5.460   1.390   6.325
 9120SOL    HW128259   5.449   1.466   6.261
 9120SOL    HW228260   5.372   1.345   6.338
 9121SOL     OW28261   1.163   0.877   6.751
 9121SOL    HW128262   1.085   0.815   6.742
 9121SOL    HW228263   1.196   0.876   6.845
 9122SOL     OW28264   0.930   2.420   1.260
 9122SOL    HW128265   0.855   2.485   1.245
 9122SOL    HW228266   0.990   2.455   1.333
 9123SOL     OW28267   2.764   5.829   0.184
 9123SOL    HW128268   2.752   5.746   0.238
 9123SOL    HW228269   2.828   5.812   0.109
 9124SOL     OW28270   5.742   5.497   5.294
 9124SOL    HW128271   5.838   5.472   5.302
 9124SOL    HW228272   5.734   5.589   5.257
 9125SOL     OW28273   4.961   5.606   3.438
 9125SOL    HW128274   4.916   5.695   3.434
 9125SOL    HW228275   4.912   5.541   3.381
 9126SOL     OW28276   5.904   0.548   1.715
 9126SOL    HW128277   5.808   0.549   1.686
 9126SOL    HW228278   5.960   0.590   1.644
 9127SOL     OW28279   5.138   0.800   0.043
 9127SOL    HW128280   5.152   0.714   7.016
 9127SOL    HW228281   5.098   0.781   0.132
 9128SOL     OW28282   4.499   2.601   5.191
 9128SOL    HW128283   4.476   2.504   5.190
 9128SOL    HW228284   4.422   2.653   5.228
 9129SOL     OW28285   2.023   2.357   5.971
 9129SOL    HW128286   1.993   2.271   5.929
 9129SOL    HW228287   1.972   2.373   6.055
 9130SOL     OW28288   6.176   4.918   0.870
 9130SOL    HW128289   6.251   4.980   0.844
 9130SOL    HW228290   6.154   4.932   0.967
 9131SOL     OW28291   0.715   3.916   4.433
 9131SOL    HW128292   0.698   3.910   4.335
 9131SOL    HW228293   0.789   3.853   4.458
 9132SOL     OW28294   0.267   2.907   4.839
 9132SOL    HW128295   0.296   2.884   4.932
 9132SOL    HW228296   0.174   2.945   4.842
 9133SOL     OW28297   1.887   4.353   1.311
 9133SOL    HW128298   1.811   4.303   1.268
 9133SOL    HW228299   1.862   4.378   1.404
 9134SOL     OW28300   2.999   5.856   5.951
 9134SOL    HW128301   2.900   5.854   5.937
 9134SOL    HW228302   3.046   5.847   5.862
 9135SOL     OW28303   6.687   6.593   4.547
 9135SOL    HW128304   6.605   6.641   4.577
 9135SOL    HW228305   6.755   6.660   4.516
 9136SOL     OW28306   4.767   4.525   5.176
 9136SOL    HW128307   4.843   4.536   5.240
 9136SOL    HW228308   4.685   4.569   5.213
 9137SOL     OW28309   4.292   1.159   2.125
 9137SOL    HW128310   4.294   1.237   2.062
 9137SOL    HW228311   4.385   1.121   2.133
 9138SOL     OW28312   3.775   5.006   0.358
 9138SOL    HW128313   3.755   5.102   0.381
 9138SOL    HW228314   3.757   4.949   0.438
 9139SOL     OW28315   3.000   1.579   5.652
 9139SOL    HW128316   3.099   1.565   5.656
 9139SOL    HW228317   2.973   1.645   5.722
 9140SOL     OW28318   6.951   2.182   3.255
 9140SOL    HW128319   6.988   2.175   3.347
 9140SOL    HW228320   0.003   2.172   3.188
 9141SOL     OW28321   6.001   0.188   5.863
 9141SOL    HW128322   5.914   0.181   5.911
 9141SOL    HW228323   6.019   0.284   5.842
 9142SOL     OW28324   6.524   3.303   5.795
 9142SOL    HW128325   6.514   3.380   5.858
 9142SOL    HW228326   6.579   3.231   5.838
 9143SOL     OW28327   4.850   4.027   0.863
 9143SOL    HW128328   4.918   3.978   0.809
 9143SOL    HW228329   4.859   4.001   0.959
 9144SOL     OW28330   2.017   4.614   5.328
 9144SOL    HW128331   2.077   4.651   5.257
 9144SOL    HW228332   2.034   4.661   5.414
 9145SOL     OW28333   0.408   4.821   6.371
 9145SOL    HW128334   0.379   4.728   6.347
 9145SOL    HW228335   0.328   4.881   6.376
 9146SOL     OW28336   6.095   2.176   2.307
 9146SOL    HW128337   6.108   2.190   2.209
 9146SOL    HW228338   5.998   2.168   2.327
 9147SOL     OW28339   4.325   5.748   5.557
 9147SOL    HW128340   4.293   5.821   5.497
 9147SOL    HW228341   4.261   5.735   5.632
 9148SOL     OW28342   4.315   5.477   3.675
 9148SOL    HW128343   4.231   5.438   3.636
 9148SOL    HW228344   4.376   5.403   3.704
 9149SOL     OW28345   5.647   3.603   3.930
 9149SOL    HW128346   5.698   3.623   3.846
 9149SOL    HW228347   5.705   3.620   4.009
 9150SOL     OW28348   4.975   0.268   2.910
 9150SOL    HW128349   5.068   0.287   2.880
 9150SOL    HW228350   4.947   0.336   2.977
 9151SOL     OW28351   1.498   4.311   1.919
 9151SOL    HW128352   1.493   4.402   1.958
 9151SOL    HW228353   1.468   4.243   1.986
 9152SOL     OW28354   2.059   5.618   3.181
 9152SOL    HW128355   1.962   5.640   3.195
 9152SOL    HW228356   2.110   5.640   3.264
 9153SOL     OW28357   1.630   3.104   6.225
 9153SOL    HW128358   1.656   3.033   6.160
 9153SOL    HW228359   1.646   3.072   6.318
 9154SOL     OW28360   1.753   5.727   6.771
 9154SOL    HW128361   1.735   5.811   6.719
 9154SOL    HW228362   1.837   5.685   6.738
 9155SOL     OW28363   1.117   3.915   0.543
 9155SOL    HW128364   1.044   3.982   0.525
 9155SOL    HW228365   1.179   3.951   0.612
 9156SOL     OW28366   5.127   2.310   1.524
 9156SOL    HW128367   5.033   2.308   1.557
 9156SOL    HW228368   5.162   2.217   1.513
 9157SOL     OW28369   5.329   4.040   5.742
 9157SOL    HW128370   5.230   4.033   5.727
 9157SOL    HW228371   5.365   4.117   5.689
 9158SOL     OW28372   0.932   3.639   3.949
 9158SOL    HW128373   0.895   3.720   3.903
 9158SOL    HW228374   0.894   3.556   3.907
 9159SOL     OW28375   0.017   4.729   3.461
 9159SOL    HW128376   0.055   4.800   3.402
 9159SOL    HW228377   0.059   4.735   3.551
 9160SOL     OW28378   0.307   0.190   6.714
 9160SOL    HW128379   0.213   0.159   6.702
 9160SOL    HW228380   0.347   0.144   6.794
 9161SOL     OW28381   4.840   4.107   4.662
 9161SOL    HW128382   4.829   4.205   4.646
 9161SOL    HW228383   4.787   4.055   4.594
 9162SOL     OW28384   4.637   2.618   2.420
 9162SOL    HW128385   4.644   2.648   2.515
 9162SOL    HW228386   4.550   2.570   2.406
 9163SOL     OW28387   2.964   1.991   3.941
 9163SOL    HW128388   2.881   2.047   3.939
 9163SOL    HW228389   2.961   1.928   4.018
 9164SOL     OW28390   3.280   0.318   0.167
 9164SOL    HW128391   3.242   0.226   0.168
 9164SOL    HW228392   3.207   0.385   0.184
 9165SOL     OW28393   5.915   0.115   6.981
 9165SOL    HW128394   5.907   0.018   6.960
 9165SOL    HW228395   5.853   0.167   6.922
 9166SOL     OW28396   3.068   5.579   1.296
 9166SOL    HW128397   2.992   5.606   1.356
 9166SOL    HW228398   3.067   5.636   1.214
 9167SOL     OW28399   1.735   4.041   5.310
 9167SOL    HW128400   1.799   4.078   5.243
 9167SOL    HW228401   1.647   4.088   5.302
 9168SOL     OW28402   2.164   0.752   6.427
 9168SOL    HW128403   2.095   0.793   6.487
 9168SOL    HW228404   2.208   0.676   6.474
 9169SOL     OW28405   0.573   0.739   3.687
 9169SOL    HW128406   0.498   0.695   3.736
 9169SOL    HW228407   0.659   0.693   3.711
 9170SOL     OW28408   6.650   5.804   6.653
 9170SOL    HW128409   6.568   5.853   6.622
 9170SOL    HW228410   6.636   5.706   6.640
 9171SOL     OW28411   3.006   5.990   0.254
 9171SOL    HW128412   3.094   5.943   0.256
 9171SOL    HW228413   2.932   5.923   0.250
 9172SOL     OW28414   3.233   1.294   3.892
 9172SOL    HW128415   3.271   1.305   3.800
 9172SOL    HW228416   3.274   1.361   3.953
 9173SOL     OW28417   0.633   5.696   4.092
 9173SOL    HW128418   0.556   5.755   4.117
 9173SOL    HW228419   0.650   5.631   4.167
 9174SOL     OW28420   0.111   5.251   0.369
 9174SOL    HW128421   0.168   5.204   0.301
 9174SOL    HW228422   0.162   5.260   0.454
 9175SOL     OW28423   2.278   5.940   6.055
 9175SOL    HW128424   2.209   5.892   6.109
 9175SOL    HW228425   2.332   5.999   6.116
 9176SOL     OW28426   2.077   0.311   5.723
 9176SOL    HW128427   2.019   0.386   5.756
 9176SOL    HW228428   2.148   0.292   5.790
 9177SOL     OW28429   0.862   4.285   3.599
 9177SOL    HW128430   0.876   4.378   3.633
 9177SOL    HW228431   0.828   4.289   3.505
 9178SOL     OW28432   2.085   4.845   0.650
 9178SOL    HW128433   2.098   4.862   0.747
 9178SOL    HW228434   2.110   4.927   0.597
 9179SOL     OW28435   3.466   4.939   4.118
 9179SOL    HW128436   3.377   4.925   4.162
 9179SOL    HW228437   3.537   4.949   4.189
 9180SOL     OW28438   5.390   2.080   3.691
 9180SOL    HW128439   5.478   2.066   3.645
 9180SOL    HW228440   5.335   2.146   3.639
 9181SOL     OW28441   4.442   2.034   2.508
 9181SOL    HW128442   4.423   1.990   2.596
 9181SOL    HW228443   4.386   2.116   2.499
 9182SOL     OW28444   0.898   6.351   1.757
 9182SOL    HW128445   0.876   6.273   1.698
 9182SOL    HW228446   0.854   6.434   1.720
 9183SOL     OW28447   5.493   6.858   0.436
 9183SOL    HW128448   5.514   6.856   0.534
 9183SOL    HW228449   5.570   6.899   0.387
 9184SOL     OW28450   5.106   0.023   0.689
 9184SOL    HW128451   5.086   6.957   0.729
 9184SOL    HW228452   5.162   0.077   0.752
 9185SOL     OW28453   3.392   1.060   4.960
 9185SOL    HW128454   3.362   0.981   5.015
 9185SOL    HW228455   3.406   1.139   5.019
 9186SOL     OW28456   6.300   1.231   5.587
 9186SOL    HW128457   6.207   1.194   5.595
 9186SOL    HW228458   6.326   1.235   5.491
 9187SOL     OW28459   2.447   6.481   2.046
 9187SOL    HW128460   2.503   6.467   1.965
 9187SOL    HW228461   2.371   6.542   2.024
 9188SOL     OW28462   2.369   6.585   1.413
 9188SOL    HW128463   2.382   6.595   1.314
 9188SOL    HW228464   2.452   6.545   1.453
 9189SOL     OW28465   5.004   5.597   2.499
 9189SOL    HW128466   4.931   5.635   2.442
 9189SOL    HW228467   4.974   5.591   2.594
 9190SOL     OW28468   1.897   5.021   0.291
 9190SOL    HW128469   1.995   5.041   0.303
 9190SOL    HW228470   1.881   4.924   0.307
 9191SOL     OW28471   0.022   0.342   5.836
 9191SOL    HW128472   7.019   0.248   5.812
 9191SOL    HW228473   0.113   0.362   5.798
 9192SOL     OW28474   6.989   4.352   4.150
 9192SOL    HW128475   6.958   4.261   4.123
 9192SOL    HW228476   0.064   4.349   4.174
 9193SOL     OW28477   2.804   3.660   0.303
 9193SOL    HW128478   2.805   3.739   0.364
 9193SOL    HW228479   2.898   3.638   0.275
 9194SOL     OW28480   3.610   0.987   3.790
 9194SOL    HW128481   3.653   1.044   3.860
 9194SOL    HW228482   3.536   0.934   3.831
 9195SOL     OW28483   1.684   1.951   3.995
 9195SOL    HW128484   1.751   1.941   4.069
 9195SOL    HW228485   1.612   2.014   4.024
 9196SOL     OW28486   4.696   2.281   5.116
 9196SOL    HW128487   4.736   2.336   5.189
 9196SOL    HW228488   4.770   2.247   5.057
 9197SOL     OW28489   2.364   3.640   1.632
 9197SOL    HW128490   2.380   3.570   1.700
 9197SOL    HW228491   2.285   3.695   1.657
 9198SOL     OW28492   6.212   5.070   4.774
 9198SOL    HW128493   6.255   5.152   4.738
 9198SOL    HW228494   6.281   5.012   4.817
 9199SOL     OW28495   6.626   4.417   5.276
 9199SOL    HW128496   6.720   4.448   5.260
 9199SOL    HW228497   6.601   4.349   5.207
 9200SOL     OW28498   3.463   6.715   0.797
 9200SOL    HW128499   3.398   6.709   0.721
 9200SOL    HW228500   3.450   6.802   0.845
 9201SOL     OW28501   1.532   4.271   0.207
 9201SOL    HW128502   1.548   4.316   0.295
 9201SOL    HW228503   1.512   4.174   0.222
 9202SOL     OW28504   2.501   0.401   3.320
 9202SOL    HW128505   2.474   0.330   3.255
 9202SOL    HW228506   2.515   0.360   3.410
 9203SOL     OW28507   6.499   5.794   0.623
 9203SOL    HW128508   6.447   5.729   0.566
 9203SOL    HW228509   6.444   5.821   0.701
 9204SOL     OW28510   5.006   0.995   6.379
 9204SOL    HW128511   4.979   1.084   6.417
 9204SOL    HW228512   5.103   0.979   6.397
 9205SOL     OW28513   6.753   3.753   2.666
 9205SOL    HW128514   6.791   3.682   2.608
 9205SOL    HW228515   6.672   3.793   2.622
 9206SOL     OW28516   3.840   6.055   0.602
 9206SOL    HW128517   3.928   6.036   0.560
 9206SOL    HW228518   3.787   6.115   0.542
 9207SOL     OW28519   5.267   5.698   0.188
 9207SOL    HW128520   5.226   5.725   0.101
 9207SOL    HW228521   5.226   5.613   0.219
 9208SOL     OW28522   0.940   3.537   3.515
 9208SOL    HW128523   0.851   3.522   3.557
 9208SOL    HW228524   0.998   3.588   3.579
 9209SOL     OW28525   2.847   1.019   6.153
 9209SOL    HW128526   2.755   0.984   6.137
 9209SOL    HW228527   2.877   1.073   6.074
 9210SOL     OW28528   6.599   0.988   3.470
 9210SOL    HW128529   6.541   0.908   3.479
 9210SOL    HW228530   6.619   1.004   3.373
 9211SOL     OW28531   0.688   1.499   3.447
 9211SOL    HW128532   0.759   1.435   3.478
 9211SOL    HW228533   0.660   1.475   3.354
 9212SOL     OW28534   3.186   4.899   4.975
 9212SOL    HW128535   3.213   4.804   4.958
 9212SOL    HW228536   3.169   4.945   4.887
 9213SOL     OW28537   5.919   3.901   6.080
 9213SOL    HW128538   5.925   3.832   6.008
 9213SOL    HW228539   5.833   3.951   6.070
 9214SOL     OW28540   0.263   5.423   0.915
 9214SOL    HW128541   0.347   5.369   0.918
 9214SOL    HW228542   0.184   5.362   0.921
 9215SOL     OW28543   0.826   1.038   0.538
 9215SOL    HW128544   0.854   1.129   0.506
 9215SOL    HW228545   0.887   0.969   0.499
 9216SOL     OW28546   2.493   6.445   3.025
 9216SOL    HW128547   2.401   6.483   3.012
 9216SOL    HW228548   2.525   6.406   2.938
 9217SOL     OW28549   1.266   2.688   6.969
 9217SOL    HW128550   1.305   2.597   6.985
 9217SOL    HW228551   1.195   2.682   6.899
 9218SOL     OW28552   3.098   0.544   0.279
 9218SOL    HW128553   3.006   0.577   0.300
 9218SOL    HW228554   3.163   0.620   0.286
 9219SOL     OW28555   0.242   2.591   0.988
 9219SOL    HW128556   0.268   2.505   0.944
 9219SOL    HW228557   0.143   2.604   0.981
 9220SOL     OW28558   3.706   6.577   1.936
 9220SOL    HW128559   3.609   6.583   1.911
 9220SOL    HW228560   3.745   6.669   1.944
 9221SOL     OW28561   2.495   5.469   4.448
 9221SOL    HW128562   2.462   5.375   4.465
 9221SOL    HW228563   2.431   5.534   4.489
 9222SOL     OW28564   2.397   2.264   6.089
 9222SOL    HW128565   2.441   2.261   5.999
 9222SOL    HW228566   2.354   2.353   6.102
 9223SOL     OW28567   2.721   2.998   5.368
 9223SOL    HW128568   2.682   2.910   5.395
 9223SOL    HW228569   2.663   3.039   5.298
 9224SOL     OW28570   2.096   5.072   4.726
 9224SOL    HW128571   2.178   5.044   4.776
 9224SOL    HW228572   2.063   4.996   4.670
 9225SOL     OW28573   2.281   5.631   6.583
 9225SOL    HW128574   2.338   5.670   6.656
 9225SOL    HW228575   2.270   5.533   6.598
 9226SOL     OW28576   4.847   0.103   1.059
 9226SOL    HW128577   4.766   0.122   1.115
 9226SOL    HW228578   4.852   0.006   1.039
 9227SOL     OW28579   1.808   5.449   2.766
 9227SOL    HW128580   1.799   5.374   2.701
 9227SOL    HW228581   1.740   5.439   2.838
 9228SOL     OW28582   1.253   0.370   6.993
 9228SOL    HW128583   1.215   0.463   6.989
 9228SOL    HW228584   1.329   0.368   0.035
 9229SOL     OW28585   0.388   5.548   5.067
 9229SOL    HW128586   0.341   5.607   5.002
 9229SOL    HW228587   0.482   5.579   5.080
 9230SOL     OW28588   5.504   0.619   4.397
 9230SOL    HW128589   5.548   0.709   4.400
 9230SOL    HW228590   5.482   0.589   4.490
 9231SOL     OW28591   1.525   2.640   3.563
 9231SOL    HW128592   1.428   2.662   3.553
 9231SOL    HW228593   1.536   2.570   3.633
 9232SOL     OW28594   3.653   4.480   1.182
 9232SOL    HW128595   3.685   4.571   1.208
 9232SOL    HW228596   3.703   4.449   1.101
 9233SOL     OW28597   5.559   5.157   0.436
 9233SOL    HW128598   5.582   5.060   0.428
 9233SOL    HW228599   5.639   5.208   0.466
 9234SOL     OW28600   2.411   5.672   3.805
 9234SOL    HW128601   2.423   5.606   3.880
 9234SOL    HW228602   2.499   5.716   3.785
 9235SOL     OW28603   0.743   2.080   3.270
 9235SOL    HW128604   0.776   1.986   3.265
 9235SOL    HW228605   0.680   2.098   3.195
 9236SOL     OW28606   2.951   3.286   5.086
 9236SOL    HW128607   2.944   3.188   5.099
 9236SOL    HW228608   2.941   3.307   4.988
 9237SOL     OW28609   1.815   3.787   3.682
 9237SOL    HW128610   1.760   3.732   3.744
 9237SOL    HW228611   1.789   3.768   3.587
 9238SOL     OW28612   4.705   2.780   6.103
 9238SOL    HW128613   4.653   2.747   6.181
 9238SOL    HW228614   4.693   2.718   6.026
 9239SOL     OW28615   1.372   4.345   0.920
 9239SOL    HW128616   1.418   4.296   0.994
 9239SOL    HW228617   1.391   4.299   0.833
 9240SOL     OW28618   4.638   1.441   2.297
 9240SOL    HW128619   4.624   1.529   2.342
 9240SOL    HW228620   4.701   1.385   2.350
 9241SOL     OW28621   0.624   5.563   6.983
 9241SOL    HW128622   0.716   5.601   6.975
 9241SOL    HW228623   0.557   5.636   6.980
 9242SOL     OW28624   6.278   6.029   1.982
 9242SOL    HW128625   6.190   6.074   1.968
 9242SOL    HW228626   6.319   6.063   2.067
 9243SOL     OW28627   6.048   5.850   4.784
 9243SOL    HW128628   6.009   5.929   4.831
 9243SOL    HW228629   6.049   5.868   4.685
 9244SOL     OW28630   3.650   5.067   6.294
 9244SOL    HW128631   3.739   5.030   6.267
 9244SOL    HW228632   3.590   4.993   6.324
 9245SOL     OW28633   0.184   5.786   1.715
 9245SOL    HW128634   0.151   5.827   1.801
 9245SOL    HW228635   0.283   5.798   1.708
 9246SOL     OW28636   0.172   5.500   4.007
 9246SOL    HW128637   0.182   5.412   3.962
 9246SOL    HW228638   0.224   5.569   3.957
 9247SOL     OW28639   1.899   6.836   2.491
 9247SOL    HW128640   1.832   6.785   2.546
 9247SOL    HW228641   1.894   6.807   2.396
 9248SOL     OW28642   2.577   1.567   6.349
 9248SOL    HW128643   2.551   1.560   6.445
 9248SOL    HW228644   2.507   1.618   6.299
 9249SOL     OW28645   4.664   0.408   3.850
 9249SOL    HW128646   4.735   0.430   3.783
 9249SOL    HW228647   4.676   0.314   3.882
 9250SOL     OW28648   5.125   3.645   3.982
 9250SOL    HW128649   5.207   3.694   3.950
 9250SOL    HW228650   5.133   3.627   4.080
 9251SOL     OW28651   3.198   1.960   2.623
 9251SOL    HW128652   3.135   1.914   2.685
 9251SOL    HW228653   3.170   1.943   2.528
 9252SOL     OW28654   0.571   0.365   5.240
 9252SOL    HW128655   0.552   0.359   5.338
 9252SOL    HW228656   0.484   0.367   5.189
 9253SOL     OW28657   1.196   6.853   6.004
 9253SOL    HW128658   1.226   6.853   5.909
 9253SOL    HW228659   1.260   6.906   6.059
 9254SOL     OW28660   5.798   4.005   1.261
 9254SOL    HW128661   5.874   3.961   1.213
 9254SOL    HW228662   5.731   4.039   1.194
 9255SOL     OW28663   5.629   4.530   0.863
 9255SOL    HW128664   5.675   4.563   0.945
 9255SOL    HW228665   5.692   4.474   0.809
 9256SOL     OW28666   4.278   4.697   2.089
 9256SOL    HW128667   4.356   4.635   2.095
 9256SOL    HW228668   4.245   4.719   2.181
 9257SOL     OW28669   1.277   4.478   1.207
 9257SOL    HW128670   1.196   4.423   1.229
 9257SOL    HW228671   1.301   4.465   1.111
 9258SOL     OW28672   4.061   3.492   3.264
 9258SOL    HW128673   4.152   3.517   3.296
 9258SOL    HW228674   3.995   3.560   3.298
 9259SOL     OW28675   0.901   3.137   0.596
 9259SOL    HW128676   0.897   3.176   0.504
 9259SOL    HW228677   0.901   3.037   0.590
 9260SOL     OW28678   5.377   3.384   5.604
 9260SOL    HW128679   5.336   3.293   5.603
 9260SOL    HW228680   5.311   3.451   5.640
 9261SOL     OW28681   4.580   0.080   6.373
 9261SOL    HW128682   4.677   0.091   6.351
 9261SOL    HW228683   4.526   0.139   6.313
 9262SOL     OW28684   4.888   1.155   5.746
 9262SOL    HW128685   4.816   1.120   5.807
 9262SOL    HW228686   4.942   1.224   5.795
 9263SOL     OW28687   5.194   3.832   1.520
 9263SOL    HW128688   5.117   3.796   1.573
 9263SOL    HW228689   5.193   3.932   1.523
 9264SOL     OW28690   6.409   3.826   0.232
 9264SOL    HW128691   6.318   3.790   0.255
 9264SOL    HW228692   6.474   3.750   0.226
 9265SOL     OW28693   1.920   1.532   6.770
 9265SOL    HW128694   1.948   1.576   6.855
 9265SOL    HW228695   1.967   1.444   6.761
 9266SOL     OW28696   2.099   6.101   3.106
 9266SOL    HW128697   2.095   6.128   3.010
 9266SOL    HW228698   2.188   6.061   3.126
 9267SOL     OW28699   1.166   4.749   4.427
 9267SOL    HW128700   1.154   4.650   4.437
 9267SOL    HW228701   1.242   4.767   4.364
 9268SOL     OW28702   0.807   6.887   2.940
 9268SOL    HW128703   0.851   6.803   2.910
 9268SOL    HW228704   0.735   6.866   3.006
 9269SOL     OW28705   3.254   1.498   6.467
 9269SOL    HW128706   3.246   1.403   6.497
 9269SOL    HW228707   3.318   1.546   6.527
 9270SOL     OW28708   6.815   6.963   6.041
 9270SOL    HW128709   6.841   6.929   6.131
 9270SOL    HW228710   6.858   6.906   5.971
 9271SOL     OW28711   1.470   5.026   0.254
 9271SOL    HW128712   1.529   4.983   0.323
 9271SOL    HW228713   1.374   5.011   0.279
 9272SOL     OW28714   2.683   4.930   6.023
 9272SOL    HW128715   2.620   4.862   6.060
 9272SOL    HW228716   2.777   4.898   6.037
 9273SOL     OW28717   4.203   5.480   4.784
 9273SOL    HW128718   4.120   5.524   4.818
 9273SOL    HW228719   4.206   5.487   4.684
 9274SOL     OW28720   6.423   2.291   6.903
 9274SOL    HW128721   6.453   2.347   6.980
 9274SOL    HW228722   6.367   2.346   6.841
 9275SOL     OW28723   1.462   0.605   6.844
 9275SOL    HW128724   1.365   0.596   6.867
 9275SOL    HW228725   1.472   0.668   6.767
 9276SOL     OW28726   4.315   5.881   5.182
 9276SOL    HW128727   4.327   5.924   5.271
 9276SOL    HW228728   4.396   5.826   5.160
 9277SOL     OW28729   3.638   2.894   0.101
 9277SOL    HW128730   3.590   2.905   0.187
 9277SOL    HW228731   3.580   2.844   0.036
 9278SOL     OW28732   1.234   1.969   2.353
 9278SOL    HW128733   1.275   2.021   2.278
 9278SOL    HW228734   1.307   1.933   2.412
 9279SOL     OW28735   3.370   6.881   1.989
 9279SOL    HW128736   3.396   6.808   1.926
 9279SOL    HW228737   3.453   6.921   2.029
 9280SOL     OW28738   2.134   6.610   3.503
 9280SOL    HW128739   2.134   6.511   3.523
 9280SOL    HW228740   2.228   6.642   3.494
 9281SOL     OW28741   2.032   2.436   0.269
 9281SOL    HW128742   2.089   2.415   0.189
 9281SOL    HW228743   2.069   2.389   0.349
 9282SOL     OW28744   4.404   1.845   5.707
 9282SOL    HW128745   4.428   1.808   5.617
 9282SOL    HW228746   4.305   1.847   5.717
 9283SOL     OW28747   5.467   2.606   2.258
 9283SOL    HW128748   5.563   2.633   2.242
 9283SOL    HW228749   5.457   2.508   2.241
 9284SOL     OW28750   3.106   3.225   1.088
 9284SOL    HW128751   3.095   3.298   1.020
 9284SOL    HW228752   3.203   3.202   1.098
 9285SOL     OW28753   6.217   2.901   0.078
 9285SOL    HW128754   6.225   3.000   0.090
 9285SOL    HW228755   6.304   2.857   0.101
 9286SOL     OW28756   5.074   6.704   5.391
 9286SOL    HW128757   5.061   6.638   5.317
 9286SOL    HW228758   5.161   6.751   5.379
 9287SOL     OW28759   3.334   6.698   1.534
 9287SOL    HW128760   3.283   6.668   1.454
 9287SOL    HW228761   3.392   6.623   1.567
 9288SOL     OW28762   4.994   2.519   5.817
 9288SOL    HW128763   5.026   2.597   5.871
 9288SOL    HW228764   5.010   2.536   5.720
 9289SOL     OW28765   4.915   2.830   2.551
 9289SOL    HW128766   4.993   2.768   2.560
 9289SOL    HW228767   4.833   2.785   2.587
 9290SOL     OW28768   4.799   1.970   4.474
 9290SOL    HW128769   4.752   1.967   4.562
 9290SOL    HW228770   4.844   1.883   4.456
 9291SOL     OW28771   0.428   1.224   4.511
 9291SOL    HW128772   0.394   1.130   4.507
 9291SOL    HW228773   0.353   1.287   4.491
 9292SOL     OW28774   0.221   3.312   6.555
 9292SOL    HW128775   0.234   3.333   6.651
 9292SOL    HW228776   0.310   3.302   6.510
 9293SOL     OW28777   5.330   4.062   0.252
 9293SOL    HW128778   5.251   4.057   0.192
 9293SOL    HW228779   5.414   4.062   0.198
 9294SOL     OW28780   5.557   6.378   6.873
 9294SOL    HW128781   5.646   6.333   6.867
 9294SOL    HW228782   5.557   6.442   6.950
 9295SOL     OW28783   4.764   1.642   2.932
 9295SOL    HW128784   4.863   1.653   2.923
 9295SOL    HW228785   4.744   1.564   2.990
 9296SOL     OW28786   5.969   6.917   5.938
 9296SOL    HW128787   6.030   6.846   5.973
 9296SOL    HW228788   6.013   7.006   5.945
 9297SOL     OW28789   0.286   1.090   0.816
 9297SOL    HW128790   0.294   1.007   0.871
 9297SOL    HW228791   0.213   1.078   0.748
 9298SOL     OW28792   1.312   5.893   4.986
 9298SOL    HW128793   1.328   5.977   4.934
 9298SOL    HW228794   1.363   5.897   5.072
 9299SOL     OW28795   1.823   3.210   4.284
 9299SOL    HW128796   1.920   3.199   4.304
 9299SOL    HW228797   1.773   3.230   4.369
 9300SOL     OW28798   5.128   4.659   4.630
 9300SOL    HW128799   5.098   4.572   4.669
 9300SOL    HW228800   5.212   4.646   4.578
 9301SOL     OW28801   5.184   4.512   2.736
 9301SOL    HW128802   5.136   4.553   2.659
 9301SOL    HW228803   5.213   4.419   2.711
 9302SOL     OW28804   2.347   2.095   2.967
 9302SOL    HW128805   2.411   2.122   2.894
 9302SOL    HW228806   2.269   2.156   2.967
 9303SOL     OW28807   3.708   5.626   6.999
 9303SOL    HW128808   3.720   5.542   6.947
 9303SOL    HW228809   3.649   5.609   0.056
 9304SOL     OW28810   3.663   3.606   0.827
 9304SOL    HW128811   3.757   3.572   0.836
 9304SOL    HW228812   3.620   3.610   0.917
 9305SOL     OW28813   5.592   2.993   2.027
 9305SOL    HW128814   5.503   2.956   2.001
 9305SOL    HW228815   5.625   2.946   2.109
 9306SOL     OW28816   6.786   3.864   4.300
 9306SOL    HW128817   6.696   3.834   4.269
 9306SOL    HW228818   6.806   3.824   4.389
 9307SOL     OW28819   1.674   2.000   0.248
 9307SOL    HW128820   1.594   1.941   0.238
 9307SOL    HW228821   1.726   1.973   0.330
 9308SOL     OW28822   0.051   3.011   0.615
 9308SOL    HW128823   0.092   3.102   0.627
 9308SOL    HW228824   0.008   3.006   0.525
 9309SOL     OW28825   4.971   3.396   5.811
 9309SOL    HW128826   5.067   3.424   5.820
 9309SOL    HW228827   4.916   3.474   5.780
 9310SOL     OW28828   4.382   6.238   6.929
 9310SOL    HW128829   4.426   6.209   6.844
 9310SOL    HW228830   4.444   6.222   7.006
 9311SOL     OW28831   6.221   3.229   0.981
 9311SOL    HW128832   6.230   3.328   0.994
 9311SOL    HW228833   6.150   3.194   1.042
 9312SOL     OW28834   1.407   4.160   6.381
 9312SOL    HW128835   1.420   4.172   6.282
 9312SOL    HW228836   1.309   4.157   6.401
 9313SOL     OW28837   6.560   6.820   2.883
 9313SOL    HW128838   6.606   6.762   2.815
 9313SOL    HW228839   6.625   6.846   2.954
 9314SOL     OW28840   4.950   4.566   0.191
 9314SOL    HW128841   4.905   4.529   0.272
 9314SOL    HW228842   4.923   4.662   0.178
 9315SOL     OW28843   0.185   6.571   6.077
 9315SOL    HW128844   0.095   6.533   6.101
 9315SOL    HW228845   0.222   6.520   5.999
 9316SOL     OW28846   4.209   6.144   3.857
 9316SOL    HW128847   4.123   6.193   3.846
 9316SOL    HW228848   4.236   6.144   3.953
 9317SOL     OW28849   6.614   4.763   3.809
 9317SOL    HW128850   6.698   4.711   3.820
 9317SOL    HW228851   6.635   4.856   3.780
 9318SOL     OW28852   0.296   0.386   6.405
 9318SOL    HW128853   0.382   0.416   6.364
 9318SOL    HW228854   0.287   0.287   6.396
 9319SOL     OW28855   0.352   3.154   5.815
 9319SOL    HW128856   0.263   3.163   5.770
 9319SOL    HW228857   0.353   3.071   5.871
 9320SOL     OW28858   4.450   2.488   6.063
 9320SOL    HW128859   4.371   2.502   6.123
 9320SOL    HW228860   4.476   2.391   6.064
 9321SOL     OW28861   6.589   5.825   3.296
 9321SOL    HW128862   6.489   5.823   3.290
 9321SOL    HW228863   6.621   5.918   3.281
 9322SOL     OW28864   1.171   6.446   6.694
 9322SOL    HW128865   1.131   6.514   6.755
 9322SOL    HW228866   1.142   6.464   6.600
 9323SOL     OW28867   0.703   0.634   6.582
 9323SOL    HW128868   0.720   0.558   6.520
 9323SOL    HW228869   0.641   0.605   6.655
 9324SOL     OW28870   1.356   5.813   0.386
 9324SOL    HW128871   1.375   5.829   0.290
 9324SOL    HW228872   1.405   5.881   0.442
 9325SOL     OW28873   5.884   2.495   1.065
 9325SOL    HW128874   5.905   2.437   1.144
 9325SOL    HW228875   5.969   2.526   1.022
 9326SOL     OW28876   1.621   6.716   1.241
 9326SOL    HW128877   1.542   6.761   1.281
 9326SOL    HW228878   1.695   6.712   1.308
 9327SOL     OW28879   4.559   1.101   2.949
 9327SOL    HW128880   4.516   1.185   2.917
 9327SOL    HW228881   4.633   1.075   2.887
 9328SOL     OW28882   3.589   1.308   1.469
 9328SOL    HW128883   3.578   1.407   1.463
 9328SOL    HW228884   3.529   1.264   1.403
 9329SOL     OW28885   1.106   3.170   1.699
 9329SOL    HW128886   1.183   3.117   1.663
 9329SOL    HW228887   1.106   3.164   1.799
 9330SOL     OW28888   5.941   0.937   6.994
 9330SOL    HW128889   5.859   0.994   6.998
 9330SOL    HW228890   6.017   0.983   0.017
 9331SOL     OW28891   0.794   0.944   6.931
 9331SOL    HW128892   0.785   0.925   6.834
 9331SOL    HW228893   0.731   1.017   6.957
 9332SOL     OW28894   3.005   3.229   4.098
 9332SOL    HW128895   3.053   3.165   4.039
 9332SOL    HW228896   3.005   3.194   4.192
 9333SOL     OW28897   6.062   4.463   0.631
 9333SOL    HW128898   6.017   4.507   0.553
 9333SOL    HW228899   6.081   4.531   0.701
 9334SOL     OW28900   3.150   0.180   4.649
 9334SOL    HW128901   3.226   0.240   4.625
 9334SOL    HW228902   3.077   0.189   4.581
 9335SOL     OW28903   0.560   0.594   0.531
 9335SOL    HW128904   0.513   0.509   0.504
 9335SOL    HW228905   0.658   0.577   0.538
 9336SOL     OW28906   2.531   6.739   6.041
 9336SOL    HW128907   2.432   6.757   6.037
 9336SOL    HW228908   2.549   6.647   6.006
 9337SOL     OW28909   5.566   0.296   2.625
 9337SOL    HW128910   5.585   0.220   2.562
 9337SOL    HW228911   5.631   0.293   2.701
 9338SOL     OW28912   3.585   0.443   1.927
 9338SOL    HW128913   3.594   0.539   1.955
 9338SOL    HW228914   3.666   0.392   1.953
 9339SOL     OW28915   4.623   6.236   1.098
 9339SOL    HW128916   4.685   6.306   1.134
 9339SOL    HW228917   4.583   6.185   1.173
 9340SOL     OW28918   5.931   3.434   6.603
 9340SOL    HW128919   5.974   3.494   6.671
 9340SOL    HW228920   5.944   3.473   6.512
 9341SOL     OW28921   0.058   5.411   6.463
 9341SOL    HW128922   0.145   5.416   6.513
 9341SOL    HW228923   0.029   5.503   6.438
 9342SOL     OW28924   1.493   6.355   5.913
 9342SOL    HW128925   1.404   6.310   5.924
 9342SOL    HW228926   1.519   6.356   5.817
 9343SOL     OW28927   6.011   5.341   4.781
 9343SOL    HW128928   5.932   5.358   4.722
 9343SOL    HW228929   6.073   5.278   4.736
 9344SOL     OW28930   5.096   0.094   1.541
 9344SOL    HW128931   5.141   0.120   1.455
 9344SOL    HW228932   5.036   0.167   1.571
 9345SOL     OW28933   6.719   3.146   1.289
 9345SOL    HW128934   6.753   3.233   1.253
 9345SOL    HW228935   6.750   3.134   1.383
 9346SOL     OW28936   5.642   0.114   0.751
 9346SOL    HW128937   5.713   0.103   0.820
 9346SOL    HW228938   5.684   0.121   0.661
 9347SOL     OW28939   1.373   6.866   1.259
 9347SOL    HW128940   1.325   6.898   1.340
 9347SOL    HW228941   1.330   6.782   1.225
 9348SOL     OW28942   3.136   4.883   6.906
 9348SOL    HW128943   3.040   4.868   6.882
 9348SOL    HW228944   3.142   4.927   6.995
 9349SOL     OW28945   2.131   0.020   2.620
 9349SOL    HW128946   2.094   6.950   2.626
 9349SOL    HW228947   2.179   0.031   2.533
 9350SOL     OW28948   0.597   2.799   5.935
 9350SOL    HW128949   0.673   2.843   5.886
 9350SOL    HW228950   0.605   2.700   5.925
 9351SOL     OW28951   2.852   1.919   6.463
 9351SOL    HW128952   2.952   1.918   6.467
 9351SOL    HW228953   2.815   1.918   6.556
 9352SOL     OW28954   2.399   4.832   5.548
 9352SOL    HW128955   2.384   4.821   5.646
 9352SOL    HW228956   2.460   4.910   5.532
 9353SOL     OW28957   6.472   0.248   1.050
 9353SOL    HW128958   6.472   0.311   0.973
 9353SOL    HW228959   6.511   0.293   1.130
 9354SOL     OW28960   6.991   2.551   6.406
 9354SOL    HW128961   0.007   2.633   6.363
 9354SOL    HW228962   0.041   2.483   6.419
 9355SOL     OW28963   0.026   1.758   5.190
 9355SOL    HW128964   0.088   1.802   5.255
 9355SOL    HW228965   0.079   1.709   5.121
 9356SOL     OW28966   5.024   0.150   2.127
 9356SOL    HW128967   5.029   0.050   2.138
 9356SOL    HW228968   4.988   0.171   2.036
 9357SOL     OW28969   0.643   2.365   6.921
 9357SOL    HW128970   0.642   2.266   6.939
 9357SOL    HW228971   0.564   2.389   6.864
 9358SOL     OW28972   0.758   3.622   1.203
 9358SOL    HW128973   0.791   3.597   1.294
 9358SOL    HW228974   0.725   3.540   1.156
 9359SOL     OW28975   1.503   0.287   5.345
 9359SOL    HW128976   1.507   0.228   5.265
 9359SOL    HW228977   1.577   0.262   5.408
 9360SOL     OW28978   1.179   6.792   6.477
 9360SOL    HW128979   1.209   6.778   6.383
 9360SOL    HW228980   1.258   6.806   6.536
 9361SOL     OW28981   2.044   5.927   3.946
 9361SOL    HW128982   1.981   5.853   3.923
 9361SOL    HW228983   1.994   6.014   3.946
 9362SOL     OW28984   1.895   0.314   2.372
 9362SOL    HW128985   1.873   0.226   2.414
 9362SOL    HW228986   1.989   0.311   2.336
 9363SOL     OW28987   2.255   4.665   2.318
 9363SOL    HW128988   2.175   4.661   2.378
 9363SOL    HW228989   2.247   4.598   2.245
 9364SOL     OW28990   1.519   2.270   0.897
 9364SOL    HW128991   1.541   2.359   0.859
 9364SOL    HW228992   1.502   2.279   0.995
 9365SOL     OW28993   3.483   1.706   4.508
 9365SOL    HW128994   3.407   1.701   4.573
 9365SOL    HW228995   3.558   1.648   4.540
 9366SOL     OW28996   4.056   5.722   1.746
 9366SOL    HW128997   4.024   5.649   1.807
 9366SOL    HW228998   4.030   5.700   1.652
 9367SOL     OW28999   0.004   0.937   1.234
 9367SOL    HW129000   6.971   0.854   1.240
 9367SOL    HW229001   0.091   0.923   1.282
 9368SOL     OW29002   3.435   0.036   3.101
 9368SOL    HW129003   3.468   0.066   3.012
 9368SOL    HW229004   3.431   0.114   3.163
 9369SOL     OW29005   2.977   5.224   0.376
 9369SOL    HW129006   2.924   5.180   0.303
 9369SOL    HW229007   3.010   5.154   0.439
 9370SOL     OW29008   4.481   1.753   4.219
 9370SOL    HW129009   4.533   1.792   4.143
 9370SOL    HW229010   4.488   1.653   4.216
 9371SOL     OW29011   4.274   5.406   1.036
 9371SOL    HW129012   4.287   5.325   0.980
 9371SOL    HW229013   4.180   5.408   1.072
 9372SOL     OW29014   4.568   6.331   1.507
 9372SOL    HW129015   4.609   6.388   1.436
 9372SOL    HW229016   4.490   6.379   1.547
 9373SOL     OW29017   6.967   2.606   1.010
 9373SOL    HW129018   6.963   2.702   0.980
 9373SOL    HW229019   6.937   2.547   0.936
 9374SOL     OW29020   0.407   5.469   5.902
 9374SOL    HW129021   0.383   5.445   5.808
 9374SOL    HW229022   0.429   5.566   5.907
 9375SOL     OW29023   0.261   0.849   0.465
 9375SOL    HW129024   0.348   0.862   0.416
 9375SOL    HW229025   0.226   0.938   0.494
 9376SOL     OW29026   2.115   3.827   1.708
 9376SOL    HW129027   2.032   3.782   1.741
 9376SOL    HW229028   2.097   3.924   1.694
 9377SOL     OW29029   1.821   0.753   3.830
 9377SOL    HW129030   1.760   0.829   3.853
 9377SOL    HW229031   1.807   0.678   3.894
 9378SOL     OW29032   3.253   0.916   4.388
 9378SOL    HW129033   3.241   1.004   4.434
 9378SOL    HW229034   3.317   0.926   4.313
 9379SOL     OW29035   4.479   6.744   4.364
 9379SOL    HW129036   4.490   6.675   4.293
 9379SOL    HW229037   4.388   6.737   4.404
 9380SOL     OW29038   4.904   5.910   0.120
 9380SOL    HW129039   4.989   5.955   0.094
 9380SOL    HW229040   4.858   5.875   0.038
 9381SOL     OW29041   5.850   1.314   5.299
 9381SOL    HW129042   5.839   1.217   5.317
 9381SOL    HW229043   5.942   1.343   5.325
 9382SOL     OW29044   3.182   6.010   5.415
 9382SOL    HW129045   3.187   6.001   5.315
 9382SOL    HW229046   3.272   6.034   5.450
 9383SOL     OW29047   5.746   4.432   2.397
 9383SOL    HW129048   5.834   4.400   2.363
 9383SOL    HW229049   5.760   4.495   2.473
 9384SOL     OW29050   2.464   0.843   2.209
 9384SOL    HW129051   2.468   0.856   2.110
 9384SOL    HW229052   2.404   0.766   2.231
 9385SOL     OW29053   4.755   1.608   3.796
 9385SOL    HW129054   4.659   1.583   3.781
 9385SOL    HW229055   4.810   1.582   3.717
 9386SOL     OW29056   4.644   6.496   0.573
 9386SOL    HW129057   4.657   6.497   0.672
 9386SOL    HW229058   4.600   6.581   0.544
 9387SOL     OW29059   2.749   2.772   0.445
 9387SOL    HW129060   2.656   2.741   0.462
 9387SOL    HW229061   2.802   2.768   0.530
 9388SOL     OW29062   2.447   6.370   5.075
 9388SOL    HW129063   2.429   6.367   4.976
 9388SOL    HW229064   2.369   6.410   5.122
 9389SOL     OW29065   2.530   4.999   2.061
 9389SOL    HW129066   2.497   4.915   2.105
 9389SOL    HW229067   2.461   5.034   1.998
 9390SOL     OW29068   5.320   5.330   4.491
 9390SOL    HW129069   5.241   5.347   4.432
 9390SOL    HW229070   5.295   5.264   4.562
 9391SOL     OW29071   1.469   4.518   4.166
 9391SOL    HW129072   1.472   4.490   4.261
 9391SOL    HW229073   1.554   4.492   4.120
 9392SOL     OW29074   5.071   4.380   3.224
 9392SOL    HW129075   5.037   4.372   3.131
 9392SOL    HW229076   5.110   4.292   3.254
 9393SOL     OW29077   2.430   6.093   6.224
 9393SOL    HW129078   2.437   6.191   6.243
 9393SOL    HW229079   2.522   6.053   6.221
 9394SOL     OW29080   3.642   0.998   0.396
 9394SOL    HW129081   3.630   1.096   0.383
 9394SOL    HW229082   3.597   0.948   0.321
 9395SOL     OW29083   1.813   1.833   0.766
 9395SOL    HW129084   1.742   1.894   0.800
 9395SOL    HW229085   1.780   1.786   0.684
 9396SOL     OW29086   0.550   6.744   6.821
 9396SOL    HW129087   0.524   6.704   6.908
 9396SOL    HW229088   0.468   6.772   6.771
 9397SOL     OW29089   3.476   0.663   5.257
 9397SOL    HW129090   3.548   0.733   5.249
 9397SOL    HW229091   3.440   0.642   5.167
 9398SOL     OW29092   0.796   2.011   0.178
 9398SOL    HW129093   0.827   1.943   0.245
 9398SOL    HW229094   0.755   2.088   0.226
 9399SOL     OW29095   0.854   2.895   4.334
 9399SOL    HW129096   0.763   2.935   4.347
 9399SOL    HW229097   0.921   2.946   4.389
 9400SOL     OW29098   5.430   1.243   0.765
 9400SOL    HW129099   5.368   1.168   0.744
 9400SOL    HW229100   5.422   1.314   0.695
 9401SOL     OW29101   0.709   2.409   3.847
 9401SOL    HW129102   0.626   2.439   3.894
 9401SOL    HW229103   0.695   2.317   3.810
 9402SOL     OW29104   2.556   6.513   4.033
 9402SOL    HW129105   2.609   6.597   4.043
 9402SOL    HW229106   2.466   6.535   3.995
 9403SOL     OW29107   5.921   2.353   1.942
 9403SOL    HW129108   5.855   2.308   2.001
 9403SOL    HW229109   5.922   2.308   1.853
 9404SOL     OW29110   2.119   2.613   1.150
 9404SOL    HW129111   2.205   2.577   1.187
 9404SOL    HW229112   2.073   2.542   1.098
 9405SOL     OW29113   6.715   5.660   5.278
 9405SOL    HW129114   6.732   5.640   5.181
 9405SOL    HW229115   6.764   5.594   5.334
 9406SOL     OW29116   0.554   2.541   0.151
 9406SOL    HW129117   0.494   2.575   0.078
 9406SOL    HW229118   0.605   2.461   0.118
 9407SOL     OW29119   1.602   5.192   5.436
 9407SOL    HW129120   1.543   5.136   5.378
 9407SOL    HW229121   1.684   5.218   5.385
 9408SOL     OW29122   0.059   3.688   4.531
 9408SOL    HW129123   0.090   3.645   4.616
 9408SOL    HW229124   0.137   3.729   4.483
 9409SOL     OW29125   6.482   5.074   3.013
 9409SOL    HW129126   6.532   5.104   3.095
 9409SOL    HW229127   6.390   5.047   3.039
 9410SOL     OW29128   3.355   0.892   0.862
 9410SOL    HW129129   3.403   0.904   0.775
 9410SOL    HW229130   3.297   0.971   0.879
 9411SOL     OW29131   2.890   3.497   2.814
 9411SOL    HW129132   2.978   3.522   2.774
 9411SOL    HW229133   2.864   3.406   2.783
 9412SOL     OW29134   5.793   6.211   1.204
 9412SOL    HW129135   5.759   6.207   1.110
 9412SOL    HW229136   5.810   6.307   1.230
 9413SOL     OW29137   4.840   3.922   2.891
 9413SOL    HW129138   4.875   3.864   2.965
 9413SOL    HW229139   4.915   3.943   2.827
 9414SOL     OW29140   1.737   2.231   3.374
 9414SOL    HW129141   1.770   2.254   3.283
 9414SOL    HW229142   1.725   2.132   3.382
 9415SOL     OW29143   5.225   1.387   2.109
 9415SOL    HW129144   5.313   1.415   2.149
 9415SOL    HW229145   5.165   1.352   2.181
 9416SOL     OW29146   5.573   5.335   5.126
 9416SOL    HW129147   5.641   5.376   5.187
 9416SOL    HW229148   5.506   5.285   5.181
 9417SOL     OW29149   2.973   5.598   2.818
 9417SOL    HW129150   3.037   5.674   2.802
 9417SOL    HW229151   2.880   5.634   2.827
 9418SOL     OW29152   3.512   1.600   5.190
 9418SOL    HW129153   3.417   1.586   5.161
 9418SOL    HW229154   3.556   1.511   5.204
 9419SOL     OW29155   1.388   3.094   6.639
 9419SOL    HW129156   1.387   3.015   6.577
 9419SOL    HW229157   1.457   3.078   6.710
 9420SOL     OW29158   5.730   4.085   6.380
 9420SOL    HW129159   5.751   4.171   6.426
 9420SOL    HW229160   5.632   4.079   6.364
 9421SOL     OW29161   4.214   6.672   6.984
 9421SOL    HW129162   4.117   6.677   7.008
 9421SOL    HW229163   4.233   6.586   6.937
 9422SOL     OW29164   1.758   6.259   5.747
 9422SOL    HW129165   1.692   6.193   5.783
 9422SOL    HW229166   1.836   6.210   5.707
 9423SOL     OW29167   4.444   4.681   2.483
 9423SOL    HW129168   4.499   4.601   2.461
 9423SOL    HW229169   4.486   4.762   2.442
 9424SOL     OW29170   6.125   0.236   4.081
 9424SOL    HW129171   6.204   0.296   4.092
 9424SOL    HW229172   6.068   0.269   4.005
 9425SOL     OW29173   6.645   3.948   1.135
 9425SOL    HW129174   6.618   4.039   1.103
 9425SOL    HW229175   6.670   3.892   1.056
 9426SOL     OW29176   6.481   2.811   6.081
 9426SOL    HW129177   6.531   2.788   6.165
 9426SOL    HW229178   6.412   2.881   6.102
 9427SOL     OW29179   4.638   4.379   2.652
 9427SOL    HW129180   4.722   4.428   2.673
 9427SOL    HW229181   4.646   4.284   2.683
 9428SOL     OW29182   1.307   5.764   5.802
 9428SOL    HW129183   1.358   5.686   5.838
 9428SOL    HW229184   1.225   5.731   5.756
 9429SOL     OW29185   2.420   2.697   4.503
 9429SOL    HW129186   2.514   2.706   4.469
 9429SOL    HW229187   2.420   2.647   4.590
 9430SOL     OW29188   1.584   1.757   4.245
 9430SOL    HW129189   1.485   1.766   4.229
 9430SOL    HW229190   1.603   1.667   4.285
 9431SOL     OW29191   0.518   4.308   5.697
 9431SOL    HW129192   0.428   4.314   5.655
 9431SOL    HW229193   0.558   4.400   5.703
 9432SOL     OW29194   6.723   1.172   3.618
 9432SOL    HW129195   6.682   1.175   3.710
 9432SOL    HW229196   6.679   1.099   3.565
 9433SOL     OW29197   4.459   5.974   1.607
 9433SOL    HW129198   4.362   5.957   1.626
 9433SOL    HW229199   4.494   5.903   1.546
 9434SOL     OW29200   4.750   5.591   4.240
 9434SOL    HW129201   4.672   5.573   4.301
 9434SOL    HW229202   4.723   5.570   4.145
 9435SOL     OW29203   6.739   3.582   0.788
 9435SOL    HW129204   6.767   3.508   0.849
 9435SOL    HW229205   6.688   3.545   0.711
 9436SOL     OW29206   2.709   0.987   3.148
 9436SOL    HW129207   2.611   0.971   3.161
 9436SOL    HW229208   2.761   0.933   3.214
 9437SOL     OW29209   5.351   0.339   5.056
 9437SOL    HW129210   5.325   0.266   4.993
 9437SOL    HW229211   5.338   0.309   5.150
 9438SOL     OW29212   4.542   6.950   2.490
 9438SOL    HW129213   4.607   6.877   2.472
 9438SOL    HW229214   4.459   6.935   2.435
 9439SOL     OW29215   1.761   4.118   1.216
 9439SOL    HW129216   1.767   4.039   1.155
 9439SOL    HW229217   1.783   4.089   1.309
 9440SOL     OW29218   2.083   5.034   3.321
 9440SOL    HW129219   2.033   4.948   3.329
 9440SOL    HW229220   2.096   5.056   3.224
 9441SOL     OW29221   0.152   6.856   4.474
 9441SOL    HW129222   0.108   6.946   4.468
 9441SOL    HW229223   0.212   6.842   4.396
 9442SOL     OW29224   6.267   3.233   0.717
 9442SOL    HW129225   6.234   3.236   0.811
 9442SOL    HW229226   6.257   3.140   0.681
 9443SOL     OW29227   2.071   4.284   2.331
 9443SOL    HW129228   2.059   4.305   2.428
 9443SOL    HW229229   2.118   4.197   2.320
 9444SOL     OW29230   1.585   4.905   6.254
 9444SOL    HW129231   1.619   4.818   6.291
 9444SOL    HW229232   1.645   4.979   6.281
 9445SOL     OW29233   0.021   1.349   4.385
 9445SOL    HW129234   6.992   1.288   4.445
 9445SOL    HW229235   6.989   1.432   4.368
 9446SOL     OW29236   6.221   3.633   4.474
 9446SOL    HW129237   6.307   3.606   4.517
 9446SOL    HW229238   6.239   3.667   4.382
 9447SOL     OW29239   4.928   4.208   2.072
 9447SOL    HW129240   4.856   4.190   2.139
 9447SOL    HW229241   5.003   4.144   2.085
 9448SOL     OW29242   6.306   1.442   6.041
 9448SOL    HW129243   6.384   1.504   6.056
 9448SOL    HW229244   6.337   1.362   5.990
 9449SOL     OW29245   5.065   6.911   2.116
 9449SOL    HW129246   5.000   6.836   2.108
 9449SOL    HW229247   5.145   6.892   2.059
 9450SOL     OW29248   1.415   6.280   2.920
 9450SOL    HW129249   1.421   6.379   2.932
 9450SOL    HW229250   1.334   6.246   2.968
 9451SOL     OW29251   4.240   5.025   6.626
 9451SOL    HW129252   4.307   5.096   6.650
 9451SOL    HW229253   4.150   5.068   6.613
 9452SOL     OW29254   5.797   4.320   6.532
 9452SOL    HW129255   5.788   4.363   6.442
 9452SOL    HW229256   5.787   4.389   6.603
 9453SOL     OW29257   5.173   4.577   1.951
 9453SOL    HW129258   5.146   4.516   1.877
 9453SOL    HW229259   5.146   4.671   1.927
 9454SOL     OW29260   6.039   4.591   0.290
 9454SOL    HW129261   6.009   4.683   0.316
 9454SOL    HW229262   5.985   4.524   0.340
 9455SOL     OW29263   4.397   1.111   1.661
 9455SOL    HW129264   4.332   1.180   1.692
 9455SOL    HW229265   4.420   1.050   1.737
 9456SOL     OW29266   6.929   2.428   3.197
 9456SOL    HW129267   6.845   2.453   3.245
 9456SOL    HW229268   6.955   2.334   3.222
 9457SOL     OW29269   6.391   6.817   5.132
 9457SOL    HW129270   6.298   6.785   5.111
 9457SOL    HW229271   6.452   6.738   5.138
 9458SOL     OW29272   5.577   4.024   0.138
 9458SOL    HW129273   5.674   4.002   0.130
 9458SOL    HW229274   5.552   4.090   0.067
 9459SOL     OW29275   4.608   4.357   4.948
 9459SOL    HW129276   4.620   4.281   5.011
 9459SOL    HW229277   4.519   4.400   4.964
 9460SOL     OW29278   1.138   3.153   2.228
 9460SOL    HW129279   1.230   3.126   2.199
 9460SOL    HW229280   1.141   3.240   2.275
 9461SOL     OW29281   1.825   1.513   1.476
 9461SOL    HW129282   1.897   1.467   1.528
 9461SOL    HW229283   1.745   1.528   1.535
 9462SOL     OW29284   0.093   1.276   4.128
 9462SOL    HW129285   0.142   1.189   4.132
 9462SOL    HW229286   0.066   1.303   4.220
 9463SOL     OW29287   5.815   4.347   1.246
 9463SOL    HW129288   5.792   4.423   1.186
 9463SOL    HW229289   5.886   4.290   1.204
 9464SOL     OW29290   1.424   0.523   1.999
 9464SOL    HW129291   1.391   0.591   1.933
 9464SOL    HW229292   1.428   0.565   2.090
 9465SOL     OW29293   6.391   5.062   0.764
 9465SOL    HW129294   6.353   5.016   0.684
 9465SOL    HW229295   6.420   5.155   0.739
 9466SOL     OW29296   4.489   3.638   5.562
 9466SOL    HW129297   4.474   3.596   5.472
 9466SOL    HW229298   4.533   3.572   5.623
 9467SOL     OW29299   1.546   2.891   0.543
 9467SOL    HW129300   1.588   2.809   0.505
 9467SOL    HW229301   1.561   2.968   0.480
 9468SOL     OW29302   6.110   1.294   0.730
 9468SOL    HW129303   6.148   1.207   0.698
 9468SOL    HW229304   6.183   1.362   0.738
 9469SOL     OW29305   6.880   6.521   1.111
 9469SOL    HW129306   6.881   6.584   1.189
 9469SOL    HW229307   6.889   6.572   1.026
 9470SOL     OW29308   3.284   3.306   0.252
 9470SOL    HW129309   3.355   3.340   0.189
 9470SOL    HW229310   3.206   3.368   0.250
 9471SOL     OW29311   6.379   2.756   4.769
 9471SOL    HW129312   6.378   2.684   4.700
 9471SOL    HW229313   6.287   2.794   4.780
 9472SOL     OW29314   1.723   3.294   5.944
 9472SOL    HW129315   1.813   3.330   5.966
 9472SOL    HW229316   1.731   3.201   5.910
 9473SOL     OW29317   2.425   3.893   1.149
 9473SOL    HW129318   2.488   3.941   1.088
 9473SOL    HW229319   2.460   3.896   1.243
 9474SOL     OW29320   5.399   4.276   1.061
 9474SOL    HW129321   5.422   4.297   0.966
 9474SOL    HW229322   5.465   4.210   1.097
 9475SOL     OW29323   5.038   4.285   6.022
 9475SOL    HW129324   4.986   4.233   6.089
 9475SOL    HW229325   4.997   4.273   5.931
 9476SOL     OW29326   4.441   3.931   0.861
 9476SOL    HW129327   4.401   3.852   0.908
 9476SOL    HW229328   4.541   3.921   0.859
 9477SOL     OW29329   2.384   4.675   0.359
 9477SOL    HW129330   2.427   4.673   0.269
 9477SOL    HW229331   2.451   4.651   0.429
 9478SOL     OW29332   5.529   3.596   5.845
 9478SOL    HW129333   5.578   3.576   5.760
 9478SOL    HW229334   5.528   3.694   5.861
 9479SOL     OW29335   4.629   0.462   1.926
 9479SOL    HW129336   4.627   0.548   1.875
 9479SOL    HW229337   4.720   0.448   1.965
 9480SOL     OW29338   6.217   0.706   1.014
 9480SOL    HW129339   6.275   0.754   0.948
 9480SOL    HW229340   6.145   0.768   1.046
 9481SOL     OW29341   4.157   0.294   2.953
 9481SOL    HW129342   4.228   0.290   3.024
 9481SOL    HW229343   4.095   0.216   2.964
 9482SOL     OW29344   6.091   5.723   0.110
 9482SOL    HW129345   6.131   5.811   0.082
 9482SOL    HW229346   6.062   5.673   0.028
 9483SOL     OW29347   6.669   6.355   6.915
 9483SOL    HW129348   6.678   6.266   6.959
 9483SOL    HW229349   6.704   6.426   6.977
 9484SOL     OW29350   3.564   5.942   4.300
 9484SOL    HW129351   3.563   5.842   4.310
 9484SOL    HW229352   3.508   5.968   4.222
 9485SOL     OW29353   0.050   1.152   6.271
 9485SOL    HW129354   0.039   1.135   6.369
 9485SOL    HW229355   0.147   1.164   6.250
 9486SOL     OW29356   6.200   5.094   6.610
 9486SOL    HW129357   6.118   5.131   6.654
 9486SOL    HW229358   6.281   5.136   6.651
 9487SOL     OW29359   3.415   3.829   2.748
 9487SOL    HW129360   3.363   3.904   2.788
 9487SOL    HW229361   3.463   3.860   2.667
 9488SOL     OW29362   1.925   1.013   1.241
 9488SOL    HW129363   1.925   0.926   1.291
 9488SOL    HW229364   1.890   0.998   1.149
 9489SOL     OW29365   5.404   3.310   0.725
 9489SOL    HW129366   5.453   3.326   0.811
 9489SOL    HW229367   5.411   3.214   0.700
 9490SOL     OW29368   5.449   3.382   4.720
 9490SOL    HW129369   5.482   3.335   4.638
 9490SOL    HW229370   5.439   3.479   4.701
 9491SOL     OW29371   5.349   0.079   2.698
 9491SOL    HW129372   5.285   0.008   2.667
 9491SOL    HW229373   5.430   0.077   2.640
 9492SOL     OW29374   5.348   2.942   3.331
 9492SOL    HW129375   5.370   2.847   3.352
 9492SOL    HW229376   5.404   3.002   3.388
 9493SOL     OW29377   3.750   5.884   1.312
 9493SOL    HW129378   3.741   5.981   1.290
 9493SOL    HW229379   3.841   5.852   1.284
 9494SOL     OW29380   5.888   1.898   2.133
 9494SOL    HW129381   5.867   1.829   2.064
 9494SOL    HW229382   5.893   1.988   2.088
 9495SOL     OW29383   6.734   2.521   1.167
 9495SOL    HW129384   6.821   2.552   1.128
 9495SOL    HW229385   6.750   2.484   1.259
 9496SOL     OW29386   5.538   1.961   1.227
 9496SOL    HW129387   5.440   1.970   1.211
 9496SOL    HW229388   5.555   1.885   1.289
 9497SOL     OW29389   4.764   4.597   4.719
 9497SOL    HW129390   4.725   4.662   4.654
 9497SOL    HW229391   4.698   4.579   4.792
 9498SOL     OW29392   1.098   5.513   4.355
 9498SOL    HW129393   1.077   5.604   4.392
 9498SOL    HW229394   1.013   5.470   4.324
 9499SOL     OW29395   5.702   5.958   4.658
 9499SOL    HW129396   5.627   6.023   4.666
 9499SOL    HW229397   5.764   5.969   4.736
 9500SOL     OW29398   3.070   1.929   0.852
 9500SOL    HW129399   3.079   1.862   0.779
 9500SOL    HW229400   3.105   1.889   0.938
 9501SOL     OW29401   1.743   3.829   4.851
 9501SOL    HW129402   1.810   3.762   4.884
 9501SOL    HW229403   1.674   3.845   4.922
 9502SOL     OW29404   5.473   4.998   4.211
 9502SOL    HW129405   5.411   5.037   4.143
 9502SOL    HW229406   5.467   4.899   4.209
 9503SOL     OW29407   6.232   1.320   0.166
 9503SOL    HW129408   6.329   1.315   0.191
 9503SOL    HW229409   6.223   1.370   0.080
 9504SOL     OW29410   5.973   5.300   2.082
 9504SOL    HW129411   5.942   5.216   2.127
 9504SOL    HW229412   6.003   5.280   1.989
 9505SOL     OW29413   4.464   4.582   6.154
 9505SOL    HW129414   4.381   4.594   6.100
 9505SOL    HW229415   4.539   4.553   6.094
 9506SOL     OW29416   2.852   0.746   1.153
 9506SOL    HW129417   2.830   0.839   1.125
 9506SOL    HW229418   2.951   0.735   1.156
 9507SOL     OW29419   5.552   0.005   2.515
 9507SOL    HW129420   5.507   0.038   2.432
 9507SOL    HW229421   5.542   6.928   2.520
 9508SOL     OW29422   4.413   1.918   2.753
 9508SOL    HW129423   4.316   1.893   2.758
 9508SOL    HW229424   4.447   1.936   2.845
 9509SOL     OW29425   5.542   0.738   3.279
 9509SOL    HW129426   5.633   0.770   3.306
 9509SOL    HW229427   5.522   0.652   3.325
 9510SOL     OW29428   1.631   2.850   3.674
 9510SOL    HW129429   1.592   2.767   3.631
 9510SOL    HW229430   1.678   2.904   3.604
 9511SOL     OW29431   6.949   1.632   0.917
 9511SOL    HW129432   6.970   1.714   0.971
 9511SOL    HW229433   7.010   1.628   0.838
 9512SOL     OW29434   6.662   1.911   1.089
 9512SOL    HW129435   6.624   1.963   1.166
 9512SOL    HW229436   6.593   1.905   1.016
 9513SOL     OW29437   4.431   4.043   5.789
 9513SOL    HW129438   4.389   3.976   5.728
 9513SOL    HW229439   4.362   4.082   5.850
 9514SOL     OW29440   3.917   2.970   6.607
 9514SOL    HW129441   3.888   3.006   6.518
 9514SOL    HW229442   3.836   2.957   6.665
 9515SOL     OW29443   0.553   5.478   3.891
 9515SOL    HW129444   0.462   5.518   3.875
 9515SOL    HW229445   0.610   5.545   3.938
 9516SOL     OW29446   0.178   4.265   6.842
 9516SOL    HW129447   0.131   4.177   6.843
 9516SOL    HW229448   0.247   4.266   6.913
 9517SOL     OW29449   0.136   6.314   1.752
 9517SOL    HW129450   0.169   6.246   1.687
 9517SOL    HW229451   0.205   6.387   1.762
 9518SOL     OW29452   1.241   1.002   1.283
 9518SOL    HW129453   1.330   0.957   1.277
 9518SOL    HW229454   1.222   1.050   1.198
 9519SOL     OW29455   1.371   2.641   5.349
 9519SOL    HW129456   1.461   2.624   5.308
 9519SOL    HW229457   1.299   2.611   5.286
 9520SOL     OW29458   4.652   0.165   1.727
 9520SOL    HW129459   4.634   0.263   1.711
 9520SOL    HW229460   4.729   0.155   1.789
 9521SOL     OW29461   5.283   5.370   3.503
 9521SOL    HW129462   5.360   5.434   3.502
 9521SOL    HW229463   5.209   5.409   3.558
 9522SOL     OW29464   3.352   6.215   0.756
 9522SOL    HW129465   3.276   6.153   0.772
 9522SOL    HW229466   3.367   6.225   0.657
 9523SOL     OW29467   2.077   6.367   5.636
 9523SOL    HW129468   2.094   6.463   5.614
 9523SOL    HW229469   2.054   6.358   5.733
 9524SOL     OW29470   4.674   2.188   0.784
 9524SOL    HW129471   4.709   2.274   0.746
 9524SOL    HW229472   4.630   2.135   0.711
 9525SOL     OW29473   3.933   0.388   5.316
 9525SOL    HW129474   3.836   0.380   5.293
 9525SOL    HW229475   3.981   0.430   5.239
 9526SOL     OW29476   4.793   6.219   1.965
 9526SOL    HW129477   4.789   6.195   1.868
 9526SOL    HW229478   4.863   6.289   1.979
 9527SOL     OW29479   6.405   2.124   1.083
 9527SOL    HW129480   6.402   2.036   1.035
 9527SOL    HW229481   6.342   2.187   1.040
 9528SOL     OW29482   6.737   0.833   1.839
 9528SOL    HW129483   6.777   0.895   1.771
 9528SOL    HW229484   6.785   0.844   1.926
 9529SOL     OW29485   0.886   3.710   4.483
 9529SOL    HW129486   0.941   3.751   4.557
 9529SOL    HW229487   0.942   3.645   4.433
 9530SOL     OW29488   1.324   2.558   4.269
 9530SOL    HW129489   1.291   2.629   4.207
 9530SOL    HW229490   1.389   2.599   4.334
 9531SOL     OW29491   2.907   6.439   3.493
 9531SOL    HW129492   2.885   6.453   3.589
 9531SOL    HW229493   2.825   6.449   3.437
 9532SOL     OW29494   2.656   1.240   1.637
 9532SOL    HW129495   2.698   1.274   1.553
 9532SOL    HW229496   2.664   1.310   1.708
 9533SOL     OW29497   1.695   0.549   4.829
 9533SOL    HW129498   1.789   0.515   4.822
 9533SOL    HW229499   1.655   0.555   4.737
 9534SOL     OW29500   4.671   2.096   4.254
 9534SOL    HW129501   4.655   2.191   4.228
 9534SOL    HW229502   4.733   2.093   4.333
 9535SOL     OW29503   2.842   2.281   4.502
 9535SOL    HW129504   2.839   2.197   4.556
 9535SOL    HW229505   2.800   2.355   4.555
 9536SOL     OW29506   3.092   6.794   6.467
 9536SOL    HW129507   3.143   6.823   6.549
 9536SOL    HW229508   3.014   6.737   6.495
 9537SOL     OW29509   2.414   6.348   0.451
 9537SOL    HW129510   2.510   6.330   0.430
 9537SOL    HW229511   2.388   6.437   0.416
 9538SOL     OW29512   6.001   3.464   3.741
 9538SOL    HW129513   5.936   3.396   3.710
 9538SOL    HW229514   5.953   3.550   3.761
 9539SOL     OW29515   0.384   4.172   0.659
 9539SOL    HW129516   0.451   4.216   0.719
 9539SOL    HW229517   0.317   4.123   0.714
 9540SOL     OW29518   5.416   2.996   5.612
 9540SOL    HW129519   5.325   3.033   5.630
 9540SOL    HW229520   5.459   3.048   5.538
 9541SOL     OW29521   0.003   1.608   3.588
 9541SOL    HW129522   0.004   1.636   3.492
 9541SOL    HW229523   0.068   1.664   3.640
 9542SOL     OW29524   4.764   4.358   4.593
 9542SOL    HW129525   4.794   4.386   4.502
 9542SOL    HW229526   4.755   4.438   4.651
 9543SOL     OW29527   5.471   2.402   1.429
 9543SOL    HW129528   5.398   2.358   1.482
 9543SOL    HW229529   5.471   2.365   1.337
 9544SOL     OW29530   3.898   1.816   2.025
 9544SOL    HW129531   3.879   1.749   1.954
 9544SOL    HW229532   3.943   1.771   2.102
 9545SOL     OW29533   1.543   7.009   4.326
 9545SOL    HW129534   1.493   0.073   4.335
 9545SOL    HW229535   1.620   7.008   4.390
 9546SOL     OW29536   2.184   4.546   1.768
 9546SOL    HW129537   2.110   4.565   1.704
 9546SOL    HW229538   2.185   4.616   1.839
 9547SOL     OW29539   6.140   5.435   3.656
 9547SOL    HW129540   6.123   5.337   3.646
 9547SOL    HW229541   6.189   5.469   3.576
 9548SOL     OW29542   4.492   6.892   2.918
 9548SOL    HW129543   4.512   6.979   2.874
 9548SOL    HW229544   4.567   6.828   2.900
 9549SOL     OW29545   2.627   5.119   0.699
 9549SOL    HW129546   2.544   5.162   0.734
 9549SOL    HW229547   2.706   5.156   0.747
 9550SOL     OW29548   1.500   0.832   0.026
 9550SOL    HW129549   1.521   0.757   6.986
 9550SOL    HW229550   1.539   0.813   0.116
 9551SOL     OW29551   1.271   6.200   5.883
 9551SOL    HW129552   1.266   6.216   5.785
 9551SOL    HW229553   1.256   6.103   5.902
 9552SOL     OW29554   0.463   5.074   3.013
 9552SOL    HW129555   0.448   4.975   3.006
 9552SOL    HW229556   0.553   5.096   2.976
 9553SOL     OW29557   5.407   4.630   5.849
 9553SOL    HW129558   5.346   4.708   5.857
 9553SOL    HW229559   5.389   4.582   5.763
 9554SOL     OW29560   2.100   1.739   1.215
 9554SOL    HW129561   2.055   1.739   1.304
 9554SOL    HW229562   2.124   1.645   1.190
 9555SOL     OW29563   7.020   2.843   6.482
 9555SOL    HW129564   0.092   2.845   6.516
 9555SOL    HW229565   6.957   2.841   6.559
 9556SOL     OW29566   6.323   1.474   0.734
 9556SOL    HW129567   6.354   1.455   0.827
 9556SOL    HW229568   6.335   1.571   0.715
 9557SOL     OW29569   5.616   2.024   1.952
 9557SOL    HW129570   5.688   1.961   1.923
 9557SOL    HW229571   5.529   1.975   1.959
 9558SOL     OW29572   5.460   4.648   2.128
 9558SOL    HW129573   5.370   4.690   2.117
 9558SOL    HW229574   5.469   4.611   2.221
 9559SOL     OW29575   6.665   3.682   2.985
 9559SOL    HW129576   6.695   3.693   2.890
 9559SOL    HW229577   6.685   3.589   3.015
 9560SOL     OW29578   3.983   2.209   5.085
 9560SOL    HW129579   4.034   2.293   5.064
 9560SOL    HW229580   4.001   2.182   5.179
 9561SOL     OW29581   2.889   6.362   6.614
 9561SOL    HW129582   2.835   6.295   6.563
 9561SOL    HW229583   2.941   6.316   6.686
 9562SOL     OW29584   6.049   4.560   4.009
 9562SOL    HW129585   6.035   4.659   4.011
 9562SOL    HW229586   5.999   4.517   4.085
 9563SOL     OW29587   0.381   6.239   6.550
 9563SOL    HW129588   0.347   6.311   6.490
 9563SOL    HW229589   0.424   6.280   6.631
 9564SOL     OW29590   1.740   0.573   6.523
 9564SOL    HW129591   1.837   0.548   6.528
 9564SOL    HW229592   1.685   0.492   6.543
 9565SOL     OW29593   3.889   5.946   4.038
 9565SOL    HW129594   3.948   5.918   3.962
 9565SOL    HW229595   3.863   5.865   4.091
 9566SOL     OW29596   3.649   4.906   6.022
 9566SOL    HW129597   3.613   4.993   6.055
 9566SOL    HW229598   3.749   4.906   6.030
 9567SOL     OW29599   6.104   5.594   4.910
 9567SOL    HW129600   6.047   5.519   4.877
 9567SOL    HW229601   6.087   5.676   4.856
 9568SOL     OW29602   5.089   3.932   6.302
 9568SOL    HW129603   5.003   3.890   6.332
 9568SOL    HW229604   5.166   3.878   6.337
 9569SOL     OW29605   5.340   6.772   2.023
 9569SOL    HW129606   5.346   6.827   1.940
 9569SOL    HW229607   5.429   6.772   2.069
 9570SOL     OW29608   0.758   1.225   6.769
 9570SOL    HW129609   0.799   1.133   6.771
 9570SOL    HW229610   0.826   1.291   6.738
 9571SOL     OW29611   2.260   2.731   0.060
 9571SOL    HW129612   2.246   2.662   0.132
 9571SOL    HW229613   2.356   2.760   0.060
 9572SOL     OW29614   0.466   3.522   1.284
 9572SOL    HW129615   0.485   3.558   1.375
 9572SOL    HW229616   0.460   3.598   1.219
 9573SOL     OW29617   5.809   1.300   1.997
 9573SOL    HW129618   5.741   1.230   2.017
 9573SOL    HW229619   5.825   1.356   2.078
 9574SOL     OW29620   2.890   1.945   3.671
 9574SOL    HW129621   2.920   1.953   3.766
 9574SOL    HW229622   2.791   1.958   3.666
 9575SOL     OW29623   4.621   1.101   2.498
 9575SOL    HW129624   4.690   1.170   2.478
 9575SOL    HW229625   4.592   1.057   2.413
 9576SOL     OW29626   4.282   3.080   5.860
 9576SOL    HW129627   4.271   3.171   5.820
 9576SOL    HW229628   4.356   3.032   5.814
 9577SOL     OW29629   0.758   6.348   3.360
 9577SOL    HW129630   0.723   6.293   3.436
 9577SOL    HW229631   0.830   6.297   3.312
 9578SOL     OW29632   6.384   4.246   2.179
 9578SOL    HW129633   6.334   4.318   2.132
 9578SOL    HW229634   6.327   4.206   2.251
 9579SOL     OW29635   2.094   5.774   2.956
 9579SOL    HW129636   2.039   5.844   3.001
 9579SOL    HW229637   2.101   5.694   3.017
 9580SOL     OW29638   4.054   3.424   5.697
 9580SOL    HW129639   4.146   3.398   5.667
 9580SOL    HW229640   4.032   3.377   5.783
 9581SOL     OW29641   1.066   5.663   5.724
 9581SOL    HW129642   1.050   5.621   5.814
 9581SOL    HW229643   1.014   5.614   5.655
 9582SOL     OW29644   4.206   4.944   3.695
 9582SOL    HW129645   4.291   4.970   3.739
 9582SOL    HW229646   4.222   4.866   3.634
 9583SOL     OW29647   2.174   4.903   1.650
 9583SOL    HW129648   2.269   4.910   1.622
 9583SOL    HW229649   2.138   4.813   1.623
 9584SOL     OW29650   4.765   5.110   0.039
 9584SOL    HW129651   4.844   5.065   0.079
 9584SOL    HW229652   4.793   5.197   7.020
 9585SOL     OW29653   0.979   0.316   3.299
 9585SOL    HW129654   0.994   0.397   3.242
 9585SOL    HW229655   0.944   0.345   3.389
 9586SOL     OW29656   5.277   3.764   2.353
 9586SOL    HW129657   5.342   3.811   2.413
 9586SOL    HW229658   5.327   3.697   2.298
 9587SOL     OW29659   5.202   6.210   1.585
 9587SOL    HW129660   5.200   6.276   1.510
 9587SOL    HW229661   5.114   6.163   1.589
 9588SOL     OW29662   6.728   0.587   2.835
 9588SOL    HW129663   6.629   0.577   2.848
 9588SOL    HW229664   6.758   0.673   2.874
 9589SOL     OW29665   3.009   1.789   4.954
 9589SOL    HW129666   3.046   1.875   4.918
 9589SOL    HW229667   2.989   1.800   5.052
 9590SOL     OW29668   0.487   5.282   4.654
 9590SOL    HW129669   0.415   5.234   4.704
 9590SOL    HW229670   0.564   5.301   4.716
 9591SOL     OW29671   1.228   4.683   2.474
 9591SOL    HW129672   1.245   4.760   2.536
 9591SOL    HW229673   1.131   4.677   2.454
 9592SOL     OW29674   5.232   6.002   1.119
 9592SOL    HW129675   5.330   5.985   1.109
 9592SOL    HW229676   5.182   5.915   1.110
 9593SOL     OW29677   2.519   2.528   3.724
 9593SOL    HW129678   2.562   2.476   3.798
 9593SOL    HW229679   2.586   2.545   3.652
 9594SOL     OW29680   6.138   6.989   0.821
 9594SOL    HW129681   6.220   6.967   0.874
 9594SOL    HW229682   6.126   0.066   0.818
 9595SOL     OW29683   0.941   4.406   4.191
 9595SOL    HW129684   1.009   4.347   4.146
 9595SOL    HW229685   0.905   4.359   4.272
 9596SOL     OW29686   5.164   5.668   2.286
 9596SOL    HW129687   5.121   5.624   2.365
 9596SOL    HW229688   5.218   5.600   2.235
 9597SOL     OW29689   1.972   4.178   0.833
 9597SOL    HW129690   1.977   4.268   0.789
 9597SOL    HW229691   1.885   4.168   0.880
 9598SOL     OW29692   1.174   5.960   5.941
 9598SOL    HW129693   1.240   5.899   5.896
 9598SOL    HW229694   1.097   5.905   5.974
 9599SOL     OW29695   4.466   1.369   4.856
 9599SOL    HW129696   4.478   1.449   4.914
 9599SOL    HW229697   4.378   1.375   4.808
 9600SOL     OW29698   1.988   5.940   6.729
 9600SOL    HW129699   2.023   5.926   6.822
 9600SOL    HW229700   1.973   5.851   6.686
 9601SOL     OW29701   0.384   6.797   6.293
 9601SOL    HW129702   0.442   6.841   6.361
 9601SOL    HW229703   0.440   6.744   6.230
 9602SOL     OW29704   0.399   5.167   6.564
 9602SOL    HW129705   0.325   5.230   6.583
 9602SOL    HW229706   0.408   5.154   6.465
 9603SOL     OW29707   1.037   5.271   2.731
 9603SOL    HW129708   1.109   5.336   2.756
 9603SOL    HW229709   1.022   5.207   2.807
 9604SOL     OW29710   6.709   6.581   0.027
 9604SOL    HW129711   6.690   6.645   0.101
 9604SOL    HW229712   6.768   6.625   6.981
 9605SOL     OW29713   2.835   4.993   0.571
 9605SOL    HW129714   2.866   4.936   0.647
 9605SOL    HW229715   2.746   5.032   0.592
 9606SOL     OW29716   6.736   0.090   5.334
 9606SOL    HW129717   6.708   0.152   5.407
 9606SOL    HW229718   6.658   0.072   5.274
 9607SOL     OW29719   0.143   2.133   2.096
 9607SOL    HW129720   0.118   2.124   2.000
 9607SOL    HW229721   0.240   2.153   2.104
 9608SOL     OW29722   6.566   0.351   2.468
 9608SOL    HW129723   6.563   0.334   2.369
 9608SOL    HW229724   6.474   0.342   2.506
 9609SOL     OW29725   1.677   2.219   3.676
 9609SOL    HW129726   1.750   2.220   3.745
 9609SOL    HW229727   1.717   2.239   3.587
 9610SOL     OW29728   3.677   0.481   5.744
 9610SOL    HW129729   3.768   0.438   5.743
 9610SOL    HW229730   3.648   0.498   5.650
 9611SOL     OW29731   5.503   5.958   1.012
 9611SOL    HW129732   5.562   6.028   1.053
 9611SOL    HW229733   5.499   5.973   0.913
 9612SOL     OW29734   5.041   3.358   3.193
 9612SOL    HW129735   5.046   3.410   3.108
 9612SOL    HW229736   5.133   3.330   3.220
 9613SOL     OW29737   5.832   0.214   5.487
 9613SOL    HW129738   5.795   0.220   5.580
 9613SOL    HW229739   5.910   0.151   5.487
 9614SOL     OW29740   3.217   2.716   1.644
 9614SOL    HW129741   3.232   2.805   1.687
 9614SOL    HW229742   3.119   2.696   1.643
 9615SOL     OW29743   0.517   6.390   3.752
 9615SOL    HW129744   0.547   6.307   3.704
 9615SOL    HW229745   0.597   6.442   3.782
 9616SOL     OW29746   1.593   2.861   1.517
 9616SOL    HW129747   1.653   2.936   1.487
 9616SOL    HW229748   1.510   2.861   1.461
 9617SOL     OW29749   0.095   2.992   2.105
 9617SOL    HW129750   0.002   2.968   2.077
 9617SOL    HW229751   0.097   3.008   2.204
 9618SOL     OW29752   4.364   4.184   0.749
 9618SOL    HW129753   4.396   4.250   0.817
 9618SOL    HW229754   4.377   4.091   0.784
 9619SOL     OW29755   0.628   0.033   1.586
 9619SOL    HW129756   0.669   0.032   1.678
 9619SOL    HW229757   0.536   0.073   1.592
 9620SOL     OW29758   3.068   1.710   6.976
 9620SOL    HW129759   3.144   1.740   0.011
 9620SOL    HW229760   3.100   1.695   6.883
 9621SOL     OW29761   0.626   0.803   1.859
 9621SOL    HW129762   0.697   0.873   1.855
 9621SOL    HW229763   0.603   0.783   1.954
 9622SOL     OW29764   6.577   5.620   5.970
 9622SOL    HW129765   6.629   5.548   5.923
 9622SOL    HW229766   6.569   5.700   5.910
 9623SOL     OW29767   3.655   6.129   5.707
 9623SOL    HW129768   3.565   6.157   5.740
 9623SOL    HW229769   3.671   6.170   5.617
 9624SOL     OW29770   4.385   5.283   5.334
 9624SOL    HW129771   4.440   5.295   5.252
 9624SOL    HW229772   4.309   5.221   5.314
 9625SOL     OW29773   4.601   3.886   6.383
 9625SOL    HW129774   4.582   3.981   6.357
 9625SOL    HW229775   4.685   3.882   6.436
 9626SOL     OW29776   2.461   2.046   6.758
 9626SOL    HW129777   2.473   2.107   6.837
 9626SOL    HW229778   2.494   2.092   6.676
 9627SOL     OW29779   0.243   5.205   0.618
 9627SOL    HW129780   0.239   5.286   0.676
 9627SOL    HW229781   0.278   5.128   0.671
 9628SOL     OW29782   0.072   1.852   6.166
 9628SOL    HW129783   0.093   1.809   6.254
 9628SOL    HW229784   7.000   1.883   6.166
 9629SOL     OW29785   0.397   6.092   3.890
 9629SOL    HW129786   0.429   6.006   3.852
 9629SOL    HW229787   0.471   6.136   3.941
 9630SOL     OW29788   5.678   1.662   5.980
 9630SOL    HW129789   5.638   1.607   5.908
 9630SOL    HW229790   5.761   1.617   6.014
 9631SOL     OW29791   4.345   6.760   0.588
 9631SOL    HW129792   4.364   6.681   0.646
 9631SOL    HW229793   4.418   6.828   0.598
 9632SOL     OW29794   2.799   4.700   2.773
 9632SOL    HW129795   2.824   4.756   2.693
 9632SOL    HW229796   2.873   4.705   2.841
 9633SOL     OW29797   3.901   2.991   3.619
 9633SOL    HW129798   3.940   2.933   3.547
 9633SOL    HW229799   3.955   3.074   3.628
 9634SOL     OW29800   5.190   4.640   3.169
 9634SOL    HW129801   5.249   4.677   3.241
 9634SOL    HW229802   5.170   4.544   3.188
 9635SOL     OW29803   0.402   4.673   3.943
 9635SOL    HW129804   0.497   4.647   3.923
 9635SOL    HW229805   0.401   4.739   4.018
 9636SOL     OW29806   5.814   3.786   4.156
 9636SOL    HW129807   5.756   3.841   4.096
 9636SOL    HW229808   5.885   3.844   4.197
 9637SOL     OW29809   1.205   3.718   0.069
 9637SOL    HW129810   1.231   3.628   0.033
 9637SOL    HW229811   1.287   3.775   0.078
 9638SOL     OW29812   5.919   5.391   6.246
 9638SOL    HW129813   5.845   5.324   6.236
 9638SOL    HW229814   5.958   5.410   6.156
 9639SOL     OW29815   4.516   2.120   1.287
 9639SOL    HW129816   4.488   2.171   1.368
 9639SOL    HW229817   4.505   2.177   1.205
 9640SOL     OW29818   3.805   0.525   3.439
 9640SOL    HW129819   3.812   0.442   3.493
 9640SOL    HW229820   3.778   0.601   3.499
 9641SOL     OW29821   6.927   2.623   4.143
 9641SOL    HW129822   6.943   2.712   4.101
 9641SOL    HW229823   6.830   2.601   4.139
 9642SOL     OW29824   1.004   1.755   4.833
 9642SOL    HW129825   0.994   1.745   4.932
 9642SOL    HW229826   1.052   1.674   4.797
 9643SOL     OW29827   5.604   5.441   4.110
 9643SOL    HW129828   5.514   5.457   4.150
 9643SOL    HW229829   5.597   5.442   4.010
 9644SOL     OW29830   1.083   5.115   3.197
 9644SOL    HW129831   1.009   5.173   3.232
 9644SOL    HW229832   1.069   5.021   3.229
 9645SOL     OW29833   1.174   5.188   6.107
 9645SOL    HW129834   1.108   5.145   6.045
 9645SOL    HW229835   1.180   5.134   6.191
 9646SOL     OW29836   3.296   5.904   0.495
 9646SOL    HW129837   3.242   5.988   0.502
 9646SOL    HW229838   3.379   5.913   0.550
 9647SOL     OW29839   5.892   6.769   3.039
 9647SOL    HW129840   5.940   6.782   3.126
 9647SOL    HW229841   5.948   6.710   2.980
 9648SOL     OW29842   2.978   1.425   0.863
 9648SOL    HW129843   3.040   1.450   0.937
 9648SOL    HW229844   3.019   1.353   0.808
 9649SOL     OW29845   0.073   5.425   1.198
 9649SOL    HW129846   0.003   5.389   1.260
 9649SOL    HW229847   0.160   5.431   1.247
 9650SOL     OW29848   0.739   4.593   4.109
 9650SOL    HW129849   0.804   4.529   4.152
 9650SOL    HW229850   0.771   4.687   4.122
 9651SOL     OW29851   3.335   1.985   0.262
 9651SOL    HW129852   3.431   2.011   0.253
 9651SOL    HW229853   3.323   1.932   0.346
 9652SOL     OW29854   0.423   4.000   0.443
 9652SOL    HW129855   0.334   3.955   0.437
 9652SOL    HW229856   0.419   4.074   0.511
 9653SOL     OW29857   4.886   4.497   5.595
 9653SOL    HW129858   4.852   4.566   5.658
 9653SOL    HW229859   4.984   4.510   5.579
 9654SOL     OW29860   3.576   3.429   3.138
 9654SOL    HW129861   3.655   3.489   3.127
 9654SOL    HW229862   3.601   3.352   3.198
 9655SOL     OW29863   4.498   1.641   0.691
 9655SOL    HW129864   4.466   1.687   0.775
 9655SOL    HW229865   4.420   1.598   0.645
 9656SOL     OW29866   4.931   4.219   6.519
 9656SOL    HW129867   4.868   4.297   6.525
 9656SOL    HW229868   5.020   4.246   6.555
 9657SOL     OW29869   5.335   4.799   4.087
 9657SOL    HW129870   5.363   4.724   4.027
 9657SOL    HW229871   5.271   4.763   4.156
 9658SOL     OW29872   5.042   1.367   2.339
 9658SOL    HW129873   5.069   1.305   2.412
 9658SOL    HW229874   5.075   1.459   2.360
 9659SOL     OW29875   2.754   3.032   6.791
 9659SOL    HW129876   2.789   2.939   6.776
 9659SOL    HW229877   2.790   3.093   6.720
 9660SOL     OW29878   1.174   6.526   1.465
 9660SOL    HW129879   1.184   6.516   1.564
 9660SOL    HW229880   1.124   6.448   1.427
 9661SOL     OW29881   4.149   4.010   1.174
 9661SOL    HW129882   4.120   4.009   1.270
 9661SOL    HW229883   4.246   4.036   1.168
 9662SOL     OW29884   4.808   6.535   6.093
 9662SOL    HW129885   4.907   6.518   6.091
 9662SOL    HW229886   4.768   6.509   6.005
 9663SOL     OW29887   1.304   4.936   2.573
 9663SOL    HW129888   1.317   5.022   2.623
 9663SOL    HW229889   1.229   4.946   2.508
 9664SOL     OW29890   3.581   4.920   2.166
 9664SOL    HW129891   3.588   4.866   2.081
 9664SOL    HW229892   3.484   4.927   2.192
 9665SOL     OW29893   6.432   4.021   5.671
 9665SOL    HW129894   6.456   3.995   5.578
 9665SOL    HW229895   6.393   4.113   5.671
 9666SOL     OW29896   5.006   3.820   0.511
 9666SOL    HW129897   5.016   3.740   0.571
 9666SOL    HW229898   5.037   3.902   0.559
 9667SOL     OW29899   5.714   6.008   0.508
 9667SOL    HW129900   5.770   6.082   0.474
 9667SOL    HW229901   5.648   5.980   0.438
 9668SOL     OW29902   1.723   1.480   6.043
 9668SOL    HW129903   1.730   1.543   5.966
 9668SOL    HW229904   1.628   1.474   6.074
 9669SOL     OW29905   2.945   0.495   0.058
 9669SOL    HW129906   2.911   0.587   0.038
 9669SOL    HW229907   3.023   0.500   0.120
 9670SOL     OW29908   0.828   0.574   0.543
 9670SOL    HW129909   0.871   0.572   0.452
 9670SOL    HW229910   0.857   0.494   0.595
 9671SOL     OW29911   0.806   5.076   6.670
 9671SOL    HW129912   0.798   4.976   6.670
 9671SOL    HW229913   0.819   5.109   6.763
 9672SOL     OW29914   0.780   3.875   4.159
 9672SOL    HW129915   0.765   3.776   4.156
 9672SOL    HW229916   0.877   3.896   4.145
 9673SOL     OW29917   2.047   3.689   6.980
 9673SOL    HW129918   2.065   3.732   6.891
 9673SOL    HW229919   2.051   3.589   6.970
 9674SOL     OW29920   1.996   6.616   3.836
 9674SOL    HW129921   2.008   6.564   3.920
 9674SOL    HW229922   1.954   6.705   3.857
 9675SOL     OW29923   6.045   3.815   5.742
 9675SOL    HW129924   6.139   3.787   5.726
 9675SOL    HW229925   6.004   3.757   5.812
 9676SOL     OW29926   0.726   3.260   5.923
 9676SOL    HW129927   0.804   3.322   5.928
 9676SOL    HW229928   0.699   3.248   5.828
 9677SOL     OW29929   6.623   5.259   2.762
 9677SOL    HW129930   6.598   5.216   2.848
 9677SOL    HW229931   6.635   5.358   2.775
 9678SOL     OW29932   3.777   3.757   5.152
 9678SOL    HW129933   3.738   3.695   5.221
 9678SOL    HW229934   3.842   3.819   5.196
 9679SOL     OW29935   2.068   0.590   3.884
 9679SOL    HW129936   2.077   0.582   3.984
 9679SOL    HW229937   2.016   0.673   3.862
 9680SOL     OW29938   4.531   0.740   2.053
 9680SOL    HW129939   4.602   0.681   2.014
 9680SOL    HW229940   4.477   0.688   2.119
 9681SOL     OW29941   1.302   2.281   1.441
 9681SOL    HW129942   1.315   2.273   1.342
 9681SOL    HW229943   1.381   2.328   1.481
 9682SOL     OW29944   5.237   6.764   6.013
 9682SOL    HW129945   5.336   6.754   6.023
 9682SOL    HW229946   5.218   6.844   5.955
 9683SOL     OW29947   3.375   6.315   3.560
 9683SOL    HW129948   3.420   6.228   3.541
 9683SOL    HW229949   3.380   6.373   3.478
 9684SOL     OW29950   6.601   3.320   5.440
 9684SOL    HW129951   6.566   3.227   5.429
 9684SOL    HW229952   6.679   3.320   5.503
 9685SOL     OW29953   3.277   4.693   1.698
 9685SOL    HW129954   3.365   4.684   1.745
 9685SOL    HW229955   3.243   4.602   1.674
 9686SOL     OW29956   6.909   1.147   5.671
 9686SOL    HW129957   6.999   1.121   5.639
 9686SOL    HW229958   6.876   1.226   5.619
 9687SOL     OW29959   5.578   1.161   3.168
 9687SOL    HW129960   5.598   1.116   3.255
 9687SOL    HW229961   5.635   1.121   3.096
 9688SOL     OW29962   0.457   4.972   1.631
 9688SOL    HW129963   0.460   4.883   1.678
 9688SOL    HW229964   0.549   5.011   1.628
 9689SOL     OW29965   1.988   6.026   1.437
 9689SOL    HW129966   1.962   6.101   1.498
 9689SOL    HW229967   1.931   6.029   1.355
 9690SOL     OW29968   0.516   4.701   4.602
 9690SOL    HW129969   0.424   4.738   4.590
 9690SOL    HW229970   0.560   4.746   4.680
 9691SOL     OW29971   3.198   3.392   1.677
 9691SOL    HW129972   3.174   3.315   1.736
 9691SOL    HW229973   3.177   3.368   1.582
 9692SOL     OW29974   5.096   4.429   0.888
 9692SOL    HW129975   5.116   4.451   0.984
 9692SOL    HW229976   5.106   4.331   0.874
 9693SOL     OW29977   4.431   3.012   5.294
 9693SOL    HW129978   4.370   2.933   5.298
 9693SOL    HW229979   4.497   3.007   5.369
 9694SOL     OW29980   2.964   6.616   1.569
 9694SOL    HW129981   2.879   6.641   1.615
 9694SOL    HW229982   3.011   6.544   1.621
 9695SOL     OW29983   0.897   2.963   3.863
 9695SOL    HW129984   0.798   2.953   3.871
 9695SOL    HW229985   0.942   2.911   3.936
 9696SOL     OW29986   5.284   2.446   3.420
 9696SOL    HW129987   5.348   2.504   3.470
 9696SOL    HW229988   5.327   2.415   3.335
 9697SOL     OW29989   6.999   6.657   1.722
 9697SOL    HW129990   6.954   6.742   1.750
 9697SOL    HW229991   0.014   6.669   1.630
 9698SOL     OW29992   0.104   3.665   2.224
 9698SOL    HW129993   0.145   3.736   2.281
 9698SOL    HW229994   0.165   3.586   2.220
 9699SOL     OW29995   1.726   5.670   1.367
 9699SOL    HW129996   1.677   5.756   1.378
 9699SOL    HW229997   1.800   5.681   1.300
 9700SOL     OW29998   5.479   0.251   6.121
 9700SOL    HW129999   5.410   0.197   6.072
 9700SOL    HW230000   5.489   0.340   6.077
 9701SOL     OW30001   5.063   3.845   6.862
 9701SOL    HW130002   5.073   3.777   6.934
 9701SOL    HW230003   5.139   3.911   6.867
 9702SOL     OW30004   3.698   4.034   2.330
 9702SOL    HW130005   3.764   3.959   2.331
 9702SOL    HW230006   3.746   4.121   2.335
 9703SOL     OW30007   5.963   4.927   3.604
 9703SOL    HW130008   5.882   4.885   3.644
 9703SOL    HW230009   5.949   4.941   3.506
 9704SOL     OW30010   1.383   4.693   2.226
 9704SOL    HW130011   1.320   4.661   2.297
 9704SOL    HW230012   1.476   4.695   2.263
 9705SOL     OW30013   0.373   2.817   5.609
 9705SOL    HW130014   0.357   2.834   5.707
 9705SOL    HW230015   0.461   2.856   5.583
 9706SOL     OW30016   0.825   1.351   2.924
 9706SOL    HW130017   0.790   1.373   3.015
 9706SOL    HW230018   0.876   1.265   2.927
 9707SOL     OW30019   0.910   4.815   2.725
 9707SOL    HW130020   0.951   4.903   2.752
 9707SOL    HW230021   0.834   4.794   2.786
 9708SOL     OW30022   2.424   0.720   1.671
 9708SOL    HW130023   2.507   0.774   1.659
 9708SOL    HW230024   2.346   0.780   1.687
 9709SOL     OW30025   5.546   1.851   1.687
 9709SOL    HW130026   5.493   1.935   1.686
 9709SOL    HW230027   5.551   1.814   1.594
 9710SOL     OW30028   5.445   5.594   4.471
 9710SOL    HW130029   5.523   5.599   4.533
 9710SOL    HW230030   5.406   5.502   4.474
 9711SOL     OW30031   2.758   1.105   6.428
 9711SOL    HW130032   2.695   1.182   6.418
 9711SOL    HW230033   2.809   1.093   6.343
 9712SOL     OW30034   5.867   1.155   6.786
 9712SOL    HW130035   5.851   1.115   6.696
 9712SOL    HW230036   5.965   1.170   6.800
 9713SOL     OW30037   2.492   6.973   2.489
 9713SOL    HW130038   2.418   6.971   2.422
 9713SOL    HW230039   2.497   0.042   2.530
 9714SOL     OW30040   2.135   4.077   3.914
 9714SOL    HW130041   2.186   4.096   3.998
 9714SOL    HW230042   2.108   3.980   3.912
 9715SOL     OW30043   0.010   3.126   6.407
 9715SOL    HW130044   0.029   3.173   6.494
 9715SOL    HW230045   0.001   3.028   6.424
 9716SOL     OW30046   2.354   6.150   0.259
 9716SOL    HW130047   2.415   6.073   0.278
 9716SOL    HW230048   2.363   6.218   0.332
 9717SOL     OW30049   3.876   2.180   5.763
 9717SOL    HW130050   3.923   2.255   5.811
 9717SOL    HW230051   3.940   2.137   5.700
 9718SOL     OW30052   4.576   2.074   5.848
 9718SOL    HW130053   4.513   2.002   5.818
 9718SOL    HW230054   4.530   2.131   5.917
 9719SOL     OW30055   5.018   0.151   6.064
 9719SOL    HW130056   5.108   0.195   6.064
 9719SOL    HW230057   5.030   0.052   6.055
 9720SOL     OW30058   2.205   2.852   2.838
 9720SOL    HW130059   2.260   2.803   2.770
 9720SOL    HW230060   2.254   2.853   2.925
 9721SOL     OW30061   0.519   1.440   0.959
 9721SOL    HW130062   0.470   1.353   0.959
 9721SOL    HW230063   0.520   1.479   1.051
 9722SOL     OW30064   4.023   2.369   5.438
 9722SOL    HW130065   3.962   2.290   5.434
 9722SOL    HW230066   4.000   2.425   5.518
 9723SOL     OW30067   6.501   0.654   5.002
 9723SOL    HW130068   6.570   0.700   5.057
 9723SOL    HW230069   6.456   0.584   5.058
 9724SOL     OW30070   1.395   4.290   0.642
 9724SOL    HW130071   1.465   4.308   0.573
 9724SOL    HW230072   1.368   4.194   0.638
 9725SOL     OW30073   4.541   5.339   4.461
 9725SOL    HW130074   4.615   5.309   4.401
 9725SOL    HW230075   4.575   5.348   4.555
 9726SOL     OW30076   6.829   0.122   3.078
 9726SOL    HW130077   6.807   0.106   2.982
 9726SOL    HW230078   6.752   0.168   3.123
 9727SOL     OW30079   6.261   2.787   1.556
 9727SOL    HW130080   6.197   2.839   1.500
 9727SOL    HW230081   6.338   2.757   1.500
 9728SOL     OW30082   5.246   2.415   4.133
 9728SOL    HW130083   5.202   2.350   4.072
 9728SOL    HW230084   5.267   2.499   4.082
 9729SOL     OW30085   0.431   4.330   3.225
 9729SOL    HW130086   0.479   4.379   3.299
 9729SOL    HW230087   0.357   4.275   3.263
 9730SOL     OW30088   0.957   5.090   2.908
 9730SOL    HW130089   1.030   5.090   2.977
 9730SOL    HW230090   0.868   5.095   2.954
 9731SOL     OW30091   5.530   2.737   1.613
 9731SOL    HW130092   5.457   2.805   1.625
 9731SOL    HW230093   5.490   2.649   1.589
 9732SOL     OW30094   1.211   3.917   2.684
 9732SOL    HW130095   1.154   3.881   2.759
 9732SOL    HW230096   1.288   3.968   2.723
 9733SOL     OW30097   6.124   4.628   1.832
 9733SOL    HW130098   6.110   4.713   1.884
 9733SOL    HW230099   6.036   4.591   1.804
 9734SOL     OW30100   4.762   5.069   6.049
 9734SOL    HW130101   4.744   5.162   6.083
 9734SOL    HW230102   4.825   5.023   6.111
 9735SOL     OW30103   0.003   2.014   0.269
 9735SOL    HW130104   0.088   1.986   0.224
 9735SOL    HW230105   6.958   1.939   0.262
 9736SOL     OW30106   5.025   2.236   4.733
 9736SOL    HW130107   5.059   2.146   4.704
 9736SOL    HW230108   5.088   2.307   4.699
 9737SOL     OW30109   5.850   2.661   3.689
 9737SOL    HW130110   5.763   2.615   3.711
 9737SOL    HW230111   5.926   2.605   3.722
 9738SOL     OW30112   2.572   6.458   1.802
 9738SOL    HW130113   2.498   6.426   1.742
 9738SOL    HW230114   2.657   6.412   1.778
 9739SOL     OW30115   6.121   6.672   0.810
 9739SOL    HW130116   6.193   6.610   0.842
 9739SOL    HW230117   6.149   6.766   0.827
 9740SOL     OW30118   6.007   0.550   2.177
 9740SOL    HW130119   6.067   0.488   2.226
 9740SOL    HW230120   6.018   0.643   2.212
 9741SOL     OW30121   2.219   2.064   4.134
 9741SOL    HW130122   2.204   1.974   4.173
 9741SOL    HW230123   2.312   2.071   4.099
 9742SOL     OW30124   3.615   1.863   6.158
 9742SOL    HW130125   3.515   1.868   6.159
 9742SOL    HW230126   3.648   1.816   6.240
 9743SOL     OW30127   6.045   3.725   3.930
 9743SOL    HW130128   6.017   3.821   3.937
 9743SOL    HW230129   6.136   3.720   3.890
 9744SOL     OW30130   2.026   1.835   2.582
 9744SOL    HW130131   2.075   1.831   2.495
 9744SOL    HW230132   2.058   1.762   2.642
 9745SOL     OW30133   0.501   0.134   5.869
 9745SOL    HW130134   0.495   0.095   5.961
 9745SOL    HW230135   0.412   0.126   5.824
 9746SOL     OW30136   3.638   6.284   6.156
 9746SOL    HW130137   3.625   6.329   6.068
 9746SOL    HW230138   3.727   6.239   6.159
 9747SOL     OW30139   3.001   1.299   2.983
 9747SOL    HW130140   2.953   1.326   3.066
 9747SOL    HW230141   3.040   1.380   2.939
 9748SOL     OW30142   1.569   1.052   2.957
 9748SOL    HW130143   1.602   0.957   2.952
 9748SOL    HW230144   1.520   1.066   3.042
 9749SOL     OW30145   6.930   0.385   2.055
 9749SOL    HW130146   6.863   0.413   2.124
 9749SOL    HW230147   7.021   0.379   2.097
 9750SOL     OW30148   5.603   2.573   5.272
 9750SOL    HW130149   5.653   2.636   5.332
 9750SOL    HW230150   5.507   2.568   5.302
 9751SOL     OW30151   3.204   6.917   1.635
 9751SOL    HW130152   3.124   6.957   1.591
 9751SOL    HW230153   3.241   6.844   1.577
 9752SOL     OW30154   3.013   2.978   0.724
 9752SOL    HW130155   2.940   3.045   0.710
 9752SOL    HW230156   3.100   3.018   0.695
 9753SOL     OW30157   6.375   6.368   4.825
 9753SOL    HW130158   6.446   6.339   4.889
 9753SOL    HW230159   6.397   6.334   4.733
 9754SOL     OW30160   2.904   1.309   2.365
 9754SOL    HW130161   3.000   1.310   2.392
 9754SOL    HW230162   2.865   1.218   2.381
 9755SOL     OW30163   3.684   4.039   0.254
 9755SOL    HW130164   3.703   4.088   0.168
 9755SOL    HW230165   3.771   4.013   0.297
 9756SOL     OW30166   5.882   0.647   5.644
 9756SOL    HW130167   5.872   0.713   5.718
 9756SOL    HW230168   5.944   0.574   5.673
 9757SOL     OW30169   4.909   3.496   4.180
 9757SOL    HW130170   4.958   3.426   4.129
 9757SOL    HW230171   4.874   3.458   4.265
 9758SOL     OW30172   2.266   1.051   2.493
 9758SOL    HW130173   2.234   0.976   2.435
 9758SOL    HW230174   2.188   1.110   2.516
 9759SOL     OW30175   6.538   1.871   1.866
 9759SOL    HW130176   6.548   1.810   1.787
 9759SOL    HW230177   6.481   1.826   1.935
 9760SOL     OW30178   4.700   0.353   6.976
 9760SOL    HW130179   4.621   0.368   6.917
 9760SOL    HW230180   4.766   0.427   6.962
 9761SOL     OW30181   1.319   2.645   1.194
 9761SOL    HW130182   1.268   2.570   1.152
 9761SOL    HW230183   1.283   2.733   1.162
 9762SOL     OW30184   2.851   1.319   5.722
 9762SOL    HW130185   2.896   1.406   5.699
 9762SOL    HW230186   2.919   1.245   5.719
 9763SOL     OW30187   6.725   2.175   1.271
 9763SOL    HW130188   6.721   2.194   1.173
 9763SOL    HW230189   6.771   2.251   1.317
 9764SOL     OW30190   0.577   2.211   2.762
 9764SOL    HW130191   0.497   2.270   2.755
 9764SOL    HW230192   0.651   2.249   2.705
 9765SOL     OW30193   6.794   0.271   1.862
 9765SOL    HW130194   6.751   0.189   1.902
 9765SOL    HW230195   6.849   0.316   1.931
 9766SOL     OW30196   1.353   2.192   2.569
 9766SOL    HW130197   1.255   2.177   2.577
 9766SOL    HW230198   1.370   2.280   2.524
 9767SOL     OW30199   2.422   1.478   5.074
 9767SOL    HW130200   2.348   1.539   5.046
 9767SOL    HW230201   2.431   1.403   5.009
 9768SOL     OW30202   5.466   3.053   0.594
 9768SOL    HW130203   5.510   2.987   0.533
 9768SOL    HW230204   5.398   3.007   0.650
 9769SOL     OW30205   3.425   1.777   5.651
 9769SOL    HW130206   3.330   1.808   5.645
 9769SOL    HW230207   3.476   1.811   5.572
 9770SOL     OW30208   1.930   3.125   5.502
 9770SOL    HW130209   1.933   3.087   5.410
 9770SOL    HW230210   1.836   3.148   5.526
 9771SOL     OW30211   2.923   0.563   1.388
 9771SOL    HW130212   2.847   0.546   1.451
 9771SOL    HW230213   2.904   0.518   1.300
 9772SOL     OW30214   0.989   0.846   1.210
 9772SOL    HW130215   1.075   0.890   1.236
 9772SOL    HW230216   0.931   0.912   1.163
 9773SOL     OW30217   5.968   5.490   2.625
 9773SOL    HW130218   5.916   5.506   2.710
 9773SOL    HW230219   6.058   5.454   2.648
 9774SOL     OW30220   1.746   4.506   4.122
 9774SOL    HW130221   1.806   4.439   4.166
 9774SOL    HW230222   1.758   4.595   4.165
 9775SOL     OW30223   2.407   1.450   3.259
 9775SOL    HW130224   2.362   1.487   3.178
 9775SOL    HW230225   2.472   1.378   3.231
 9776SOL     OW30226   2.576   5.557   1.261
 9776SOL    HW130227   2.643   5.493   1.223
 9776SOL    HW230228   2.493   5.507   1.286
 9777SOL     OW30229   4.531   1.209   5.517
 9777SOL    HW130230   4.564   1.283   5.576
 9777SOL    HW230231   4.479   1.143   5.572
 9778SOL     OW30232   0.762   3.637   3.336
 9778SOL    HW130233   0.821   3.689   3.274
 9778SOL    HW230234   0.818   3.596   3.408
 9779SOL     OW30235   3.172   0.768   3.801
 9779SOL    HW130236   3.217   0.686   3.764
 9779SOL    HW230237   3.098   0.741   3.862
 9780SOL     OW30238   0.636   2.480   1.635
 9780SOL    HW130239   0.715   2.541   1.629
 9780SOL    HW230240   0.569   2.518   1.699
 9781SOL     OW30241   1.759   1.311   2.248
 9781SOL    HW130242   1.689   1.270   2.189
 9781SOL    HW230243   1.786   1.245   2.319
 9782SOL     OW30244   0.422   2.022   0.330
 9782SOL    HW130245   0.395   1.926   0.340
 9782SOL    HW230246   0.517   2.033   0.360
 9783SOL     OW30247   4.656   1.405   3.045
 9783SOL    HW130248   4.659   1.310   3.077
 9783SOL    HW230249   4.567   1.423   3.002
 9784SOL     OW30250   1.749   1.403   6.474
 9784SOL    HW130251   1.676   1.454   6.428
 9784SOL    HW230252   1.821   1.467   6.502
 9785SOL     OW30253   0.514   4.044   4.597
 9785SOL    HW130254   0.485   3.978   4.666
 9785SOL    HW230255   0.585   4.004   4.539
 9786SOL     OW30256   2.407   4.391   6.488
 9786SOL    HW130257   2.489   4.448   6.494
 9786SOL    HW230258   2.395   4.341   6.574
 9787SOL     OW30259   2.939   3.295   2.140
 9787SOL    HW130260   2.912   3.238   2.062
 9787SOL    HW230261   2.907   3.389   2.125
 9788SOL     OW30262   4.020   7.004   1.606
 9788SOL    HW130263   4.077   0.020   1.678
 9788SOL    HW230264   3.923   7.013   1.632
 9789SOL     OW30265   3.330   1.564   6.897
 9789SOL    HW130266   3.273   1.493   6.939
 9789SOL    HW230267   3.357   1.630   6.967
 9790SOL     OW30268   5.430   6.168   4.552
 9790SOL    HW130269   5.351   6.120   4.514
 9790SOL    HW230270   5.412   6.189   4.649
 9791SOL     OW30271   0.690   6.957   1.893
 9791SOL    HW130272   0.627   6.887   1.859
 9791SOL    HW230273   0.745   6.919   1.968
 9792SOL     OW30274   3.896   4.818   0.708
 9792SOL    HW130275   3.814   4.826   0.651
 9792SOL    HW230276   3.970   4.871   0.669
 9793SOL     OW30277   6.535   0.935   3.072
 9793SOL    HW130278   6.596   0.902   3.145
 9793SOL    HW230279   6.454   0.877   3.067
 9794SOL     OW30280   4.485   4.528   4.564
 9794SOL    HW130281   4.502   4.431   4.583
 9794SOL    HW230282   4.489   4.579   4.650
 9795SOL     OW30283   0.997   3.364   2.769
 9795SOL    HW130284   0.940   3.302   2.714
 9795SOL    HW230285   0.964   3.366   2.863
 9796SOL     OW30286   3.082   3.948   3.973
 9796SOL    HW130287   3.030   4.024   4.013
 9796SOL    HW230288   3.085   3.872   4.038
 9797SOL     OW30289   2.537   5.018   0.374
 9797SOL    HW130290   2.450   4.991   0.333
 9797SOL    HW230291   2.558   4.957   0.450
 9798SOL     OW30292   0.133   4.209   6.208
 9798SOL    HW130293   0.061   4.265   6.250
 9798SOL    HW230294   0.221   4.254   6.220
 9799SOL     OW30295   3.120   0.101   0.190
 9799SOL    HW130296   3.203   0.049   0.205
 9799SOL    HW230297   3.052   0.044   0.144
 9800SOL     OW30298   6.929   3.413   4.126
 9800SOL    HW130299   6.892   3.504   4.109
 9800SOL    HW230300   6.992   3.416   4.203
 9801SOL     OW30301   5.076   6.380   0.601
 9801SOL    HW130302   5.140   6.395   0.676
 9801SOL    HW230303   4.982   6.380   0.635
 9802SOL     OW30304   4.120   3.635   6.566
 9802SOL    HW130305   4.182   3.702   6.526
 9802SOL    HW230306   4.126   3.639   6.666
 9803SOL     OW30307   0.753   3.034   6.349
 9803SOL    HW130308   0.848   3.066   6.358
 9803SOL    HW230309   0.716   3.066   6.262
 9804SOL     OW30310   0.430   4.544   2.541
 9804SOL    HW130311   0.491   4.490   2.598
 9804SOL    HW230312   0.343   4.558   2.588
 9805SOL     OW30313   1.092   5.635   3.499
 9805SOL    HW130314   1.054   5.627   3.407
 9805SOL    HW230315   1.191   5.623   3.496
 9806SOL     OW30316   3.925   1.875   0.306
 9806SOL    HW130317   3.979   1.844   0.384
 9806SOL    HW230318   3.985   1.922   0.241
 9807SOL     OW30319   3.853   3.135   2.937
 9807SOL    HW130320   3.885   3.083   2.858
 9807SOL    HW230321   3.928   3.192   2.972
 9808SOL     OW30322   4.081   5.711   2.111
 9808SOL    HW130323   4.095   5.625   2.062
 9808SOL    HW230324   3.991   5.747   2.090
 9809SOL     OW30325   6.762   3.257   0.349
 9809SOL    HW130326   6.685   3.299   0.398
 9809SOL    HW230327   6.738   3.164   0.323
 9810SOL     OW30328   2.580   2.062   0.285
 9810SOL    HW130329   2.641   2.133   0.323
 9810SOL    HW230330   2.589   1.979   0.339
 9811SOL     OW30331   5.701   3.621   4.350
 9811SOL    HW130332   5.735   3.666   4.268
 9811SOL    HW230333   5.778   3.594   4.408
 9812SOL     OW30334   3.408   6.216   5.801
 9812SOL    HW130335   3.351   6.292   5.769
 9812SOL    HW230336   3.351   6.138   5.823
 9813SOL     OW30337   5.166   0.412   1.886
 9813SOL    HW130338   5.152   0.511   1.886
 9813SOL    HW230339   5.222   0.386   1.964
 9814SOL     OW30340   6.436   1.205   6.859
 9814SOL    HW130341   6.505   1.214   6.930
 9814SOL    HW230342   6.437   1.111   6.824
 9815SOL     OW30343   4.726   2.636   4.034
 9815SOL    HW130344   4.696   2.685   3.952
 9815SOL    HW230345   4.692   2.682   4.115
 9816SOL     OW30346   2.413   1.130   1.516
 9816SOL    HW130347   2.503   1.153   1.552
 9816SOL    HW230348   2.365   1.213   1.488
 9817SOL     OW30349   6.453   6.897   2.246
 9817SOL    HW130350   6.368   6.863   2.285
 9817SOL    HW230351   6.523   6.900   2.317
 9818SOL     OW30352   5.341   2.466   4.924
 9818SOL    HW130353   5.315   2.561   4.938
 9818SOL    HW230354   5.271   2.406   4.965
 9819SOL     OW30355   4.349   0.742   2.341
 9819SOL    HW130356   4.299   0.760   2.426
 9819SOL    HW230357   4.284   0.711   2.271
 9820SOL     OW30358   4.248   2.942   6.215
 9820SOL    HW130359   4.241   2.862   6.156
 9820SOL    HW230360   4.313   3.007   6.176
 9821SOL     OW30361   6.599   5.300   0.219
 9821SOL    HW130362   6.536   5.254   0.281
 9821SOL    HW230363   6.685   5.248   0.214
 9822SOL     OW30364   0.731   6.769   2.677
 9822SOL    HW130365   0.715   6.839   2.608
 9822SOL    HW230366   0.786   6.807   2.751
 9823SOL     OW30367   3.766   0.065   1.693
 9823SOL    HW130368   3.685   0.007   1.685
 9823SOL    HW230369   3.748   0.153   1.651
 9824SOL     OW30370   1.533   3.803   5.578
 9824SOL    HW130371   1.518   3.768   5.671
 9824SOL    HW230372   1.630   3.826   5.566
 9825SOL     OW30373   4.176   5.113   5.125
 9825SOL    HW130374   4.201   5.163   5.042
 9825SOL    HW230375   4.217   5.022   5.122
 9826SOL     OW30376   4.985   0.626   6.151
 9826SOL    HW130377   4.912   0.559   6.149
 9826SOL    HW230378   5.072   0.581   6.130
 9827SOL     OW30379   1.212   3.265   4.440
 9827SOL    HW130380   1.138   3.331   4.428
 9827SOL    HW230381   1.299   3.310   4.423
 9828SOL     OW30382   3.249   2.994   6.667
 9828SOL    HW130383   3.303   2.912   6.646
 9828SOL    HW230384   3.304   3.075   6.649
 9829SOL     OW30385   3.324   4.696   0.906
 9829SOL    HW130386   3.306   4.638   0.986
 9829SOL    HW230387   3.386   4.770   0.931
 9830SOL     OW30388   5.981   0.417   0.513
 9830SOL    HW130389   5.989   0.425   0.414
 9830SOL    HW230390   5.959   0.507   0.552
 9831SOL     OW30391   6.015   6.940   0.586
 9831SOL    HW130392   6.052   7.003   0.518
 9831SOL    HW230393   6.061   6.956   0.674
 9832SOL     OW30394   4.320   4.847   0.885
 9832SOL    HW130395   4.271   4.784   0.946
 9832SOL    HW230396   4.393   4.797   0.839
 9833SOL     OW30397   4.111   4.028   5.556
 9833SOL    HW130398   4.087   4.088   5.632
 9833SOL    HW230399   4.175   3.958   5.588
 9834SOL     OW30400   0.737   3.527   4.624
 9834SOL    HW130401   0.766   3.584   4.547
 9834SOL    HW230402   0.736   3.431   4.597
 9835SOL     OW30403   5.084   1.411   4.181
 9835SOL    HW130404   5.065   1.426   4.278
 9835SOL    HW230405   5.023   1.468   4.126
 9836SOL     OW30406   4.790   5.278   2.687
 9836SOL    HW130407   4.748   5.363   2.719
 9836SOL    HW230408   4.723   5.204   2.691
 9837SOL     OW30409   1.661   6.237   4.118
 9837SOL    HW130410   1.707   6.267   4.035
 9837SOL    HW230411   1.596   6.307   4.148
 9838SOL     OW30412   0.212   5.793   5.308
 9838SOL    HW130413   0.310   5.797   5.288
 9838SOL    HW230414   0.186   5.869   5.367
 9839SOL     OW30415   6.741   1.995   2.056
 9839SOL    HW130416   6.683   1.954   1.986
 9839SOL    HW230417   6.764   1.927   2.125
 9840SOL     OW30418   6.557   0.374   1.270
 9840SOL    HW130419   6.595   0.457   1.229
 9840SOL    HW230420   6.569   0.378   1.369
 9841SOL     OW30421   1.444   3.534   4.092
 9841SOL    HW130422   1.495   3.525   4.007
 9841SOL    HW230423   1.346   3.544   4.072
 9842SOL     OW30424   3.697   3.021   2.305
 9842SOL    HW130425   3.641   2.953   2.353
 9842SOL    HW230426   3.750   2.975   2.233
 9843SOL     OW30427   6.080   3.018   2.206
 9843SOL    HW130428   6.006   2.970   2.253
 9843SOL    HW230429   6.165   2.968   2.218
 9844SOL     OW30430   4.924   6.904   2.725
 9844SOL    HW130431   4.974   6.938   2.805
 9844SOL    HW230432   4.866   6.977   2.689
 9845SOL     OW30433   0.490   2.091   3.761
 9845SOL    HW130434   0.502   2.016   3.696
 9845SOL    HW230435   0.561   2.160   3.746
 9846SOL     OW30436   3.071   3.156   2.986
 9846SOL    HW130437   3.157   3.115   2.955
 9846SOL    HW230438   3.007   3.161   2.909
 9847SOL     OW30439   2.148   4.423   5.100
 9847SOL    HW130440   2.184   4.511   5.131
 9847SOL    HW230441   2.056   4.435   5.063
 9848SOL     OW30442   4.437   3.628   0.525
 9848SOL    HW130443   4.520   3.621   0.581
 9848SOL    HW230444   4.433   3.550   0.463
 9849SOL     OW30445   0.383   6.954   5.669
 9849SOL    HW130446   0.474   6.966   5.707
 9849SOL    HW230447   0.332   6.888   5.724
 9850SOL     OW30448   4.106   6.367   2.454
 9850SOL    HW130449   4.173   6.320   2.511
 9850SOL    HW230450   4.150   6.401   2.371
 9851SOL     OW30451   5.792   2.042   5.030
 9851SOL    HW130452   5.788   2.134   4.991
 9851SOL    HW230453   5.811   2.048   5.128
 9852SOL     OW30454   5.004   1.829   3.618
 9852SOL    HW130455   4.918   1.845   3.571
 9852SOL    HW230456   5.080   1.844   3.554
 9853SOL     OW30457   6.574   4.016   2.027
 9853SOL    HW130458   6.542   4.096   2.077
 9853SOL    HW230459   6.500   3.979   1.970
 9854SOL     OW30460   4.906   5.681   3.769
 9854SOL    HW130461   4.999   5.704   3.800
 9854SOL    HW230462   4.844   5.756   3.791
 9855SOL     OW30463   1.485   3.098   1.249
 9855SOL    HW130464   1.417   3.171   1.243
 9855SOL    HW230465   1.538   3.108   1.333
 9856SOL     OW30466   4.263   2.566   1.255
 9856SOL    HW130467   4.258   2.534   1.160
 9856SOL    HW230468   4.310   2.498   1.311
 9857SOL     OW30469   5.201   3.880   3.667
 9857SOL    HW130470   5.280   3.823   3.690
 9857SOL    HW230471   5.231   3.972   3.644
 9858SOL     OW30472   4.837   0.700   0.768
 9858SOL    HW130473   4.891   0.703   0.852
 9858SOL    HW230474   4.805   0.607   0.753
 9859SOL     OW30475   6.537   0.426   1.941
 9859SOL    HW130476   6.621   0.382   1.911
 9859SOL    HW230477   6.536   0.521   1.909
 9860SOL     OW30478   0.498   0.920   2.716
 9860SOL    HW130479   0.421   0.936   2.779
 9860SOL    HW230480   0.573   0.983   2.739
 9861SOL     OW30481   3.760   6.817   4.730
 9861SOL    HW130482   3.714   6.761   4.661
 9861SOL    HW230483   3.816   6.886   4.684
 9862SOL     OW30484   0.547   2.565   0.434
 9862SOL    HW130485   0.528   2.566   0.336
 9862SOL    HW230486   0.594   2.649   0.460
 9863SOL     OW30487   3.174   6.710   0.912
 9863SOL    HW130488   3.200   6.623   0.869
 9863SOL    HW230489   3.173   6.782   0.843
 9864SOL     OW30490   4.456   5.806   2.349
 9864SOL    HW130491   4.479   5.902   2.335
 9864SOL    HW230492   4.509   5.771   2.426
 9865SOL     OW30493   0.195   1.663   5.005
 9865SOL    HW130494   0.189   1.602   4.926
 9865SOL    HW230495   0.288   1.700   5.012
 9866SOL     OW30496   4.542   4.392   3.794
 9866SOL    HW130497   4.464   4.409   3.734
 9866SOL    HW230498   4.547   4.463   3.864
 9867SOL     OW30499   4.125   0.708   6.521
 9867SOL    HW130500   4.057   0.695   6.594
 9867SOL    HW230501   4.154   0.804   6.519
 9868SOL     OW30502   6.918   5.462   6.985
 9868SOL    HW130503   6.928   5.399   0.040
 9868SOL    HW230504   6.845   5.527   7.005
 9869SOL     OW30505   1.443   3.742   2.999
 9869SOL    HW130506   1.508   3.683   3.047
 9869SOL    HW230507   1.483   3.833   2.989
 9870SOL     OW30508   4.844   4.705   2.920
 9870SOL    HW130509   4.937   4.738   2.936
 9870SOL    HW230510   4.812   4.739   2.831
 9871SOL     OW30511   1.789   1.038   5.189
 9871SOL    HW130512   1.850   1.010   5.114
 9871SOL    HW230513   1.834   1.020   5.276
 9872SOL     OW30514   1.759   4.526   3.393
 9872SOL    HW130515   1.731   4.592   3.323
 9872SOL    HW230516   1.852   4.495   3.373
 9873SOL     OW30517   1.099   2.668   0.473
 9873SOL    HW130518   1.124   2.575   0.446
 9873SOL    HW230519   1.127   2.683   0.568
 9874SOL     OW30520   0.675   2.773   3.667
 9874SOL    HW130521   0.745   2.702   3.681
 9874SOL    HW230522   0.603   2.737   3.608
 9875SOL     OW30523   1.339   0.676   3.263
 9875SOL    HW130524   1.348   0.776   3.266
 9875SOL    HW230525   1.276   0.651   3.190
 9876SOL     OW30526   6.984   6.184   2.671
 9876SOL    HW130527   6.925   6.242   2.615
 9876SOL    HW230528   0.000   6.112   2.614
 9877SOL     OW30529   3.296   0.136   2.101
 9877SOL    HW130530   3.213   0.191   2.088
 9877SOL    HW230531   3.326   0.100   2.012
 9878SOL     OW30532   0.701   6.377   5.169
 9878SOL    HW130533   0.644   6.334   5.099
 9878SOL    HW230534   0.682   6.476   5.171
 9879SOL     OW30535   4.385   6.014   6.241
 9879SOL    HW130536   4.441   6.095   6.222
 9879SOL    HW230537   4.394   5.949   6.166
 9880SOL     OW30538   1.778   1.726   5.279
 9880SOL    HW130539   1.706   1.741   5.211
 9880SOL    HW230540   1.844   1.661   5.244
 9881SOL     OW30541   0.335   2.907   5.888
 9881SOL    HW130542   0.422   2.866   5.916
 9881SOL    HW230543   0.261   2.866   5.940
 9882SOL     OW30544   1.464   1.301   3.741
 9882SOL    HW130545   1.533   1.280   3.810
 9882SOL    HW230546   1.444   1.399   3.742
 9883SOL     OW30547   2.018   0.880   1.852
 9883SOL    HW130548   1.927   0.891   1.892
 9883SOL    HW230549   2.018   0.916   1.758
 9884SOL     OW30550   3.966   0.604   4.200
 9884SOL    HW130551   4.019   0.688   4.215
 9884SOL    HW230552   3.915   0.581   4.283
 9885SOL     OW30553   6.327   5.042   4.258
 9885SOL    HW130554   6.328   5.005   4.350
 9885SOL    HW230555   6.239   5.021   4.214
 9886SOL     OW30556   1.182   4.039   2.155
 9886SOL    HW130557   1.089   4.036   2.118
 9886SOL    HW230558   1.223   3.948   2.148
 9887SOL     OW30559   3.912   0.761   6.816
 9887SOL    HW130560   3.848   0.713   6.756
 9887SOL    HW230561   3.936   0.849   6.775
 9888SOL     OW30562   0.174   4.110   0.241
 9888SOL    HW130563   0.189   4.020   0.282
 9888SOL    HW230564   0.240   4.124   0.167
 9889SOL     OW30565   6.537   5.017   0.327
 9889SOL    HW130566   6.534   4.931   0.379
 9889SOL    HW230567   6.589   5.085   0.379
 9890SOL     OW30568   1.585   2.630   1.160
 9890SOL    HW130569   1.619   2.618   1.253
 9890SOL    HW230570   1.485   2.640   1.162
 9891SOL     OW30571   4.770   1.941   1.335
 9891SOL    HW130572   4.824   1.918   1.416
 9891SOL    HW230573   4.683   1.980   1.362
 9892SOL     OW30574   6.610   5.522   6.631
 9892SOL    HW130575   6.704   5.494   6.612
 9892SOL    HW230576   6.547   5.465   6.579
 9893SOL     OW30577   2.191   1.593   0.679
 9893SOL    HW130578   2.190   1.674   0.737
 9893SOL    HW230579   2.118   1.599   0.611
 9894SOL     OW30580   1.708   2.258   0.327
 9894SOL    HW130581   1.716   2.166   0.288
 9894SOL    HW230582   1.782   2.274   0.392
 9895SOL     OW30583   5.214   3.152   5.638
 9895SOL    HW130584   5.173   3.175   5.726
 9895SOL    HW230585   5.156   3.186   5.565
 9896SOL     OW30586   5.923   0.123   0.237
 9896SOL    HW130587   5.920   0.133   0.137
 9896SOL    HW230588   6.008   0.077   0.263
 9897SOL     OW30589   5.589   5.227   3.639
 9897SOL    HW130590   5.574   5.277   3.724
 9897SOL    HW230591   5.511   5.241   3.578
 9898SOL     OW30592   3.743   6.313   5.495
 9898SOL    HW130593   3.698   6.255   5.427
 9898SOL    HW230594   3.838   6.330   5.466
 9899SOL     OW30595   0.101   5.568   6.813
 9899SOL    HW130596   0.091   5.662   6.782
 9899SOL    HW230597   0.022   5.542   6.869
 9900SOL     OW30598   2.105   3.756   3.300
 9900SOL    HW130599   2.105   3.787   3.395
 9900SOL    HW230600   2.089   3.834   3.240
 9901SOL     OW30601   2.523   2.159   5.478
 9901SOL    HW130602   2.521   2.256   5.455
 9901SOL    HW230603   2.501   2.105   5.396
 9902SOL     OW30604   2.830   4.417   6.731
 9902SOL    HW130605   2.784   4.333   6.704
 9902SOL    HW230606   2.832   4.423   6.831
 9903SOL     OW30607   5.375   0.692   3.077
 9903SOL    HW130608   5.436   0.713   3.153
 9903SOL    HW230609   5.350   0.776   3.030
 9904SOL     OW30610   6.481   3.248   6.770
 9904SOL    HW130611   6.511   3.335   6.809
 9904SOL    HW230612   6.382   3.250   6.754
 9905SOL     OW30613   4.051   1.486   0.366
 9905SOL    HW130614   4.027   1.515   0.458
 9905SOL    HW230615   3.983   1.419   0.334
 9906SOL     OW30616   4.179   3.577   3.931
 9906SOL    HW130617   4.137   3.637   4.000
 9906SOL    HW230618   4.137   3.486   3.936
 9907SOL     OW30619   0.584   6.778   2.166
 9907SOL    HW130620   0.615   6.690   2.202
 9907SOL    HW230621   0.521   6.763   2.090
 9908SOL     OW30622   5.272   3.055   3.074
 9908SOL    HW130623   5.291   3.151   3.093
 9908SOL    HW230624   5.295   3.000   3.154
 9909SOL     OW30625   2.215   6.907   4.997
 9909SOL    HW130626   2.172   6.872   5.080
 9909SOL    HW230627   2.211   7.007   4.998
 9910SOL     OW30628   1.325   4.033   3.144
 9910SOL    HW130629   1.424   4.022   3.140
 9910SOL    HW230630   1.292   4.002   3.233
 9911SOL     OW30631   3.539   6.510   1.648
 9911SOL    HW130632   3.523   6.462   1.562
 9911SOL    HW230633   3.632   6.493   1.679
 9912SOL     OW30634   4.552   1.700   0.049
 9912SOL    HW130635   4.600   1.697   0.137
 9912SOL    HW230636   4.497   1.618   0.038
 9913SOL     OW30637   5.638   3.502   6.864
 9913SOL    HW130638   5.659   3.454   6.779
 9913SOL    HW230639   5.588   3.441   6.925
 9914SOL     OW30640   1.040   3.104   4.795
 9914SOL    HW130641   0.997   3.175   4.852
 9914SOL    HW230642   1.127   3.078   4.836
 9915SOL     OW30643   5.663   1.305   3.628
 9915SOL    HW130644   5.569   1.324   3.656
 9915SOL    HW230645   5.703   1.387   3.586
 9916SOL     OW30646   2.222   2.783   2.397
 9916SOL    HW130647   2.230   2.881   2.378
 9916SOL    HW230648   2.252   2.731   2.318
 9917SOL     OW30649   6.733   4.251   5.458
 9917SOL    HW130650   6.700   4.325   5.399
 9917SOL    HW230651   6.731   4.165   5.407
 9918SOL     OW30652   3.815   1.936   2.398
 9918SOL    HW130653   3.741   1.967   2.339
 9918SOL    HW230654   3.903   1.962   2.358
 9919SOL     OW30655   6.131   5.699   0.925
 9919SOL    HW130656   6.071   5.730   0.998
 9919SOL    HW230657   6.085   5.628   0.872
 9920SOL     OW30658   4.733   1.434   2.695
 9920SOL    HW130659   4.715   1.467   2.787
 9920SOL    HW230660   4.800   1.494   2.651
 9921SOL     OW30661   3.422   5.365   5.967
 9921SOL    HW130662   3.495   5.313   5.923
 9921SOL    HW230663   3.336   5.350   5.918
 9922SOL     OW30664   0.064   5.777   0.665
 9922SOL    HW130665   6.991   5.764   0.691
 9922SOL    HW230666   0.123   5.719   0.721
 9923SOL     OW30667   4.564   5.168   0.229
 9923SOL    HW130668   4.528   5.246   0.179
 9923SOL    HW230669   4.646   5.134   0.182
 9924SOL     OW30670   0.467   3.506   4.761
 9924SOL    HW130671   0.506   3.422   4.724
 9924SOL    HW230672   0.537   3.553   4.815
 9925SOL     OW30673   5.314   2.635   3.985
 9925SOL    HW130674   5.273   2.632   3.894
 9925SOL    HW230675   5.261   2.697   4.043
 9926SOL     OW30676   1.862   4.526   0.150
 9926SOL    HW130677   1.949   4.490   0.181
 9926SOL    HW230678   1.807   4.452   0.110
 9927SOL     OW30679   6.245   0.324   3.136
 9927SOL    HW130680   6.176   0.251   3.140
 9927SOL    HW230681   6.275   0.336   3.041
 9928SOL     OW30682   4.600   4.414   1.419
 9928SOL    HW130683   4.507   4.406   1.455
 9928SOL    HW230684   4.665   4.382   1.488
 9929SOL     OW30685   2.398   4.716   4.187
 9929SOL    HW130686   2.326   4.678   4.129
 9929SOL    HW230687   2.424   4.647   4.255
 9930SOL     OW30688   6.859   0.348   4.326
 9930SOL    HW130689   6.905   0.293   4.256
 9930SOL    HW230690   6.760   0.335   4.319
 9931SOL     OW30691   0.829   4.505   5.079
 9931SOL    HW130692   0.918   4.490   5.120
 9931SOL    HW230693   0.766   4.544   5.147
 9932SOL     OW30694   0.700   6.668   6.040
 9932SOL    HW130695   0.709   6.611   5.959
 9932SOL    HW230696   0.620   6.637   6.093
 9933SOL     OW30697   0.879   5.421   2.284
 9933SOL    HW130698   0.930   5.336   2.292
 9933SOL    HW230699   0.897   5.479   2.364
 9934SOL     OW30700   6.550   1.607   6.081
 9934SOL    HW130701   6.596   1.694   6.062
 9934SOL    HW230702   6.530   1.600   6.178
 9935SOL     OW30703   2.477   1.124   6.231
 9935SOL    HW130704   2.562   1.177   6.239
 9935SOL    HW230705   2.482   1.064   6.152
 9936SOL     OW30706   0.566   4.272   4.737
 9936SOL    HW130707   0.561   4.183   4.691
 9936SOL    HW230708   0.636   4.267   4.809
 9937SOL     OW30709   6.985   2.405   6.087
 9937SOL    HW130710   6.932   2.337   6.138
 9937SOL    HW230711   0.060   2.388   6.101
 9938SOL     OW30712   6.696   6.264   3.110
 9938SOL    HW130713   6.692   6.236   3.014
 9938SOL    HW230714   6.679   6.362   3.116
 9939SOL     OW30715   3.388   2.885   2.082
 9939SOL    HW130716   3.394   2.843   1.991
 9939SOL    HW230717   3.383   2.813   2.151
 9940SOL     OW30718   6.785   1.064   0.588
 9940SOL    HW130719   6.812   0.969   0.608
 9940SOL    HW230720   6.809   1.121   0.667
 9941SOL     OW30721   3.263   4.685   5.893
 9941SOL    HW130722   3.230   4.603   5.940
 9941SOL    HW230723   3.185   4.738   5.860
 9942SOL     OW30724   2.936   5.630   3.394
 9942SOL    HW130725   2.934   5.584   3.305
 9942SOL    HW230726   2.863   5.594   3.452
 9943SOL     OW30727   0.791   6.375   5.905
 9943SOL    HW130728   0.846   6.304   5.950
 9943SOL    HW230729   0.813   6.376   5.807
 9944SOL     OW30730   0.774   4.243   0.080
 9944SOL    HW130731   0.690   4.215   0.032
 9944SOL    HW230732   0.760   4.234   0.179
 9945SOL     OW30733   6.809   5.815   0.275
 9945SOL    HW130734   6.776   5.741   0.333
 9945SOL    HW230735   6.854   5.884   0.332
 9946SOL     OW30736   4.600   0.509   5.169
 9946SOL    HW130737   4.620   0.423   5.121
 9946SOL    HW230738   4.665   0.520   5.245
 9947SOL     OW30739   6.753   4.490   4.084
 9947SOL    HW130740   6.834   4.458   4.132
 9947SOL    HW230741   6.751   4.590   4.085
 9948SOL     OW30742   4.900   4.666   4.932
 9948SOL    HW130743   4.868   4.621   4.849
 9948SOL    HW230744   4.873   4.611   5.012
 9949SOL     OW30745   5.522   5.069   3.207
 9949SOL    HW130746   5.609   5.083   3.161
 9949SOL    HW230747   5.465   5.007   3.153
 9950SOL     OW30748   4.129   6.201   5.483
 9950SOL    HW130749   4.092   6.174   5.395
 9950SOL    HW230750   4.066   6.176   5.556
 9951SOL     OW30751   5.638   2.092   2.803
 9951SOL    HW130752   5.628   2.091   2.703
 9951SOL    HW230753   5.673   2.180   2.833
 9952SOL     OW30754   6.854   4.836   0.434
 9952SOL    HW130755   6.931   4.775   0.417
 9952SOL    HW230756   6.886   4.930   0.437
 9953SOL     OW30757   6.736   1.249   3.973
 9953SOL    HW130758   6.746   1.287   4.065
 9953SOL    HW230759   6.826   1.222   3.939
 9954SOL     OW30760   4.770   0.424   5.396
 9954SOL    HW130761   4.798   0.334   5.429
 9954SOL    HW230762   4.688   0.453   5.446
 9955SOL     OW30763   0.325   4.373   4.852
 9955SOL    HW130764   0.253   4.326   4.799
 9955SOL    HW230765   0.414   4.332   4.830
 9956SOL     OW30766   1.537   6.523   1.458
 9956SOL    HW130767   1.633   6.497   1.464
 9956SOL    HW230768   1.526   6.594   1.388
 9957SOL     OW30769   6.643   3.979   4.108
 9957SOL    HW130770   6.632   4.076   4.126
 9957SOL    HW230771   6.726   3.946   4.153
 9958SOL     OW30772   2.639   4.333   1.548
 9958SOL    HW130773   2.724   4.311   1.596
 9958SOL    HW230774   2.568   4.352   1.615
 9959SOL     OW30775   3.992   3.566   0.397
 9959SOL    HW130776   4.030   3.657   0.413
 9959SOL    HW230777   3.895   3.565   0.421
 9960SOL     OW30778   0.410   1.652   2.661
 9960SOL    HW130779   0.346   1.594   2.610
 9960SOL    HW230780   0.483   1.683   2.599
 9961SOL     OW30781   2.133   5.280   4.500
 9961SOL    HW130782   2.124   5.270   4.599
 9961SOL    HW230783   2.102   5.195   4.455
 9962SOL     OW30784   4.815   6.278   5.032
 9962SOL    HW130785   4.865   6.268   5.118
 9962SOL    HW230786   4.858   6.348   4.976
 9963SOL     OW30787   2.772   1.018   0.739
 9963SOL    HW130788   2.718   1.030   0.656
 9963SOL    HW230789   2.798   1.108   0.775
 9964SOL     OW30790   4.332   6.005   5.440
 9964SOL    HW130791   4.427   6.011   5.471
 9964SOL    HW230792   4.284   6.090   5.463
 9965SOL     OW30793   4.325   0.184   0.312
 9965SOL    HW130794   4.403   0.235   0.347
 9965SOL    HW230795   4.353   0.090   0.292
 9966SOL     OW30796   1.009   6.919   2.421
 9966SOL    HW130797   0.939   6.991   2.423
 9966SOL    HW230798   0.965   6.830   2.411
 9967SOL     OW30799   0.945   5.740   0.473
 9967SOL    HW130800   0.891   5.732   0.557
 9967SOL    HW230801   0.974   5.835   0.462
 9968SOL     OW30802   4.097   3.203   2.422
 9968SOL    HW130803   4.145   3.257   2.353
 9968SOL    HW230804   4.164   3.151   2.477
 9969SOL     OW30805   0.615   3.232   1.801
 9969SOL    HW130806   0.579   3.168   1.868
 9969SOL    HW230807   0.649   3.182   1.722
 9970SOL     OW30808   5.458   4.546   1.286
 9970SOL    HW130809   5.496   4.454   1.281
 9970SOL    HW230810   5.420   4.572   1.197
 9971SOL     OW30811   1.880   4.760   0.389
 9971SOL    HW130812   1.826   4.694   0.337
 9971SOL    HW230813   1.975   4.729   0.393
 9972SOL     OW30814   6.725   4.504   2.011
 9972SOL    HW130815   6.674   4.445   2.074
 9972SOL    HW230816   6.741   4.593   2.053
 9973SOL     OW30817   5.850   0.905   4.599
 9973SOL    HW130818   5.798   0.982   4.563
 9973SOL    HW230819   5.790   0.826   4.607
 9974SOL     OW30820   1.873   1.079   4.321
 9974SOL    HW130821   1.881   1.014   4.245
 9974SOL    HW230822   1.778   1.112   4.326
 9975SOL     OW30823   0.698   3.032   0.126
 9975SOL    HW130824   0.716   2.934   0.112
 9975SOL    HW230825   0.600   3.049   0.120
 9976SOL     OW30826   2.218   0.195   5.003
 9976SOL    HW130827   2.156   0.271   5.026
 9976SOL    HW230828   2.313   0.228   5.005
 9977SOL     OW30829   6.847   4.673   4.980
 9977SOL    HW130830   6.926   4.720   5.018
 9977SOL    HW230831   6.870   4.635   4.890
 9978SOL     OW30832   6.706   1.863   4.227
 9978SOL    HW130833   6.665   1.776   4.197
 9978SOL    HW230834   6.683   1.879   4.323
 9979SOL     OW30835   6.850   3.868   5.120
 9979SOL    HW130836   6.932   3.816   5.143
 9979SOL    HW230837   6.783   3.808   5.077
 9980SOL     OW30838   3.676   0.007   5.936
 9980SOL    HW130839   3.576   0.003   5.925
 9980SOL    HW230840   3.712   6.936   5.938
 9981SOL     OW30841   3.419   2.102   4.241
 9981SOL    HW130842   3.335   2.120   4.191
 9981SOL    HW230843   3.405   2.118   4.339
 9982SOL     OW30844   6.619   6.319   4.178
 9982SOL    HW130845   6.655   6.246   4.121
 9982SOL    HW230846   6.654   6.407   4.147
 9983SOL     OW30847   0.234   1.263   1.932
 9983SOL    HW130848   0.192   1.184   1.978
 9983SOL    HW230849   0.307   1.231   1.872
 9984SOL     OW30850   3.159   1.764   6.694
 9984SOL    HW130851   3.249   1.791   6.728
 9984SOL    HW230852   3.141   1.810   6.607
 9985SOL     OW30853   1.118   0.609   1.888
 9985SOL    HW130854   1.167   0.667   1.824
 9985SOL    HW230855   1.021   0.606   1.863
 9986SOL     OW30856   5.088   4.414   4.744
 9986SOL    HW130857   5.092   4.341   4.677
 9986SOL    HW230858   5.009   4.401   4.803
 9987SOL     OW30859   6.928   3.932   5.915
 9987SOL    HW130860   7.002   3.866   5.904
 9987SOL    HW230861   6.880   3.944   5.828
 9988SOL     OW30862   6.694   6.736   5.027
 9988SOL    HW130863   6.788   6.768   5.014
 9988SOL    HW230864   6.666   6.749   5.122
 9989SOL     OW30865   0.546   3.622   5.296
 9989SOL    HW130866   0.615   3.687   5.326
 9989SOL    HW230867   0.550   3.612   5.196
 9990SOL     OW30868   1.364   5.501   2.324
 9990SOL    HW130869   1.447   5.546   2.360
 9990SOL    HW230870   1.369   5.499   2.224
 9991SOL     OW30871   3.877   2.085   3.289
 9991SOL    HW130872   3.911   2.179   3.289
 9991SOL    HW230873   3.790   2.081   3.337
 9992SOL     OW30874   6.199   5.338   6.190
 9992SOL    HW130875   6.201   5.257   6.132
 9992SOL    HW230876   6.282   5.391   6.176
 9993SOL     OW30877   0.817   0.984   1.796
 9993SOL    HW130878   0.783   1.062   1.743
 9993SOL    HW230879   0.875   0.926   1.739
 9994SOL     OW30880   5.936   4.847   2.981
 9994SOL    HW130881   5.878   4.783   3.031
 9994SOL    HW230882   5.880   4.917   2.938
 9995SOL     OW30883   4.722   1.073   4.923
 9995SOL    HW130884   4.780   1.037   4.851
 9995SOL    HW230885   4.648   1.127   4.883
 9996SOL     OW30886   2.470   3.843   0.164
 9996SOL    HW130887   2.495   3.805   0.254
 9996SOL    HW230888   2.373   3.826   0.147
 9997SOL     OW30889   2.847   0.076   5.182
 9997SOL    HW130890   2.823   0.114   5.093
 9997SOL    HW230891   2.905   7.018   5.169
 9998SOL     OW30892   6.056   5.847   5.677
 9998SOL    HW130893   6.029   5.780   5.747
 9998SOL    HW230894   6.001   5.832   5.595
 9999SOL     OW30895   7.017   2.327   4.905
 9999SOL    HW130896   7.009   2.250   4.969
 9999SOL    HW230897   0.073   2.383   4.931
10000SOL     OW30898   0.196   3.299   6.845
10000SOL    HW130899   0.192   3.390   6.884
10000SOL    HW230900   0.174   3.231   6.915
10001SOL     OW30901   4.214   6.975   2.574
10001SOL    HW130902   4.235   0.040   2.619
10001SOL    HW230903   4.207   6.902   2.642
10002SOL     OW30904   0.890   1.280   2.045
10002SOL    HW130905   0.791   1.286   2.036
10002SOL    HW230906   0.916   1.190   2.079
10003SOL     OW30907   4.324   1.630   3.474
10003SOL    HW130908   4.263   1.561   3.513
10003SOL    HW230909   4.419   1.597   3.479
10004SOL     OW30910   0.377   1.801   3.281
10004SOL    HW130911   0.460   1.748   3.264
10004SOL    HW230912   0.402   1.896   3.301
10005SOL     OW30913   4.976   6.458   4.066
10005SOL    HW130914   5.050   6.525   4.056
10005SOL    HW230915   5.013   6.369   4.091
10006SOL     OW30916   3.899   0.618   4.842
10006SOL    HW130917   3.939   0.562   4.770
10006SOL    HW230918   3.921   0.714   4.825
10007SOL     OW30919   6.480   3.359   3.647
10007SOL    HW130920   6.404   3.366   3.712
10007SOL    HW230921   6.538   3.440   3.655
10008SOL     OW30922   3.510   0.147   4.152
10008SOL    HW130923   3.428   0.194   4.186
10008SOL    HW230924   3.569   0.123   4.229
10009SOL     OW30925   0.961   4.177   1.891
10009SOL    HW130926   0.911   4.260   1.916
10009SOL    HW230927   0.896   4.101   1.881
10010SOL     OW30928   0.828   1.629   6.588
10010SOL    HW130929   0.874   1.706   6.632
10010SOL    HW230930   0.734   1.622   6.621
10011SOL     OW30931   6.940   6.820   4.936
10011SOL    HW130932   6.961   6.907   4.980
10011SOL    HW230933   7.015   6.756   4.950
10012SOL     OW30934   5.821   1.372   4.015
10012SOL    HW130935   5.748   1.438   3.996
10012SOL    HW230936   5.809   1.292   3.956
10013SOL     OW30937   0.911   0.797   2.984
10013SOL    HW130938   0.847   0.867   3.017
10013SOL    HW230939   0.886   0.769   2.892
10014SOL     OW30940   1.268   4.663   6.175
10014SOL    HW130941   1.291   4.730   6.245
10014SOL    HW230942   1.223   4.709   6.098
10015SOL     OW30943   2.101   4.449   0.272
10015SOL    HW130944   2.155   4.499   0.340
10015SOL    HW230945   2.162   4.415   0.201
10016SOL     OW30946   2.392   0.461   5.682
10016SOL    HW130947   2.455   0.406   5.736
10016SOL    HW230948   2.424   0.467   5.587
10017SOL     OW30949   1.515   2.105   4.128
10017SOL    HW130950   1.573   2.069   4.200
10017SOL    HW230951   1.419   2.091   4.152
10018SOL     OW30952   4.693   6.863   6.505
10018SOL    HW130953   4.641   6.933   6.457
10018SOL    HW230954   4.745   6.809   6.439
10019SOL     OW30955   1.545   1.396   2.576
10019SOL    HW130956   1.455   1.416   2.539
10019SOL    HW230957   1.613   1.457   2.533
10020SOL     OW30958   0.407   3.034   0.724
10020SOL    HW130959   0.424   3.086   0.640
10020SOL    HW230960   0.399   2.937   0.703
10021SOL     OW30961   6.436   3.631   0.553
10021SOL    HW130962   6.445   3.692   0.632
10021SOL    HW230963   6.346   3.643   0.513
10022SOL     OW30964   1.877   0.863   6.940
10022SOL    HW130965   1.804   0.930   6.956
10022SOL    HW230966   1.903   0.821   0.005
10023SOL     OW30967   0.375   3.295   1.100
10023SOL    HW130968   0.455   3.317   1.044
10023SOL    HW230969   0.397   3.219   1.161
10024SOL     OW30970   1.435   4.474   3.520
10024SOL    HW130971   1.466   4.568   3.532
10024SOL    HW230972   1.477   4.435   3.438
10025SOL     OW30973   1.183   1.901   0.303
10025SOL    HW130974   1.111   1.842   0.265
10025SOL    HW230975   1.147   1.953   0.380
10026SOL     OW30976   6.912   0.933   3.587
10026SOL    HW130977   6.966   0.867   3.534
10026SOL    HW230978   6.935   1.026   3.558
10027SOL     OW30979   4.644   2.384   5.550
10027SOL    HW130980   4.680   2.459   5.494
10027SOL    HW230981   4.710   2.361   5.621
10028SOL     OW30982   1.740   1.147   0.951
10028SOL    HW130983   1.644   1.177   0.947
10028SOL    HW230984   1.800   1.226   0.940
10029SOL     OW30985   5.535   2.365   3.575
10029SOL    HW130986   5.540   2.430   3.499
10029SOL    HW230987   5.626   2.328   3.593
10030SOL     OW30988   2.244   0.749   3.527
10030SOL    HW130989   2.275   0.655   3.536
10030SOL    HW230990   2.159   0.762   3.578
10031SOL     OW30991   6.686   4.282   4.785
10031SOL    HW130992   6.628   4.247   4.711
10031SOL    HW230993   6.648   4.367   4.820
10032SOL     OW30994   3.158   1.467   5.343
10032SOL    HW130995   3.189   1.513   5.426
10032SOL    HW230996   3.087   1.400   5.365
10033SOL     OW30997   5.642   2.414   4.596
10033SOL    HW130998   5.579   2.444   4.668
10033SOL    HW230999   5.650   2.314   4.599
10034SOL     OW31000   4.912   0.743   6.396
10034SOL    HW131001   4.924   0.703   6.305
10034SOL    HW231002   4.933   0.840   6.392
10035SOL     OW31003   0.123   6.547   2.897
10035SOL    HW131004   0.201   6.506   2.943
10035SOL    HW231005   0.155   6.600   2.818
10036SOL     OW31006   6.965   0.569   0.502
10036SOL    HW131007   6.892   0.632   0.475
10036SOL    HW231008   0.007   0.559   0.426
10037SOL     OW31009   0.327   6.945   1.104
10037SOL    HW131010   0.378   6.861   1.088
10037SOL    HW231011   0.338   6.973   1.199
10038SOL     OW31012   6.606   0.892   1.181
10038SOL    HW131013   6.649   0.849   1.102
10038SOL    HW231014   6.525   0.838   1.207
10039SOL     OW31015   3.397   0.353   2.969
10039SOL    HW131016   3.402   0.433   2.910
10039SOL    HW231017   3.465   0.360   3.042
10040SOL     OW31018   0.632   2.592   1.195
10040SOL    HW131019   0.575   2.631   1.124
10040SOL    HW231020   0.660   2.663   1.259
10041SOL     OW31021   1.941   5.950   0.451
10041SOL    HW131022   1.933   5.851   0.461
10041SOL    HW231023   2.003   5.971   0.375
10042SOL     OW31024   5.795   2.935   2.645
10042SOL    HW131025   5.786   3.032   2.623
10042SOL    HW231026   5.891   2.907   2.638
10043SOL     OW31027   0.655   2.543   4.685
10043SOL    HW131028   0.586   2.554   4.755
10043SOL    HW231029   0.743   2.576   4.718
10044SOL     OW31030   3.731   1.194   6.221
10044SOL    HW131031   3.785   1.170   6.140
10044SOL    HW231032   3.634   1.198   6.196
10045SOL     OW31033   2.418   1.416   0.595
10045SOL    HW131034   2.439   1.447   0.502
10045SOL    HW231035   2.350   1.478   0.635
10046SOL     OW31036   1.189   5.376   1.039
10046SOL    HW131037   1.208   5.304   0.971
10046SOL    HW231038   1.098   5.361   1.078
10047SOL     OW31039   0.804   4.174   0.958
10047SOL    HW131040   0.796   4.272   0.944
10047SOL    HW231041   0.718   4.138   0.994
10048SOL     OW31042   5.794   5.167   3.150
10048SOL    HW131043   5.821   5.124   3.064
10048SOL    HW231044   5.841   5.255   3.160
10049SOL     OW31045   6.252   0.703   5.328
10049SOL    HW131046   6.159   0.727   5.301
10049SOL    HW231047   6.300   0.786   5.358
10050SOL     OW31048   0.286   2.887   6.595
10050SOL    HW131049   0.359   2.931   6.544
10050SOL    HW231050   0.310   2.791   6.613
10051SOL     OW31051   2.615   1.869   4.122
10051SOL    HW131052   2.643   1.959   4.089
10051SOL    HW231053   2.692   1.805   4.111
10052SOL     OW31054   1.533   6.997   3.387
10052SOL    HW131055   1.510   0.034   3.465
10052SOL    HW231056   1.594   6.924   3.418
10053SOL     OW31057   5.944   5.373   3.212
10053SOL    HW131058   6.026   5.339   3.257
10053SOL    HW231059   5.892   5.431   3.275
10054SOL     OW31060   0.126   4.308   4.670
10054SOL    HW131061   0.157   4.249   4.595
10054SOL    HW231062   0.057   4.259   4.723
10055SOL     OW31063   1.118   3.115   6.690
10055SOL    HW131064   1.078   3.155   6.773
10055SOL    HW231065   1.216   3.105   6.702
10056SOL     OW31066   6.162   1.953   3.669
10056SOL    HW131067   6.198   1.896   3.743
10056SOL    HW231068   6.106   1.897   3.609
10057SOL     OW31069   5.225   4.803   5.601
10057SOL    HW131070   5.211   4.744   5.522
10057SOL    HW231071   5.317   4.789   5.638
10058SOL     OW31072   0.185   4.079   5.014
10058SOL    HW131073   0.211   4.011   4.945
10058SOL    HW231074   0.089   4.065   5.040
10059SOL     OW31075   5.270   0.221   6.798
10059SOL    HW131076   5.356   0.268   6.817
10059SOL    HW231077   5.287   0.146   6.733
10060SOL     OW31078   3.093   2.030   1.713
10060SOL    HW131079   3.183   2.031   1.669
10060SOL    HW231080   3.026   1.987   1.652
10061SOL     OW31081   3.301   0.106   1.805
10061SOL    HW131082   3.297   0.006   1.797
10061SOL    HW231083   3.330   0.145   1.718
10062SOL     OW31084   0.951   6.430   4.730
10062SOL    HW131085   0.897   6.365   4.783
10062SOL    HW231086   1.046   6.431   4.764
10063SOL     OW31087   2.517   2.314   5.155
10063SOL    HW131088   2.447   2.243   5.145
10063SOL    HW231089   2.509   2.356   5.246
10064SOL     OW31090   2.633   6.957   0.558
10064SOL    HW131091   2.692   6.967   0.639
10064SOL    HW231092   2.571   6.880   0.571
10065SOL     OW31093   0.523   1.804   1.574
10065SOL    HW131094   0.447   1.862   1.600
10065SOL    HW231095   0.595   1.859   1.531
10066SOL     OW31096   6.206   4.807   3.691
10066SOL    HW131097   6.114   4.842   3.672
10066SOL    HW231098   6.204   4.707   3.686
10067SOL     OW31099   6.899   2.544   5.208
10067SOL    HW131100   6.866   2.468   5.264
10067SOL    HW231101   6.833   2.563   5.135
10068SOL     OW31102   1.363   3.840   2.476
10068SOL    HW131103   1.305   3.841   2.558
10068SOL    HW231104   1.415   3.926   2.472
10069SOL     OW31105   3.236   4.547   0.696
10069SOL    HW131106   3.291   4.598   0.762
10069SOL    HW231107   3.215   4.456   0.734
10070SOL     OW31108   5.030   6.863   0.101
10070SOL    HW131109   5.058   6.815   0.018
10070SOL    HW231110   5.040   6.962   0.087
10071SOL     OW31111   5.769   0.597   5.166
10071SOL    HW131112   5.844   0.571   5.105
10071SOL    HW231113   5.684   0.604   5.115
10072SOL     OW31114   5.944   3.315   1.367
10072SOL    HW131115   5.891   3.389   1.409
10072SOL    HW231116   6.036   3.314   1.406
10073SOL     OW31117   5.795   4.931   4.623
10073SOL    HW131118   5.874   4.870   4.623
10073SOL    HW231119   5.825   5.025   4.607
10074SOL     OW31120   2.241   4.756   0.045
10074SOL    HW131121   2.260   4.819   6.992
10074SOL    HW231122   2.326   4.717   0.078
10075SOL     OW31123   0.910   2.882   1.875
10075SOL    HW131124   0.982   2.868   1.943
10075SOL    HW231125   0.823   2.849   1.911
10076SOL     OW31126   5.699   5.138   4.286
10076SOL    HW131127   5.621   5.078   4.268
10076SOL    HW231128   5.738   5.168   4.199
10077SOL     OW31129   4.653   3.674   6.679
10077SOL    HW131130   4.712   3.679   6.599
10077SOL    HW231131   4.669   3.755   6.737
10078SOL     OW31132   6.314   5.267   4.608
10078SOL    HW131133   6.392   5.206   4.618
10078SOL    HW231134   6.298   5.285   4.511
10079SOL     OW31135   4.928   4.380   3.959
10079SOL    HW131136   4.882   4.332   3.884
10079SOL    HW231137   4.991   4.448   3.921
10080SOL     OW31138   5.150   1.596   5.662
10080SOL    HW131139   5.086   1.569   5.589
10080SOL    HW231140   5.237   1.623   5.621
10081SOL     OW31141   0.882   4.745   0.866
10081SOL    HW131142   0.864   4.736   0.964
10081SOL    HW231143   0.913   4.657   0.830
10082SOL     OW31144   0.857   4.777   1.398
10082SOL    HW131145   0.860   4.690   1.447
10082SOL    HW231146   0.944   4.826   1.412
10083SOL     OW31147   3.123   6.423   2.780
10083SOL    HW131148   3.059   6.428   2.703
10083SOL    HW231149   3.196   6.490   2.767
10084SOL     OW31150   0.789   2.071   4.843
10084SOL    HW131151   0.717   2.079   4.912
10084SOL    HW231152   0.798   1.975   4.816
10085SOL     OW31153   5.543   6.959   1.020
10085SOL    HW131154   5.521   6.966   1.118
10085SOL    HW231155   5.462   6.979   0.966
10086SOL     OW31156   4.531   6.171   3.482
10086SOL    HW131157   4.464   6.177   3.556
10086SOL    HW231158   4.621   6.147   3.520
10087SOL     OW31159   1.819   5.796   5.511
10087SOL    HW131160   1.858   5.767   5.599
10087SOL    HW231161   1.887   5.783   5.439
10088SOL     OW31162   6.573   2.430   1.565
10088SOL    HW131163   6.479   2.464   1.564
10088SOL    HW231164   6.592   2.385   1.652
10089SOL     OW31165   3.556   0.686   1.306
10089SOL    HW131166   3.514   0.649   1.222
10089SOL    HW231167   3.633   0.627   1.332
10090SOL     OW31168   1.815   6.651   3.262
10090SOL    HW131169   1.867   6.719   3.313
10090SOL    HW231170   1.877   6.586   3.219
10091SOL     OW31171   5.511   4.891   4.645
10091SOL    HW131172   5.611   4.886   4.644
10091SOL    HW231173   5.481   4.962   4.708
10092SOL     OW31174   0.991   2.173   3.759
10092SOL    HW131175   1.050   2.122   3.821
10092SOL    HW231176   1.019   2.155   3.664
10093SOL     OW31177   4.264   4.029   6.242
10093SOL    HW131178   4.250   4.079   6.156
10093SOL    HW231179   4.219   3.940   6.237
10094SOL     OW31180   3.771   2.036   0.734
10094SOL    HW131181   3.672   2.044   0.732
10094SOL    HW231182   3.812   2.127   0.744
10095SOL     OW31183   4.267   3.442   5.220
10095SOL    HW131184   4.217   3.453   5.135
10095SOL    HW231185   4.204   3.419   5.294
10096SOL     OW31186   6.507   3.526   2.388
10096SOL    HW131187   6.462   3.610   2.420
10096SOL    HW231188   6.589   3.510   2.443
10097SOL     OW31189   0.473   1.170   1.009
10097SOL    HW131190   0.487   1.105   1.084
10097SOL    HW231191   0.422   1.126   0.935
10098SOL     OW31192   3.273   5.497   4.594
10098SOL    HW131193   3.249   5.505   4.691
10098SOL    HW231194   3.269   5.401   4.566
10099SOL     OW31195   0.148   4.911   3.278
10099SOL    HW131196   0.165   5.007   3.300
10099SOL    HW231197   0.113   4.904   3.185
10100SOL     OW31198   5.282   4.941   3.829
10100SOL    HW131199   5.316   4.928   3.922
10100SOL    HW231200   5.195   4.893   3.818
10101SOL     OW31201   6.421   3.683   6.999
10101SOL    HW131202   6.367   3.717   6.922
10101SOL    HW231203   6.429   3.754   0.047
10102SOL     OW31204   6.507   4.584   3.642
10102SOL    HW131205   6.548   4.619   3.558
10102SOL    HW231206   6.510   4.655   3.713
10103SOL     OW31207   0.387   6.588   6.997
10103SOL    HW131208   0.436   6.553   0.055
10103SOL    HW231209   0.319   6.656   0.005
10104SOL     OW31210   3.235   1.176   4.490
10104SOL    HW131211   3.305   1.214   4.430
10104SOL    HW231212   3.184   1.251   4.533
10105SOL     OW31213   2.867   1.002   3.838
10105SOL    HW131214   2.958   1.001   3.880
10105SOL    HW231215   2.797   1.010   3.910
10106SOL     OW31216   6.035   4.138   1.725
10106SOL    HW131217   5.945   4.140   1.768
10106SOL    HW231218   6.024   4.120   1.627
10107SOL     OW31219   5.040   5.426   6.725
10107SOL    HW131220   5.083   5.412   6.636
10107SOL    HW231221   5.091   5.494   6.777
10108SOL     OW31222   2.058   2.658   4.988
10108SOL    HW131223   2.155   2.680   4.990
10108SOL    HW231224   2.037   2.605   4.906
10109SOL     OW31225   1.054   2.290   0.734
10109SOL    HW131226   1.061   2.390   0.739
10109SOL    HW231227   1.141   2.250   0.763
10110SOL     OW31228   5.950   5.887   2.478
10110SOL    HW131229   5.957   5.917   2.573
10110SOL    HW231230   5.983   5.793   2.471
10111SOL     OW31231   6.775   2.385   1.835
10111SOL    HW131232   6.822   2.332   1.906
10111SOL    HW231233   6.688   2.418   1.871
10112SOL     OW31234   5.879   2.444   3.927
10112SOL    HW131235   5.791   2.489   3.909
10112SOL    HW231236   5.884   2.359   3.875
10113SOL     OW31237   6.571   0.066   6.010
10113SOL    HW131238   6.652   0.018   6.042
10113SOL    HW231239   6.492   0.039   6.065
10114SOL     OW31240   5.808   3.181   2.216
10114SOL    HW131241   5.847   3.098   2.256
10114SOL    HW231242   5.874   3.220   2.151
10115SOL     OW31243   3.079   2.781   6.122
10115SOL    HW131244   3.057   2.793   6.218
10115SOL    HW231245   2.996   2.791   6.067
10116SOL     OW31246   0.801   0.166   6.324
10116SOL    HW131247   0.843   0.107   6.392
10116SOL    HW231248   0.857   0.248   6.311
10117SOL     OW31249   6.694   4.168   2.590
10117SOL    HW131250   6.734   4.139   2.677
10117SOL    HW231251   6.752   4.238   2.549
10118SOL     OW31252   3.551   5.150   3.644
10118SOL    HW131253   3.543   5.140   3.743
10118SOL    HW231254   3.467   5.117   3.600
10119SOL     OW31255   5.774   6.296   6.747
10119SOL    HW131256   5.792   6.357   6.670
10119SOL    HW231257   5.850   6.302   6.813
10120SOL     OW31258   2.727   2.429   3.531
10120SOL    HW131259   2.743   2.373   3.612
10120SOL    HW231260   2.808   2.426   3.472
10121SOL     OW31261   6.695   5.054   1.514
10121SOL    HW131262   6.742   4.991   1.453
10121SOL    HW231263   6.646   5.002   1.584
10122SOL     OW31264   2.339   0.206   3.549
10122SOL    HW131265   2.262   0.142   3.553
10122SOL    HW231266   2.425   0.154   3.543
10123SOL     OW31267   6.515   5.822   6.334
10123SOL    HW131268   6.499   5.875   6.417
10123SOL    HW231269   6.531   5.726   6.358
10124SOL     OW31270   2.592   5.098   2.761
10124SOL    HW131271   2.570   5.052   2.847
10124SOL    HW231272   2.542   5.053   2.686
10125SOL     OW31273   1.053   0.531   4.645
10125SOL    HW131274   1.018   0.491   4.560
10125SOL    HW231275   0.976   0.556   4.704
10126SOL     OW31276   6.700   6.122   5.234
10126SOL    HW131277   6.767   6.165   5.174
10126SOL    HW231278   6.631   6.189   5.260
10127SOL     OW31279   2.086   6.640   5.567
10127SOL    HW131280   2.116   6.719   5.513
10127SOL    HW231281   2.065   6.670   5.661
10128SOL     OW31282   2.219   2.390   0.066
10128SOL    HW131283   2.296   2.330   0.084
10128SOL    HW231284   2.239   2.448   7.009
10129SOL     OW31285   6.307   2.049   4.965
10129SOL    HW131286   6.386   2.111   4.959
10129SOL    HW231287   6.265   2.040   4.875
10130SOL     OW31288   0.697   2.230   3.625
10130SOL    HW131289   0.702   2.245   3.526
10130SOL    HW231290   0.789   2.211   3.660
10131SOL     OW31291   1.966   6.653   5.139
10131SOL    HW131292   1.868   6.634   5.146
10131SOL    HW231293   1.980   6.750   5.118
10132SOL     OW31294   6.073   0.388   2.548
10132SOL    HW131295   6.152   0.337   2.583
10132SOL    HW231296   6.042   0.347   2.462
10133SOL     OW31297   5.295   6.668   1.041
10133SOL    HW131298   5.248   6.580   1.050
10133SOL    HW231299   5.289   6.717   1.128
10134SOL     OW31300   0.405   6.836   3.666
10134SOL    HW131301   0.316   6.792   3.672
10134SOL    HW231302   0.393   6.932   3.640
10135SOL     OW31303   6.361   7.010   3.232
10135SOL    HW131304   6.301   6.959   3.170
10135SOL    HW231305   6.305   0.041   3.296
10136SOL     OW31306   5.023   1.475   3.292
10136SOL    HW131307   5.066   1.466   3.382
10136SOL    HW231308   4.993   1.570   3.279
10137SOL     OW31309   6.956   5.804   4.682
10137SOL    HW131310   7.013   5.733   4.723
10137SOL    HW231311   6.955   5.885   4.741
10138SOL     OW31312   0.048   2.634   1.955
10138SOL    HW131313   0.115   2.568   1.919
10138SOL    HW231314   0.014   2.600   2.043
10139SOL     OW31315   3.623   2.814   6.355
10139SOL    HW131316   3.574   2.900   6.341
10139SOL    HW231317   3.715   2.834   6.389
10140SOL     OW31318   0.400   6.070   5.257
10140SOL    HW131319   0.426   5.975   5.269
10140SOL    HW231320   0.442   6.126   5.329
10141SOL     OW31321   1.787   2.426   4.442
10141SOL    HW131322   1.873   2.396   4.483
10141SOL    HW231323   1.715   2.427   4.512
10142SOL     OW31324   4.656   5.508   2.869
10142SOL    HW131325   4.623   5.542   2.781
10142SOL    HW231326   4.591   5.442   2.907
10143SOL     OW31327   5.510   2.918   5.874
10143SOL    HW131328   5.474   2.931   5.782
10143SOL    HW231329   5.437   2.883   5.934
10144SOL     OW31330   3.163   6.896   0.721
10144SOL    HW131331   3.079   6.862   0.678
10144SOL    HW231332   3.203   6.967   0.664
10145SOL     OW31333   6.557   6.750   5.952
10145SOL    HW131334   6.488   6.783   5.887
10145SOL    HW231335   6.521   6.756   6.045
10146SOL     OW31336   1.538   2.842   5.142
10146SOL    HW131337   1.567   2.750   5.169
10146SOL    HW231338   1.533   2.901   5.222
10147SOL     OW31339   3.787   5.822   6.835
10147SOL    HW131340   3.739   5.767   6.903
10147SOL    HW231341   3.797   5.916   6.868
10148SOL     OW31342   0.777   4.805   6.644
10148SOL    HW131343   0.681   4.777   6.650
10148SOL    HW231344   0.821   4.793   6.733
10149SOL     OW31345   3.471   3.866   1.734
10149SOL    HW131346   3.432   3.858   1.826
10149SOL    HW231347   3.570   3.857   1.738
10150SOL     OW31348   4.710   4.248   1.215
10150SOL    HW131349   4.725   4.173   1.279
10150SOL    HW231350   4.658   4.320   1.259
10151SOL     OW31351   6.940   0.895   6.217
10151SOL    HW131352   6.995   0.978   6.228
10151SOL    HW231353   6.858   0.901   6.274
10152SOL     OW31354   4.120   6.787   2.747
10152SOL    HW131355   4.070   6.711   2.706
10152SOL    HW231356   4.193   6.751   2.805
10153SOL     OW31357   4.773   3.873   1.785
10153SOL    HW131358   4.714   3.943   1.745
10153SOL    HW231359   4.869   3.897   1.768
10154SOL     OW31360   4.010   5.533   5.180
10154SOL    HW131361   3.992   5.435   5.181
10154SOL    HW231362   3.935   5.580   5.227
10155SOL     OW31363   4.669   1.778   3.995
10155SOL    HW131364   4.710   1.715   3.928
10155SOL    HW231365   4.739   1.810   4.058
10156SOL     OW31366   4.044   1.664   5.973
10156SOL    HW131367   4.040   1.583   5.915
10156SOL    HW231368   3.951   1.698   5.990
10157SOL     OW31369   0.546   4.839   1.367
10157SOL    HW131370   0.628   4.824   1.423
10157SOL    HW231371   0.572   4.881   1.280
10158SOL     OW31372   5.196   4.956   6.723
10158SOL    HW131373   5.141   4.875   6.743
10158SOL    HW231374   5.287   4.945   6.764
10159SOL     OW31375   3.656   3.080   1.823
10159SOL    HW131376   3.634   3.107   1.917
10159SOL    HW231377   3.755   3.064   1.815
10160SOL     OW31378   0.357   4.027   2.634
10160SOL    HW131379   0.433   4.057   2.693
10160SOL    HW231380   0.276   4.082   2.654
10161SOL     OW31381   5.272   3.425   6.178
10161SOL    HW131382   5.334   3.412   6.101
10161SOL    HW231383   5.237   3.336   6.208
10162SOL     OW31384   1.831   2.577   2.382
10162SOL    HW131385   1.762   2.637   2.343
10162SOL    HW231386   1.838   2.494   2.327
10163SOL     OW31387   3.436   4.952   5.136
10163SOL    HW131388   3.362   4.904   5.088
10163SOL    HW231389   3.443   4.917   5.229
10164SOL     OW31390   0.275   1.279   3.837
10164SOL    HW131391   0.308   1.346   3.904
10164SOL    HW231392   0.328   1.287   3.752
10165SOL     OW31393   1.451   2.935   4.138
10165SOL    HW131394   1.416   2.888   4.057
10165SOL    HW231395   1.526   2.995   4.111
10166SOL     OW31396   2.954   6.678   2.864
10166SOL    HW131397   2.992   6.602   2.811
10166SOL    HW231398   2.942   6.649   2.959
10167SOL     OW31399   2.994   2.545   6.332
10167SOL    HW131400   3.021   2.477   6.399
10167SOL    HW231401   3.051   2.536   6.250
10168SOL     OW31402   0.233   0.331   0.119
10168SOL    HW131403   0.213   0.412   0.063
10168SOL    HW231404   0.318   0.290   0.089
10169SOL     OW31405   4.597   5.141   3.590
10169SOL    HW131406   4.556   5.093   3.513
10169SOL    HW231407   4.687   5.176   3.564
10170SOL     OW31408   5.334   6.724   0.756
10170SOL    HW131409   5.319   6.720   0.855
10170SOL    HW231410   5.424   6.764   0.738
10171SOL     OW31411   2.317   4.169   4.415
10171SOL    HW131412   2.333   4.180   4.513
10171SOL    HW231413   2.221   4.144   4.400
10172SOL     OW31414   0.243   0.986   2.822
10172SOL    HW131415   0.235   0.887   2.837
10172SOL    HW231416   0.178   1.014   2.751
10173SOL     OW31417   3.807   3.504   4.894
10173SOL    HW131418   3.725   3.473   4.943
10173SOL    HW231419   3.800   3.477   4.798
10174SOL     OW31420   4.533   4.693   0.790
10174SOL    HW131421   4.473   4.617   0.764
10174SOL    HW231422   4.573   4.675   0.879
10175SOL     OW31423   6.545   7.006   4.503
10175SOL    HW131424   6.538   6.927   4.563
10175SOL    HW231425   6.621   0.041   4.532
10176SOL     OW31426   0.241   0.734   4.720
10176SOL    HW131427   0.216   0.818   4.769
10176SOL    HW231428   0.158   0.681   4.702
10177SOL     OW31429   2.326   0.950   3.756
10177SOL    HW131430   2.248   0.977   3.699
10177SOL    HW231431   2.404   1.009   3.737
10178SOL     OW31432   0.565   1.546   1.629
10178SOL    HW131433   0.538   1.634   1.590
10178SOL    HW231434   0.620   1.495   1.562
10179SOL     OW31435   0.173   6.018   0.725
10179SOL    HW131436   0.129   5.929   0.713
10179SOL    HW231437   0.214   6.047   0.639
10180SOL     OW31438   3.545   6.758   6.707
10180SOL    HW131439   3.624   6.818   6.694
10180SOL    HW231440   3.461   6.809   6.690
10181SOL     OW31441   0.091   3.648   3.281
10181SOL    HW131442   0.131   3.593   3.354
10181SOL    HW231443   0.032   3.590   3.224
10182SOL     OW31444   3.911   0.572   0.464
10182SOL    HW131445   3.989   0.542   0.410
10182SOL    HW231446   3.891   0.504   0.535
10183SOL     OW31447   4.352   6.306   5.864
10183SOL    HW131448   4.315   6.356   5.943
10183SOL    HW231449   4.339   6.361   5.781
10184SOL     OW31450   5.538   1.983   5.410
10184SOL    HW131451   5.454   2.024   5.445
10184SOL    HW231452   5.516   1.911   5.345
10185SOL     OW31453   3.318   4.960   2.194
10185SOL    HW131454   3.248   4.889   2.191
10185SOL    HW231455   3.278   5.044   2.231
10186SOL     OW31456   3.459   2.848   6.904
10186SOL    HW131457   3.394   2.795   6.957
10186SOL    HW231458   3.533   2.789   6.872
10187SOL     OW31459   2.239   4.283   5.911
10187SOL    HW131460   2.271   4.271   5.817
10187SOL    HW231461   2.262   4.202   5.965
10188SOL     OW31462   2.604   6.806   6.746
10188SOL    HW131463   2.644   6.868   6.813
10188SOL    HW231464   2.566   6.859   6.670
10189SOL     OW31465   2.199   1.375   4.627
10189SOL    HW131466   2.164   1.414   4.542
10189SOL    HW231467   2.123   1.342   4.683
10190SOL     OW31468   4.393   4.449   1.191
10190SOL    HW131469   4.312   4.502   1.214
10190SOL    HW231470   4.475   4.498   1.222
10191SOL     OW31471   5.674   0.372   6.949
10191SOL    HW131472   5.618   0.352   6.868
10191SOL    HW231473   5.622   0.351   0.009
10192SOL     OW31474   1.988   0.639   4.150
10192SOL    HW131475   1.965   0.736   4.162
10192SOL    HW231476   2.008   0.598   4.238
10193SOL     OW31477   3.528   4.149   3.659
10193SOL    HW131478   3.429   4.138   3.669
10193SOL    HW231479   3.558   4.232   3.707
10194SOL     OW31480   3.185   6.981   3.046
10194SOL    HW131481   3.280   6.981   3.076
10194SOL    HW231482   3.180   7.007   2.950
10195SOL     OW31483   5.762   0.017   2.734
10195SOL    HW131484   5.790   0.016   2.638
10195SOL    HW231485   5.664   7.021   2.740
10196SOL     OW31486   5.257   3.952   4.512
10196SOL    HW131487   5.338   3.899   4.537
10196SOL    HW231488   5.271   3.992   4.421
10197SOL     OW31489   5.531   1.607   3.311
10197SOL    HW131490   5.581   1.683   3.269
10197SOL    HW231491   5.596   1.544   3.355
10198SOL     OW31492   3.195   1.111   1.471
10198SOL    HW131493   3.175   1.013   1.481
10198SOL    HW231494   3.110   1.160   1.452
10199SOL     OW31495   1.432   2.219   0.197
10199SOL    HW131496   1.525   2.216   0.233
10199SOL    HW231497   1.400   2.126   0.179
10200SOL     OW31498   5.662   6.048   4.936
10200SOL    HW131499   5.601   5.974   4.963
10200SOL    HW231500   5.638   6.131   4.987
10201SOL     OW31501   1.887   4.727   2.807
10201SOL    HW131502   1.931   4.690   2.725
10201SOL    HW231503   1.803   4.677   2.824
10202SOL     OW31504   0.334   2.293   3.227
10202SOL    HW131505   0.292   2.305   3.137
10202SOL    HW231506   0.263   2.286   3.296
10203SOL     OW31507   0.691   2.746   1.439
10203SOL    HW131508   0.637   2.826   1.413
10203SOL    HW231509   0.728   2.759   1.531
10204SOL     OW31510   2.904   4.825   4.225
10204SOL    HW131511   2.835   4.757   4.198
10204SOL    HW231512   2.979   4.825   4.159
10205SOL     OW31513   4.426   0.813   1.266
10205SOL    HW131514   4.499   0.880   1.251
10205SOL    HW231515   4.465   0.721   1.265
10206SOL     OW31516   4.847   0.127   6.304
10206SOL    HW131517   4.883   0.147   6.213
10206SOL    HW231518   4.923   0.110   6.366
10207SOL     OW31519   4.215   1.475   3.108
10207SOL    HW131520   4.237   1.565   3.072
10207SOL    HW231521   4.292   1.440   3.161
10208SOL     OW31522   6.661   3.709   5.605
10208SOL    HW131523   6.591   3.711   5.534
10208SOL    HW231524   6.704   3.799   5.611
10209SOL     OW31525   4.548   6.510   6.986
10209SOL    HW131526   4.634   6.540   6.945
10209SOL    HW231527   4.561   6.421   0.008
10210SOL     OW31528   5.442   5.738   0.504
10210SOL    HW131529   5.448   5.643   0.535
10210SOL    HW231530   5.398   5.793   0.575
10211SOL     OW31531   3.522   5.497   5.155
10211SOL    HW131532   3.552   5.437   5.080
10211SOL    HW231533   3.442   5.457   5.200
10212SOL     OW31534   5.926   6.073   5.864
10212SOL    HW131535   6.016   6.099   5.901
10212SOL    HW231536   5.874   6.024   5.934
10213SOL     OW31537   4.416   0.724   4.577
10213SOL    HW131538   4.340   0.786   4.595
10213SOL    HW231539   4.449   0.737   4.483
10214SOL     OW31540   0.692   0.972   0.819
10214SOL    HW131541   0.597   0.957   0.844
10214SOL    HW231542   0.696   1.009   0.726
10215SOL     OW31543   3.685   2.426   0.098
10215SOL    HW131544   3.621   2.486   0.146
10215SOL    HW231545   3.703   2.345   0.155
10216SOL     OW31546   4.561   0.303   2.341
10216SOL    HW131547   4.646   0.356   2.339
10216SOL    HW231548   4.582   0.205   2.339
10217SOL     OW31549   3.256   2.452   5.838
10217SOL    HW131550   3.341   2.451   5.889
10217SOL    HW231551   3.271   2.414   5.746
10218SOL     OW31552   2.814   2.401   6.942
10218SOL    HW131553   2.852   2.492   6.953
10218SOL    HW231554   2.854   2.339   7.009
10219SOL     OW31555   0.640   4.474   6.583
10219SOL    HW131556   0.704   4.474   6.660
10219SOL    HW231557   0.553   4.513   6.614
10220SOL     OW31558   3.965   2.755   0.612
10220SOL    HW131559   3.997   2.798   0.697
10220SOL    HW231560   3.922   2.824   0.554
10221SOL     OW31561   2.955   1.068   4.496
10221SOL    HW131562   3.050   1.093   4.516
10221SOL    HW231563   2.930   1.099   4.404
10222SOL     OW31564   1.707   4.689   5.844
10222SOL    HW131565   1.749   4.735   5.766
10222SOL    HW231566   1.761   4.708   5.926
10223SOL     OW31567   0.079   4.285   0.431
10223SOL    HW131568   7.018   4.325   0.392
10223SOL    HW231569   0.131   4.239   0.359
10224SOL     OW31570   2.595   0.513   4.884
10224SOL    HW131571   2.655   0.442   4.848
10224SOL    HW231572   2.554   0.564   4.809
10225SOL     OW31573   5.121   5.871   4.234
10225SOL    HW131574   5.159   5.781   4.214
10225SOL    HW231575   5.022   5.869   4.220
10226SOL     OW31576   0.333   2.976   6.935
10226SOL    HW131577   0.313   2.955   6.839
10226SOL    HW231578   0.249   2.964   6.989
10227SOL     OW31579   5.614   5.271   5.606
10227SOL    HW131580   5.521   5.248   5.580
10227SOL    HW231581   5.619   5.287   5.704
10228SOL     OW31582   1.147   3.610   2.400
10228SOL    HW131583   1.133   3.620   2.499
10228SOL    HW231584   1.210   3.680   2.368
10229SOL     OW31585   1.945   1.268   1.289
10229SOL    HW131586   1.854   1.309   1.282
10229SOL    HW231587   1.940   1.170   1.271
10230SOL     OW31588   6.105   6.576   3.852
10230SOL    HW131589   6.024   6.518   3.849
10230SOL    HW231590   6.129   6.596   3.947
10231SOL     OW31591   4.811   6.945   4.477
10231SOL    HW131592   4.854   0.000   4.433
10231SOL    HW231593   4.841   6.860   4.433
10232SOL     OW31594   4.171   1.800   3.867
10232SOL    HW131595   4.223   1.833   3.788
10232SOL    HW231596   4.131   1.877   3.916
10233SOL     OW31597   4.856   0.689   5.781
10233SOL    HW131598   4.841   0.771   5.837
10233SOL    HW231599   4.796   0.616   5.812
10234SOL     OW31600   4.450   5.501   1.356
10234SOL    HW131601   4.529   5.508   1.417
10234SOL    HW231602   4.370   5.540   1.401
10235SOL     OW31603   4.528   1.362   6.948
10235SOL    HW131604   4.468   1.437   6.975
10235SOL    HW231605   4.599   1.397   6.886
10236SOL     OW31606   2.124   6.167   1.828
10236SOL    HW131607   2.096   6.200   1.919
10236SOL    HW231608   2.125   6.067   1.828
10237SOL     OW31609   5.663   2.430   3.313
10237SOL    HW131610   5.641   2.519   3.273
10237SOL    HW231611   5.754   2.433   3.354
10238SOL     OW31612   4.376   6.109   4.988
10238SOL    HW131613   4.353   6.034   5.050
10238SOL    HW231614   4.472   6.100   4.961
10239SOL     OW31615   6.540   3.415   4.225
10239SOL    HW131616   6.623   3.435   4.175
10239SOL    HW231617   6.563   3.386   4.318
10240SOL     OW31618   5.828   3.671   3.745
10240SOL    HW131619   5.874   3.758   3.762
10240SOL    HW231620   5.812   3.660   3.646
10241SOL     OW31621   1.970   1.425   3.183
10241SOL    HW131622   1.916   1.341   3.185
10241SOL    HW231623   1.998   1.449   3.275
10242SOL     OW31624   0.677   5.853   6.368
10242SOL    HW131625   0.665   5.757   6.394
10242SOL    HW231626   0.617   5.910   6.423
10243SOL     OW31627   1.059   6.131   2.808
10243SOL    HW131628   1.031   6.074   2.885
10243SOL    HW231629   0.993   6.205   2.796
10244SOL     OW31630   1.518   5.872   0.176
10244SOL    HW131631   1.525   5.802   0.104
10244SOL    HW231632   1.492   5.959   0.134
10245SOL     OW31633   2.206   2.483   6.819
10245SOL    HW131634   2.112   2.516   6.803
10245SOL    HW231635   2.208   2.383   6.814
10246SOL     OW31636   3.404   3.167   4.093
10246SOL    HW131637   3.365   3.075   4.102
10246SOL    HW231638   3.494   3.162   4.049
10247SOL     OW31639   0.838   6.050   5.426
10247SOL    HW131640   0.868   6.137   5.386
10247SOL    HW231641   0.906   6.019   5.493
10248SOL     OW31642   5.328   0.951   3.000
10248SOL    HW131643   5.275   0.993   3.074
10248SOL    HW231644   5.387   1.019   2.958
10249SOL     OW31645   4.753   1.027   6.682
10249SOL    HW131646   4.809   0.958   6.637
10249SOL    HW231647   4.804   1.065   6.759
10250SOL     OW31648   5.576   0.297   0.189
10250SOL    HW131649   5.494   0.342   0.223
10250SOL    HW231650   5.641   0.284   0.264
10251SOL     OW31651   4.163   4.521   0.227
10251SOL    HW131652   4.119   4.551   0.312
10251SOL    HW231653   4.129   4.577   0.151
10252SOL     OW31654   6.722   4.731   1.546
10252SOL    HW131655   6.769   4.643   1.541
10252SOL    HW231656   6.748   4.778   1.630
10253SOL     OW31657   4.018   4.940   0.425
10253SOL    HW131658   3.927   4.979   0.408
10253SOL    HW231659   4.075   4.954   0.345
10254SOL     OW31660   2.520   1.270   4.545
10254SOL    HW131661   2.468   1.209   4.605
10254SOL    HW231662   2.616   1.273   4.575
10255SOL     OW31663   3.179   5.382   2.804
10255SOL    HW131664   3.099   5.440   2.816
10255SOL    HW231665   3.262   5.437   2.812
10256SOL     OW31666   5.734   6.048   6.963
10256SOL    HW131667   5.796   6.026   6.888
10256SOL    HW231668   5.766   6.130   7.010
10257SOL     OW31669   1.986   6.374   5.900
10257SOL    HW131670   1.994   6.347   5.996
10257SOL    HW231671   1.896   6.345   5.865
10258SOL     OW31672   4.551   0.916   3.542
10258SOL    HW131673   4.624   0.862   3.584
10258SOL    HW231674   4.518   0.984   3.608
10259SOL     OW31675   0.862   3.393   3.856
10259SOL    HW131676   0.770   3.360   3.878
10259SOL    HW231677   0.898   3.342   3.778
10260SOL     OW31678   6.693   6.141   1.717
10260SOL    HW131679   6.662   6.123   1.810
10260SOL    HW231680   6.777   6.196   1.720
10261SOL     OW31681   2.088   0.164   1.984
10261SOL    HW131682   2.163   0.231   1.985
10261SOL    HW231683   2.100   0.101   1.907
10262SOL     OW31684   1.272   5.504   4.686
10262SOL    HW131685   1.274   5.411   4.723
10262SOL    HW231686   1.177   5.530   4.668
10263SOL     OW31687   6.638   2.765   5.593
10263SOL    HW131688   6.586   2.795   5.672
10263SOL    HW231689   6.734   2.791   5.605
10264SOL     OW31690   0.427   0.067   0.367
10264SOL    HW131691   0.454   0.100   0.276
10264SOL    HW231692   0.469   7.000   0.383
10265SOL     OW31693   4.258   2.287   2.471
10265SOL    HW131694   4.282   2.383   2.477
10265SOL    HW231695   4.245   2.261   2.375
10266SOL     OW31696   4.263   3.582   6.269
10266SOL    HW131697   4.320   3.518   6.217
10266SOL    HW231698   4.318   3.626   6.340
10267SOL     OW31699   0.183   1.445   6.201
10267SOL    HW131700   0.092   1.478   6.227
10267SOL    HW231701   0.235   1.519   6.160
10268SOL     OW31702   6.076   4.588   1.421
10268SOL    HW131703   6.064   4.562   1.325
10268SOL    HW231704   6.166   4.558   1.453
10269SOL     OW31705   2.933   1.887   6.078
10269SOL    HW131706   2.890   1.839   6.155
10269SOL    HW231707   3.025   1.915   6.104
10270SOL     OW31708   2.782   6.932   0.808
10270SOL    HW131709   2.840   7.007   0.839
10270SOL    HW231710   2.688   6.948   0.840
10271SOL     OW31711   3.103   5.211   1.091
10271SOL    HW131712   3.038   5.232   1.164
10271SOL    HW231713   3.196   5.219   1.125
10272SOL     OW31714   1.354   1.900   4.610
10272SOL    HW131715   1.420   1.972   4.592
10272SOL    HW231716   1.312   1.915   4.700
10273SOL     OW31717   4.082   6.826   4.211
10273SOL    HW131718   4.135   6.877   4.144
10273SOL    HW231719   4.135   6.815   4.295
10274SOL     OW31720   2.637   5.215   6.706
10274SOL    HW131721   2.558   5.216   6.767
10274SOL    HW231722   2.721   5.217   6.760
10275SOL     OW31723   1.165   6.366   2.306
10275SOL    HW131724   1.263   6.380   2.323
10275SOL    HW231725   1.154   6.293   2.238
10276SOL     OW31726   6.989   6.177   6.852
10276SOL    HW131727   0.049   6.134   6.815
10276SOL    HW231728   6.913   6.160   6.789
10277SOL     OW31729   1.224   6.061   2.058
10277SOL    HW131730   1.160   6.123   2.011
10277SOL    HW231731   1.179   6.020   2.137
10278SOL     OW31732   6.824   0.236   6.088
10278SOL    HW131733   6.761   0.261   6.015
10278SOL    HW231734   6.854   0.142   6.075
10279SOL     OW31735   3.806   5.941   4.714
10279SOL    HW131736   3.794   5.972   4.620
10279SOL    HW231737   3.825   6.021   4.773
10280SOL     OW31738   3.404   2.719   6.586
10280SOL    HW131739   3.500   2.721   6.613
10280SOL    HW231740   3.373   2.624   6.579
10281SOL     OW31741   4.235   0.545   4.146
10281SOL    HW131742   4.135   0.557   4.150
10281SOL    HW231743   4.256   0.453   4.113
10282SOL     OW31744   1.009   3.090   4.506
10282SOL    HW131745   1.095   3.133   4.482
10282SOL    HW231746   0.998   3.091   4.606
10283SOL     OW31747   1.907   3.771   5.957
10283SOL    HW131748   1.960   3.835   6.012
10283SOL    HW231749   1.818   3.755   5.999
10284SOL     OW31750   5.001   2.704   6.909
10284SOL    HW131751   4.951   2.791   6.917
10284SOL    HW231752   4.984   2.649   6.991
10285SOL     OW31753   5.804   0.775   0.501
10285SOL    HW131754   5.799   0.870   0.532
10285SOL    HW231755   5.715   0.748   0.461
10286SOL     OW31756   4.329   1.028   4.167
10286SOL    HW131757   4.303   0.943   4.121
10286SOL    HW231758   4.320   1.104   4.103
10287SOL     OW31759   1.147   4.796   1.845
10287SOL    HW131760   1.082   4.833   1.778
10287SOL    HW231761   1.163   4.864   1.917
10288SOL     OW31762   5.040   6.441   4.566
10288SOL    HW131763   4.986   6.518   4.533
10288SOL    HW231764   5.053   6.375   4.491
10289SOL     OW31765   2.644   1.470   1.403
10289SOL    HW131766   2.548   1.449   1.421
10289SOL    HW231767   2.684   1.512   1.485
10290SOL     OW31768   2.859   3.182   1.880
10290SOL    HW131769   2.828   3.252   1.816
10290SOL    HW231770   2.789   3.112   1.890
10291SOL     OW31771   4.503   0.260   5.953
10291SOL    HW131772   4.405   0.242   5.949
10291SOL    HW231773   4.550   0.181   5.992
10292SOL     OW31774   0.345   0.864   5.194
10292SOL    HW131775   0.358   0.787   5.131
10292SOL    HW231776   0.419   0.930   5.180
10293SOL     OW31777   3.172   5.527   3.552
10293SOL    HW131778   3.111   5.567   3.483
10293SOL    HW231779   3.123   5.453   3.599
10294SOL     OW31780   6.475   1.291   2.912
10294SOL    HW131781   6.407   1.218   2.916
10294SOL    HW231782   6.522   1.298   3.000
10295SOL     OW31783   1.889   4.305   4.235
10295SOL    HW131784   1.952   4.243   4.281
10295SOL    HW231785   1.797   4.292   4.270
10296SOL     OW31786   6.722   2.786   1.615
10296SOL    HW131787   6.765   2.697   1.629
10296SOL    HW231788   6.793   2.857   1.611
10297SOL     OW31789   2.810   5.238   4.536
10297SOL    HW131790   2.862   5.157   4.509
10297SOL    HW231791   2.868   5.299   4.589
10298SOL     OW31792   5.950   3.469   2.936
10298SOL    HW131793   6.011   3.548   2.929
10298SOL    HW231794   5.991   3.400   2.996
10299SOL     OW31795   5.118   4.021   2.161
10299SOL    HW131796   5.086   4.019   2.256
10299SOL    HW231797   5.205   4.069   2.156
10300SOL     OW31798   1.909   6.015   1.778
10300SOL    HW131799   1.898   6.099   1.725
10300SOL    HW231800   1.916   5.937   1.715
10301SOL     OW31801   4.992   1.306   1.701
10301SOL    HW131802   5.034   1.215   1.692
10301SOL    HW231803   4.902   1.306   1.657
10302SOL     OW31804   0.956   4.811   3.651
10302SOL    HW131805   1.053   4.787   3.652
10302SOL    HW231806   0.946   4.908   3.672
10303SOL     OW31807   3.702   3.026   1.378
10303SOL    HW131808   3.712   2.948   1.317
10303SOL    HW231809   3.688   3.109   1.324
10304SOL     OW31810   5.877   6.416   3.915
10304SOL    HW131811   5.854   6.394   4.010
10304SOL    HW231812   5.911   6.335   3.869
10305SOL     OW31813   1.897   5.254   1.016
10305SOL    HW131814   1.812   5.260   0.963
10305SOL    HW231815   1.875   5.231   1.111
10306SOL     OW31816   4.048   4.688   0.464
10306SOL    HW131817   4.028   4.785   0.448
10306SOL    HW231818   4.142   4.677   0.495
10307SOL     OW31819   2.537   1.150   5.540
10307SOL    HW131820   2.556   1.248   5.548
10307SOL    HW231821   2.458   1.128   5.597
10308SOL     OW31822   2.777   5.342   3.798
10308SOL    HW131823   2.818   5.252   3.812
10308SOL    HW231824   2.738   5.375   3.884
10309SOL     OW31825   0.285   6.436   3.626
10309SOL    HW131826   0.239   6.522   3.647
10309SOL    HW231827   0.370   6.430   3.680
10310SOL     OW31828   3.118   3.058   3.926
10310SOL    HW131829   3.180   3.100   3.860
10310SOL    HW231830   3.131   2.959   3.924
10311SOL     OW31831   0.294   6.898   0.791
10311SOL    HW131832   0.294   6.800   0.812
10311SOL    HW231833   0.241   6.947   0.860
10312SOL     OW31834   2.140   4.442   0.894
10312SOL    HW131835   2.096   4.455   0.805
10312SOL    HW231836   2.074   4.461   0.967
10313SOL     OW31837   6.466   5.901   4.078
10313SOL    HW131838   6.515   5.969   4.133
10313SOL    HW231839   6.531   5.832   4.046
10314SOL     OW31840   6.015   5.034   5.143
10314SOL    HW131841   5.998   5.132   5.133
10314SOL    HW231842   6.030   4.994   5.052
10315SOL     OW31843   4.707   6.416   5.852
10315SOL    HW131844   4.674   6.323   5.867
10315SOL    HW231845   4.756   6.421   5.765
10316SOL     OW31846   0.145   3.254   2.477
10316SOL    HW131847   0.234   3.297   2.493
10316SOL    HW231848   0.085   3.272   2.555
10317SOL     OW31849   4.614   5.019   0.685
10317SOL    HW131850   4.549   4.953   0.647
10317SOL    HW231851   4.603   5.023   0.784
10318SOL     OW31852   6.287   5.773   2.639
10318SOL    HW131853   6.361   5.706   2.648
10318SOL    HW231854   6.296   5.822   2.552
10319SOL     OW31855   5.373   6.509   4.878
10319SOL    HW131856   5.466   6.509   4.914
10319SOL    HW231857   5.307   6.512   4.953
10320SOL     OW31858   4.212   5.925   1.671
10320SOL    HW131859   4.155   5.855   1.714
10320SOL    HW231860   4.161   5.967   1.596
10321SOL     OW31861   3.660   0.500   4.162
10321SOL    HW131862   3.732   0.551   4.115
10321SOL    HW231863   3.693   0.408   4.185
10322SOL     OW31864   0.439   2.430   6.761
10322SOL    HW131865   0.383   2.372   6.820
10322SOL    HW231866   0.382   2.503   6.723
10323SOL     OW31867   0.313   2.084   5.479
10323SOL    HW131868   0.361   2.172   5.469
10323SOL    HW231869   0.216   2.100   5.492
10324SOL     OW31870   3.871   2.965   4.259
10324SOL    HW131871   3.905   3.021   4.183
10324SOL    HW231872   3.926   2.882   4.267
10325SOL     OW31873   0.192   3.866   2.932
10325SOL    HW131874   0.239   3.919   3.003
10325SOL    HW231875   0.101   3.842   2.964
10326SOL     OW31876   5.026   1.861   1.234
10326SOL    HW131877   4.959   1.934   1.248
10326SOL    HW231878   4.981   1.773   1.248
10327SOL     OW31879   6.967   0.482   3.272
10327SOL    HW131880   6.983   0.563   3.329
10327SOL    HW231881   6.967   0.508   3.176
10328SOL     OW31882   6.668   3.373   2.825
10328SOL    HW131883   6.693   3.322   2.907
10328SOL    HW231884   6.569   3.388   2.824
10329SOL     OW31885   3.409   6.443   3.221
10329SOL    HW131886   3.371   6.350   3.220
10329SOL    HW231887   3.398   6.485   3.131
10330SOL     OW31888   3.422   4.209   1.109
10330SOL    HW131889   3.382   4.297   1.130
10330SOL    HW231890   3.350   4.140   1.099
10331SOL     OW31891   4.842   0.551   4.710
10331SOL    HW131892   4.882   0.572   4.621
10331SOL    HW231893   4.778   0.623   4.736
10332SOL     OW31894   0.067   1.713   6.665
10332SOL    HW131895   0.048   1.633   6.722
10332SOL    HW231896   0.013   1.790   6.697
10333SOL     OW31897   5.703   4.526   5.196
10333SOL    HW131898   5.752   4.600   5.242
10333SOL    HW231899   5.685   4.552   5.102
10334SOL     OW31900   0.923   4.910   4.867
10334SOL    HW131901   0.943   4.870   4.777
10334SOL    HW231902   0.972   4.997   4.876
10335SOL     OW31903   3.096   5.251   2.154
10335SOL    HW131904   3.104   5.218   2.248
10335SOL    HW231905   3.003   5.284   2.138
10336SOL     OW31906   4.891   6.474   2.707
10336SOL    HW131907   4.944   6.514   2.782
10336SOL    HW231908   4.820   6.414   2.744
10337SOL     OW31909   0.467   5.068   5.489
10337SOL    HW131910   0.382   5.120   5.479
10337SOL    HW231911   0.491   5.026   5.402
10338SOL     OW31912   3.222   5.146   2.998
10338SOL    HW131913   3.144   5.127   3.057
10338SOL    HW231914   3.195   5.208   2.925
10339SOL     OW31915   2.977   6.083   1.062
10339SOL    HW131916   2.878   6.087   1.077
10339SOL    HW231917   3.019   6.168   1.095
10340SOL     OW31918   1.550   6.471   0.273
10340SOL    HW131919   1.459   6.455   0.233
10340SOL    HW231920   1.552   6.561   0.316
10341SOL     OW31921   1.031   2.334   2.296
10341SOL    HW131922   0.986   2.419   2.322
10341SOL    HW231923   0.963   2.269   2.263
10342SOL     OW31924   3.320   6.202   4.035
10342SOL    HW131925   3.247   6.237   3.976
10342SOL    HW231926   3.291   6.209   4.131
10343SOL     OW31927   2.411   2.612   4.003
10343SOL    HW131928   2.482   2.545   4.023
10343SOL    HW231929   2.391   2.611   3.905
10344SOL     OW31930   4.522   3.898   1.215
10344SOL    HW131931   4.511   3.844   1.298
10344SOL    HW231932   4.454   3.971   1.214
10345SOL     OW31933   2.391   2.182   5.699
10345SOL    HW131934   2.449   2.203   5.778
10345SOL    HW231935   2.448   2.161   5.620
10346SOL     OW31936   5.649   4.748   0.156
10346SOL    HW131937   5.558   4.781   0.181
10346SOL    HW231938   5.718   4.809   0.193
10347SOL     OW31939   4.906   0.469   1.441
10347SOL    HW131940   4.955   0.427   1.517
10347SOL    HW231941   4.972   0.502   1.373
10348SOL     OW31942   6.513   4.889   5.640
10348SOL    HW131943   6.417   4.908   5.619
10348SOL    HW231944   6.519   4.832   5.723
10349SOL     OW31945   6.519   2.371   0.836
10349SOL    HW131946   6.515   2.364   0.736
10349SOL    HW231947   6.611   2.349   0.867
10350SOL     OW31948   2.279   4.716   4.874
10350SOL    HW131949   2.292   4.789   4.808
10350SOL    HW231950   2.361   4.659   4.877
10351SOL     OW31951   4.123   4.890   4.614
10351SOL    HW131952   4.209   4.839   4.607
10351SOL    HW231953   4.104   4.910   4.710
10352SOL     OW31954   6.554   0.924   0.220
10352SOL    HW131955   6.633   0.948   0.163
10352SOL    HW231956   6.528   1.003   0.276
10353SOL     OW31957   6.656   1.934   3.648
10353SOL    HW131958   6.675   2.022   3.692
10353SOL    HW231959   6.647   1.947   3.549
10354SOL     OW31960   6.032   2.733   1.295
10354SOL    HW131961   6.106   2.668   1.310
10354SOL    HW231962   5.945   2.691   1.320
10355SOL     OW31963   0.638   1.991   0.514
10355SOL    HW131964   0.725   2.039   0.507
10355SOL    HW231965   0.655   1.894   0.536
10356SOL     OW31966   5.394   2.408   6.567
10356SOL    HW131967   5.366   2.432   6.474
10356SOL    HW231968   5.360   2.476   6.631
10357SOL     OW31969   1.365   7.004   6.183
10357SOL    HW131970   1.358   0.064   6.239
10357SOL    HW231971   1.460   6.991   6.154
10358SOL     OW31972   0.174   2.791   2.904
10358SOL    HW131973   0.111   2.772   2.979
10358SOL    HW231974   0.230   2.870   2.928
10359SOL     OW31975   0.229   1.604   2.226
10359SOL    HW131976   0.295   1.592   2.152
10359SOL    HW231977   0.200   1.700   2.229
10360SOL     OW31978   5.988   4.174   1.425
10360SOL    HW131979   5.908   4.143   1.374
10360SOL    HW231980   5.965   4.258   1.474
10361SOL     OW31981   6.278   1.903   2.270
10361SOL    HW131982   6.237   1.992   2.292
10361SOL    HW231983   6.239   1.833   2.330
10362SOL     OW31984   1.416   5.225   1.617
10362SOL    HW131985   1.413   5.197   1.714
10362SOL    HW231986   1.423   5.324   1.611
10363SOL     OW31987   5.321   4.573   6.506
10363SOL    HW131988   5.228   4.594   6.535
10363SOL    HW231989   5.323   4.486   6.458
10364SOL     OW31990   5.614   5.368   2.851
10364SOL    HW131991   5.686   5.434   2.871
10364SOL    HW231992   5.636   5.319   2.767
10365SOL     OW31993   5.996   5.358   0.858
10365SOL    HW131994   6.072   5.304   0.893
10365SOL    HW231995   6.027   5.411   0.778
10366SOL     OW31996   2.988   6.310   3.913
10366SOL    HW131997   3.059   6.288   3.846
10366SOL    HW231998   3.005   6.259   3.998
10367SOL     OW31999   5.470   6.370   1.285
10367SOL    HW132000   5.376   6.362   1.318
10367SOL    HW232001   5.520   6.287   1.307
10368SOL     OW32002   1.568   5.896   1.446
10368SOL    HW132003   1.561   5.994   1.463
10368SOL    HW232004   1.480   5.853   1.469
10369SOL     OW32005   2.483   0.158   6.193
10369SOL    HW132006   2.402   0.102   6.173
10369SOL    HW232007   2.457   0.255   6.196
10370SOL     OW32008   2.021   1.306   5.377
10370SOL    HW132009   2.051   1.299   5.282
10370SOL    HW232010   2.062   1.231   5.430
10371SOL     OW32011   4.327   5.605   3.230
10371SOL    HW132012   4.275   5.671   3.285
10371SOL    HW232013   4.418   5.594   3.269
10372SOL     OW32014   2.132   6.803   1.364
10372SOL    HW132015   2.109   6.856   1.282
10372SOL    HW232016   2.219   6.755   1.348
10373SOL     OW32017   5.807   0.982   6.555
10373SOL    HW132018   5.835   0.937   6.470
10373SOL    HW232019   5.744   1.057   6.534
10374SOL     OW32020   3.661   5.024   3.302
10374SOL    HW132021   3.736   5.026   3.368
10374SOL    HW232022   3.693   4.987   3.215
10375SOL     OW32023   2.505   5.391   0.921
10375SOL    HW132024   2.454   5.310   0.892
10375SOL    HW232025   2.451   5.473   0.900
10376SOL     OW32026   2.466   4.885   4.391
10376SOL    HW132027   2.519   4.962   4.356
10376SOL    HW232028   2.464   4.812   4.322
10377SOL     OW32029   1.782   0.626   1.940
10377SOL    HW132030   1.796   0.723   1.963
10377SOL    HW232031   1.781   0.572   2.023
10378SOL     OW32032   0.361   5.733   4.434
10378SOL    HW132033   0.279   5.759   4.384
10378SOL    HW232034   0.437   5.793   4.408
10379SOL     OW32035   1.997   0.101   3.568
10379SOL    HW132036   2.021   0.188   3.612
10379SOL    HW232037   2.036   0.025   3.620
10380SOL     OW32038   3.223   2.187   4.454
10380SOL    HW132039   3.268   2.114   4.506
10380SOL    HW232040   3.209   2.266   4.514
10381SOL     OW32041   4.250   6.251   2.940
10381SOL    HW132042   4.208   6.161   2.926
10381SOL    HW232043   4.179   6.321   2.937
10382SOL     OW32044   4.288   5.242   1.385
10382SOL    HW132045   4.266   5.254   1.482
10382SOL    HW232046   4.359   5.307   1.358
10383SOL     OW32047   0.846   4.803   6.902
10383SOL    HW132048   0.911   4.748   6.953
10383SOL    HW232049   0.753   4.782   6.933
10384SOL     OW32050   5.772   5.198   1.098
10384SOL    HW132051   5.842   5.150   1.046
10384SOL    HW232052   5.687   5.146   1.096
10385SOL     OW32053   4.400   4.509   0.102
10385SOL    HW132054   4.463   4.508   0.179
10385SOL    HW232055   4.306   4.519   0.135
10386SOL     OW32056   0.382   0.713   0.743
10386SOL    HW132057   0.374   0.808   0.713
10386SOL    HW232058   0.434   0.661   0.676
10387SOL     OW32059   4.932   3.264   2.027
10387SOL    HW132060   4.878   3.188   1.991
10387SOL    HW232061   4.931   3.260   2.127
10388SOL     OW32062   1.825   6.912   5.405
10388SOL    HW132063   1.801   6.818   5.383
10388SOL    HW232064   1.864   6.916   5.497
10389SOL     OW32065   0.544   4.161   6.903
10389SOL    HW132066   0.501   4.147   6.814
10389SOL    HW232067   0.496   4.108   6.973
10390SOL     OW32068   2.287   2.335   1.952
10390SOL    HW132069   2.369   2.378   1.989
10390SOL    HW232070   2.206   2.366   2.002
10391SOL     OW32071   5.710   6.463   4.168
10391SOL    HW132072   5.800   6.420   4.172
10391SOL    HW232073   5.647   6.414   4.230
10392SOL     OW32074   6.457   3.842   4.713
10392SOL    HW132075   6.462   3.772   4.641
10392SOL    HW232076   6.372   3.831   4.764
10393SOL     OW32077   1.605   3.353   3.264
10393SOL    HW132078   1.688   3.311   3.228
10393SOL    HW232079   1.539   3.282   3.288
10394SOL     OW32080   3.329   0.392   4.507
10394SOL    HW132081   3.381   0.366   4.589
10394SOL    HW232082   3.334   0.491   4.495
10395SOL     OW32083   0.625   6.830   1.298
10395SOL    HW132084   0.672   6.797   1.380
10395SOL    HW232085   0.667   6.916   1.268
10396SOL     OW32086   3.298   2.053   4.686
10396SOL    HW132087   3.383   2.048   4.633
10396SOL    HW232088   3.305   1.995   4.767
10397SOL     OW32089   4.639   2.047   3.840
10397SOL    HW132090   4.696   2.095   3.907
10397SOL    HW232091   4.562   2.004   3.886
10398SOL     OW32092   5.785   3.087   1.866
10398SOL    HW132093   5.729   3.052   1.941
10398SOL    HW232094   5.772   3.029   1.785
10399SOL     OW32095   0.935   3.828   1.536
10399SOL    HW132096   0.869   3.896   1.503
10399SOL    HW232097   1.022   3.873   1.555
10400SOL     OW32098   2.545   6.338   0.834
10400SOL    HW132099   2.568   6.240   0.836
10400SOL    HW232100   2.567   6.378   0.923
10401SOL     OW32101   0.598   1.077   5.872
10401SOL    HW132102   0.500   1.063   5.854
10401SOL    HW232103   0.631   1.003   5.931
10402SOL     OW32104   0.294   2.797   5.113
10402SOL    HW132105   0.272   2.772   5.207
10402SOL    HW232106   0.369   2.862   5.113
10403SOL     OW32107   3.070   0.765   0.653
10403SOL    HW132108   3.127   0.684   0.670
10403SOL    HW232109   2.986   0.758   0.707
10404SOL     OW32110   6.805   6.485   6.421
10404SOL    HW132111   6.734   6.517   6.483
10404SOL    HW232112   6.782   6.393   6.388
10405SOL     OW32113   0.410   2.622   6.350
10405SOL    HW132114   0.440   2.567   6.272
10405SOL    HW232115   0.321   2.664   6.330
10406SOL     OW32116   2.634   5.125   1.626
10406SOL    HW132117   2.696   5.087   1.694
10406SOL    HW232118   2.669   5.212   1.593
10407SOL     OW32119   2.511   6.312   6.496
10407SOL    HW132120   2.461   6.292   6.580
10407SOL    HW232121   2.594   6.257   6.493
10408SOL     OW32122   4.057   1.953   0.063
10408SOL    HW132123   4.063   2.029   7.020
10408SOL    HW232124   4.142   1.948   0.116
10409SOL     OW32125   5.878   4.849   1.234
10409SOL    HW132126   5.879   4.839   1.334
10409SOL    HW232127   5.935   4.778   1.193
10410SOL     OW32128   5.662   0.821   0.828
10410SOL    HW132129   5.684   0.881   0.751
10410SOL    HW232130   5.564   0.828   0.848
10411SOL     OW32131   2.782   5.163   3.536
10411SOL    HW132132   2.702   5.144   3.479
10411SOL    HW232133   2.764   5.242   3.594
10412SOL     OW32134   6.417   0.434   0.466
10412SOL    HW132135   6.451   0.359   0.410
10412SOL    HW232136   6.373   0.398   0.548
10413SOL     OW32137   0.008   3.008   1.706
10413SOL    HW132138   6.992   2.997   1.614
10413SOL    HW232139   6.975   2.957   1.771
10414SOL     OW32140   5.102   2.589   3.644
10414SOL    HW132141   5.028   2.557   3.586
10414SOL    HW232142   5.174   2.520   3.649
10415SOL     OW32143   0.132   6.744   6.392
10415SOL    HW132144   0.209   6.742   6.328
10415SOL    HW232145   0.058   6.687   6.357
10416SOL     OW32146   5.744   2.905   4.423
10416SOL    HW132147   5.773   2.885   4.517
10416SOL    HW232148   5.825   2.915   4.365
10417SOL     OW32149   2.407   4.472   3.601
10417SOL    HW132150   2.378   4.379   3.623
10417SOL    HW232151   2.345   4.537   3.644
10418SOL     OW32152   1.207   4.933   5.986
10418SOL    HW132153   1.107   4.931   5.988
10418SOL    HW232154   1.238   4.969   5.898
10419SOL     OW32155   0.809   1.462   0.567
10419SOL    HW132156   0.856   1.384   0.526
10419SOL    HW232157   0.713   1.462   0.539
10420SOL     OW32158   0.188   3.478   3.486
10420SOL    HW132159   0.197   3.561   3.541
10420SOL    HW232160   0.254   3.410   3.518
10421SOL     OW32161   0.453   1.368   3.624
10421SOL    HW132162   0.502   1.454   3.610
10421SOL    HW232163   0.498   1.295   3.572
10422SOL     OW32164   5.709   2.708   5.952
10422SOL    HW132165   5.647   2.781   5.921
10422SOL    HW232166   5.770   2.744   6.023
10423SOL     OW32167   5.372   4.307   3.118
10423SOL    HW132168   5.399   4.231   3.177
10423SOL    HW232169   5.295   4.355   3.160
10424SOL     OW32170   4.409   1.964   6.199
10424SOL    HW132171   4.466   1.980   6.279
10424SOL    HW232172   4.335   1.901   6.223
10425SOL     OW32173   2.194   6.312   2.215
10425SOL    HW132174   2.173   6.368   2.134
10425SOL    HW232175   2.263   6.359   2.271
10426SOL     OW32176   6.317   3.781   6.748
10426SOL    HW132177   6.388   3.842   6.781
10426SOL    HW232178   6.282   3.814   6.661
10427SOL     OW32179   5.011   1.587   0.572
10427SOL    HW132180   5.004   1.576   0.473
10427SOL    HW232181   4.924   1.562   0.614
10428SOL     OW32182   4.715   0.965   4.473
10428SOL    HW132183   4.770   0.949   4.391
10428SOL    HW232184   4.773   0.960   4.554
10429SOL     OW32185   6.458   6.163   2.209
10429SOL    HW132186   6.411   6.233   2.155
10429SOL    HW232187   6.429   6.170   2.304
10430SOL     OW32188   4.002   6.417   3.261
10430SOL    HW132189   3.958   6.471   3.190
10430SOL    HW232190   4.092   6.386   3.229
10431SOL     OW32191   2.696   1.269   5.164
10431SOL    HW132192   2.615   1.219   5.196
10431SOL    HW232193   2.714   1.245   5.068
10432SOL     OW32194   5.945   0.942   5.223
10432SOL    HW132195   5.952   0.856   5.274
10432SOL    HW232196   6.002   0.937   5.141
10433SOL     OW32197   2.248   6.661   0.887
10433SOL    HW132198   2.182   6.593   0.918
10433SOL    HW232199   2.321   6.670   0.955
10434SOL     OW32200   2.607   1.458   3.652
10434SOL    HW132201   2.551   1.540   3.664
10434SOL    HW232202   2.646   1.432   3.740
10435SOL     OW32203   5.171   6.311   0.276
10435SOL    HW132204   5.227   6.364   0.213
10435SOL    HW232205   5.199   6.332   0.370
10436SOL     OW32206   1.584   6.893   2.810
10436SOL    HW132207   1.514   6.916   2.877
10436SOL    HW232208   1.573   6.798   2.780
10437SOL     OW32209   6.557   5.160   6.033
10437SOL    HW132210   6.555   5.220   6.113
10437SOL    HW232211   6.464   5.133   6.009
10438SOL     OW32212   3.188   5.761   6.681
10438SOL    HW132213   3.249   5.751   6.603
10438SOL    HW232214   3.107   5.703   6.668
10439SOL     OW32215   4.098   7.017   5.895
10439SOL    HW132216   4.119   0.045   5.811
10439SOL    HW232217   4.097   0.058   5.972
10440SOL     OW32218   2.172   5.325   0.462
10440SOL    HW132219   2.115   5.385   0.407
10440SOL    HW232220   2.261   5.368   0.477
10441SOL     OW32221   4.332   1.183   6.877
10441SOL    HW132222   4.403   1.249   6.901
10441SOL    HW232223   4.350   1.096   6.923
10442SOL     OW32224   4.363   5.400   5.777
10442SOL    HW132225   4.331   5.426   5.686
10442SOL    HW232226   4.340   5.472   5.842
10443SOL     OW32227   6.098   2.776   4.906
10443SOL    HW132228   6.062   2.863   4.938
10443SOL    HW232229   6.130   2.723   4.985
10444SOL     OW32230   4.047   4.786   4.035
10444SOL    HW132231   3.976   4.816   3.971
10444SOL    HW232232   4.133   4.772   3.985
10445SOL     OW32233   6.100   6.150   4.565
10445SOL    HW132234   6.134   6.173   4.656
10445SOL    HW232235   6.017   6.203   4.545
10446SOL     OW32236   0.946   5.654   6.343
10446SOL    HW132237   0.999   5.585   6.294
10446SOL    HW232238   0.850   5.647   6.316
10447SOL     OW32239   6.186   2.330   1.387
10447SOL    HW132240   6.279   2.328   1.351
10447SOL    HW232241   6.188   2.345   1.485
10448SOL     OW32242   3.258   4.078   2.312
10448SOL    HW132243   3.178   4.100   2.257
10448SOL    HW232244   3.338   4.067   2.252
10449SOL     OW32245   1.792   4.972   4.169
10449SOL    HW132246   1.785   4.966   4.069
10449SOL    HW232247   1.708   4.938   4.210
10450SOL     OW32248   0.214   3.142   0.926
10450SOL    HW132249   0.249   3.202   0.998
10450SOL    HW232250   0.290   3.103   0.876
10451SOL     OW32251   2.125   4.011   2.618
10451SOL    HW132252   2.134   3.932   2.557
10451SOL    HW232253   2.206   4.069   2.609
10452SOL     OW32254   1.113   3.638   4.895
10452SOL    HW132255   1.165   3.567   4.941
10452SOL    HW232256   1.034   3.665   4.951
10453SOL     OW32257   5.373   0.274   1.745
10453SOL    HW132258   5.374   0.297   1.648
10453SOL    HW232259   5.280   0.285   1.781
10454SOL     OW32260   5.211   3.393   2.067
10454SOL    HW132261   5.214   3.492   2.085
10454SOL    HW232262   5.170   3.347   2.146
10455SOL     OW32263   6.854   4.190   3.222
10455SOL    HW132264   6.862   4.105   3.170
10455SOL    HW232265   6.870   4.172   3.319
10456SOL     OW32266   3.909   5.636   0.844
10456SOL    HW132267   3.898   5.642   0.943
10456SOL    HW232268   3.991   5.687   0.816
10457SOL     OW32269   3.796   3.524   3.885
10457SOL    HW132270   3.721   3.586   3.904
10457SOL    HW232271   3.803   3.508   3.786
10458SOL     OW32272   0.027   0.110   2.272
10458SOL    HW132273   0.076   0.034   2.229
10458SOL    HW232274   6.951   0.099   2.258
10459SOL     OW32275   6.980   5.314   2.430
10459SOL    HW132276   0.014   5.396   2.442
10459SOL    HW232277   6.896   5.338   2.381
10460SOL     OW32278   2.116   5.762   2.295
10460SOL    HW132279   2.033   5.752   2.240
10460SOL    HW232280   2.173   5.834   2.256
10461SOL     OW32281   2.223   1.539   5.868
10461SOL    HW132282   2.313   1.509   5.835
10461SOL    HW232283   2.224   1.638   5.882
10462SOL     OW32284   6.532   6.829   1.099
10462SOL    HW132285   6.471   6.753   1.123
10462SOL    HW232286   6.485   6.915   1.115
10463SOL     OW32287   2.753   3.995   1.378
10463SOL    HW132288   2.789   4.069   1.322
10463SOL    HW232289   2.828   3.953   1.430
10464SOL     OW32290   5.404   0.238   1.416
10464SOL    HW132291   5.471   0.307   1.390
10464SOL    HW232292   5.312   0.270   1.391
10465SOL     OW32293   6.254   5.378   5.182
10465SOL    HW132294   6.312   5.455   5.208
10465SOL    HW232295   6.296   5.293   5.212
10466SOL     OW32296   5.295   5.781   6.271
10466SOL    HW132297   5.270   5.857   6.211
10466SOL    HW232298   5.269   5.694   6.228
10467SOL     OW32299   4.095   0.814   4.304
10467SOL    HW132300   4.153   0.895   4.316
10467SOL    HW232301   4.088   0.766   4.391
10468SOL     OW32302   3.518   5.863   2.940
10468SOL    HW132303   3.418   5.854   2.935
10468SOL    HW232304   3.544   5.894   3.032
10469SOL     OW32305   1.478   4.720   0.485
10469SOL    HW132306   1.544   4.795   0.486
10469SOL    HW232307   1.480   4.674   0.396
10470SOL     OW32308   2.862   1.694   4.090
10470SOL    HW132309   2.943   1.706   4.147
10470SOL    HW232310   2.884   1.638   4.011
10471SOL     OW32311   4.012   3.806   0.741
10471SOL    HW132312   4.035   3.884   0.799
10471SOL    HW232313   4.040   3.721   0.786
10472SOL     OW32314   4.840   1.200   2.838
10472SOL    HW132315   4.803   1.270   2.777
10472SOL    HW232316   4.883   1.243   2.917
10473SOL     OW32317   5.033   5.519   0.861
10473SOL    HW132318   5.109   5.579   0.836
10473SOL    HW232319   5.048   5.484   0.953
10474SOL     OW32320   4.326   0.264   4.069
10474SOL    HW132321   4.295   0.171   4.049
10474SOL    HW232322   4.412   0.261   4.120
10475SOL     OW32323   4.239   5.580   1.487
10475SOL    HW132324   4.248   5.577   1.586
10475SOL    HW232325   4.142   5.581   1.462
10476SOL     OW32326   0.030   4.645   0.375
10476SOL    HW132327   0.044   4.582   0.298
10476SOL    HW232328   0.117   4.659   0.423
10477SOL     OW32329   5.036   4.827   5.183
10477SOL    HW132330   5.022   4.774   5.099
10477SOL    HW232331   4.964   4.806   5.248
10478SOL     OW32332   0.441   6.140   2.040
10478SOL    HW132333   0.438   6.148   1.940
10478SOL    HW232334   0.473   6.226   2.079
10479SOL     OW32335   1.567   4.633   3.128
10479SOL    HW132336   1.588   4.542   3.092
10479SOL    HW232337   1.474   4.635   3.165
10480SOL     OW32338   6.299   0.394   2.849
10480SOL    HW132339   6.345   0.467   2.798
10480SOL    HW232340   6.205   0.422   2.868
10481SOL     OW32341   2.626   0.674   5.092
10481SOL    HW132342   2.595   0.613   5.019
10481SOL    HW232343   2.726   0.670   5.099
10482SOL     OW32344   0.681   5.428   5.791
10482SOL    HW132345   0.666   5.428   5.890
10482SOL    HW232346   0.595   5.445   5.744
10483SOL     OW32347   6.676   5.403   0.623
10483SOL    HW132348   6.730   5.361   0.696
10483SOL    HW232349   6.715   5.493   0.601
10484SOL     OW32350   5.714   2.103   1.492
10484SOL    HW132351   5.764   2.021   1.462
10484SOL    HW232352   5.728   2.176   1.425
10485SOL     OW32353   3.171   4.056   3.587
10485SOL    HW132354   3.108   3.979   3.596
10485SOL    HW232355   3.215   4.074   3.675
10486SOL     OW32356   5.899   5.890   5.216
10486SOL    HW132357   5.935   5.900   5.123
10486SOL    HW232358   5.915   5.975   5.266
10487SOL     OW32359   4.903   2.103   2.335
10487SOL    HW132360   4.906   2.045   2.254
10487SOL    HW232361   4.811   2.141   2.345
10488SOL     OW32362   6.808   2.317   5.338
10488SOL    HW132363   6.896   2.294   5.296
10488SOL    HW232364   6.824   2.354   5.430
10489SOL     OW32365   6.230   4.068   4.645
10489SOL    HW132366   6.294   4.063   4.723
10489SOL    HW232367   6.137   4.083   4.679
10490SOL     OW32368   5.689   6.986   0.300
10490SOL    HW132369   5.650   0.009   0.220
10490SOL    HW232370   5.770   0.015   0.330
10491SOL     OW32371   2.081   2.745   5.537
10491SOL    HW132372   2.080   2.754   5.437
10491SOL    HW232373   2.160   2.690   5.564
10492SOL     OW32374   3.941   6.625   0.039
10492SOL    HW132375   3.929   6.643   0.137
10492SOL    HW232376   3.884   6.686   7.008
10493SOL     OW32377   3.735   5.478   1.793
10493SOL    HW132378   3.773   5.410   1.856
10493SOL    HW232379   3.641   5.453   1.770
10494SOL     OW32380   1.051   4.025   4.379
10494SOL    HW132381   1.062   4.006   4.282
10494SOL    HW232382   0.994   4.107   4.391
10495SOL     OW32383   6.989   6.109   0.888
10495SOL    HW132384   0.000   6.197   0.920
10495SOL    HW232385   0.013   6.086   0.802
10496SOL     OW32386   0.501   3.991   6.138
10496SOL    HW132387   0.569   3.989   6.065
10496SOL    HW232388   0.484   3.898   6.170
10497SOL     OW32389   3.041   0.357   1.632
10497SOL    HW132390   2.950   0.331   1.601
10497SOL    HW232391   3.033   0.421   1.709
10498SOL     OW32392   4.935   4.162   6.874
10498SOL    HW132393   5.016   4.144   6.819
10498SOL    HW232394   4.961   4.200   6.962
10499SOL     OW32395   6.061   3.902   3.206
10499SOL    HW132396   5.998   3.825   3.190
10499SOL    HW232397   6.146   3.867   3.245
10500SOL     OW32398   0.851   4.035   5.118
10500SOL    HW132399   0.874   4.021   5.021
10500SOL    HW232400   0.889   3.960   5.172
10501SOL     OW32401   3.744   4.924   3.061
10501SOL    HW132402   3.801   5.001   3.031
10501SOL    HW232403   3.673   4.907   2.992
10502SOL     OW32404   3.790   3.619   2.658
10502SOL    HW132405   3.881   3.578   2.647
10502SOL    HW232406   3.800   3.715   2.685
10503SOL     OW32407   0.314   1.659   6.056
10503SOL    HW132408   0.358   1.748   6.065
10503SOL    HW232409   0.331   1.622   5.965
10504SOL     OW32410   0.509   3.445   5.486
10504SOL    HW132411   0.515   3.518   5.417
10504SOL    HW232412   0.448   3.475   5.559
10505SOL     OW32413   5.816   0.327   1.036
10505SOL    HW132414   5.821   0.236   0.995
10505SOL    HW232415   5.897   0.380   1.009
10506SOL     OW32416   1.053   3.541   6.308
10506SOL    HW132417   1.079   3.462   6.363
10506SOL    HW232418   1.116   3.617   6.327
10507SOL     OW32419   1.057   5.503   5.971
10507SOL    HW132420   1.043   5.415   5.926
10507SOL    HW232421   1.128   5.494   6.041
10508SOL     OW32422   1.937   5.390   5.934
10508SOL    HW132423   1.867   5.425   5.872
10508SOL    HW232424   1.908   5.302   5.971
10509SOL     OW32425   4.812   2.425   2.360
10509SOL    HW132426   4.755   2.507   2.371
10509SOL    HW232427   4.758   2.344   2.384
10510SOL     OW32428   6.069   5.826   3.610
10510SOL    HW132429   6.040   5.762   3.680
10510SOL    HW232430   5.999   5.896   3.597
10511SOL     OW32431   4.185   1.451   0.937
10511SOL    HW132432   4.179   1.522   1.007
10511SOL    HW232433   4.232   1.486   0.856
10512SOL     OW32434   4.290   1.028   5.357
10512SOL    HW132435   4.235   1.081   5.293
10512SOL    HW232436   4.380   1.012   5.318
10513SOL     OW32437   3.694   3.035   0.625
10513SOL    HW132438   3.709   3.097   0.702
10513SOL    HW232439   3.779   3.027   0.573
10514SOL     OW32440   1.952   3.729   1.925
10514SOL    HW132441   1.931   3.806   1.985
10514SOL    HW232442   1.989   3.654   1.980
10515SOL     OW32443   2.314   2.726   5.023
10515SOL    HW132444   2.387   2.696   5.085
10515SOL    HW232445   2.318   2.825   5.013
10516SOL     OW32446   4.918   2.277   1.698
10516SOL    HW132447   4.852   2.204   1.717
10516SOL    HW232448   4.875   2.366   1.713
10517SOL     OW32449   1.112   2.812   2.035
10517SOL    HW132450   1.100   2.855   2.124
10517SOL    HW232451   1.152   2.721   2.047
10518SOL     OW32452   1.241   5.276   2.490
10518SOL    HW132453   1.262   5.362   2.444
10518SOL    HW232454   1.149   5.246   2.465
10519SOL     OW32455   3.900   0.144   0.884
10519SOL    HW132456   3.948   0.153   0.796
10519SOL    HW232457   3.904   0.232   0.933
10520SOL     OW32458   1.088   2.633   6.061
10520SOL    HW132459   1.020   2.660   6.129
10520SOL    HW232460   1.089   2.701   5.987
10521SOL     OW32461   6.343   2.665   3.197
10521SOL    HW132462   6.352   2.749   3.249
10521SOL    HW232463   6.377   2.679   3.104
10522SOL     OW32464   5.581   1.810   3.947
10522SOL    HW132465   5.558   1.902   3.978
10522SOL    HW232466   5.519   1.784   3.872
10523SOL     OW32467   1.271   4.458   2.641
10523SOL    HW132468   1.192   4.400   2.623
10523SOL    HW232469   1.257   4.547   2.600
10524SOL     OW32470   6.577   6.644   5.275
10524SOL    HW132471   6.591   6.548   5.252
10524SOL    HW232472   6.523   6.650   5.359
10525SOL     OW32473   5.170   1.851   3.909
10525SOL    HW132474   5.153   1.753   3.898
10525SOL    HW232475   5.086   1.902   3.892
10526SOL     OW32476   0.633   5.049   0.061
10526SOL    HW132477   0.572   5.112   0.013
10526SOL    HW232478   0.586   4.961   0.074
10527SOL     OW32479   0.728   6.671   5.379
10527SOL    HW132480   0.740   6.651   5.282
10527SOL    HW232481   0.787   6.611   5.433
10528SOL     OW32482   1.234   4.775   5.549
10528SOL    HW132483   1.258   4.803   5.456
10528SOL    HW232484   1.309   4.720   5.587
10529SOL     OW32485   6.839   5.711   0.788
10529SOL    HW132486   6.862   5.659   0.870
10529SOL    HW232487   6.781   5.789   0.813
10530SOL     OW32488   6.908   6.347   1.669
10530SOL    HW132489   7.001   6.364   1.703
10530SOL    HW232490   6.854   6.431   1.678
10531SOL     OW32491   2.937   3.065   5.219
10531SOL    HW132492   2.853   3.061   5.274
10531SOL    HW232493   2.999   2.994   5.250
10532SOL     OW32494   5.003   5.702   6.407
10532SOL    HW132495   5.033   5.786   6.362
10532SOL    HW232496   5.068   5.677   6.478
10533SOL     OW32497   3.866   0.433   3.067
10533SOL    HW132498   3.922   0.428   2.985
10533SOL    HW232499   3.810   0.351   3.075
10534SOL     OW32500   1.549   5.741   3.807
10534SOL    HW132501   1.551   5.822   3.866
10534SOL    HW232502   1.479   5.678   3.840
10535SOL     OW32503   3.143   2.207   2.749
10535SOL    HW132504   3.046   2.231   2.750
10535SOL    HW232505   3.165   2.159   2.664
10536SOL     OW32506   5.118   3.396   4.736
10536SOL    HW132507   5.128   3.296   4.730
10536SOL    HW232508   5.149   3.437   4.650
10537SOL     OW32509   3.827   0.545   4.425
10537SOL    HW132510   3.800   0.462   4.473
10537SOL    HW232511   3.754   0.613   4.433
10538SOL     OW32512   6.890   3.180   3.176
10538SOL    HW132513   6.915   3.189   3.273
10538SOL    HW232514   6.900   3.085   3.148
10539SOL     OW32515   0.170   0.003   3.312
10539SOL    HW132516   0.213   0.040   3.229
10539SOL    HW232517   0.070   0.013   3.305
10540SOL     OW32518   1.187   4.621   6.742
10540SOL    HW132519   1.132   4.613   6.825
10540SOL    HW232520   1.140   4.680   6.676
10541SOL     OW32521   2.832   3.499   5.213
10541SOL    HW132522   2.891   3.438   5.159
10541SOL    HW232523   2.753   3.448   5.245
10542SOL     OW32524   5.163   6.573   3.245
10542SOL    HW132525   5.194   6.667   3.260
10542SOL    HW232526   5.065   6.573   3.225
10543SOL     OW32527   1.368   3.128   3.655
10543SOL    HW132528   1.309   3.206   3.678
10543SOL    HW232529   1.459   3.142   3.693
10544SOL     OW32530   2.904   1.364   3.263
10544SOL    HW132531   2.862   1.401   3.346
10544SOL    HW232532   2.985   1.310   3.288
10545SOL     OW32533   2.316   2.690   2.660
10545SOL    HW132534   2.376   2.611   2.671
10545SOL    HW232535   2.332   2.731   2.570
10546SOL     OW32536   2.492   0.110   6.796
10546SOL    HW132537   2.518   0.193   6.747
10546SOL    HW232538   2.447   0.046   6.734
10547SOL     OW32539   4.291   6.501   5.667
10547SOL    HW132540   4.322   6.596   5.674
10547SOL    HW232541   4.192   6.498   5.682
10548SOL     OW32542   0.509   5.712   3.273
10548SOL    HW132543   0.570   5.634   3.284
10548SOL    HW232544   0.423   5.681   3.230
10549SOL     OW32545   6.308   0.532   1.631
10549SOL    HW132546   6.284   0.597   1.559
10549SOL    HW232547   6.378   0.571   1.691
10550SOL     OW32548   5.079   6.001   2.771
10550SOL    HW132549   5.087   6.091   2.727
10550SOL    HW232550   5.150   5.940   2.735
10551SOL     OW32551   3.324   0.241   5.447
10551SOL    HW132552   3.235   0.268   5.482
10551SOL    HW232553   3.371   0.321   5.408
10552SOL     OW32554   3.042   7.020   3.806
10552SOL    HW132555   3.069   7.020   3.710
10552SOL    HW232556   3.084   6.940   3.851
10553SOL     OW32557   6.298   5.531   1.224
10553SOL    HW132558   6.370   5.568   1.165
10553SOL    HW232559   6.226   5.600   1.236
10554SOL     OW32560   6.104   6.258   2.658
10554SOL    HW132561   6.009   6.252   2.628
10554SOL    HW232562   6.132   6.169   2.695
10555SOL     OW32563   3.572   3.569   1.090
10555SOL    HW132564   3.559   3.473   1.066
10555SOL    HW232565   3.490   3.603   1.137
10556SOL     OW32566   2.532   1.715   2.294
10556SOL    HW132567   2.536   1.766   2.380
10556SOL    HW232568   2.579   1.627   2.305
10557SOL     OW32569   2.117   4.673   3.067
10557SOL    HW132570   2.199   4.714   3.025
10557SOL    HW232571   2.099   4.585   3.025
10558SOL     OW32572   3.355   5.216   5.096
10558SOL    HW132573   3.370   5.120   5.122
10558SOL    HW232574   3.331   5.221   4.999
10559SOL     OW32575   4.321   6.417   1.082
10559SOL    HW132576   4.262   6.354   1.134
10559SOL    HW232577   4.367   6.366   1.009
10560SOL     OW32578   5.417   6.847   3.057
10560SOL    HW132579   5.364   6.846   3.142
10560SOL    HW232580   5.492   6.781   3.063
10561SOL     OW32581   6.817   5.021   6.890
10561SOL    HW132582   6.831   4.969   6.975
10561SOL    HW232583   6.752   5.095   6.906
10562SOL     OW32584   4.448   5.739   2.665
10562SOL    HW132585   4.495   5.825   2.687
10562SOL    HW232586   4.381   5.718   2.736
10563SOL     OW32587   0.266   6.928   2.496
10563SOL    HW132588   0.201   6.932   2.571
10563SOL    HW232589   0.221   6.892   2.414
10564SOL     OW32590   4.920   4.525   3.405
10564SOL    HW132591   4.828   4.486   3.405
10564SOL    HW232592   4.983   4.462   3.361
10565SOL     OW32593   0.691   0.851   5.975
10565SOL    HW132594   0.663   0.788   5.903
10565SOL    HW232595   0.674   0.809   6.064
10566SOL     OW32596   3.546   2.332   0.381
10566SOL    HW132597   3.595   2.407   0.426
10566SOL    HW232598   3.609   2.284   0.320
10567SOL     OW32599   1.815   2.721   6.177
10567SOL    HW132600   1.850   2.807   6.214
10567SOL    HW232601   1.760   2.674   6.246
10568SOL     OW32602   4.784   2.296   6.276
10568SOL    HW132603   4.781   2.229   6.202
10568SOL    HW232604   4.697   2.346   6.279
10569SOL     OW32605   5.736   0.258   0.398
10569SOL    HW132606   5.726   0.326   0.470
10569SOL    HW232607   5.830   0.224   0.397
10570SOL     OW32608   1.068   3.597   2.650
10570SOL    HW132609   1.040   3.503   2.670
10570SOL    HW232610   1.129   3.629   2.722
10571SOL     OW32611   6.324   4.410   5.308
10571SOL    HW132612   6.287   4.354   5.234
10571SOL    HW232613   6.423   4.393   5.316
10572SOL     OW32614   6.019   3.971   1.094
10572SOL    HW132615   6.111   3.948   1.060
10572SOL    HW232616   5.999   4.066   1.070
10573SOL     OW32617   6.716   2.669   2.495
10573SOL    HW132618   6.755   2.589   2.542
10573SOL    HW232619   6.731   2.660   2.397
10574SOL     OW32620   5.326   2.741   2.438
10574SOL    HW132621   5.232   2.708   2.435
10574SOL    HW232622   5.378   2.700   2.364
10575SOL     OW32623   5.866   6.840   2.575
10575SOL    HW132624   5.871   6.777   2.497
10575SOL    HW232625   5.801   6.803   2.643
10576SOL     OW32626   1.089   4.450   3.848
10576SOL    HW132627   1.096   4.549   3.862
10576SOL    HW232628   1.181   4.412   3.832
10577SOL     OW32629   3.925   4.268   0.175
10577SOL    HW132630   3.909   4.358   0.216
10577SOL    HW232631   4.023   4.247   0.177
10578SOL     OW32632   0.704   3.530   3.670
10578SOL    HW132633   0.754   3.486   3.745
10578SOL    HW232634   0.619   3.480   3.654
10579SOL     OW32635   0.650   3.731   0.014
10579SOL    HW132636   0.730   3.711   0.071
10579SOL    HW232637   0.680   3.748   6.942
10580SOL     OW32638   5.680   6.813   0.023
10580SOL    HW132639   5.779   6.815   0.030
10580SOL    HW232640   5.642   6.902   0.048
10581SOL     OW32641   4.418   0.304   3.114
10581SOL    HW132642   4.465   0.323   3.028
10581SOL    HW232643   4.416   0.387   3.170
10582SOL     OW32644   6.542   3.789   6.177
10582SOL    HW132645   6.469   3.811   6.112
10582SOL    HW232646   6.511   3.720   6.241
10583SOL     OW32647   3.461   1.901   5.356
10583SOL    HW132648   3.472   1.955   5.273
10583SOL    HW232649   3.387   1.835   5.343
10584SOL     OW32650   0.971   6.185   3.292
10584SOL    HW132651   1.005   6.095   3.320
10584SOL    HW232652   1.045   6.235   3.247
10585SOL     OW32653   1.638   1.215   5.617
10585SOL    HW132654   1.546   1.206   5.579
10585SOL    HW232655   1.699   1.254   5.548
10586SOL     OW32656   4.404   4.375   5.364
10586SOL    HW132657   4.355   4.294   5.395
10586SOL    HW232658   4.358   4.413   5.284
10587SOL     OW32659   2.222   4.660   5.138
10587SOL    HW132660   2.244   4.683   5.043
10587SOL    HW232661   2.300   4.683   5.196
10588SOL     OW32662   1.446   3.543   3.408
10588SOL    HW132663   1.508   3.484   3.357
10588SOL    HW232664   1.393   3.600   3.345
10589SOL     OW32665   6.040   6.603   3.541
10589SOL    HW132666   6.049   6.638   3.634
10589SOL    HW232667   6.099   6.523   3.530
10590SOL     OW32668   0.445   4.766   2.047
10590SOL    HW132669   0.490   4.740   2.133
10590SOL    HW232670   0.391   4.849   2.062
10591SOL     OW32671   6.974   3.800   2.002
10591SOL    HW132672   6.902   3.858   2.040
10591SOL    HW232673   7.016   3.748   2.076
10592SOL     OW32674   0.380   1.164   4.945
10592SOL    HW132675   0.315   1.092   4.918
10592SOL    HW232676   0.367   1.185   5.042
10593SOL     OW32677   3.123   4.839   3.478
10593SOL    HW132678   3.081   4.895   3.407
10593SOL    HW232679   3.219   4.822   3.455
10594SOL     OW32680   3.263   5.148   3.552
10594SOL    HW132681   3.189   5.194   3.601
10594SOL    HW232682   3.266   5.181   3.458
10595SOL     OW32683   5.312   0.295   0.367
10595SOL    HW132684   5.303   0.226   0.295
10595SOL    HW232685   5.344   0.251   0.451
10596SOL     OW32686   4.928   3.574   0.352
10596SOL    HW132687   5.007   3.514   0.339
10596SOL    HW232688   4.960   3.668   0.364
10597SOL     OW32689   2.149   0.054   4.490
10597SOL    HW132690   2.224   7.019   4.458
10597SOL    HW232691   2.083   7.019   4.539
10598SOL     OW32692   3.180   0.741   6.760
10598SOL    HW132693   3.268   0.785   6.743
10598SOL    HW232694   3.114   0.808   6.792
10599SOL     OW32695   0.790   2.261   0.299
10599SOL    HW132696   0.837   2.226   0.380
10599SOL    HW232697   0.698   2.290   0.323
10600SOL     OW32698   3.825   1.402   1.789
10600SOL    HW132699   3.736   1.395   1.834
10600SOL    HW232700   3.861   1.311   1.771
10601SOL     OW32701   2.367   0.801   5.015
10601SOL    HW132702   2.367   0.898   5.039
10601SOL    HW232703   2.454   0.760   5.040
10602SOL     OW32704   6.775   0.070   2.239
10602SOL    HW132705   6.734   0.082   2.148
10602SOL    HW232706   6.711   0.104   2.309
10603SOL     OW32707   5.729   0.507   2.913
10603SOL    HW132708   5.741   0.411   2.939
10603SOL    HW232709   5.767   0.522   2.822
10604SOL     OW32710   4.653   0.722   4.780
10604SOL    HW132711   4.624   0.677   4.864
10604SOL    HW232712   4.585   0.706   4.709
10605SOL     OW32713   3.258   2.353   1.118
10605SOL    HW132714   3.222   2.395   1.201
10605SOL    HW232715   3.270   2.255   1.132
10606SOL     OW32716   6.785   0.499   6.985
10606SOL    HW132717   6.716   0.506   6.912
10606SOL    HW232718   6.853   0.572   6.973
10607SOL     OW32719   2.891   4.318   7.017
10607SOL    HW132720   2.891   4.368   0.081
10607SOL    HW232721   2.984   4.314   6.980
10608SOL     OW32722   5.423   4.557   3.982
10608SOL    HW132723   5.404   4.473   4.033
10608SOL    HW232724   5.512   4.550   3.938
10609SOL     OW32725   5.953   0.708   6.538
10609SOL    HW132726   5.969   0.780   6.605
10609SOL    HW232727   5.978   0.740   6.447
10610SOL     OW32728   0.905   1.349   3.527
10610SOL    HW132729   0.987   1.347   3.584
10610SOL    HW232730   0.932   1.370   3.432
10611SOL     OW32731   3.666   5.303   4.973
10611SOL    HW132732   3.733   5.285   5.045
10611SOL    HW232733   3.620   5.217   4.948
10612SOL     OW32734   6.512   2.336   3.691
10612SOL    HW132735   6.512   2.427   3.732
10612SOL    HW232736   6.496   2.344   3.593
10613SOL     OW32737   4.358   6.386   4.424
10613SOL    HW132738   4.367   6.367   4.326
10613SOL    HW232739   4.337   6.301   4.473
10614SOL     OW32740   3.750   1.711   5.924
10614SOL    HW132741   3.754   1.767   5.842
10614SOL    HW232742   3.693   1.756   5.993
10615SOL     OW32743   2.309   1.935   4.865
10615SOL    HW132744   2.370   1.860   4.890
10615SOL    HW232745   2.218   1.898   4.844
10616SOL     OW32746   1.417   5.944   6.717
10616SOL    HW132747   1.360   5.916   6.794
10616SOL    HW232748   1.416   5.873   6.647
10617SOL     OW32749   1.886   2.958   1.398
10617SOL    HW132750   1.877   2.990   1.304
10617SOL    HW232751   1.909   2.860   1.397
10618SOL     OW32752   1.101   5.051   3.699
10618SOL    HW132753   1.080   5.031   3.795
10618SOL    HW232754   1.042   5.125   3.668
10619SOL     OW32755   1.317   2.706   2.301
10619SOL    HW132756   1.323   2.682   2.205
10619SOL    HW232757   1.250   2.779   2.314
10620SOL     OW32758   3.080   0.337   5.603
10620SOL    HW132759   2.984   0.312   5.605
10620SOL    HW232760   3.092   0.430   5.640
10621SOL     OW32761   0.599   3.300   3.004
10621SOL    HW132762   0.540   3.254   2.938
10621SOL    HW232763   0.569   3.279   3.097
10622SOL     OW32764   4.353   2.283   6.961
10622SOL    HW132765   4.286   2.356   6.946
10622SOL    HW232766   4.305   2.196   6.970
10623SOL     OW32767   5.105   6.104   5.449
10623SOL    HW132768   5.173   6.095   5.521
10623SOL    HW232769   5.133   6.176   5.385
10624SOL     OW32770   0.321   2.198   0.098
10624SOL    HW132771   0.370   2.119   0.136
10624SOL    HW232772   0.276   2.248   0.172
10625SOL     OW32773   6.395   5.359   0.448
10625SOL    HW132774   6.426   5.314   0.532
10625SOL    HW232775   6.402   5.458   0.458
10626SOL     OW32776   5.577   2.937   0.886
10626SOL    HW132777   5.641   3.013   0.870
10626SOL    HW232778   5.603   2.889   0.970
10627SOL     OW32779   5.908   5.308   5.024
10627SOL    HW132780   5.952   5.311   4.934
10627SOL    HW232781   5.932   5.390   5.075
10628SOL     OW32782   2.990   6.470   0.275
10628SOL    HW132783   3.007   6.552   0.329
10628SOL    HW232784   3.064   6.458   0.208
10629SOL     OW32785   4.238   5.230   4.853
10629SOL    HW132786   4.337   5.245   4.849
10629SOL    HW232787   4.191   5.311   4.820
10630SOL     OW32788   4.181   1.257   1.756
10630SOL    HW132789   4.196   1.290   1.849
10630SOL    HW232790   4.091   1.214   1.750
10631SOL     OW32791   3.617   5.739   1.486
10631SOL    HW132792   3.642   5.770   1.578
10631SOL    HW232793   3.681   5.778   1.420
10632SOL     OW32794   5.405   6.547   3.992
10632SOL    HW132795   5.505   6.558   3.989
10632SOL    HW232796   5.367   6.565   3.901
10633SOL     OW32797   2.196   3.495   0.680
10633SOL    HW132798   2.219   3.592   0.680
10633SOL    HW232799   2.151   3.471   0.766
10634SOL     OW32800   6.993   4.637   6.720
10634SOL    HW132801   6.994   4.615   6.623
10634SOL    HW232802   6.940   4.721   6.735
10635SOL     OW32803   2.942   5.649   6.680
10635SOL    HW132804   2.898   5.570   6.723
10635SOL    HW232805   2.872   5.715   6.654
10636SOL     OW32806   6.691   2.786   0.199
10636SOL    HW132807   6.752   2.757   0.125
10636SOL    HW232808   6.683   2.885   0.199
10637SOL     OW32809   2.258   0.889   6.985
10637SOL    HW132810   2.337   0.911   6.928
10637SOL    HW232811   2.175   0.893   6.930
10638SOL     OW32812   5.807   5.171   0.788
10638SOL    HW132813   5.872   5.128   0.724
10638SOL    HW232814   5.847   5.256   0.823
10639SOL     OW32815   0.353   5.329   1.837
10639SOL    HW132816   0.314   5.308   1.747
10639SOL    HW232817   0.289   5.385   1.889
10640SOL     OW32818   4.624   6.717   3.607
10640SOL    HW132819   4.596   6.629   3.568
10640SOL    HW232820   4.544   6.775   3.618
10641SOL     OW32821   0.988   1.671   2.956
10641SOL    HW132822   1.042   1.596   2.918
10641SOL    HW232823   1.047   1.734   3.005
10642SOL     OW32824   6.586   3.482   6.014
10642SOL    HW132825   6.616   3.568   5.972
10642SOL    HW232826   6.644   3.461   6.092
10643SOL     OW32827   2.191   5.108   5.832
10643SOL    HW132828   2.218   5.012   5.839
10643SOL    HW232829   2.100   5.119   5.874
10644SOL     OW32830   6.128   3.005   3.039
10644SOL    HW132831   6.110   2.910   3.063
10644SOL    HW232832   6.187   3.009   2.958
10645SOL     OW32833   1.766   2.261   3.096
10645SOL    HW132834   1.687   2.202   3.109
10645SOL    HW232835   1.763   2.301   3.004
10646SOL     OW32836   5.305   0.248   3.600
10646SOL    HW132837   5.314   0.296   3.513
10646SOL    HW232838   5.389   0.260   3.653
10647SOL     OW32839   3.631   5.554   5.673
10647SOL    HW132840   3.632   5.462   5.634
10647SOL    HW232841   3.675   5.553   5.763
10648SOL     OW32842   4.927   4.302   5.790
10648SOL    HW132843   4.838   4.284   5.832
10648SOL    HW232844   4.913   4.352   5.705
10649SOL     OW32845   6.341   3.479   2.892
10649SOL    HW132846   6.295   3.567   2.907
10649SOL    HW232847   6.331   3.453   2.796
10650SOL     OW32848   1.173   6.772   3.665
10650SOL    HW132849   1.163   6.816   3.576
10650SOL    HW232850   1.262   6.796   3.704
10651SOL     OW32851   2.838   6.138   5.853
10651SOL    HW132852   2.842   6.150   5.952
10651SOL    HW232853   2.790   6.053   5.831
10652SOL     OW32854   1.727   0.024   0.541
10652SOL    HW132855   1.721   0.098   0.609
10652SOL    HW232856   1.712   0.062   0.449
10653SOL     OW32857   4.860   5.842   4.213
10653SOL    HW132858   4.831   5.885   4.128
10653SOL    HW232859   4.806   5.759   4.229
10654SOL     OW32860   6.285   1.901   4.513
10654SOL    HW132861   6.250   1.826   4.569
10654SOL    HW232862   6.343   1.864   4.441
10655SOL     OW32863   6.951   4.240   1.656
10655SOL    HW132864   6.928   4.174   1.584
10655SOL    HW232865   6.873   4.251   1.717
10656SOL     OW32866   5.876   2.113   4.186
10656SOL    HW132867   5.806   2.077   4.124
10656SOL    HW232868   5.963   2.065   4.170
10657SOL     OW32869   4.822   6.611   4.480
10657SOL    HW132870   4.841   6.683   4.546
10657SOL    HW232871   4.729   6.576   4.494
10658SOL     OW32872   0.634   2.326   5.623
10658SOL    HW132873   0.643   2.226   5.626
10658SOL    HW232874   0.566   2.351   5.554
10659SOL     OW32875   0.603   5.887   0.757
10659SOL    HW132876   0.586   5.863   0.853
10659SOL    HW232877   0.679   5.951   0.752
10660SOL     OW32878   5.764   2.715   5.449
10660SOL    HW132879   5.716   2.680   5.530
10660SOL    HW232880   5.847   2.661   5.434
10661SOL     OW32881   2.823   5.077   5.508
10661SOL    HW132882   2.864   5.018   5.578
10661SOL    HW232883   2.875   5.068   5.423
10662SOL     OW32884   2.156   1.307   1.495
10662SOL    HW132885   2.108   1.346   1.573
10662SOL    HW232886   2.096   1.306   1.416
10663SOL     OW32887   1.123   1.763   3.597
10663SOL    HW132888   1.046   1.710   3.633
10663SOL    HW232889   1.203   1.750   3.655
10664SOL     OW32890   0.897   5.213   4.995
10664SOL    HW132891   0.821   5.249   5.049
10664SOL    HW232892   0.863   5.187   4.904
10665SOL     OW32893   3.070   3.498   0.238
10665SOL    HW132894   3.006   3.427   0.267
10665SOL    HW232895   3.072   3.502   0.138
10666SOL     OW32896   3.612   4.078   1.398
10666SOL    HW132897   3.611   3.985   1.363
10666SOL    HW232898   3.518   4.112   1.405
10667SOL     OW32899   5.376   2.562   3.122
10667SOL    HW132900   5.391   2.653   3.160
10667SOL    HW232901   5.456   2.535   3.068
10668SOL     OW32902   3.215   2.967   5.915
10668SOL    HW132903   3.160   2.946   5.996
10668SOL    HW232904   3.154   2.998   5.841
10669SOL     OW32905   5.450   1.773   1.402
10669SOL    HW132906   5.438   1.675   1.420
10669SOL    HW232907   5.385   1.802   1.332
10670SOL     OW32908   4.827   3.979   4.353
10670SOL    HW132909   4.893   4.052   4.333
10670SOL    HW232910   4.775   3.958   4.271
10671SOL     OW32911   1.497   3.592   5.266
10671SOL    HW132912   1.487   3.535   5.348
10671SOL    HW232913   1.438   3.672   5.274
10672SOL     OW32914   5.635   3.729   2.026
10672SOL    HW132915   5.700   3.695   2.094
10672SOL    HW232916   5.615   3.658   1.959
10673SOL     OW32917   1.929   1.658   0.945
10673SOL    HW132918   1.888   1.667   1.036
10673SOL    HW232919   1.886   1.722   0.883
10674SOL     OW32920   3.651   4.152   3.247
10674SOL    HW132921   3.561   4.176   3.284
10674SOL    HW232922   3.645   4.142   3.148
10675SOL     OW32923   4.135   6.710   5.420
10675SOL    HW132924   4.066   6.654   5.464
10675SOL    HW232925   4.216   6.715   5.478
10676SOL     OW32926   1.530   0.095   5.649
10676SOL    HW132927   1.450   0.146   5.617
10676SOL    HW232928   1.523   0.081   5.748
10677SOL     OW32929   0.278   1.430   0.612
10677SOL    HW132930   0.188   1.390   0.631
10677SOL    HW232931   0.345   1.357   0.601
10678SOL     OW32932   3.715   5.838   2.758
10678SOL    HW132933   3.802   5.822   2.806
10678SOL    HW232934   3.642   5.847   2.826
10679SOL     OW32935   4.024   3.400   6.491
10679SOL    HW132936   4.041   3.488   6.536
10679SOL    HW232937   4.109   3.367   6.450
10680SOL     OW32938   4.083   1.186   4.644
10680SOL    HW132939   4.040   1.166   4.732
10680SOL    HW232940   4.151   1.259   4.655
10681SOL     OW32941   1.725   3.245   5.103
10681SOL    HW132942   1.705   3.163   5.050
10681SOL    HW232943   1.663   3.319   5.075
10682SOL     OW32944   5.008   3.130   6.170
10682SOL    HW132945   4.950   3.162   6.245
10682SOL    HW232946   5.102   3.119   6.202
10683SOL     OW32947   3.156   0.249   3.895
10683SOL    HW132948   3.093   0.294   3.831
10683SOL    HW232949   3.129   0.153   3.906
10684SOL     OW32950   4.569   4.843   2.269
10684SOL    HW132951   4.667   4.848   2.286
10684SOL    HW232952   4.552   4.848   2.170
10685SOL     OW32953   0.512   6.344   1.719
10685SOL    HW132954   0.517   6.391   1.631
10685SOL    HW232955   0.523   6.246   1.706
10686SOL     OW32956   2.340   1.323   6.630
10686SOL    HW132957   2.246   1.324   6.663
10686SOL    HW232958   2.353   1.243   6.570
10687SOL     OW32959   0.602   3.990   3.386
10687SOL    HW132960   0.551   3.905   3.369
10687SOL    HW232961   0.544   4.053   3.439
10688SOL     OW32962   5.051   1.635   2.368
10688SOL    HW132963   5.141   1.644   2.326
10688SOL    HW232964   4.989   1.704   2.329
10689SOL     OW32965   0.311   0.543   2.780
10689SOL    HW132966   0.285   0.636   2.804
10689SOL    HW232967   0.324   0.489   2.863
10690SOL     OW32968   0.302   6.791   4.230
10690SOL    HW132969   0.361   6.852   4.178
10690SOL    HW232970   0.357   6.721   4.276
10691SOL     OW32971   3.426   0.494   2.243
10691SOL    HW132972   3.376   0.439   2.310
10691SOL    HW232973   3.395   0.469   2.151
10692SOL     OW32974   2.304   0.776   4.106
10692SOL    HW132975   2.381   0.786   4.043
10692SOL    HW232976   2.271   0.682   4.103
10693SOL     OW32977   1.550   5.226   0.047
10693SOL    HW132978   1.564   5.174   0.131
10693SOL    HW232979   1.595   5.315   0.054
10694SOL     OW32980   4.387   6.988   5.407
10694SOL    HW132981   4.368   6.930   5.486
10694SOL    HW232982   4.473   6.961   5.365
10695SOL     OW32983   5.824   4.007   2.174
10695SOL    HW132984   5.729   3.977   2.188
10695SOL    HW232985   5.825   4.105   2.153
10696SOL     OW32986   6.891   4.795   3.876
10696SOL    HW132987   6.956   4.720   3.874
10696SOL    HW232988   6.834   4.788   3.957
10697SOL     OW32989   1.782   5.311   5.267
10697SOL    HW132990   1.777   5.407   5.239
10697SOL    HW232991   1.873   5.291   5.302
10698SOL     OW32992   4.144   2.972   0.310
10698SOL    HW132993   4.054   2.985   0.269
10698SOL    HW232994   4.168   2.875   0.307
10699SOL     OW32995   3.283   3.028   0.685
10699SOL    HW132996   3.279   3.085   0.603
10699SOL    HW232997   3.361   2.965   0.678
10700SOL     OW32998   4.927   0.990   1.505
10700SOL    HW132999   5.010   0.996   1.561
10700SOL    HW233000   4.850   1.028   1.556
10701SOL     OW33001   3.005   0.390   6.442
10701SOL    HW133002   3.020   0.305   6.494
10701SOL    HW233003   2.985   0.464   6.506
10702SOL     OW33004   6.174   2.453   1.874
10702SOL    HW133005   6.171   2.540   1.922
10702SOL    HW233006   6.108   2.390   1.914
10703SOL     OW33007   0.818   3.043   6.073
10703SOL    HW133008   0.895   3.074   6.129
10703SOL    HW233009   0.790   3.116   6.011
10704SOL     OW33010   5.864   6.696   1.436
10704SOL    HW133011   5.928   6.759   1.480
10704SOL    HW233012   5.902   6.664   1.349
10705SOL     OW33013   5.815   4.345   1.590
10705SOL    HW133014   5.735   4.295   1.621
10705SOL    HW233015   5.787   4.430   1.545
10706SOL     OW33016   4.566   0.273   0.954
10706SOL    HW133017   4.640   0.268   0.887
10706SOL    HW233018   4.480   0.249   0.909
10707SOL     OW33019   5.886   0.611   4.154
10707SOL    HW133020   5.972   0.643   4.114
10707SOL    HW233021   5.822   0.688   4.159
10708SOL     OW33022   4.122   1.486   2.218
10708SOL    HW133023   4.059   1.562   2.226
10708SOL    HW233024   4.094   1.412   2.279
10709SOL     OW33025   5.766   4.793   3.765
10709SOL    HW133026   5.758   4.710   3.710
10709SOL    HW233027   5.681   4.845   3.760
10710SOL     OW33028   5.326   1.054   3.621
10710SOL    HW133029   5.267   0.975   3.633
10710SOL    HW233030   5.282   1.120   3.560
10711SOL     OW33031   4.151   6.766   1.561
10711SOL    HW133032   4.135   6.861   1.588
10711SOL    HW233033   4.175   6.763   1.464
10712SOL     OW33034   5.038   0.001   2.961
10712SOL    HW133035   4.996   6.988   3.044
10712SOL    HW233036   5.020   0.100   2.953
10713SOL     OW33037   1.569   4.491   1.646
10713SOL    HW133038   1.501   4.564   1.633
10713SOL    HW233039   1.523   4.402   1.648
10714SOL     OW33040   3.493   4.038   4.343
10714SOL    HW133041   3.500   3.939   4.336
10714SOL    HW233042   3.409   4.063   4.390
10715SOL     OW33043   6.284   1.053   1.832
10715SOL    HW133044   6.202   1.108   1.847
10715SOL    HW233045   6.323   1.076   1.743
10716SOL     OW33046   6.086   1.967   3.279
10716SOL    HW133047   6.046   1.917   3.203
10716SOL    HW233048   6.159   2.027   3.245
10717SOL     OW33049   1.446   2.507   0.203
10717SOL    HW133050   1.492   2.502   0.114
10717SOL    HW233051   1.421   2.415   0.233
10718SOL     OW33052   1.391   5.031   5.285
10718SOL    HW133053   1.429   5.088   5.212
10718SOL    HW233054   1.299   5.063   5.308
10719SOL     OW33055   6.429   5.987   4.541
10719SOL    HW133056   6.335   6.024   4.541
10719SOL    HW233057   6.491   6.057   4.576
10720SOL     OW33058   6.468   5.281   3.872
10720SOL    HW133059   6.457   5.350   3.801
10720SOL    HW233060   6.380   5.266   3.919
10721SOL     OW33061   5.095   3.769   5.149
10721SOL    HW133062   5.126   3.864   5.146
10721SOL    HW233063   5.165   3.711   5.107
10722SOL     OW33064   6.713   4.335   5.967
10722SOL    HW133065   6.805   4.331   5.930
10722SOL    HW233066   6.715   4.374   6.060
10723SOL     OW33067   6.158   0.160   0.467
10723SOL    HW133068   6.092   0.229   0.438
10723SOL    HW233069   6.224   0.144   0.393
10724SOL     OW33070   6.594   6.557   0.434
10724SOL    HW133071   6.546   6.582   0.518
10724SOL    HW233072   6.662   6.487   0.454
10725SOL     OW33073   2.498   5.421   5.643
10725SOL    HW133074   2.413   5.474   5.638
10725SOL    HW233075   2.479   5.332   5.684
10726SOL     OW33076   4.921   0.630   4.476
10726SOL    HW133077   4.835   0.656   4.432
10726SOL    HW233078   4.967   0.561   4.421
10727SOL     OW33079   1.658   5.997   5.890
10727SOL    HW133080   1.633   5.940   5.812
10727SOL    HW233081   1.757   5.989   5.906
10728SOL     OW33082   6.348   5.537   0.930
10728SOL    HW133083   6.285   5.610   0.903
10728SOL    HW233084   6.416   5.574   0.992
10729SOL     OW33085   6.879   2.762   1.261
10729SOL    HW133086   6.904   2.747   1.165
10729SOL    HW233087   6.780   2.766   1.270
10730SOL     OW33088   4.110   0.292   1.705
10730SOL    HW133089   4.201   0.253   1.693
10730SOL    HW233090   4.096   0.315   1.801
10731SOL     OW33091   4.207   1.275   0.575
10731SOL    HW133092   4.260   1.304   0.655
10731SOL    HW233093   4.169   1.184   0.591
10732SOL     OW33094   0.784   5.163   5.292
10732SOL    HW133095   0.720   5.087   5.278
10732SOL    HW233096   0.857   5.134   5.354
10733SOL     OW33097   5.666   3.037   6.931
10733SOL    HW133098   5.752   3.001   6.966
10733SOL    HW233099   5.683   3.097   6.854
10734SOL     OW33100   0.019   1.978   1.381
10734SOL    HW133101   6.955   1.928   1.373
10734SOL    HW233102   0.090   1.931   1.327
10735SOL     OW33103   0.581   3.674   2.548
10735SOL    HW133104   0.622   3.602   2.492
10735SOL    HW233105   0.545   3.635   2.632
10736SOL     OW33106   3.655   6.907   3.649
10736SOL    HW133107   3.593   6.839   3.609
10736SOL    HW233108   3.614   6.998   3.641
10737SOL     OW33109   0.499   2.496   1.404
10737SOL    HW133110   0.553   2.499   1.487
10737SOL    HW233111   0.554   2.528   1.327
10738SOL     OW33112   4.749   0.982   3.302
10738SOL    HW133113   4.815   0.907   3.308
10738SOL    HW233114   4.694   0.972   3.219
10739SOL     OW33115   2.397   2.124   1.783
10739SOL    HW133116   2.356   2.179   1.856
10739SOL    HW233117   2.338   2.127   1.703
10740SOL     OW33118   5.121   4.582   3.963
10740SOL    HW133119   5.216   4.569   3.935
10740SOL    HW233120   5.090   4.674   3.937
10741SOL     OW33121   3.639   0.627   2.342
10741SOL    HW133122   3.562   0.570   2.314
10741SOL    HW233123   3.643   0.630   2.442
10742SOL     OW33124   5.777   5.288   0.525
10742SOL    HW133125   5.845   5.232   0.571
10742SOL    HW233126   5.769   5.376   0.573
10743SOL     OW33127   2.084   2.256   4.232
10743SOL    HW133128   2.037   2.312   4.164
10743SOL    HW233129   2.129   2.179   4.186
10744SOL     OW33130   3.774   2.420   0.941
10744SOL    HW133131   3.750   2.336   0.988
10744SOL    HW233132   3.842   2.470   0.995
10745SOL     OW33133   0.149   5.683   5.584
10745SOL    HW133134   0.121   5.758   5.646
10745SOL    HW233135   0.166   5.720   5.493
10746SOL     OW33136   7.005   4.344   5.278
10746SOL    HW133137   6.951   4.268   5.242
10746SOL    HW233138   6.951   4.428   5.273
10747SOL     OW33139   2.836   1.071   4.953
10747SOL    HW133140   2.931   1.094   4.933
10747SOL    HW233141   2.797   1.020   4.876
10748SOL     OW33142   4.780   1.057   2.224
10748SOL    HW133143   4.795   0.999   2.305
10748SOL    HW233144   4.868   1.092   2.192
10749SOL     OW33145   2.054   6.930   4.724
10749SOL    HW133146   2.081   6.837   4.698
10749SOL    HW233147   2.073   6.943   4.822
10750SOL     OW33148   3.517   0.793   5.668
10750SOL    HW133149   3.572   0.711   5.653
10750SOL    HW233150   3.565   0.872   5.628
10751SOL     OW33151   2.102   4.499   4.241
10751SOL    HW133152   2.038   4.423   4.233
10751SOL    HW233153   2.074   4.559   4.316
10752SOL     OW33154   5.614   5.360   4.420
10752SOL    HW133155   5.515   5.342   4.415
10752SOL    HW233156   5.660   5.306   4.350
10753SOL     OW33157   0.269   3.249   4.081
10753SOL    HW133158   0.204   3.308   4.128
10753SOL    HW233159   0.362   3.284   4.093
10754SOL     OW33160   1.421   0.773   2.617
10754SOL    HW133161   1.444   0.676   2.606
10754SOL    HW233162   1.328   0.782   2.651
10755SOL     OW33163   6.453   6.266   1.609
10755SOL    HW133164   6.384   6.194   1.610
10755SOL    HW233165   6.524   6.245   1.676
10756SOL     OW33166   6.505   0.031   5.127
10756SOL    HW133167   6.500   0.081   5.041
10756SOL    HW233168   6.463   6.963   5.116
10757SOL     OW33169   2.254   3.229   0.726
10757SOL    HW133170   2.200   3.163   0.673
10757SOL    HW233171   2.229   3.322   0.699
10758SOL     OW33172   0.731   5.774   3.694
10758SOL    HW133173   0.681   5.689   3.679
10758SOL    HW233174   0.825   5.754   3.721
10759SOL     OW33175   0.144   2.732   0.006
10759SOL    HW133176   0.080   2.698   0.075
10759SOL    HW233177   0.093   2.766   6.949
10760SOL     OW33178   6.192   0.912   3.597
10760SOL    HW133179   6.231   0.954   3.679
10760SOL    HW233180   6.169   0.984   3.531
10761SOL     OW33181   2.831   4.767   5.520
10761SOL    HW133182   2.751   4.743   5.574
10761SOL    HW233183   2.804   4.780   5.425
10762SOL     OW33184   3.352   0.674   4.439
10762SOL    HW133185   3.301   0.760   4.438
10762SOL    HW233186   3.357   0.636   4.347
10763SOL     OW33187   4.041   0.442   3.304
10763SOL    HW133188   3.973   0.474   3.371
10763SOL    HW233189   3.996   0.383   3.237
10764SOL     OW33190   5.391   0.494   4.030
10764SOL    HW133191   5.311   0.506   3.973
10764SOL    HW233192   5.468   0.545   3.991
10765SOL     OW33193   5.075   3.233   1.312
10765SOL    HW133194   5.144   3.267   1.376
10765SOL    HW233195   5.027   3.311   1.271
10766SOL     OW33196   3.727   3.273   1.256
10766SOL    HW133197   3.814   3.308   1.222
10766SOL    HW233198   3.658   3.280   1.184
10767SOL     OW33199   2.503   1.283   1.989
10767SOL    HW133200   2.420   1.314   1.943
10767SOL    HW233201   2.485   1.270   2.087
10768SOL     OW33202   6.556   4.765   0.428
10768SOL    HW133203   6.523   4.692   0.370
10768SOL    HW233204   6.653   4.781   0.410
10769SOL     OW33205   1.765   3.524   6.259
10769SOL    HW133206   1.677   3.505   6.303
10769SOL    HW233207   1.819   3.441   6.255
10770SOL     OW33208   4.773   6.153   3.131
10770SOL    HW133209   4.768   6.181   3.227
10770SOL    HW233210   4.859   6.104   3.116
10771SOL     OW33211   3.139   0.434   3.582
10771SOL    HW133212   3.112   0.424   3.487
10771SOL    HW233213   3.057   0.440   3.639
10772SOL     OW33214   6.343   5.827   3.674
10772SOL    HW133215   6.270   5.835   3.606
10772SOL    HW233216   6.404   5.752   3.648
10773SOL     OW33217   5.219   5.132   4.045
10773SOL    HW133218   5.128   5.112   4.082
10773SOL    HW233219   5.224   5.101   3.950
10774SOL     OW33220   1.401   1.213   4.194
10774SOL    HW133221   1.334   1.194   4.122
10774SOL    HW233222   1.374   1.295   4.244
10775SOL     OW33223   0.493   4.193   1.935
10775SOL    HW133224   0.409   4.157   1.977
10775SOL    HW233225   0.519   4.279   1.979
10776SOL     OW33226   1.992   0.287   0.145
10776SOL    HW133227   2.029   0.204   0.103
10776SOL    HW233228   2.066   0.339   0.187
10777SOL     OW33229   3.541   6.361   1.425
10777SOL    HW133230   3.560   6.378   1.328
10777SOL    HW233231   3.597   6.285   1.457
10778SOL     OW33232   6.043   6.111   3.324
10778SOL    HW133233   6.006   6.073   3.409
10778SOL    HW233234   6.099   6.191   3.345
10779SOL     OW33235   5.801   2.251   3.136
10779SOL    HW133236   5.797   2.292   3.045
10779SOL    HW233237   5.753   2.309   3.201
10780SOL     OW33238   0.959   1.474   3.282
10780SOL    HW133239   0.972   1.569   3.310
10780SOL    HW233240   1.042   1.440   3.239
10781SOL     OW33241   3.256   0.255   4.269
10781SOL    HW133242   3.217   0.315   4.198
10781SOL    HW233243   3.270   0.308   4.353
10782SOL     OW33244   6.445   6.268   4.558
10782SOL    HW133245   6.532   6.314   4.543
10782SOL    HW233246   6.373   6.318   4.509
10783SOL     OW33247   6.904   2.075   2.640
10783SOL    HW133248   6.838   2.151   2.637
10783SOL    HW233249   6.937   2.064   2.734
10784SOL     OW33250   2.520   1.234   4.020
10784SOL    HW133251   2.530   1.159   3.955
10784SOL    HW233252   2.530   1.200   4.113
10785SOL     OW33253   0.394   4.043   0.070
10785SOL    HW133254   0.366   3.964   0.015
10785SOL    HW233255   0.469   4.016   0.130
10786SOL     OW33256   0.106   5.484   3.318
10786SOL    HW133257   0.036   5.550   3.291
10786SOL    HW233258   0.063   5.396   3.336
10787SOL     OW33259   2.017   2.277   5.134
10787SOL    HW133260   2.061   2.348   5.190
10787SOL    HW233261   2.014   2.192   5.186
10788SOL     OW33262   6.284   4.052   5.927
10788SOL    HW133263   6.318   3.968   5.885
10788SOL    HW233264   6.352   4.089   5.990
10789SOL     OW33265   6.511   1.903   0.200
10789SOL    HW133266   6.547   1.996   0.188
10789SOL    HW233267   6.571   1.853   0.262
10790SOL     OW33268   6.881   0.122   2.801
10790SOL    HW133269   6.920   0.030   2.798
10790SOL    HW233270   6.805   0.128   2.737
10791SOL     OW33271   6.659   6.192   2.603
10791SOL    HW133272   6.567   6.199   2.566
10791SOL    HW233273   6.711   6.123   2.552
10792SOL     OW33274   3.926   3.945   4.933
10792SOL    HW133275   4.017   3.971   4.965
10792SOL    HW233276   3.866   4.025   4.934
10793SOL     OW33277   5.462   3.199   4.900
10793SOL    HW133278   5.523   3.131   4.860
10793SOL    HW233279   5.449   3.274   4.835
10794SOL     OW33280   3.225   3.508   3.934
10794SOL    HW133281   3.280   3.425   3.945
10794SOL    HW233282   3.131   3.484   3.909
10795SOL     OW33283   1.100   4.144   3.064
10795SOL    HW133284   1.116   4.233   3.020
10795SOL    HW233285   1.187   4.098   3.079
10796SOL     OW33286   1.271   5.569   5.051
10796SOL    HW133287   1.358   5.554   5.097
10796SOL    HW233288   1.279   5.648   4.991
10797SOL     OW33289   3.526   2.849   0.739
10797SOL    HW133290   3.577   2.766   0.762
10797SOL    HW233291   3.589   2.917   0.700
10798SOL     OW33292   0.704   1.728   0.580
10798SOL    HW133293   0.785   1.672   0.596
10798SOL    HW233294   0.628   1.693   0.636
10799SOL     OW33295   4.376   1.428   2.476
10799SOL    HW133296   4.467   1.428   2.434
10799SOL    HW233297   4.308   1.409   2.405
10800SOL     OW33298   1.108   6.708   0.291
10800SOL    HW133299   1.064   6.649   0.359
10800SOL    HW233300   1.172   6.769   0.336
10801SOL     OW33301   1.430   1.109   0.855
10801SOL    HW133302   1.434   1.172   0.777
10801SOL    HW233303   1.436   1.015   0.822
10802SOL     OW33304   6.017   0.032   3.691
10802SOL    HW133305   6.032   0.113   3.633
10802SOL    HW233306   6.078   0.036   3.769
10803SOL     OW33307   2.321   4.982   6.889
10803SOL    HW133308   2.360   5.073   6.875
10803SOL    HW233309   2.359   4.918   6.822
10804SOL     OW33310   6.913   3.353   3.630
10804SOL    HW133311   6.978   3.319   3.562
10804SOL    HW233312   6.950   3.336   3.722
10805SOL     OW33313   6.130   0.904   5.594
10805SOL    HW133314   6.038   0.937   5.574
10805SOL    HW233315   6.187   0.915   5.512
10806SOL     OW33316   1.879   4.734   6.766
10806SOL    HW133317   1.803   4.792   6.737
10806SOL    HW233318   1.920   4.773   6.848
10807SOL     OW33319   2.634   6.291   4.214
10807SOL    HW133320   2.729   6.307   4.241
10807SOL    HW233321   2.599   6.371   4.166
10808SOL     OW33322   0.425   2.549   6.104
10808SOL    HW133323   0.506   2.546   6.046
10808SOL    HW233324   0.361   2.477   6.075
10809SOL     OW33325   2.224   5.859   4.688
10809SOL    HW133326   2.234   5.909   4.775
10809SOL    HW233327   2.134   5.816   4.685
10810SOL     OW33328   0.072   0.104   4.409
10810SOL    HW133329   0.113   0.180   4.459
10810SOL    HW233330   0.035   0.137   4.322
10811SOL     OW33331   5.135   5.043   5.540
10811SOL    HW133332   5.069   5.054   5.465
10811SOL    HW233333   5.176   4.952   5.534
10812SOL     OW33334   6.684   2.759   6.932
10812SOL    HW133335   6.756   2.694   6.960
10812SOL    HW233336   6.609   2.708   6.890
10813SOL     OW33337   0.320   3.992   6.383
10813SOL    HW133338   0.366   4.070   6.340
10813SOL    HW233339   0.223   4.013   6.393
10814SOL     OW33340   2.477   0.624   1.178
10814SOL    HW133341   2.517   0.713   1.201
10814SOL    HW233342   2.410   0.599   1.247
10815SOL     OW33343   5.045   1.115   4.429
10815SOL    HW133344   5.061   1.116   4.528
10815SOL    HW233345   5.068   1.025   4.393
10816SOL     OW33346   4.019   3.253   3.637
10816SOL    HW133347   4.061   3.212   3.555
10816SOL    HW233348   3.943   3.311   3.609
10817SOL     OW33349   2.936   6.878   3.142
10817SOL    HW133350   2.960   6.842   3.232
10817SOL    HW233351   3.019   6.906   3.094
10818SOL     OW33352   4.600   5.334   6.155
10818SOL    HW133353   4.543   5.416   6.166
10818SOL    HW233354   4.553   5.256   6.196
10819SOL     OW33355   6.706   5.690   6.186
10819SOL    HW133356   6.675   5.654   6.098
10819SOL    HW233357   6.672   5.783   6.198
10820SOL     OW33358   2.804   4.621   5.949
10820SOL    HW133359   2.871   4.690   5.975
10820SOL    HW233360   2.841   4.530   5.968
10821SOL     OW33361   4.845   5.239   3.494
10821SOL    HW133362   4.846   5.318   3.433
10821SOL    HW233363   4.910   5.171   3.460
10822SOL     OW33364   5.692   2.546   1.473
10822SOL    HW133365   5.663   2.620   1.534
10822SOL    HW233366   5.612   2.494   1.444
10823SOL     OW33367   6.474   6.456   2.601
10823SOL    HW133368   6.526   6.446   2.516
10823SOL    HW233369   6.376   6.460   2.580
10824SOL     OW33370   0.794   2.312   4.172
10824SOL    HW133371   0.800   2.403   4.131
10824SOL    HW233372   0.757   2.248   4.104
10825SOL     OW33373   0.902   1.815   0.369
10825SOL    HW133374   0.950   1.778   0.448
10825SOL    HW233375   0.816   1.766   0.356
10826SOL     OW33376   0.866   2.795   2.520
10826SOL    HW133377   0.830   2.847   2.598
10826SOL    HW233378   0.964   2.783   2.531
10827SOL     OW33379   7.006   3.417   4.759
10827SOL    HW133380   0.013   3.353   4.831
10827SOL    HW233381   6.990   3.366   4.675
10828SOL     OW33382   6.229   5.189   5.686
10828SOL    HW133383   6.193   5.178   5.779
10828SOL    HW233384   6.239   5.098   5.645
10829SOL     OW33385   3.983   3.620   5.377
10829SOL    HW133386   3.954   3.595   5.469
10829SOL    HW233387   3.976   3.541   5.317
10830SOL     OW33388   4.729   1.219   3.730
10830SOL    HW133389   4.676   1.218   3.816
10830SOL    HW233390   4.666   1.233   3.653
10831SOL     OW33391   4.101   1.003   3.080
10831SOL    HW133392   4.199   0.994   3.100
10831SOL    HW233393   4.054   0.919   3.108
10832SOL     OW33394   0.187   3.586   0.404
10832SOL    HW133395   0.094   3.558   0.425
10832SOL    HW233396   0.240   3.506   0.374
10833SOL     OW33397   0.525   1.073   0.185
10833SOL    HW133398   0.603   1.097   0.127
10833SOL    HW233399   0.469   1.154   0.201
10834SOL     OW33400   6.976   6.646   0.898
10834SOL    HW133401   7.020   6.700   0.826
10834SOL    HW233402   6.877   6.651   0.887
10835SOL     OW33403   6.853   2.648   6.071
10835SOL    HW133404   6.901   2.567   6.103
10835SOL    HW233405   6.847   2.715   6.145
10836SOL     OW33406   0.148   1.820   3.766
10836SOL    HW133407   0.054   1.854   3.758
10836SOL    HW233408   0.190   1.857   3.850
10837SOL     OW33409   0.344   4.026   3.116
10837SOL    HW133410   0.325   4.109   3.064
10837SOL    HW233411   0.437   4.028   3.151
10838SOL     OW33412   6.969   5.677   3.238
10838SOL    HW133413   6.974   5.777   3.245
10838SOL    HW233414   6.876   5.647   3.259
10839SOL     OW33415   4.782   2.895   1.273
10839SOL    HW133416   4.718   2.843   1.217
10839SOL    HW233417   4.860   2.924   1.217
10840SOL     OW33418   3.239   0.858   1.202
10840SOL    HW133419   3.197   0.806   1.276
10840SOL    HW233420   3.335   0.876   1.225
10841SOL     OW33421   1.524   5.232   5.115
10841SOL    HW133422   1.449   5.206   5.055
10841SOL    HW233423   1.496   5.309   5.172
10842SOL     OW33424   5.241   4.341   0.592
10842SOL    HW133425   5.146   4.317   0.571
10842SOL    HW233426   5.261   4.432   0.557
10843SOL     OW33427   2.455   2.337   1.585
10843SOL    HW133428   2.522   2.321   1.658
10843SOL    HW233429   2.486   2.292   1.501
10844SOL     OW33430   1.305   5.406   5.441
10844SOL    HW133431   1.252   5.331   5.480
10844SOL    HW233432   1.245   5.485   5.425
10845SOL     OW33433   4.469   6.555   5.205
10845SOL    HW133434   4.512   6.493   5.140
10845SOL    HW233435   4.420   6.503   5.275
10846SOL     OW33436   5.183   0.851   0.347
10846SOL    HW133437   5.175   0.797   0.430
10846SOL    HW233438   5.232   0.799   0.277
10847SOL     OW33439   1.737   1.132   0.001
10847SOL    HW133440   1.824   1.179   0.008
10847SOL    HW233441   1.685   1.168   6.945
10848SOL     OW33442   1.769   4.479   1.822
10848SOL    HW133443   1.693   4.456   1.762
10848SOL    HW233444   1.833   4.402   1.827
10849SOL     OW33445   2.586   6.291   3.662
10849SOL    HW133446   2.634   6.289   3.749
10849SOL    HW233447   2.487   6.287   3.678
10850SOL     OW33448   3.136   5.712   0.316
10850SOL    HW133449   3.228   5.702   0.353
10850SOL    HW233450   3.079   5.637   0.350
10851SOL     OW33451   2.122   5.129   1.150
10851SOL    HW133452   2.132   5.148   1.248
10851SOL    HW233453   2.036   5.171   1.117
10852SOL     OW33454   1.974   1.749   1.458
10852SOL    HW133455   1.884   1.708   1.444
10852SOL    HW233456   2.017   1.709   1.539
10853SOL     OW33457   2.679   2.003   5.984
10853SOL    HW133458   2.677   1.918   5.931
10853SOL    HW233459   2.771   2.017   6.021
10854SOL     OW33460   3.960   6.131   5.662
10854SOL    HW133461   3.884   6.195   5.668
10854SOL    HW233462   3.936   6.046   5.709
10855SOL     OW33463   3.567   1.673   7.020
10855SOL    HW133464   3.612   1.747   0.047
10855SOL    HW233465   3.625   1.591   0.001
10856SOL     OW33466   0.481   0.805   0.145
10856SOL    HW133467   0.384   0.785   0.151
10856SOL    HW233468   0.498   0.898   0.177
10857SOL     OW33469   6.279   2.501   2.478
10857SOL    HW133470   6.216   2.447   2.533
10857SOL    HW233471   6.373   2.484   2.507
10858SOL     OW33472   2.602   6.210   2.104
10858SOL    HW133473   2.674   6.253   2.158
10858SOL    HW233474   2.551   6.280   2.054
10859SOL     OW33475   1.682   5.411   3.489
10859SOL    HW133476   1.676   5.506   3.518
10859SOL    HW233477   1.631   5.353   3.552
10860SOL     OW33478   0.035   2.516   3.521
10860SOL    HW133479   6.962   2.512   3.490
10860SOL    HW233480   0.087   2.576   3.461
10861SOL     OW33481   3.752   3.121   4.448
10861SOL    HW133482   3.694   3.058   4.499
10861SOL    HW233483   3.804   3.071   4.379
10862SOL     OW33484   1.553   0.566   4.560
10862SOL    HW133485   1.478   0.587   4.623
10862SOL    HW233486   1.547   0.625   4.479
10863SOL     OW33487   3.100   5.764   4.717
10863SOL    HW133488   3.010   5.801   4.692
10863SOL    HW233489   3.088   5.694   4.787
10864SOL     OW33490   3.338   6.105   2.546
10864SOL    HW133491   3.250   6.133   2.507
10864SOL    HW233492   3.328   6.017   2.592
10865SOL     OW33493   5.995   2.363   6.063
10865SOL    HW133494   5.968   2.343   6.157
10865SOL    HW233495   5.914   2.385   6.009
10866SOL     OW33496   5.625   4.895   0.498
10866SOL    HW133497   5.620   4.903   0.598
10866SOL    HW233498   5.644   4.800   0.473
10867SOL     OW33499   3.406   2.693   0.440
10867SOL    HW133500   3.322   2.656   0.481
10867SOL    HW233501   3.483   2.677   0.502
10868SOL     OW33502   2.988   1.805   2.696
10868SOL    HW133503   3.035   1.751   2.625
10868SOL    HW233504   2.897   1.766   2.712
10869NA      NA33505   6.430   2.323   5.962
10870NA      NA33506   4.353   4.672   5.186
10871NA      NA33507   2.523   3.622   1.452
10872NA      NA33508   4.952   3.596   5.162
10873NA      NA33509   4.229   2.422   5.316
10874NA      NA33510   3.631   4.799   1.723
10875NA      NA33511   6.659   5.892   5.228
10876NA      NA33512   3.909   3.719   4.904
10877NA      NA33513   4.537   6.909   0.085
10878NA      NA33514   4.020   6.807   5.222
10879NA      NA33515   6.918   4.868   2.769
10880NA      NA33516   2.690   0.641   2.998
10881NA      NA33517   3.623   4.182   0.972
10882NA      NA33518   3.378   3.541   2.868
   7.02231   7.02231   7.02231
