Generated by trjconv : CNT in water t= 481.00000
33518
    1C        C    1   2.843   2.767   4.746
    1C        C    2   2.898   2.716   4.866
    1C        C    3   2.839   2.769   4.981
    1C        C    4   2.845   2.766   4.260
    1C        C    5   2.896   2.720   4.384
    1C        C    6   2.844   2.770   4.506
    1C        C    7   3.012   2.635   4.625
    1C        C    8   2.898   2.718   4.626
    1C        C    9   3.075   2.599   4.746
    1C        C   10   3.010   2.631   4.867
    1C        C   11   3.183   2.492   4.976
    1C        C   12   3.063   2.565   4.978
    1C        C   13   2.843   2.763   3.770
    1C        C   14   2.896   2.717   3.893
    1C        C   15   2.846   2.767   4.015
    1C        C   16   3.015   2.640   4.137
    1C        C   17   2.900   2.722   4.138
    1C        C   18   3.077   2.607   4.260
    1C        C   19   3.014   2.643   4.381
    1C        C   20   3.206   2.550   4.502
    1C        C   21   3.075   2.602   4.502
    1C        C   22   3.276   2.530   4.623
    1C        C   23   3.209   2.549   4.745
    1C        C   24   3.414   2.486   4.865
    1C        C   25   3.272   2.503   4.864
    1C        C   26   3.490   2.487   4.982
    1C        C   27   2.841   2.759   3.280
    1C        C   28   2.896   2.715   3.403
    1C        C   29   2.841   2.761   3.525
    1C        C   30   3.012   2.636   3.649
    1C        C   31   2.897   2.717   3.647
    1C        C   32   3.072   2.597   3.771
    1C        C   33   3.011   2.635   3.893
    1C        C   34   3.207   2.551   4.015
    1C        C   35   3.077   2.607   4.014
    1C        C   36   3.276   2.534   4.137
    1C        C   37   3.207   2.553   4.258
    1C        C   38   3.415   2.510   4.380
    1C        C   39   3.275   2.531   4.380
    1C        C   40   3.487   2.501   4.501
    1C        C   41   3.415   2.505   4.623
    1C        C   42   3.629   2.486   4.743
    1C        C   43   3.487   2.484   4.743
    1C        C   44   3.705   2.487   4.862
    1C        C   45   3.629   2.481   4.980
    1C        C   46   2.830   2.748   2.793
    1C        C   47   2.884   2.701   2.915
    1C        C   48   2.838   2.754   3.037
    1C        C   49   3.009   2.627   3.160
    1C        C   50   2.897   2.714   3.159
    1C        C   51   3.074   2.598   3.282
    1C        C   52   3.013   2.637   3.404
    1C        C   53   3.202   2.542   3.528
    1C        C   54   3.073   2.599   3.527
    1C        C   55   3.274   2.522   3.648
    1C        C   56   3.203   2.544   3.768
    1C        C   57   3.410   2.504   3.891
    1C        C   58   3.270   2.527   3.891
    1C        C   59   3.483   2.503   4.012
    1C        C   60   3.415   2.507   4.136
    1C        C   61   3.627   2.504   4.256
    1C        C   62   3.485   2.502   4.258
    1C        C   63   3.697   2.514   4.378
    1C        C   64   3.628   2.508   4.500
    1C        C   65   3.834   2.549   4.618
    1C        C   66   3.699   2.506   4.622
    1C        C   67   3.903   2.567   4.740
    1C        C   68   3.840   2.528   4.860
    1C        C   69   4.054   2.577   4.975
    1C        C   70   3.923   2.526   4.973
    1C        C   71   2.819   2.732   2.306
    1C        C   72   2.881   2.696   2.428
    1C        C   73   2.829   2.746   2.549
    1C        C   74   3.001   2.624   2.671
    1C        C   75   2.882   2.699   2.672
    1C        C   76   3.064   2.589   2.792
    1C        C   77   3.006   2.630   2.915
    1C        C   78   3.197   2.535   3.038
    1C        C   79   3.068   2.593   3.037
    1C        C   80   3.267   2.518   3.159
    1C        C   81   3.202   2.540   3.283
    1C        C   82   3.409   2.498   3.401
    1C        C   83   3.269   2.517   3.406
    1C        C   84   3.479   2.493   3.523
    1C        C   85   3.414   2.501   3.648
    1C        C   86   3.625   2.503   3.767
    1C        C   87   3.484   2.496   3.771
    1C        C   88   3.695   2.513   3.889
    1C        C   89   3.624   2.509   4.011
    1C        C   90   3.832   2.554   4.134
    1C        C   91   3.695   2.518   4.133
    1C        C   92   3.901   2.574   4.255
    1C        C   93   3.834   2.547   4.377
    1C        C   94   4.029   2.638   4.498
    1C        C   95   3.902   2.575   4.498
    1C        C   96   4.092   2.671   4.620
    1C        C   97   4.032   2.627   4.740
    1C        C   98   4.189   2.763   4.863
    1C        C   99   4.102   2.650   4.861
    1C        C  100   4.215   2.838   4.979
    1C        C  101   2.816   2.727   2.070
    1C        C  102   2.987   2.589   2.189
    1C        C  103   2.870   2.672   2.187
    1C        C  104   3.060   2.573   2.310
    1C        C  105   3.000   2.619   2.429
    1C        C  106   3.193   2.528   2.549
    1C        C  107   3.063   2.585   2.550
    1C        C  108   3.264   2.517   2.671
    1C        C  109   3.195   2.536   2.793
    1C        C  110   3.404   2.501   2.913
    1C        C  111   3.264   2.518   2.915
    1C        C  112   3.477   2.497   3.034
    1C        C  113   3.407   2.500   3.157
    1C        C  114   3.620   2.505   3.277
    1C        C  115   3.479   2.494   3.278
    1C        C  116   3.689   2.520   3.399
    1C        C  117   3.620   2.509   3.522
    1C        C  118   3.828   2.553   3.644
    1C        C  119   3.691   2.518   3.644
    1C        C  120   3.893   2.581   3.766
    1C        C  121   3.831   2.552   3.889
    1C        C  122   4.025   2.639   4.011
    1C        C  123   3.899   2.575   4.011
    1C        C  124   4.088   2.674   4.132
    1C        C  125   4.029   2.634   4.255
    1C        C  126   4.203   2.759   4.376
    1C        C  127   4.091   2.673   4.376
    1C        C  128   4.249   2.813   4.498
    1C        C  129   4.199   2.764   4.620
    1C        C  130   4.329   2.931   4.742
    1C        C  131   4.243   2.817   4.743
    1C        C  132   4.356   3.001   4.862
    1C        C  133   4.288   2.956   4.976
    1C        C  134   3.170   2.468   2.080
    1C        C  135   3.038   2.513   2.079
    1C        C  136   3.257   2.479   2.189
    1C        C  137   3.192   2.521   2.308
    1C        C  138   3.401   2.481   2.427
    1C        C  139   3.261   2.498   2.429
    1C        C  140   3.474   2.485   2.548
    1C        C  141   3.404   2.499   2.669
    1C        C  142   3.616   2.501   2.790
    1C        C  143   3.475   2.496   2.791
    1C        C  144   3.689   2.510   2.911
    1C        C  145   3.618   2.501   3.034
    1C        C  146   3.829   2.540   3.154
    1C        C  147   3.691   2.509   3.154
    1C        C  148   3.896   2.565   3.276
    1C        C  149   3.828   2.547   3.399
    1C        C  150   4.024   2.630   3.522
    1C        C  151   3.895   2.572   3.521
    1C        C  152   4.084   2.672   3.643
    1C        C  153   4.022   2.640   3.766
    1C        C  154   4.197   2.760   3.886
    1C        C  155   4.085   2.673   3.888
    1C        C  156   4.249   2.808   4.008
    1C        C  157   4.199   2.761   4.132
    1C        C  158   4.346   2.915   4.252
    1C        C  159   4.254   2.807   4.254
    1C        C  160   4.376   2.982   4.373
    1C        C  161   4.332   2.927   4.495
    1C        C  162   4.437   3.109   4.619
    1C        C  163   4.369   2.985   4.618
    1C        C  164   4.469   3.180   4.736
    1C        C  165   4.433   3.119   4.859
    1C        C  166   4.515   3.317   4.974
    1C        C  167   4.483   3.181   4.974
    1C        C  168   3.476   2.441   2.072
    1C        C  169   3.396   2.452   2.186
    1C        C  170   3.613   2.470   2.307
    1C        C  171   3.471   2.462   2.306
    1C        C  172   3.688   2.489   2.424
    1C        C  173   3.615   2.493   2.545
    1C        C  174   3.822   2.542   2.666
    1C        C  175   3.684   2.510   2.667
    1C        C  176   3.890   2.565   2.788
    1C        C  177   3.825   2.545   2.912
    1C        C  178   4.025   2.624   3.031
    1C        C  179   3.896   2.565   3.032
    1C        C  180   4.083   2.663   3.153
    1C        C  181   4.021   2.631   3.276
    1C        C  182   4.191   2.754   3.396
    1C        C  183   4.082   2.664   3.398
    1C        C  184   4.250   2.799   3.517
    1C        C  185   4.200   2.753   3.640
    1C        C  186   4.340   2.912   3.764
    1C        C  187   4.249   2.804   3.762
    1C        C  188   4.383   2.973   3.884
    1C        C  189   4.340   2.916   4.006
    1C        C  190   4.444   3.099   4.128
    1C        C  191   4.384   2.971   4.128
    1C        C  192   4.468   3.168   4.249
    1C        C  193   4.439   3.108   4.374
    1C        C  194   4.502   3.310   4.493
    1C        C  195   4.463   3.175   4.496
    1C        C  196   4.523   3.383   4.612
    1C        C  197   4.512   3.315   4.736
    1C        C  198   4.553   3.531   4.848
    1C        C  199   4.530   3.390   4.855
    1C        C  200   4.583   3.618   4.958
    1C        C  201   3.615   2.424   2.073
    1C        C  202   3.824   2.517   2.181
    1C        C  203   3.688   2.470   2.186
    1C        C  204   3.894   2.547   2.301
    1C        C  205   3.824   2.529   2.422
    1C        C  206   4.018   2.619   2.541
    1C        C  207   3.889   2.561   2.543
    1C        C  208   4.079   2.656   2.663
    1C        C  209   4.017   2.627   2.787
    1C        C  210   4.197   2.744   2.907
    1C        C  211   4.082   2.663   2.907
    1C        C  212   4.254   2.789   3.028
    1C        C  213   4.197   2.747   3.150
    1C        C  214   4.333   2.909   3.272
    1C        C  215   4.242   2.801   3.273
    1C        C  216   4.375   2.966   3.394
    1C        C  217   4.345   2.905   3.518
    1C        C  218   4.444   3.093   3.638
    1C        C  219   4.380   2.967   3.640
    1C        C  220   4.467   3.163   3.758
    1C        C  221   4.442   3.101   3.883
    1C        C  222   4.504   3.303   4.004
    1C        C  223   4.469   3.166   4.006
    1C        C  224   4.518   3.375   4.124
    1C        C  225   4.502   3.305   4.246
    1C        C  226   4.516   3.517   4.367
    1C        C  227   4.511   3.376   4.368
    1C        C  228   4.512   3.593   4.486
    1C        C  229   4.520   3.524   4.609
    1C        C  230   4.502   3.740   4.724
    1C        C  231   4.533   3.602   4.726
    1C        C  232   4.493   3.818   4.842
    1C        C  233   4.544   3.753   4.954
    1C        C  234   4.017   2.609   2.063
    1C        C  235   3.892   2.547   2.063
    1C        C  236   4.089   2.640   2.179
    1C        C  237   4.024   2.605   2.299
    1C        C  238   4.199   2.732   2.419
    1C        C  239   4.082   2.651   2.420
    1C        C  240   4.256   2.777   2.540
    1C        C  241   4.197   2.734   2.661
    1C        C  242   4.337   2.896   2.783
    1C        C  243   4.245   2.789   2.782
    1C        C  244   4.382   2.955   2.903
    1C        C  245   4.343   2.899   3.027
    1C        C  246   4.442   3.087   3.147
    1C        C  247   4.380   2.960   3.149
    1C        C  248   4.462   3.156   3.269
    1C        C  249   4.434   3.095   3.393
    1C        C  250   4.493   3.298   3.514
    1C        C  251   4.464   3.160   3.515
    1C        C  252   4.509   3.368   3.636
    1C        C  253   4.501   3.300   3.759
    1C        C  254   4.518   3.512   3.879
    1C        C  255   4.512   3.371   3.880
    1C        C  256   4.509   3.584   4.000
    1C        C  257   4.517   3.516   4.124
    1C        C  258   4.482   3.727   4.242
    1C        C  259   4.509   3.589   4.245
    1C        C  260   4.470   3.800   4.363
    1C        C  261   4.485   3.732   4.485
    1C        C  262   4.420   3.939   4.603
    1C        C  263   4.472   3.808   4.604
    1C        C  264   4.394   4.010   4.722
    1C        C  265   4.432   3.946   4.842
    1C        C  266   4.314   4.130   4.958
    1C        C  267   4.389   4.013   4.957
    1C        C  268   4.264   2.776   2.059
    1C        C  269   4.199   2.729   2.174
    1C        C  270   4.346   2.883   2.299
    1C        C  271   4.253   2.776   2.296
    1C        C  272   4.384   2.948   2.418
    1C        C  273   4.344   2.887   2.539
    1C        C  274   4.442   3.077   2.657
    1C        C  275   4.383   2.949   2.660
    1C        C  276   4.467   3.146   2.778
    1C        C  277   4.442   3.082   2.902
    1C        C  278   4.505   3.286   3.023
    1C        C  279   4.472   3.148   3.023
    1C        C  280   4.511   3.358   3.144
    1C        C  281   4.497   3.293   3.268
    1C        C  282   4.509   3.505   3.389
    1C        C  283   4.502   3.364   3.390
    1C        C  284   4.508   3.578   3.510
    1C        C  285   4.510   3.510   3.633
    1C        C  286   4.481   3.719   3.754
    1C        C  287   4.506   3.580   3.756
    1C        C  288   4.462   3.789   3.876
    1C        C  289   4.480   3.723   3.999
    1C        C  290   4.422   3.929   4.117
    1C        C  291   4.466   3.795   4.119
    1C        C  292   4.391   3.997   4.237
    1C        C  293   4.424   3.934   4.360
    1C        C  294   4.323   4.125   4.477
    1C        C  295   4.389   4.000   4.479
    1C        C  296   4.287   4.191   4.597
    1C        C  297   4.324   4.134   4.720
    1C        C  298   4.192   4.310   4.837
    1C        C  299   4.273   4.192   4.840
    1C        C  300   4.165   4.399   4.946
    1C        C  301   4.354   2.882   2.058
    1C        C  302   4.465   3.066   2.173
    1C        C  303   4.395   2.941   2.178
    1C        C  304   4.484   3.137   2.295
    1C        C  305   4.453   3.071   2.415
    1C        C  306   4.508   3.280   2.536
    1C        C  307   4.473   3.143   2.535
    1C        C  308   4.513   3.353   2.657
    1C        C  309   4.502   3.283   2.779
    1C        C  310   4.523   3.496   2.899
    1C        C  311   4.517   3.355   2.900
    1C        C  312   4.511   3.567   3.021
    1C        C  313   4.510   3.500   3.145
    1C        C  314   4.477   3.713   3.263
    1C        C  315   4.500   3.573   3.265
    1C        C  316   4.465   3.784   3.384
    1C        C  317   4.483   3.717   3.507
    1C        C  318   4.420   3.918   3.627
    1C        C  319   4.468   3.785   3.630
    1C        C  320   4.384   3.981   3.748
    1C        C  321   4.410   3.920   3.872
    1C        C  322   4.321   4.114   3.990
    1C        C  323   4.389   3.990   3.994
    1C        C  324   4.279   4.172   4.111
    1C        C  325   4.320   4.118   4.236
    1C        C  326   4.186   4.288   4.354
    1C        C  327   4.280   4.182   4.355
    1C        C  328   4.132   4.339   4.474
    1C        C  329   4.189   4.293   4.594
    1C        C  330   4.021   4.432   4.714
    1C        C  331   4.137   4.350   4.713
    1C        C  332   3.968   4.489   4.832
    1C        C  333   4.048   4.477   4.946
    1C        C  334   4.553   3.266   2.062
    1C        C  335   4.534   3.127   2.063
    1C        C  336   4.530   3.348   2.173
    1C        C  337   4.517   3.276   2.293
    1C        C  338   4.519   3.490   2.412
    1C        C  339   4.517   3.349   2.414
    1C        C  340   4.516   3.564   2.533
    1C        C  341   4.513   3.494   2.656
    1C        C  342   4.488   3.706   2.774
    1C        C  343   4.509   3.566   2.778
    1C        C  344   4.468   3.777   2.895
    1C        C  345   4.483   3.705   3.016
    1C        C  346   4.415   3.908   3.136
    1C        C  347   4.463   3.775   3.137
    1C        C  348   4.389   3.975   3.257
    1C        C  349   4.422   3.919   3.382
    1C        C  350   4.318   4.103   3.501
    1C        C  351   4.394   3.984   3.504
    1C        C  352   4.272   4.160   3.622
    1C        C  353   4.312   4.103   3.745
    1C        C  354   4.179   4.268   3.867
    1C        C  355   4.278   4.167   3.866
    1C        C  356   4.122   4.317   3.987
    1C        C  357   4.179   4.272   4.108
    1C        C  358   4.016   4.408   4.228
    1C        C  359   4.131   4.326   4.230
    1C        C  360   3.953   4.447   4.348
    1C        C  361   4.016   4.420   4.472
    1C        C  362   3.826   4.519   4.591
    1C        C  363   3.955   4.462   4.592
    1C        C  364   3.761   4.544   4.713
    1C        C  365   3.836   4.539   4.832
    1C        C  366   3.628   4.589   4.948
    1C        C  367   3.766   4.574   4.948
    1C        C  368   4.505   3.563   2.054
    1C        C  369   4.519   3.489   2.172
    1C        C  370   4.503   3.703   2.287
    1C        C  371   4.520   3.563   2.291
    1C        C  372   4.483   3.773   2.408
    1C        C  373   4.499   3.704   2.530
    1C        C  374   4.418   3.903   2.647
    1C        C  375   4.473   3.773   2.651
    1C        C  376   4.385   3.969   2.767
    1C        C  377   4.421   3.910   2.891
    1C        C  378   4.321   4.096   3.012
    1C        C  379   4.394   3.975   3.013
    1C        C  380   4.272   4.151   3.133
    1C        C  381   4.314   4.095   3.255
    1C        C  382   4.179   4.258   3.375
    1C        C  383   4.277   4.156   3.377
    1C        C  384   4.129   4.311   3.497
    1C        C  385   4.176   4.264   3.621
    1C        C  386   4.006   4.388   3.742
    1C        C  387   4.123   4.309   3.744
    1C        C  388   3.942   4.427   3.861
    1C        C  389   4.005   4.395   3.984
    1C        C  390   3.819   4.490   4.105
    1C        C  391   3.949   4.434   4.107
    1C        C  392   3.751   4.513   4.226
    1C        C  393   3.821   4.498   4.348
    1C        C  394   3.617   4.554   4.471
    1C        C  395   3.757   4.534   4.469
    1C        C  396   3.546   4.568   4.593
    1C        C  397   3.621   4.564   4.712
    1C        C  398   3.411   4.547   4.836
    1C        C  399   3.548   4.577   4.833
    1C        C  400   3.339   4.518   4.953
    1C        C  401   4.503   3.702   2.049
    1C        C  402   4.455   3.913   2.164
    1C        C  403   4.492   3.777   2.167
    1C        C  404   4.409   3.973   2.283
    1C        C  405   4.432   3.905   2.405
    1C        C  406   4.327   4.093   2.524
    1C        C  407   4.398   3.971   2.525
    1C        C  408   4.281   4.153   2.643
    1C        C  409   4.317   4.093   2.766
    1C        C  410   4.180   4.251   2.887
    1C        C  411   4.280   4.152   2.889
    1C        C  412   4.122   4.298   3.008
    1C        C  413   4.175   4.255   3.132
    1C        C  414   4.005   4.381   3.252
    1C        C  415   4.123   4.303   3.254
    1C        C  416   3.943   4.412   3.375
    1C        C  417   4.009   4.386   3.497
    1C        C  418   3.814   4.472   3.617
    1C        C  419   3.944   4.419   3.618
    1C        C  420   3.745   4.503   3.737
    1C        C  421   3.812   4.483   3.860
    1C        C  422   3.609   4.527   3.985
    1C        C  423   3.749   4.508   3.983
    1C        C  424   3.539   4.535   4.108
    1C        C  425   3.611   4.532   4.230
    1C        C  426   3.401   4.541   4.356
    1C        C  427   3.542   4.548   4.352
    1C        C  428   3.330   4.538   4.478
    1C        C  429   3.405   4.555   4.596
    1C        C  430   3.193   4.520   4.722
    1C        C  431   3.333   4.543   4.717
    1C        C  432   3.122   4.496   4.842
    1C        C  433   3.203   4.493   4.957
    1C        C  434   4.379   4.114   2.052
    1C        C  435   4.447   3.992   2.048
    1C        C  436   4.300   4.158   2.164
    1C        C  437   4.332   4.092   2.285
    1C        C  438   4.180   4.250   2.402
    1C        C  439   4.282   4.152   2.403
    1C        C  440   4.123   4.295   2.523
    1C        C  441   4.178   4.249   2.645
    1C        C  442   4.005   4.374   2.763
    1C        C  443   4.122   4.295   2.766
    1C        C  444   3.941   4.409   2.884
    1C        C  445   4.002   4.372   3.005
    1C        C  446   3.811   4.457   3.130
    1C        C  447   3.943   4.408   3.128
    1C        C  448   3.745   4.484   3.251
    1C        C  449   3.813   4.467   3.374
    1C        C  450   3.607   4.523   3.495
    1C        C  451   3.745   4.492   3.496
    1C        C  452   3.538   4.536   3.618
    1C        C  453   3.607   4.534   3.741
    1C        C  454   3.396   4.539   3.864
    1C        C  455   3.537   4.536   3.864
    1C        C  456   3.327   4.530   3.987
    1C        C  457   3.398   4.537   4.109
    1C        C  458   3.193   4.508   4.235
    1C        C  459   3.331   4.536   4.234
    1C        C  460   3.126   4.485   4.357
    1C        C  461   3.191   4.509   4.480
    1C        C  462   2.995   4.432   4.601
    1C        C  463   3.122   4.493   4.602
    1C        C  464   2.932   4.394   4.722
    1C        C  465   2.990   4.440   4.843
    1C        C  466   2.797   4.340   4.957
    1C        C  467   2.907   4.427   4.959
    1C        C  468   4.122   4.279   2.041
    1C        C  469   4.183   4.241   2.161
    1C        C  470   4.007   4.372   2.277
    1C        C  471   4.126   4.294   2.279
    1C        C  472   3.941   4.402   2.399
    1C        C  473   4.003   4.370   2.521
    1C        C  474   3.812   4.467   2.641
    1C        C  475   3.942   4.410   2.642
    1C        C  476   3.743   4.487   2.762
    1C        C  477   3.812   4.467   2.884
    1C        C  478   3.606   4.510   3.005
    1C        C  479   3.744   4.482   3.008
    1C        C  480   3.536   4.520   3.128
    1C        C  481   3.606   4.512   3.251
    1C        C  482   3.395   4.524   3.376
    1C        C  483   3.536   4.526   3.373
    1C        C  484   3.326   4.523   3.499
    1C        C  485   3.397   4.537   3.620
    1C        C  486   3.188   4.499   3.743
    1C        C  487   3.325   4.534   3.741
    1C        C  488   3.125   4.472   3.867
    1C        C  489   3.190   4.497   3.989
    1C        C  490   2.997   4.422   4.113
    1C        C  491   3.124   4.484   4.114
    1C        C  492   2.937   4.387   4.236
    1C        C  493   2.997   4.429   4.357
    1C        C  494   2.829   4.300   4.480
    1C        C  495   2.934   4.395   4.479
    1C        C  496   2.773   4.253   4.601
    1C        C  497   2.821   4.305   4.723
    1C        C  498   2.663   4.163   4.843
    1C        C  499   2.756   4.269   4.843
    1C        C  500   2.592   4.119   4.955
    1C        C  501   4.003   4.350   2.040
    1C        C  502   3.816   4.464   2.157
    1C        C  503   3.943   4.404   2.155
    1C        C  504   3.743   4.481   2.277
    1C        C  505   3.810   4.454   2.399
    1C        C  506   3.603   4.506   2.517
    1C        C  507   3.743   4.484   2.519
    1C        C  508   3.531   4.516   2.639
    1C        C  509   3.603   4.509   2.761
    1C        C  510   3.393   4.517   2.883
    1C        C  511   3.534   4.512   2.884
    1C        C  512   3.323   4.518   3.006
    1C        C  513   3.395   4.522   3.128
    1C        C  514   3.190   4.488   3.252
    1C        C  515   3.327   4.521   3.252
    1C        C  516   3.125   4.464   3.375
    1C        C  517   3.188   4.491   3.498
    1C        C  518   2.995   4.410   3.624
    1C        C  519   3.122   4.472   3.621
    1C        C  520   2.936   4.375   3.747
    1C        C  521   2.997   4.411   3.869
    1C        C  522   2.832   4.284   3.995
    1C        C  523   2.941   4.374   3.993
    1C        C  524   2.783   4.238   4.119
    1C        C  525   2.833   4.291   4.239
    1C        C  526   2.696   4.129   4.362
    1C        C  527   2.778   4.244   4.361
    1C        C  528   2.657   4.071   4.484
    1C        C  529   2.688   4.140   4.603
    1C        C  530   2.583   3.958   4.730
    1C        C  531   2.641   4.087   4.725
    1C        C  532   2.541   3.900   4.853
    1C        C  533   2.521   3.998   4.955
    1C        C  534   3.616   4.558   2.041
    1C        C  535   3.745   4.504   2.042
    1C        C  536   3.533   4.537   2.155
    1C        C  537   3.604   4.512   2.276
    1C        C  538   3.390   4.518   2.396
    1C        C  539   3.531   4.518   2.396
    1C        C  540   3.319   4.509   2.518
    1C        C  541   3.390   4.514   2.640
    1C        C  542   3.181   4.481   2.763
    1C        C  543   3.320   4.508   2.763
    1C        C  544   3.116   4.466   2.887
    1C        C  545   3.186   4.482   3.008
    1C        C  546   2.994   4.398   3.132
    1C        C  547   3.122   4.459   3.132
    1C        C  548   2.939   4.362   3.257
    1C        C  549   2.996   4.405   3.379
    1C        C  550   2.828   4.280   3.504
    1C        C  551   2.935   4.373   3.502
    1C        C  552   2.778   4.230   3.626
    1C        C  553   2.828   4.283   3.747
    1C        C  554   2.700   4.120   3.873
    1C        C  555   2.783   4.233   3.872
    1C        C  556   2.662   4.063   3.996
    1C        C  557   2.698   4.125   4.118
    1C        C  558   2.594   3.940   4.245
    1C        C  559   2.660   4.065   4.241
    1C        C  560   2.569   3.875   4.367
    1C        C  561   2.595   3.944   4.488
    1C        C  562   2.528   3.746   4.613
    1C        C  563   2.566   3.882   4.612
    1C        C  564   2.510   3.680   4.736
    1C        C  565   2.516   3.759   4.855
    1C        C  566   2.522   3.543   4.974
    1C        C  567   2.519   3.682   4.972
    1C        C  568   3.326   4.473   2.037
    1C        C  569   3.393   4.515   2.153
    1C        C  570   3.181   4.478   2.277
    1C        C  571   3.319   4.512   2.274
    1C        C  572   3.112   4.454   2.398
    1C        C  573   3.183   4.474   2.518
    1C        C  574   2.983   4.404   2.644
    1C        C  575   3.114   4.456   2.641
    1C        C  576   2.924   4.368   2.767
    1C        C  577   2.990   4.401   2.887
    1C        C  578   2.825   4.270   3.013
    1C        C  579   2.933   4.360   3.010
    1C        C  580   2.778   4.222   3.138
    1C        C  581   2.831   4.272   3.259
    1C        C  582   2.692   4.116   3.382
    1C        C  583   2.778   4.228   3.383
    1C        C  584   2.659   4.057   3.506
    1C        C  585   2.694   4.117   3.629
    1C        C  586   2.592   3.933   3.753
    1C        C  587   2.655   4.060   3.753
    1C        C  588   2.576   3.868   3.877
    1C        C  589   2.605   3.934   3.999
    1C        C  590   2.537   3.737   4.124
    1C        C  591   2.571   3.874   4.122
    1C        C  592   2.522   3.669   4.246
    1C        C  593   2.535   3.738   4.369
    1C        C  594   2.511   3.531   4.494
    1C        C  595   2.519   3.672   4.493
    1C        C  596   2.518   3.462   4.616
    1C        C  597   2.516   3.538   4.735
    1C        C  598   2.536   3.326   4.860
    1C        C  599   2.520   3.467   4.857
    1C        C  600   2.539   3.247   4.975
    1C        C  601   3.194   4.434   2.043
    1C        C  602   2.979   4.392   2.154
    1C        C  603   3.113   4.443   2.157
    1C        C  604   2.918   4.362   2.279
    1C        C  605   2.984   4.395   2.400
    1C        C  606   2.814   4.273   2.525
    1C        C  607   2.922   4.364   2.523
    1C        C  608   2.769   4.219   2.647
    1C        C  609   2.817   4.274   2.768
    1C        C  610   2.683   4.113   2.891
    1C        C  611   2.769   4.225   2.891
    1C        C  612   2.654   4.051   3.015
    1C        C  613   2.691   4.111   3.137
    1C        C  614   2.593   3.927   3.263
    1C        C  615   2.650   4.056   3.261
    1C        C  616   2.573   3.863   3.388
    1C        C  617   2.598   3.930   3.510
    1C        C  618   2.535   3.728   3.635
    1C        C  619   2.569   3.865   3.632
    1C        C  620   2.519   3.661   3.759
    1C        C  621   2.534   3.733   3.879
    1C        C  622   2.515   3.524   4.008
    1C        C  623   2.526   3.665   4.003
    1C        C  624   2.517   3.452   4.129
    1C        C  625   2.514   3.527   4.249
    1C        C  626   2.538   3.320   4.375
    1C        C  627   2.513   3.459   4.372
    1C        C  628   2.553   3.251   4.497
    1C        C  629   2.533   3.321   4.618
    1C        C  630   2.596   3.118   4.740
    1C        C  631   2.550   3.253   4.740
    1C        C  632   2.609   3.045   4.861
    1C        C  633   2.555   3.108   4.978
    1C        C  634   2.776   4.308   2.052
    1C        C  635   2.885   4.395   2.046
    1C        C  636   2.748   4.228   2.164
    1C        C  637   2.810   4.270   2.283
    1C        C  638   2.672   4.109   2.407
    1C        C  639   2.760   4.220   2.406
    1C        C  640   2.635   4.050   2.530
    1C        C  641   2.680   4.109   2.650
    1C        C  642   2.582   3.921   2.776
    1C        C  643   2.639   4.051   2.772
    1C        C  644   2.563   3.855   2.899
    1C        C  645   2.591   3.925   3.018
    1C        C  646   2.534   3.723   3.146
    1C        C  647   2.567   3.860   3.141
    1C        C  648   2.523   3.654   3.269
    1C        C  649   2.540   3.726   3.389
    1C        C  650   2.513   3.518   3.516
    1C        C  651   2.525   3.659   3.513
    1C        C  652   2.517   3.451   3.640
    1C        C  653   2.514   3.520   3.763
    1C        C  654   2.538   3.311   3.886
    1C        C  655   2.518   3.451   3.887
    1C        C  656   2.553   3.244   4.009
    1C        C  657   2.535   3.312   4.132
    1C        C  658   2.610   3.116   4.255
    1C        C  659   2.552   3.245   4.256
    1C        C  660   2.638   3.053   4.378
    1C        C  661   2.601   3.118   4.498
    1C        C  662   2.703   2.931   4.625
    1C        C  663   2.630   3.052   4.620
    1C        C  664   2.747   2.872   4.746
    1C        C  665   2.695   2.930   4.865
    1C        C  666   2.738   2.865   4.981
    1C        C  667   2.678   4.021   2.051
    1C        C  668   2.687   4.101   2.166
    1C        C  669   2.584   3.914   2.290
    1C        C  670   2.639   4.045   2.286
    1C        C  671   2.557   3.849   2.412
    1C        C  672   2.583   3.919   2.532
    1C        C  673   2.522   3.717   2.659
    1C        C  674   2.559   3.853   2.654
    1C        C  675   2.508   3.647   2.781
    1C        C  676   2.528   3.718   2.901
    1C        C  677   2.504   3.510   3.028
    1C        C  678   2.517   3.651   3.025
    1C        C  679   2.509   3.440   3.151
    1C        C  680   2.509   3.514   3.272
    1C        C  681   2.531   3.305   3.399
    1C        C  682   2.508   3.445   3.395
    1C        C  683   2.551   3.239   3.522
    1C        C  684   2.538   3.311   3.643
    1C        C  685   2.601   3.108   3.768
    1C        C  686   2.553   3.241   3.765
    1C        C  687   2.633   3.045   3.891
    1C        C  688   2.601   3.111   4.012
    1C        C  689   2.715   2.932   4.138
    1C        C  690   2.637   3.050   4.134
    1C        C  691   2.753   2.873   4.260
    1C        C  692   2.710   2.931   4.382
    1C        C  693   2.750   2.875   4.505
    1C        C  694   2.630   3.889   2.055
    1C        C  695   2.532   3.702   2.174
    1C        C  696   2.578   3.835   2.172
    1C        C  697   2.501   3.637   2.296
    1C        C  698   2.522   3.712   2.414
    1C        C  699   2.492   3.505   2.543
    1C        C  700   2.507   3.645   2.538
    1C        C  701   2.504   3.434   2.664
    1C        C  702   2.505   3.506   2.786
    1C        C  703   2.526   3.297   2.909
    1C        C  704   2.502   3.436   2.909
    1C        C  705   2.550   3.232   3.032
    1C        C  706   2.533   3.301   3.154
    1C        C  707   2.596   3.101   3.279
    1C        C  708   2.550   3.234   3.278
    1C        C  709   2.627   3.039   3.402
    1C        C  710   2.596   3.105   3.523
    1C        C  711   2.705   2.924   3.648
    1C        C  712   2.628   3.042   3.646
    1C        C  713   2.754   2.872   3.770
    1C        C  714   2.711   2.928   3.892
    1C        C  715   2.752   2.872   4.015
    1C        C  716   2.448   3.499   2.062
    1C        C  717   2.494   3.631   2.059
    1C        C  718   2.464   3.421   2.181
    1C        C  719   2.482   3.497   2.300
    1C        C  720   2.515   3.291   2.423
    1C        C  721   2.490   3.430   2.424
    1C        C  722   2.538   3.222   2.544
    1C        C  723   2.523   3.294   2.665
    1C        C  724   2.587   3.092   2.788
    1C        C  725   2.540   3.226   2.788
    1C        C  726   2.621   3.033   2.912
    1C        C  727   2.594   3.097   3.035
    1C        C  728   2.703   2.917   3.157
    1C        C  729   2.624   3.034   3.157
    1C        C  730   2.745   2.862   3.280
    1C        C  731   2.705   2.922   3.402
    1C        C  732   2.748   2.868   3.525
    1C        C  733   2.495   3.199   2.067
    1C        C  734   2.483   3.279   2.182
    1C        C  735   2.578   3.086   2.302
    1C        C  736   2.521   3.216   2.303
    1C        C  737   2.615   3.023   2.423
    1C        C  738   2.588   3.090   2.545
    1C        C  739   2.694   2.908   2.668
    1C        C  740   2.615   3.026   2.667
    1C        C  741   2.733   2.851   2.792
    1C        C  742   2.698   2.915   2.913
    1C        C  743   2.747   2.862   3.034
    1C        C  744   2.551   3.071   2.069
    1C        C  745   2.679   2.893   2.182
    1C        C  746   2.605   3.012   2.184
    1C        C  747   2.725   2.838   2.304
    1C        C  748   2.684   2.900   2.424
    1C        C  749   2.730   2.847   2.546
    1C        C  750   2.727   2.833   2.064
    1C        C  751   3.659   2.303   1.999
    1C        O  752   3.688   2.198   2.064
    1C        O  753   3.667   2.302   1.860
    1C        C  754   4.631   3.048   1.985
    1C        O  755   4.593   3.008   1.871
    1C        O  756   4.713   2.957   2.054
    1C        C  757   4.461   4.225   1.998
    1C        O  758   4.567   4.267   2.052
    1C        O  759   4.431   4.295   1.881
    1C        C  760   3.615   4.693   1.980
    1C        O  761   3.685   4.792   2.013
    1C        O  762   3.574   4.713   1.848
    1C        C  763   2.883   4.504   1.946
    1C        O  764   2.898   4.478   1.823
    1C        O  765   2.821   4.625   1.979
    1C        C  766   2.331   3.480   1.973
    1C        O  767   2.344   3.483   1.848
    1C        O  768   2.198   3.508   2.005
    1C        C  769   4.721   3.611   5.012
    1C        O  770   4.736   3.590   5.135
    1C        O  771   4.833   3.568   4.940
    1C        C  772   4.256   4.426   5.060
    1C        O  773   4.208   4.447   5.175
    1C        O  774   4.357   4.522   5.052
    1C        C  775   4.143   2.524   5.080
    1C        O  776   4.223   2.429   5.060
    1C        O  777   4.136   2.576   5.210
    1C        C  778   2.889   4.538   5.055
    1C        O  779   2.835   4.645   5.014
    1C        O  780   2.947   4.550   5.182
    1C        C  781   2.454   3.038   5.060
    1C        O  782   2.332   3.050   5.027
    1C        O  783   2.497   3.025   5.191
    1C        C  784   2.391   4.006   5.026
    1C        O  785   2.294   4.075   4.985
    1C        O  786   2.375   3.964   5.158
    1C        C  787   2.952   2.416   2.007
    1C        O  788   2.923   2.431   1.886
    1C        O  789   2.840   2.355   2.064
    1C        C  790   3.182   2.368   5.058
    1C        O  791   3.121   2.266   5.018
    1C        O  792   3.205   2.373   5.196
    1C        H  793   4.316   2.986   5.075
    1C        H  794   4.150   2.823   5.062
    1C        H  795   4.501   3.125   5.063
    1C        H  796   4.536   3.365   5.067
    1C        H  797   4.530   3.801   5.049
    1C        H  798   4.465   4.015   5.032
    1C        H  799   4.284   4.176   5.050
    1C        H  800   4.032   4.546   5.027
    1C        H  801   3.821   4.636   5.016
    1C        H  802   3.579   4.634   5.032
    1C        H  803   3.391   4.480   5.038
    1C        H  804   3.172   4.423   5.031
    1C        H  805   3.880   2.494   5.065
    1C        H  806   3.667   2.414   5.054
    1C        H  807   2.995   2.539   5.057
    1C        H  808   3.439   2.522   5.070
    1C        H  809   2.898   2.779   5.070
    1C        H  810   2.680   2.878   5.070
    1C        H  811   2.518   3.291   5.071
    1C        H  812   2.580   3.502   5.054
    1C        H  813   2.552   3.736   5.058
    1C        H  814   2.559   4.195   5.023
    1C        H  815   2.723   4.352   5.033
    1C        H  816   2.700   2.863   1.965
    1C        H  817   2.843   2.683   1.976
    1C        H  818   3.200   2.405   1.999
    1C        H  819   3.441   2.496   1.987
    1C        H  820   3.844   2.532   1.969
    1C        H  821   4.059   2.632   1.967
    1C        H  822   4.217   2.762   1.964
    1C        H  823   4.392   2.918   1.965
    1C        H  824   4.554   3.312   1.965
    1C        H  825   4.487   3.509   1.963
    1C        H  826   4.545   3.745   1.961
    1C        H  827   3.795   4.498   1.948
    1C        H  828   3.982   4.400   1.948
    1C        H  829   4.189   4.289   1.957
    1C        H  830   4.495   3.964   1.957
    1C        H  831   2.684   3.819   1.994
    1C        H  832   2.691   4.063   1.953
    1C        H  833   2.695   4.326   1.984
    1C        H  834   3.378   4.481   1.943
    1C        H  835   3.160   4.363   1.970
    1C        H  836   2.516   3.007   1.991
    1C        H  837   2.416   3.206   1.996
    1C        H  838   2.517   3.671   1.962
    2V3OU   H29  839   2.798   3.551   5.344
    2V3OU   C27  840   2.783   3.503   5.444
    2V3OU   H27  841   2.719   3.572   5.505
    2V3OU   H28  842   2.733   3.403   5.441
    2V3OU   O11  843   2.908   3.467   5.503
    2V3OU   C15  844   2.914   3.396   5.621
    2V3OU   C13  845   3.044   3.374   5.671
    2V3OU   C14  846   3.070   3.260   5.748
    2V3OU   C16  847   2.968   3.178   5.796
    2V3OU    H6  848   2.991   3.099   5.870
    2V3OU   C12  849   3.210   3.221   5.774
    2V3OU    O2  850   3.239   3.119   5.841
    2V3OU   C10  851   3.322   3.304   5.729
    2V3OU    C8  852   3.452   3.265   5.757
    2V3OU   O10  853   3.485   3.153   5.828
    2V3OU   H26  854   3.403   3.112   5.859
    2V3OU    C6  855   3.562   3.345   5.713
    2V3OU    C5  856   3.538   3.464   5.646
    2V3OU    C4  857   3.702   3.294   5.721
    2V3OU    H4  858   3.719   3.224   5.808
    2V3OU    H5  859   3.713   3.232   5.628
    2V3OU    C2  860   3.816   3.396   5.712
    2V3OU    O6  861   3.809   3.480   5.827
    2V3OU   H21  862   3.759   3.559   5.801
    2V3OU    C3  863   3.779   3.493   5.599
    2V3OU    H2  864   3.859   3.571   5.600
    2V3OU    H3  865   3.784   3.440   5.500
    2V3OU   C25  866   3.948   3.321   5.695
    2V3OU    O7  867   3.993   3.289   5.585
    2V3OU   C26  868   4.030   3.289   5.819
    2V3OU   H22  869   4.059   3.385   5.869
    2V3OU   H23  870   4.119   3.227   5.792
    2V3OU    O8  871   3.959   3.208   5.909
    2V3OU   H24  872   3.921   3.264   5.979
    2V3OU    C1  873   3.645   3.563   5.612
    2V3OU    H1  874   3.622   3.616   5.515
    2V3OU    O3  875   3.664   3.657   5.719
    2V3OU   C19  876   3.613   3.789   5.701
    2V3OU    H9  877   3.521   3.804   5.636
    2V3OU    O4  878   3.706   3.855   5.618
    2V3OU   C20  879   3.839   3.872   5.666
    2V3OU   H10  880   3.890   3.776   5.699
    2V3OU   C24  881   3.611   3.854   5.839
    2V3OU   H16  882   3.534   3.802   5.902
    2V3OU   H17  883   3.565   3.954   5.817
    2V3OU   C23  884   3.749   3.872   5.901
    2V3OU   H15  885   3.788   3.766   5.919
    2V3OU    N1  886   3.736   3.948   6.023
    2V3OU   H19  887   3.810   3.927   6.087
    2V3OU   H20  888   3.646   3.927   6.063
    2V3OU   C21  889   3.846   3.943   5.802
    2V3OU   H11  890   3.950   3.922   5.839
    2V3OU    O5  891   3.828   4.084   5.811
    2V3OU   H18  892   3.775   4.100   5.890
    2V3OU   C22  893   3.909   3.947   5.554
    2V3OU   H12  894   3.861   4.047   5.541
    2V3OU   H13  895   3.903   3.890   5.458
    2V3OU   H14  896   4.019   3.956   5.575
    2V3OU   C11  897   3.154   3.470   5.654
    2V3OU    O1  898   3.138   3.588   5.614
    2V3OU    C9  899   3.294   3.423   5.655
    2V3OU    C7  900   3.402   3.504   5.623
    2V3OU    O9  901   3.383   3.622   5.555
    2V3OU   H25  902   3.286   3.632   5.550
    2V3OU   C17  903   2.812   3.314   5.673
    2V3OU    H7  904   2.709   3.340   5.652
    2V3OU   C18  905   2.837   3.210   5.762
    2V3OU    H8  906   2.758   3.146   5.803
    3SOL     OW  907   3.942   3.094   3.816
    3SOL    HW1  908   3.939   3.170   3.751
    3SOL    HW2  909   4.008   3.025   3.784
    4SOL     OW  910   6.364   6.262   0.719
    4SOL    HW1  911   6.417   6.177   0.720
    4SOL    HW2  912   6.272   6.244   0.754
    5SOL     OW  913   5.018   1.634   0.614
    5SOL    HW1  914   4.957   1.645   0.536
    5SOL    HW2  915   5.113   1.646   0.585
    6SOL     OW  916   5.398   1.396   3.072
    6SOL    HW1  917   5.483   1.404   3.021
    6SOL    HW2  918   5.338   1.328   3.029
    7SOL     OW  919   1.838   4.017   3.904
    7SOL    HW1  920   1.776   3.956   3.854
    7SOL    HW2  921   1.805   4.028   3.997
    8SOL     OW  922   0.947   3.436   4.896
    8SOL    HW1  923   1.006   3.358   4.913
    8SOL    HW2  924   1.003   3.518   4.881
    9SOL     OW  925   6.795   0.987   6.699
    9SOL    HW1  926   6.804   1.074   6.650
    9SOL    HW2  927   6.850   0.918   6.652
   10SOL     OW  928   5.481   4.646   1.814
   10SOL    HW1  929   5.434   4.663   1.727
   10SOL    HW2  930   5.419   4.667   1.890
   11SOL     OW  931   2.362   2.418   0.223
   11SOL    HW1  932   2.371   2.370   0.310
   11SOL    HW2  933   2.407   2.507   0.228
   12SOL     OW  934   3.402   5.176   2.740
   12SOL    HW1  935   3.450   5.195   2.654
   12SOL    HW2  936   3.370   5.081   2.740
   13SOL     OW  937   5.966   6.160   1.105
   13SOL    HW1  938   6.008   6.237   1.055
   13SOL    HW2  939   5.899   6.196   1.170
   14SOL     OW  940   4.479   6.033   5.661
   14SOL    HW1  941   4.564   5.981   5.661
   14SOL    HW2  942   4.425   6.009   5.742
   15SOL     OW  943   0.592   6.473   5.765
   15SOL    HW1  944   0.665   6.448   5.829
   15SOL    HW2  945   0.633   6.511   5.682
   16SOL     OW  946   1.971   4.614   4.430
   16SOL    HW1  947   2.003   4.709   4.431
   16SOL    HW2  948   2.034   4.558   4.484
   17SOL     OW  949   6.358   0.988   5.837
   17SOL    HW1  950   6.332   1.032   5.923
   17SOL    HW2  951   6.418   0.910   5.856
   18SOL     OW  952   2.897   0.938   6.164
   18SOL    HW1  953   2.800   0.952   6.184
   18SOL    HW2  954   2.922   0.843   6.180
   19SOL     OW  955   2.714   6.953   2.808
   19SOL    HW1  956   2.639   6.896   2.775
   19SOL    HW2  957   2.722   6.943   2.907
   20SOL     OW  958   6.400   1.574   5.120
   20SOL    HW1  959   6.318   1.631   5.117
   20SOL    HW2  960   6.414   1.532   5.031
   21SOL     OW  961   2.344   4.544   2.728
   21SOL    HW1  962   2.281   4.476   2.692
   21SOL    HW2  963   2.426   4.547   2.672
   22SOL     OW  964   1.487   0.562   6.820
   22SOL    HW1  965   1.525   0.628   6.885
   22SOL    HW2  966   1.506   0.469   6.851
   23SOL     OW  967   5.617   4.971   1.309
   23SOL    HW1  968   5.526   4.996   1.274
   23SOL    HW2  969   5.686   4.992   1.240
   24SOL     OW  970   4.232   1.037   0.853
   24SOL    HW1  971   4.290   0.991   0.920
   24SOL    HW2  972   4.185   1.114   0.897
   25SOL     OW  973   1.902   0.712   4.739
   25SOL    HW1  974   1.872   0.766   4.660
   25SOL    HW2  975   1.840   0.634   4.751
   26SOL     OW  976   0.547   2.602   6.533
   26SOL    HW1  977   0.616   2.540   6.571
   26SOL    HW2  978   0.495   2.644   6.607
   27SOL     OW  979   6.141   0.559   1.901
   27SOL    HW1  980   6.139   0.484   1.835
   27SOL    HW2  981   6.082   0.537   1.979
   28SOL     OW  982   2.765   0.774   5.200
   28SOL    HW1  983   2.789   0.715   5.277
   28SOL    HW2  984   2.680   0.743   5.159
   29SOL     OW  985   0.209   0.003   0.969
   29SOL    HW1  986   0.248   7.016   1.061
   29SOL    HW2  987   0.283   0.007   0.902
   30SOL     OW  988   4.805   0.539   5.223
   30SOL    HW1  989   4.803   0.505   5.129
   30SOL    HW2  990   4.787   0.464   5.286
   31SOL     OW  991   0.810   3.417   5.311
   31SOL    HW1  992   0.779   3.335   5.263
   31SOL    HW2  993   0.738   3.450   5.371
   32SOL     OW  994   3.758   0.648   1.147
   32SOL    HW1  995   3.838   0.691   1.189
   32SOL    HW2  996   3.675   0.691   1.181
   33SOL     OW  997   1.940   5.542   6.252
   33SOL    HW1  998   1.957   5.517   6.156
   33SOL    HW2  999   1.876   5.619   6.255
   34SOL     OW 1000   3.113   5.168   5.294
   34SOL    HW1 1001   3.209   5.142   5.303
   34SOL    HW2 1002   3.083   5.151   5.200
   35SOL     OW 1003   2.039   3.720   6.895
   35SOL    HW1 1004   2.080   3.639   6.936
   35SOL    HW2 1005   1.939   3.712   6.898
   36SOL     OW 1006   4.255   1.291   3.801
   36SOL    HW1 1007   4.257   1.391   3.797
   36SOL    HW2 1008   4.330   1.254   3.745
   37SOL     OW 1009   2.641   0.316   4.086
   37SOL    HW1 1010   2.696   0.372   4.024
   37SOL    HW2 1011   2.701   0.272   4.153
   38SOL     OW 1012   1.058   3.359   3.089
   38SOL    HW1 1013   1.136   3.417   3.068
   38SOL    HW2 1014   0.992   3.364   3.014
   39SOL     OW 1015   6.783   4.109   0.656
   39SOL    HW1 1016   6.833   4.194   0.638
   39SOL    HW2 1017   6.756   4.107   0.753
   40SOL     OW 1018   4.657   1.492   1.283
   40SOL    HW1 1019   4.728   1.481   1.212
   40SOL    HW2 1020   4.698   1.533   1.364
   41SOL     OW 1021   5.182   4.095   1.793
   41SOL    HW1 1022   5.103   4.033   1.794
   41SOL    HW2 1023   5.166   4.168   1.725
   42SOL     OW 1024   2.365   4.797   6.971
   42SOL    HW1 1025   2.384   4.733   6.896
   42SOL    HW2 1026   2.285   4.852   6.948
   43SOL     OW 1027   4.435   0.161   4.706
   43SOL    HW1 1028   4.410   0.245   4.754
   43SOL    HW2 1029   4.507   0.180   4.640
   44SOL     OW 1030   6.472   1.118   5.632
   44SOL    HW1 1031   6.567   1.094   5.652
   44SOL    HW2 1032   6.415   1.098   5.712
   45SOL     OW 1033   2.376   4.846   6.042
   45SOL    HW1 1034   2.351   4.893   5.958
   45SOL    HW2 1035   2.438   4.903   6.095
   46SOL     OW 1036   1.137   3.406   4.535
   46SOL    HW1 1037   1.038   3.410   4.548
   46SOL    HW2 1038   1.161   3.452   4.449
   47SOL     OW 1039   6.468   3.670   0.508
   47SOL    HW1 1040   6.453   3.761   0.547
   47SOL    HW2 1041   6.423   3.663   0.420
   48SOL     OW 1042   6.244   3.171   0.699
   48SOL    HW1 1043   6.338   3.153   0.672
   48SOL    HW2 1044   6.238   3.171   0.799
   49SOL     OW 1045   2.969   3.600   6.674
   49SOL    HW1 1046   3.026   3.678   6.650
   49SOL    HW2 1047   2.881   3.607   6.628
   50SOL     OW 1048   6.073   2.573   0.709
   50SOL    HW1 1049   5.981   2.601   0.734
   50SOL    HW2 1050   6.103   2.499   0.770
   51SOL     OW 1051   1.334   5.135   2.701
   51SOL    HW1 1052   1.305   5.080   2.779
   51SOL    HW2 1053   1.412   5.192   2.728
   52SOL     OW 1054   5.567   2.884   1.994
   52SOL    HW1 1055   5.583   2.793   2.031
   52SOL    HW2 1056   5.570   2.881   1.894
   53SOL     OW 1057   3.804   0.681   2.191
   53SOL    HW1 1058   3.825   0.741   2.268
   53SOL    HW2 1059   3.706   0.687   2.171
   54SOL     OW 1060   5.250   0.805   6.522
   54SOL    HW1 1061   5.317   0.756   6.578
   54SOL    HW2 1062   5.272   0.792   6.426
   55SOL     OW 1063   1.519   3.885   6.194
   55SOL    HW1 1064   1.584   3.811   6.176
   55SOL    HW2 1065   1.451   3.854   6.260
   56SOL     OW 1066   0.703   2.469   6.880
   56SOL    HW1 1067   0.635   2.540   6.861
   56SOL    HW2 1068   0.789   2.492   6.836
   57SOL     OW 1069   4.340   6.417   0.725
   57SOL    HW1 1070   4.254   6.366   0.716
   57SOL    HW2 1071   4.410   6.357   0.763
   58SOL     OW 1072   0.773   0.042   0.137
   58SOL    HW1 1073   0.773   0.023   0.235
   58SOL    HW2 1074   0.764   6.977   0.086
   59SOL     OW 1075   4.538   3.019   5.314
   59SOL    HW1 1076   4.612   3.085   5.296
   59SOL    HW2 1077   4.506   3.030   5.409
   60SOL     OW 1078   5.524   2.307   1.755
   60SOL    HW1 1079   5.582   2.311   1.673
   60SOL    HW2 1080   5.428   2.304   1.727
   61SOL     OW 1081   1.479   5.885   4.539
   61SOL    HW1 1082   1.465   5.871   4.441
   61SOL    HW2 1083   1.392   5.873   4.588
   62SOL     OW 1084   5.958   3.463   3.078
   62SOL    HW1 1085   5.959   3.376   3.029
   62SOL    HW2 1086   5.946   3.538   3.012
   63SOL     OW 1087   4.241   0.494   5.947
   63SOL    HW1 1088   4.278   0.584   5.924
   63SOL    HW2 1089   4.234   0.485   6.047
   64SOL     OW 1090   1.241   3.595   5.244
   64SOL    HW1 1091   1.188   3.528   5.295
   64SOL    HW2 1092   1.272   3.667   5.306
   65SOL     OW 1093   0.987   5.724   4.696
   65SOL    HW1 1094   0.916   5.677   4.747
   65SOL    HW2 1095   0.946   5.776   4.620
   66SOL     OW 1096   3.830   1.341   1.974
   66SOL    HW1 1097   3.844   1.253   2.020
   66SOL    HW2 1098   3.743   1.380   2.004
   67SOL     OW 1099   6.836   3.284   1.388
   67SOL    HW1 1100   6.881   3.220   1.326
   67SOL    HW2 1101   6.762   3.238   1.436
   68SOL     OW 1102   0.002   1.579   6.242
   68SOL    HW1 1103   6.926   1.557   6.221
   68SOL    HW2 1104   0.035   1.648   6.178
   69SOL     OW 1105   1.035   5.902   6.267
   69SOL    HW1 1106   0.981   5.838   6.322
   69SOL    HW2 1107   1.060   5.858   6.180
   70SOL     OW 1108   5.213   3.981   3.435
   70SOL    HW1 1109   5.161   3.897   3.425
   70SOL    HW2 1110   5.195   4.021   3.525
   71SOL     OW 1111   5.253   2.175   4.015
   71SOL    HW1 1112   5.228   2.092   3.966
   71SOL    HW2 1113   5.318   2.228   3.960
   72SOL     OW 1114   0.633   1.356   3.003
   72SOL    HW1 1115   0.625   1.448   2.966
   72SOL    HW2 1116   0.700   1.356   3.078
   73SOL     OW 1117   3.179   0.272   0.396
   73SOL    HW1 1118   3.201   0.175   0.403
   73SOL    HW2 1119   3.208   0.319   0.480
   74SOL     OW 1120   2.424   2.033   0.984
   74SOL    HW1 1121   2.520   2.057   0.968
   74SOL    HW2 1122   2.370   2.117   0.988
   75SOL     OW 1123   2.907   3.288   0.472
   75SOL    HW1 1124   2.960   3.324   0.395
   75SOL    HW2 1125   2.826   3.345   0.487
   76SOL     OW 1126   3.630   4.961   5.793
   76SOL    HW1 1127   3.617   4.899   5.716
   76SOL    HW2 1128   3.548   5.017   5.804
   77SOL     OW 1129   0.900   5.247   4.326
   77SOL    HW1 1130   0.872   5.202   4.411
   77SOL    HW2 1131   0.996   5.273   4.333
   78SOL     OW 1132   4.766   1.895   1.524
   78SOL    HW1 1133   4.844   1.836   1.546
   78SOL    HW2 1134   4.780   1.985   1.566
   79SOL     OW 1135   1.134   4.845   3.050
   79SOL    HW1 1136   1.044   4.813   3.018
   79SOL    HW2 1137   1.155   4.802   3.138
   80SOL     OW 1138   3.660   1.491   5.059
   80SOL    HW1 1139   3.747   1.515   5.103
   80SOL    HW2 1140   3.673   1.411   5.000
   81SOL     OW 1141   4.443   5.145   1.567
   81SOL    HW1 1142   4.528   5.171   1.522
   81SOL    HW2 1143   4.398   5.226   1.603
   82SOL     OW 1144   2.647   6.290   2.093
   82SOL    HW1 1145   2.717   6.254   2.154
   82SOL    HW2 1146   2.557   6.265   2.128
   83SOL     OW 1147   5.272   1.362   4.310
   83SOL    HW1 1148   5.285   1.457   4.284
   83SOL    HW2 1149   5.345   1.334   4.372
   84SOL     OW 1150   5.543   3.081   2.413
   84SOL    HW1 1151   5.585   3.107   2.326
   84SOL    HW2 1152   5.447   3.107   2.412
   85SOL     OW 1153   2.537   6.542   3.958
   85SOL    HW1 1154   2.624   6.544   4.009
   85SOL    HW2 1155   2.473   6.482   4.006
   86SOL     OW 1156   5.669   6.879   0.002
   86SOL    HW1 1157   5.615   6.959   6.995
   86SOL    HW2 1158   5.666   6.869   0.102
   87SOL     OW 1159   1.965   3.922   6.308
   87SOL    HW1 1160   2.029   3.947   6.381
   87SOL    HW2 1161   1.974   3.985   6.232
   88SOL     OW 1162   3.297   3.478   1.216
   88SOL    HW1 1163   3.221   3.490   1.153
   88SOL    HW2 1164   3.273   3.515   1.306
   89SOL     OW 1165   3.182   3.529   3.754
   89SOL    HW1 1166   3.127   3.596   3.805
   89SOL    HW2 1167   3.252   3.577   3.702
   90SOL     OW 1168   5.503   3.672   1.781
   90SOL    HW1 1169   5.460   3.606   1.720
   90SOL    HW2 1170   5.462   3.665   1.872
   91SOL     OW 1171   4.487   5.294   5.565
   91SOL    HW1 1172   4.558   5.226   5.547
   91SOL    HW2 1173   4.452   5.330   5.478
   92SOL     OW 1174   4.831   3.981   0.183
   92SOL    HW1 1175   4.856   4.066   0.136
   92SOL    HW2 1176   4.901   3.960   0.252
   93SOL     OW 1177   2.805   3.350   2.023
   93SOL    HW1 1178   2.717   3.360   2.069
   93SOL    HW2 1179   2.791   3.316   1.930
   94SOL     OW 1180   3.014   2.174   4.198
   94SOL    HW1 1181   3.069   2.169   4.281
   94SOL    HW2 1182   2.918   2.164   4.221
   95SOL     OW 1183   0.216   0.133   3.757
   95SOL    HW1 1184   0.218   0.161   3.853
   95SOL    HW2 1185   0.142   0.181   3.710
   96SOL     OW 1186   6.593   4.991   6.954
   96SOL    HW1 1187   6.653   5.071   6.948
   96SOL    HW2 1188   6.632   4.916   6.901
   97SOL     OW 1189   2.352   4.216   5.610
   97SOL    HW1 1190   2.324   4.312   5.612
   97SOL    HW2 1191   2.441   4.206   5.656
   98SOL     OW 1192   1.329   1.998   3.595
   98SOL    HW1 1193   1.279   2.057   3.533
   98SOL    HW2 1194   1.377   1.928   3.543
   99SOL     OW 1195   3.390   3.805   4.980
   99SOL    HW1 1196   3.339   3.761   4.907
   99SOL    HW2 1197   3.396   3.743   5.058
  100SOL     OW 1198   6.970   0.833   4.886
  100SOL    HW1 1199   0.001   0.888   4.952
  100SOL    HW2 1200   6.986   0.868   4.794
  101SOL     OW 1201   5.794   4.081   2.423
  101SOL    HW1 1202   5.722   4.081   2.492
  101SOL    HW2 1203   5.772   4.016   2.350
  102SOL     OW 1204   4.239   0.409   0.116
  102SOL    HW1 1205   4.171   0.457   0.172
  102SOL    HW2 1206   4.193   0.364   0.040
  103SOL     OW 1207   1.784   1.409   1.902
  103SOL    HW1 1208   1.855   1.409   1.973
  103SOL    HW2 1209   1.780   1.499   1.859
  104SOL     OW 1210   6.384   4.988   1.976
  104SOL    HW1 1211   6.355   4.989   1.881
  104SOL    HW2 1212   6.307   5.015   2.034
  105SOL     OW 1213   6.711   0.784   5.698
  105SOL    HW1 1214   6.807   0.770   5.722
  105SOL    HW2 1215   6.702   0.799   5.600
  106SOL     OW 1216   4.344   3.433   1.174
  106SOL    HW1 1217   4.426   3.490   1.165
  106SOL    HW2 1218   4.367   3.350   1.226
  107SOL     OW 1219   5.787   7.020   1.703
  107SOL    HW1 1220   5.705   6.974   1.739
  107SOL    HW2 1221   5.777   0.099   1.712
  108SOL     OW 1222   2.810   1.223   4.061
  108SOL    HW1 1223   2.759   1.268   3.987
  108SOL    HW2 1224   2.801   1.276   4.145
  109SOL     OW 1225   1.766   1.583   4.508
  109SOL    HW1 1226   1.696   1.516   4.482
  109SOL    HW2 1227   1.721   1.664   4.545
  110SOL     OW 1228   3.216   4.286   5.573
  110SOL    HW1 1229   3.282   4.213   5.583
  110SOL    HW2 1230   3.176   4.283   5.481
  111SOL     OW 1231   6.040   3.095   0.495
  111SOL    HW1 1232   5.973   3.056   0.558
  111SOL    HW2 1233   6.078   3.178   0.534
  112SOL     OW 1234   5.117   6.738   6.529
  112SOL    HW1 1235   5.192   6.688   6.571
  112SOL    HW2 1236   5.152   6.794   6.453
  113SOL     OW 1237   0.235   5.326   2.583
  113SOL    HW1 1238   0.198   5.414   2.611
  113SOL    HW2 1239   0.263   5.274   2.664
  114SOL     OW 1240   6.988   2.515   1.839
  114SOL    HW1 1241   6.962   2.608   1.813
  114SOL    HW2 1242   0.067   2.512   1.855
  115SOL     OW 1243   5.592   6.926   3.608
  115SOL    HW1 1244   5.667   6.860   3.604
  115SOL    HW2 1245   5.530   6.911   3.530
  116SOL     OW 1246   0.479   5.092   0.397
  116SOL    HW1 1247   0.564   5.138   0.424
  116SOL    HW2 1248   0.437   5.049   0.478
  117SOL     OW 1249   2.195   3.034   6.800
  117SOL    HW1 1250   2.184   3.128   6.769
  117SOL    HW2 1251   2.247   3.033   6.885
  118SOL     OW 1252   0.690   2.236   2.474
  118SOL    HW1 1253   0.766   2.181   2.440
  118SOL    HW2 1254   0.656   2.196   2.559
  119SOL     OW 1255   6.311   6.617   5.244
  119SOL    HW1 1256   6.373   6.685   5.205
  119SOL    HW2 1257   6.259   6.659   5.319
  120SOL     OW 1258   5.228   1.870   4.660
  120SOL    HW1 1259   5.291   1.805   4.702
  120SOL    HW2 1260   5.220   1.851   4.562
  121SOL     OW 1261   0.362   5.246   6.965
  121SOL    HW1 1262   0.432   5.176   6.976
  121SOL    HW2 1263   0.275   5.204   6.938
  122SOL     OW 1264   6.660   4.696   6.238
  122SOL    HW1 1265   6.732   4.691   6.306
  122SOL    HW2 1266   6.698   4.680   6.147
  123SOL     OW 1267   0.573   2.340   1.366
  123SOL    HW1 1268   0.647   2.358   1.301
  123SOL    HW2 1269   0.521   2.424   1.382
  124SOL     OW 1270   1.545   2.673   6.956
  124SOL    HW1 1271   1.600   2.607   6.905
  124SOL    HW2 1272   1.570   2.669   0.033
  125SOL     OW 1273   4.288   3.165   0.545
  125SOL    HW1 1274   4.363   3.172   0.478
  125SOL    HW2 1275   4.240   3.079   0.531
  126SOL     OW 1276   3.714   3.040   4.505
  126SOL    HW1 1277   3.722   3.000   4.414
  126SOL    HW2 1278   3.800   3.083   4.531
  127SOL     OW 1279   0.459   5.682   5.832
  127SOL    HW1 1280   0.366   5.697   5.798
  127SOL    HW2 1281   0.472   5.585   5.853
  128SOL     OW 1282   4.982   3.958   6.884
  128SOL    HW1 1283   4.939   3.891   6.945
  128SOL    HW2 1284   5.067   3.921   6.847
  129SOL     OW 1285   1.243   5.651   2.393
  129SOL    HW1 1286   1.153   5.693   2.389
  129SOL    HW2 1287   1.309   5.717   2.430
  130SOL     OW 1288   6.178   3.074   3.996
  130SOL    HW1 1289   6.108   3.135   3.958
  130SOL    HW2 1290   6.201   3.104   4.089
  131SOL     OW 1291   0.494   2.303   3.227
  131SOL    HW1 1292   0.497   2.374   3.298
  131SOL    HW2 1293   0.466   2.216   3.268
  132SOL     OW 1294   3.432   2.903   1.053
  132SOL    HW1 1295   3.376   2.937   0.977
  132SOL    HW2 1296   3.375   2.898   1.135
  133SOL     OW 1297   6.142   6.567   6.316
  133SOL    HW1 1298   6.051   6.594   6.348
  133SOL    HW2 1299   6.164   6.619   6.233
  134SOL     OW 1300   5.695   1.821   1.481
  134SOL    HW1 1301   5.764   1.802   1.412
  134SOL    HW2 1302   5.707   1.913   1.516
  135SOL     OW 1303   4.867   3.672   3.641
  135SOL    HW1 1304   4.938   3.630   3.697
  135SOL    HW2 1305   4.805   3.601   3.607
  136SOL     OW 1306   3.181   0.452   6.418
  136SOL    HW1 1307   3.164   0.469   6.321
  136SOL    HW2 1308   3.207   0.537   6.462
  137SOL     OW 1309   2.947   3.691   6.349
  137SOL    HW1 1310   2.866   3.638   6.374
  137SOL    HW2 1311   2.955   3.695   6.250
  138SOL     OW 1312   1.271   4.932   6.568
  138SOL    HW1 1313   1.173   4.915   6.558
  138SOL    HW2 1314   1.296   5.012   6.513
  139SOL     OW 1315   1.266   0.040   0.749
  139SOL    HW1 1316   1.340   0.054   0.815
  139SOL    HW2 1317   1.264   0.118   0.685
  140SOL     OW 1318   3.910   0.581   1.535
  140SOL    HW1 1319   3.928   0.644   1.460
  140SOL    HW2 1320   3.926   0.487   1.505
  141SOL     OW 1321   0.530   2.928   0.494
  141SOL    HW1 1322   0.589   2.906   0.571
  141SOL    HW2 1323   0.579   2.988   0.430
  142SOL     OW 1324   1.892   3.494   1.185
  142SOL    HW1 1325   1.830   3.523   1.111
  142SOL    HW2 1326   1.876   3.551   1.266
  143SOL     OW 1327   4.794   6.532   2.260
  143SOL    HW1 1328   4.879   6.580   2.279
  143SOL    HW2 1329   4.730   6.545   2.336
  144SOL     OW 1330   3.187   5.764   3.522
  144SOL    HW1 1331   3.209   5.743   3.618
  144SOL    HW2 1332   3.268   5.800   3.476
  145SOL     OW 1333   0.178   4.524   3.516
  145SOL    HW1 1334   0.267   4.567   3.507
  145SOL    HW2 1335   0.165   4.457   3.442
  146SOL     OW 1336   4.914   0.875   6.247
  146SOL    HW1 1337   4.931   0.966   6.285
  146SOL    HW2 1338   4.830   0.838   6.286
  147SOL     OW 1339   4.695   1.150   5.070
  147SOL    HW1 1340   4.673   1.054   5.055
  147SOL    HW2 1341   4.611   1.204   5.069
  148SOL     OW 1342   1.656   5.749   1.443
  148SOL    HW1 1343   1.750   5.776   1.464
  148SOL    HW2 1344   1.623   5.685   1.513
  149SOL     OW 1345   2.027   2.453   4.680
  149SOL    HW1 1346   1.965   2.376   4.662
  149SOL    HW2 1347   2.121   2.420   4.677
  150SOL     OW 1348   4.303   1.748   4.856
  150SOL    HW1 1349   4.297   1.653   4.825
  150SOL    HW2 1350   4.358   1.801   4.791
  151SOL     OW 1351   4.676   2.801   1.035
  151SOL    HW1 1352   4.740   2.725   1.022
  151SOL    HW2 1353   4.624   2.786   1.119
  152SOL     OW 1354   0.113   2.336   0.713
  152SOL    HW1 1355   0.110   2.413   0.778
  152SOL    HW2 1356   0.199   2.288   0.723
  153SOL     OW 1357   2.342   1.094   3.767
  153SOL    HW1 1358   2.353   1.191   3.789
  153SOL    HW2 1359   2.249   1.065   3.788
  154SOL     OW 1360   6.542   2.177   2.452
  154SOL    HW1 1361   6.607   2.253   2.463
  154SOL    HW2 1362   6.534   2.153   2.355
  155SOL     OW 1363   6.963   5.704   2.809
  155SOL    HW1 1364   6.970   5.722   2.711
  155SOL    HW2 1365   6.944   5.607   2.824
  156SOL     OW 1366   5.331   3.031   0.502
  156SOL    HW1 1367   5.399   3.040   0.574
  156SOL    HW2 1368   5.278   3.115   0.495
  157SOL     OW 1369   4.986   6.150   0.782
  157SOL    HW1 1370   5.042   6.224   0.817
  157SOL    HW2 1371   4.935   6.108   0.857
  158SOL     OW 1372   0.760   2.970   3.855
  158SOL    HW1 1373   0.787   3.019   3.938
  158SOL    HW2 1374   0.826   2.990   3.782
  159SOL     OW 1375   6.276   5.923   0.579
  159SOL    HW1 1376   6.313   5.867   0.653
  159SOL    HW2 1377   6.351   5.961   0.525
  160SOL     OW 1378   6.067   6.732   1.627
  160SOL    HW1 1379   6.024   6.687   1.549
  160SOL    HW2 1380   6.149   6.681   1.653
  161SOL     OW 1381   0.412   6.644   1.298
  161SOL    HW1 1382   0.360   6.727   1.317
  161SOL    HW2 1383   0.388   6.611   1.207
  162SOL     OW 1384   4.384   6.531   6.190
  162SOL    HW1 1385   4.307   6.549   6.129
  162SOL    HW2 1386   4.463   6.504   6.135
  163SOL     OW 1387   0.957   3.686   3.019
  163SOL    HW1 1388   0.871   3.726   2.990
  163SOL    HW2 1389   0.975   3.710   3.115
  164SOL     OW 1390   2.806   1.971   3.600
  164SOL    HW1 1391   2.713   1.996   3.572
  164SOL    HW2 1392   2.817   1.987   3.698
  165SOL     OW 1393   0.597   6.699   3.668
  165SOL    HW1 1394   0.694   6.674   3.674
  165SOL    HW2 1395   0.542   6.617   3.656
  166SOL     OW 1396   0.052   4.141   3.073
  166SOL    HW1 1397   7.018   4.188   3.142
  166SOL    HW2 1398   0.078   4.205   3.001
  167SOL     OW 1399   2.885   1.856   6.494
  167SOL    HW1 1400   2.785   1.857   6.506
  167SOL    HW2 1401   2.910   1.918   6.420
  168SOL     OW 1402   3.924   3.712   1.451
  168SOL    HW1 1403   3.896   3.617   1.462
  168SOL    HW2 1404   4.019   3.715   1.420
  169SOL     OW 1405   4.706   1.929   1.115
  169SOL    HW1 1406   4.702   1.995   1.191
  169SOL    HW2 1407   4.706   1.836   1.152
  170SOL     OW 1408   6.207   5.932   1.770
  170SOL    HW1 1409   6.232   5.954   1.675
  170SOL    HW2 1410   6.289   5.938   1.827
  171SOL     OW 1411   3.437   3.345   0.836
  171SOL    HW1 1412   3.373   3.409   0.793
  171SOL    HW2 1413   3.388   3.264   0.866
  172SOL     OW 1414   0.882   2.086   6.582
  172SOL    HW1 1415   0.908   2.052   6.673
  172SOL    HW2 1416   0.788   2.060   6.563
  173SOL     OW 1417   6.416   1.038   4.194
  173SOL    HW1 1418   6.470   1.097   4.254
  173SOL    HW2 1419   6.447   1.050   4.099
  174SOL     OW 1420   5.278   4.573   4.717
  174SOL    HW1 1421   5.277   4.502   4.647
  174SOL    HW2 1422   5.372   4.589   4.746
  175SOL     OW 1423   0.125   0.178   2.188
  175SOL    HW1 1424   0.160   0.221   2.272
  175SOL    HW2 1425   0.198   0.174   2.120
  176SOL     OW 1426   6.253   3.932   1.740
  176SOL    HW1 1427   6.296   3.999   1.680
  176SOL    HW2 1428   6.156   3.926   1.719
  177SOL     OW 1429   5.744   2.141   4.255
  177SOL    HW1 1430   5.756   2.241   4.250
  177SOL    HW2 1431   5.714   2.107   4.166
  178SOL     OW 1432   2.854   6.113   5.173
  178SOL    HW1 1433   2.784   6.135   5.241
  178SOL    HW2 1434   2.841   6.019   5.142
  179SOL     OW 1435   3.532   4.218   1.664
  179SOL    HW1 1436   3.463   4.165   1.714
  179SOL    HW2 1437   3.503   4.313   1.658
  180SOL     OW 1438   3.638   1.066   0.233
  180SOL    HW1 1439   3.551   1.024   0.208
  180SOL    HW2 1440   3.711   1.028   0.176
  181SOL     OW 1441   3.096   1.876   5.502
  181SOL    HW1 1442   3.172   1.918   5.552
  181SOL    HW2 1443   3.033   1.947   5.470
  182SOL     OW 1444   3.269   2.539   6.337
  182SOL    HW1 1445   3.333   2.571   6.267
  182SOL    HW2 1446   3.277   2.598   6.418
  183SOL     OW 1447   3.455   0.477   3.671
  183SOL    HW1 1448   3.355   0.485   3.669
  183SOL    HW2 1449   3.488   0.443   3.583
  184SOL     OW 1450   5.013   5.935   3.782
  184SOL    HW1 1451   5.075   5.865   3.747
  184SOL    HW2 1452   4.997   6.005   3.712
  185SOL     OW 1453   0.020   0.556   4.868
  185SOL    HW1 1454   6.986   0.479   4.834
  185SOL    HW2 1455   6.986   0.639   4.866
  186SOL     OW 1456   4.401   6.492   4.866
  186SOL    HW1 1457   4.324   6.522   4.923
  186SOL    HW2 1458   4.412   6.393   4.874
  187SOL     OW 1459   4.162   6.239   1.511
  187SOL    HW1 1460   4.185   6.145   1.487
  187SOL    HW2 1461   4.068   6.259   1.485
  188SOL     OW 1462   1.406   3.151   2.779
  188SOL    HW1 1463   1.437   3.058   2.762
  188SOL    HW2 1464   1.456   3.214   2.719
  189SOL     OW 1465   5.975   4.960   5.801
  189SOL    HW1 1466   5.964   4.862   5.783
  189SOL    HW2 1467   5.911   5.012   5.746
  190SOL     OW 1468   5.570   0.917   0.147
  190SOL    HW1 1469   5.555   0.818   0.148
  190SOL    HW2 1470   5.548   0.955   0.237
  191SOL     OW 1471   0.279   1.150   5.744
  191SOL    HW1 1472   0.262   1.248   5.753
  191SOL    HW2 1473   0.196   1.105   5.711
  192SOL     OW 1474   6.993   5.262   1.239
  192SOL    HW1 1475   0.056   5.207   1.231
  192SOL    HW2 1476   6.989   5.327   1.163
  193SOL     OW 1477   2.669   6.231   0.148
  193SOL    HW1 1478   2.688   6.196   0.056
  193SOL    HW2 1479   2.578   6.201   0.177
  194SOL     OW 1480   3.931   6.383   2.447
  194SOL    HW1 1481   3.984   6.308   2.486
  194SOL    HW2 1482   3.984   6.467   2.450
  195SOL     OW 1483   3.437   1.359   1.405
  195SOL    HW1 1484   3.439   1.260   1.419
  195SOL    HW2 1485   3.500   1.403   1.469
  196SOL     OW 1486   2.987   2.284   0.448
  196SOL    HW1 1487   2.915   2.352   0.461
  196SOL    HW2 1488   2.953   2.211   0.389
  197SOL     OW 1489   1.935   6.504   0.304
  197SOL    HW1 1490   2.026   6.539   0.280
  197SOL    HW2 1491   1.940   6.459   0.393
  198SOL     OW 1492   4.152   0.377   6.679
  198SOL    HW1 1493   4.239   0.353   6.721
  198SOL    HW2 1494   4.162   0.376   6.580
  199SOL     OW 1495   0.273   0.345   2.344
  199SOL    HW1 1496   0.259   0.351   2.443
  199SOL    HW2 1497   0.346   0.407   2.316
  200SOL     OW 1498   0.713   3.846   2.980
  200SOL    HW1 1499   0.759   3.928   2.949
  200SOL    HW2 1500   0.625   3.837   2.934
  201SOL     OW 1501   4.495   1.048   6.674
  201SOL    HW1 1502   4.461   1.044   6.580
  201SOL    HW2 1503   4.594   1.032   6.674
  202SOL     OW 1504   3.640   0.827   2.456
  202SOL    HW1 1505   3.608   0.741   2.415
  202SOL    HW2 1506   3.658   0.893   2.383
  203SOL     OW 1507   5.654   2.586   6.938
  203SOL    HW1 1508   5.726   2.650   6.965
  203SOL    HW2 1509   5.616   2.614   6.849
  204SOL     OW 1510   2.617   6.206   1.434
  204SOL    HW1 1511   2.665   6.141   1.375
  204SOL    HW2 1512   2.564   6.156   1.502
  205SOL     OW 1513   6.086   0.948   0.178
  205SOL    HW1 1514   6.130   1.030   0.142
  205SOL    HW2 1515   6.133   0.918   0.261
  206SOL     OW 1516   0.379   4.737   1.831
  206SOL    HW1 1517   0.288   4.712   1.864
  206SOL    HW2 1518   0.447   4.711   1.899
  207SOL     OW 1519   4.877   1.362   5.439
  207SOL    HW1 1520   4.914   1.276   5.404
  207SOL    HW2 1521   4.810   1.342   5.511
  208SOL     OW 1522   3.305   4.469   6.062
  208SOL    HW1 1523   3.222   4.508   6.102
  208SOL    HW2 1524   3.377   4.464   6.132
  209SOL     OW 1525   6.489   5.563   5.591
  209SOL    HW1 1526   6.482   5.538   5.494
  209SOL    HW2 1527   6.479   5.663   5.600
  210SOL     OW 1528   3.687   2.034   2.296
  210SOL    HW1 1529   3.604   1.984   2.320
  210SOL    HW2 1530   3.676   2.075   2.205
  211SOL     OW 1531   1.325   2.001   1.499
  211SOL    HW1 1532   1.312   2.040   1.408
  211SOL    HW2 1533   1.236   1.983   1.541
  212SOL     OW 1534   0.548   4.697   3.809
  212SOL    HW1 1535   0.570   4.626   3.742
  212SOL    HW2 1536   0.573   4.664   3.900
  213SOL     OW 1537   4.084   2.500   6.907
  213SOL    HW1 1538   4.010   2.555   6.946
  213SOL    HW2 1539   4.114   2.432   6.974
  214SOL     OW 1540   1.056   0.071   2.738
  214SOL    HW1 1541   1.037   7.001   2.699
  214SOL    HW2 1542   1.063   0.139   2.665
  215SOL     OW 1543   3.314   3.334   2.594
  215SOL    HW1 1544   3.216   3.317   2.595
  215SOL    HW2 1545   3.361   3.255   2.553
  216SOL     OW 1546   1.275   6.240   5.643
  216SOL    HW1 1547   1.304   6.144   5.653
  216SOL    HW2 1548   1.188   6.253   5.691
  217SOL     OW 1549   0.244   2.620   3.600
  217SOL    HW1 1550   0.275   2.714   3.615
  217SOL    HW2 1551   0.282   2.561   3.672
  218SOL     OW 1552   1.213   3.884   5.399
  218SOL    HW1 1553   1.304   3.893   5.359
  218SOL    HW2 1554   1.212   3.808   5.464
  219SOL     OW 1555   4.634   5.317   0.065
  219SOL    HW1 1556   4.646   5.235   0.120
  219SOL    HW2 1557   4.539   5.347   0.071
  220SOL     OW 1558   1.660   4.542   1.115
  220SOL    HW1 1559   1.710   4.461   1.084
  220SOL    HW2 1560   1.570   4.514   1.149
  221SOL     OW 1561   6.932   2.555   4.031
  221SOL    HW1 1562   6.905   2.589   4.121
  221SOL    HW2 1563   6.850   2.530   3.979
  222SOL     OW 1564   1.433   6.432   5.091
  222SOL    HW1 1565   1.395   6.451   5.181
  222SOL    HW2 1566   1.519   6.482   5.080
  223SOL     OW 1567   6.301   4.011   1.999
  223SOL    HW1 1568   6.304   3.991   1.901
  223SOL    HW2 1569   6.259   4.101   2.013
  224SOL     OW 1570   3.442   2.094   2.032
  224SOL    HW1 1571   3.368   2.118   1.969
  224SOL    HW2 1572   3.530   2.122   1.993
  225SOL     OW 1573   0.376   6.923   0.512
  225SOL    HW1 1574   0.283   6.898   0.485
  225SOL    HW2 1575   0.436   6.844   0.502
  226SOL     OW 1576   0.256   5.471   1.109
  226SOL    HW1 1577   0.353   5.473   1.087
  226SOL    HW2 1578   0.236   5.539   1.180
  227SOL     OW 1579   1.652   2.984   3.227
  227SOL    HW1 1580   1.668   3.046   3.303
  227SOL    HW2 1581   1.730   2.987   3.165
  228SOL     OW 1582   3.839   0.029   2.906
  228SOL    HW1 1583   3.886   0.097   2.849
  228SOL    HW2 1584   3.855   0.050   3.002
  229SOL     OW 1585   5.712   5.476   2.590
  229SOL    HW1 1586   5.670   5.427   2.667
  229SOL    HW2 1587   5.718   5.415   2.512
  230SOL     OW 1588   1.588   4.374   5.526
  230SOL    HW1 1589   1.606   4.384   5.429
  230SOL    HW2 1590   1.674   4.358   5.574
  231SOL     OW 1591   0.570   2.014   0.039
  231SOL    HW1 1592   0.559   1.951   6.982
  231SOL    HW2 1593   0.515   1.983   0.116
  232SOL     OW 1594   2.175   5.018   6.594
  232SOL    HW1 1595   2.274   5.027   6.606
  232SOL    HW2 1596   2.156   4.944   6.530
  233SOL     OW 1597   3.008   1.179   6.107
  233SOL    HW1 1598   2.965   1.249   6.163
  233SOL    HW2 1599   2.971   1.089   6.132
  234SOL     OW 1600   3.000   5.831   0.247
  234SOL    HW1 1601   2.927   5.766   0.265
  234SOL    HW2 1602   2.961   5.915   0.209
  235SOL     OW 1603   3.248   3.002   5.142
  235SOL    HW1 1604   3.232   3.016   5.045
  235SOL    HW2 1605   3.328   2.943   5.155
  236SOL     OW 1606   6.879   2.202   5.405
  236SOL    HW1 1607   6.957   2.176   5.348
  236SOL    HW2 1608   6.908   2.269   5.473
  237SOL     OW 1609   0.175   0.368   1.720
  237SOL    HW1 1610   0.206   0.362   1.815
  237SOL    HW2 1611   0.075   0.372   1.718
  238SOL     OW 1612   6.577   2.163   2.172
  238SOL    HW1 1613   6.526   2.139   2.089
  238SOL    HW2 1614   6.672   2.133   2.163
  239SOL     OW 1615   0.616   5.345   0.764
  239SOL    HW1 1616   0.661   5.427   0.801
  239SOL    HW2 1617   0.666   5.312   0.684
  240SOL     OW 1618   6.680   3.614   5.316
  240SOL    HW1 1619   6.731   3.557   5.251
  240SOL    HW2 1620   6.634   3.688   5.267
  241SOL     OW 1621   6.518   1.666   3.882
  241SOL    HW1 1622   6.437   1.710   3.922
  241SOL    HW2 1623   6.491   1.583   3.835
  242SOL     OW 1624   2.268   2.325   3.104
  242SOL    HW1 1625   2.344   2.389   3.097
  242SOL    HW2 1626   2.290   2.254   3.171
  243SOL     OW 1627   4.441   1.366   5.317
  243SOL    HW1 1628   4.362   1.422   5.341
  243SOL    HW2 1629   4.525   1.419   5.331
  244SOL     OW 1630   7.018   0.529   6.011
  244SOL    HW1 1631   0.002   0.599   5.939
  244SOL    HW2 1632   7.011   0.439   5.970
  245SOL     OW 1633   5.882   2.213   3.560
  245SOL    HW1 1634   5.852   2.197   3.466
  245SOL    HW2 1635   5.887   2.312   3.576
  246SOL     OW 1636   4.948   3.350   3.808
  246SOL    HW1 1637   4.883   3.305   3.747
  246SOL    HW2 1638   4.953   3.300   3.895
  247SOL     OW 1639   3.191   0.556   3.632
  247SOL    HW1 1640   3.118   0.570   3.566
  247SOL    HW2 1641   3.153   0.541   3.723
  248SOL     OW 1642   5.571   1.664   2.589
  248SOL    HW1 1643   5.558   1.759   2.563
  248SOL    HW2 1644   5.487   1.629   2.631
  249SOL     OW 1645   2.407   6.751   3.627
  249SOL    HW1 1646   2.440   6.694   3.551
  249SOL    HW2 1647   2.380   6.692   3.703
  250SOL     OW 1648   5.426   3.036   6.170
  250SOL    HW1 1649   5.525   3.052   6.172
  250SOL    HW2 1650   5.397   3.022   6.075
  251SOL     OW 1651   2.110   2.460   0.513
  251SOL    HW1 1652   2.031   2.459   0.451
  251SOL    HW2 1653   2.126   2.554   0.545
  252SOL     OW 1654   0.292   1.669   6.767
  252SOL    HW1 1655   0.317   1.587   6.716
  252SOL    HW2 1656   0.194   1.684   6.760
  253SOL     OW 1657   1.703   4.100   5.284
  253SOL    HW1 1658   1.789   4.090   5.235
  253SOL    HW2 1659   1.675   4.011   5.321
  254SOL     OW 1660   5.634   3.613   5.667
  254SOL    HW1 1661   5.631   3.713   5.656
  254SOL    HW2 1662   5.590   3.588   5.753
  255SOL     OW 1663   3.365   2.127   3.319
  255SOL    HW1 1664   3.320   2.117   3.408
  255SOL    HW2 1665   3.451   2.177   3.330
  256SOL     OW 1666   6.579   5.870   0.300
  256SOL    HW1 1667   6.587   5.929   0.380
  256SOL    HW2 1668   6.670   5.850   0.264
  257SOL     OW 1669   3.136   5.391   6.585
  257SOL    HW1 1670   3.108   5.486   6.575
  257SOL    HW2 1671   3.090   5.335   6.517
  258SOL     OW 1672   5.153   3.798   4.370
  258SOL    HW1 1673   5.226   3.738   4.337
  258SOL    HW2 1674   5.068   3.776   4.322
  259SOL     OW 1675   1.156   1.872   2.964
  259SOL    HW1 1676   1.198   1.911   2.882
  259SOL    HW2 1677   1.109   1.788   2.940
  260SOL     OW 1678   6.749   6.977   5.775
  260SOL    HW1 1679   6.682   6.976   5.849
  260SOL    HW2 1680   6.755   6.886   5.734
  261SOL     OW 1681   1.324   1.975   2.729
  261SOL    HW1 1682   1.400   1.955   2.791
  261SOL    HW2 1683   1.342   2.060   2.680
  262SOL     OW 1684   1.856   4.890   1.899
  262SOL    HW1 1685   1.790   4.823   1.865
  262SOL    HW2 1686   1.928   4.903   1.832
  263SOL     OW 1687   0.026   1.842   5.304
  263SOL    HW1 1688   0.089   1.785   5.251
  263SOL    HW2 1689   0.064   1.934   5.314
  264SOL     OW 1690   3.019   4.218   6.128
  264SOL    HW1 1691   2.970   4.137   6.161
  264SOL    HW2 1692   3.117   4.199   6.128
  265SOL     OW 1693   5.634   5.191   5.816
  265SOL    HW1 1694   5.697   5.262   5.785
  265SOL    HW2 1695   5.622   5.198   5.915
  266SOL     OW 1696   3.417   2.366   6.833
  266SOL    HW1 1697   3.377   2.421   6.906
  266SOL    HW2 1698   3.413   2.269   6.857
  267SOL     OW 1699   1.490   1.514   5.660
  267SOL    HW1 1700   1.523   1.594   5.710
  267SOL    HW2 1701   1.441   1.453   5.723
  268SOL     OW 1702   3.248   5.924   3.943
  268SOL    HW1 1703   3.327   5.864   3.927
  268SOL    HW2 1704   3.281   6.016   3.967
  269SOL     OW 1705   1.646   1.275   5.756
  269SOL    HW1 1706   1.673   1.335   5.680
  269SOL    HW2 1707   1.667   1.180   5.731
  270SOL     OW 1708   5.335   6.884   4.500
  270SOL    HW1 1709   5.249   6.932   4.517
  270SOL    HW2 1710   5.327   6.830   4.416
  271SOL     OW 1711   1.606   1.729   6.778
  271SOL    HW1 1712   1.538   1.699   6.846
  271SOL    HW2 1713   1.698   1.719   6.816
  272SOL     OW 1714   5.011   5.879   2.407
  272SOL    HW1 1715   5.068   5.918   2.335
  272SOL    HW2 1716   4.922   5.924   2.409
  273SOL     OW 1717   3.230   6.653   4.901
  273SOL    HW1 1718   3.290   6.732   4.913
  273SOL    HW2 1719   3.285   6.569   4.897
  274SOL     OW 1720   5.636   1.684   0.883
  274SOL    HW1 1721   5.680   1.611   0.936
  274SOL    HW2 1722   5.685   1.770   0.897
  275SOL     OW 1723   5.737   5.629   5.166
  275SOL    HW1 1724   5.699   5.539   5.146
  275SOL    HW2 1725   5.669   5.699   5.145
  276SOL     OW 1726   0.286   6.326   3.616
  276SOL    HW1 1727   0.306   6.229   3.629
  276SOL    HW2 1728   0.196   6.347   3.655
  277SOL     OW 1729   4.728   1.985   5.800
  277SOL    HW1 1730   4.703   1.979   5.897
  277SOL    HW2 1731   4.649   1.961   5.744
  278SOL     OW 1732   5.849   3.225   3.314
  278SOL    HW1 1733   5.765   3.177   3.340
  278SOL    HW2 1734   5.838   3.323   3.330
  279SOL     OW 1735   0.978   3.966   4.433
  279SOL    HW1 1736   0.988   4.043   4.496
  279SOL    HW2 1737   0.881   3.950   4.415
  280SOL     OW 1738   3.376   0.847   3.359
  280SOL    HW1 1739   3.304   0.909   3.329
  280SOL    HW2 1740   3.399   0.783   3.286
  281SOL     OW 1741   5.418   6.664   4.621
  281SOL    HW1 1742   5.384   6.744   4.571
  281SOL    HW2 1743   5.409   6.679   4.719
  282SOL     OW 1744   1.625   2.580   0.186
  282SOL    HW1 1745   1.648   2.484   0.203
  282SOL    HW2 1746   1.600   2.624   0.272
  283SOL     OW 1747   6.337   2.682   4.741
  283SOL    HW1 1748   6.421   2.664   4.791
  283SOL    HW2 1749   6.276   2.602   4.748
  284SOL     OW 1750   4.798   5.337   3.066
  284SOL    HW1 1751   4.710   5.289   3.064
  284SOL    HW2 1752   4.820   5.370   2.974
  285SOL     OW 1753   4.362   0.606   5.519
  285SOL    HW1 1754   4.326   0.617   5.427
  285SOL    HW2 1755   4.462   0.616   5.517
  286SOL     OW 1756   2.543   4.857   5.688
  286SOL    HW1 1757   2.469   4.915   5.722
  286SOL    HW2 1758   2.631   4.903   5.704
  287SOL     OW 1759   3.088   0.325   6.635
  287SOL    HW1 1760   3.139   0.373   6.564
  287SOL    HW2 1761   3.049   0.392   6.699
  288SOL     OW 1762   3.910   1.011   1.061
  288SOL    HW1 1763   3.888   1.021   1.158
  288SOL    HW2 1764   3.829   0.980   1.011
  289SOL     OW 1765   6.257   5.879   3.566
  289SOL    HW1 1766   6.282   5.971   3.597
  289SOL    HW2 1767   6.329   5.844   3.506
  290SOL     OW 1768   3.371   0.706   6.342
  290SOL    HW1 1769   3.471   0.712   6.342
  290SOL    HW2 1770   3.334   0.760   6.418
  291SOL     OW 1771   3.612   0.265   5.208
  291SOL    HW1 1772   3.558   0.317   5.142
  291SOL    HW2 1773   3.567   0.178   5.228
  292SOL     OW 1774   4.960   0.658   4.151
  292SOL    HW1 1775   4.981   0.751   4.182
  292SOL    HW2 1776   4.874   0.627   4.193
  293SOL     OW 1777   5.648   6.804   2.184
  293SOL    HW1 1778   5.724   6.835   2.242
  293SOL    HW2 1779   5.641   6.705   2.189
  294SOL     OW 1780   5.688   1.232   6.235
  294SOL    HW1 1781   5.683   1.317   6.181
  294SOL    HW2 1782   5.736   1.162   6.183
  295SOL     OW 1783   1.568   1.052   4.805
  295SOL    HW1 1784   1.617   1.108   4.738
  295SOL    HW2 1785   1.470   1.053   4.783
  296SOL     OW 1786   0.301   2.210   1.094
  296SOL    HW1 1787   0.306   2.310   1.099
  296SOL    HW2 1788   0.352   2.170   1.170
  297SOL     OW 1789   5.131   3.484   3.345
  297SOL    HW1 1790   5.105   3.578   3.369
  297SOL    HW2 1791   5.130   3.427   3.427
  298SOL     OW 1792   4.444   0.674   6.304
  298SOL    HW1 1793   4.420   0.743   6.373
  298SOL    HW2 1794   4.515   0.614   6.340
  299SOL     OW 1795   0.757   0.457   6.997
  299SOL    HW1 1796   0.718   0.504   6.918
  299SOL    HW2 1797   0.684   0.433   0.041
  300SOL     OW 1798   4.080   0.052   3.546
  300SOL    HW1 1799   4.121   6.991   3.503
  300SOL    HW2 1800   4.001   0.024   3.601
  301SOL     OW 1801   6.676   5.366   0.641
  301SOL    HW1 1802   6.625   5.312   0.574
  301SOL    HW2 1803   6.770   5.378   0.610
  302SOL     OW 1804   0.050   5.330   2.060
  302SOL    HW1 1805   0.061   5.422   2.099
  302SOL    HW2 1806   0.140   5.292   2.039
  303SOL     OW 1807   5.364   5.657   3.428
  303SOL    HW1 1808   5.331   5.679   3.336
  303SOL    HW2 1809   5.463   5.667   3.431
  304SOL     OW 1810   2.849   5.873   4.974
  304SOL    HW1 1811   2.907   5.796   4.949
  304SOL    HW2 1812   2.863   5.948   4.908
  305SOL     OW 1813   0.908   2.885   1.620
  305SOL    HW1 1814   0.945   2.792   1.617
  305SOL    HW2 1815   0.954   2.936   1.693
  306SOL     OW 1816   6.945   6.788   2.986
  306SOL    HW1 1817   6.903   6.878   2.974
  306SOL    HW2 1818   0.005   6.781   2.926
  307SOL     OW 1819   3.245   2.891   4.333
  307SOL    HW1 1820   3.198   2.809   4.366
  307SOL    HW2 1821   3.323   2.864   4.277
  308SOL     OW 1822   5.952   2.092   3.043
  308SOL    HW1 1823   6.026   2.158   3.031
  308SOL    HW2 1824   5.917   2.097   3.136
  309SOL     OW 1825   1.455   6.121   6.627
  309SOL    HW1 1826   1.460   6.146   6.531
  309SOL    HW2 1827   1.407   6.193   6.678
  310SOL     OW 1828   5.252   0.175   5.479
  310SOL    HW1 1829   5.343   0.133   5.475
  310SOL    HW2 1830   5.209   0.151   5.566
  311SOL     OW 1831   1.862   5.768   2.634
  311SOL    HW1 1832   1.843   5.866   2.642
  311SOL    HW2 1833   1.869   5.743   2.537
  312SOL     OW 1834   3.829   0.378   3.706
  312SOL    HW1 1835   3.817   0.422   3.617
  312SOL    HW2 1836   3.769   0.422   3.774
  313SOL     OW 1837   3.099   3.514   2.690
  313SOL    HW1 1838   3.044   3.586   2.648
  313SOL    HW2 1839   3.070   3.425   2.655
  314SOL     OW 1840   3.116   5.564   6.105
  314SOL    HW1 1841   3.022   5.591   6.127
  314SOL    HW2 1842   3.117   5.515   6.018
  315SOL     OW 1843   6.408   0.758   4.328
  315SOL    HW1 1844   6.414   0.782   4.231
  315SOL    HW2 1845   6.470   0.816   4.381
  316SOL     OW 1846   4.012   1.062   6.445
  316SOL    HW1 1847   3.968   1.073   6.534
  316SOL    HW2 1848   3.945   1.075   6.373
  317SOL     OW 1849   1.093   1.900   1.223
  317SOL    HW1 1850   1.183   1.860   1.242
  317SOL    HW2 1851   1.022   1.843   1.264
  318SOL     OW 1852   0.411   0.346   4.866
  318SOL    HW1 1853   0.470   0.422   4.890
  318SOL    HW2 1854   0.331   0.345   4.926
  319SOL     OW 1855   1.083   1.505   3.217
  319SOL    HW1 1856   1.059   1.574   3.148
  319SOL    HW2 1857   1.161   1.452   3.185
  320SOL     OW 1858   5.974   2.339   6.068
  320SOL    HW1 1859   5.914   2.319   5.991
  320SOL    HW2 1860   5.979   2.260   6.128
  321SOL     OW 1861   4.518   3.125   0.396
  321SOL    HW1 1862   4.528   3.151   0.300
  321SOL    HW2 1863   4.600   3.076   0.426
  322SOL     OW 1864   3.214   3.326   6.128
  322SOL    HW1 1865   3.299   3.286   6.161
  322SOL    HW2 1866   3.137   3.267   6.152
  323SOL     OW 1867   1.271   3.457   2.000
  323SOL    HW1 1868   1.310   3.464   1.908
  323SOL    HW2 1869   1.337   3.492   2.067
  324SOL     OW 1870   0.778   0.569   3.201
  324SOL    HW1 1871   0.832   0.622   3.136
  324SOL    HW2 1872   0.788   0.472   3.181
  325SOL     OW 1873   6.639   3.663   1.167
  325SOL    HW1 1874   6.649   3.563   1.163
  325SOL    HW2 1875   6.729   3.705   1.175
  326SOL     OW 1876   0.880   6.475   6.408
  326SOL    HW1 1877   0.889   6.385   6.365
  326SOL    HW2 1878   0.970   6.518   6.416
  327SOL     OW 1879   5.218   5.749   4.255
  327SOL    HW1 1880   5.165   5.811   4.313
  327SOL    HW2 1881   5.157   5.680   4.217
  328SOL     OW 1882   1.944   4.157   2.971
  328SOL    HW1 1883   2.033   4.117   2.949
  328SOL    HW2 1884   1.896   4.098   3.037
  329SOL     OW 1885   2.988   2.929   1.807
  329SOL    HW1 1886   3.029   2.996   1.869
  329SOL    HW2 1887   3.044   2.847   1.804
  330SOL     OW 1888   2.805   5.120   0.976
  330SOL    HW1 1889   2.803   5.127   1.076
  330SOL    HW2 1890   2.802   5.023   0.950
  331SOL     OW 1891   6.555   5.248   6.420
  331SOL    HW1 1892   6.501   5.173   6.383
  331SOL    HW2 1893   6.493   5.321   6.451
  332SOL     OW 1894   5.798   2.446   3.293
  332SOL    HW1 1895   5.804   2.347   3.290
  332SOL    HW2 1896   5.828   2.484   3.206
  333SOL     OW 1897   3.276   0.878   5.683
  333SOL    HW1 1898   3.345   0.948   5.699
  333SOL    HW2 1899   3.185   0.919   5.691
  334SOL     OW 1900   3.602   3.764   3.312
  334SOL    HW1 1901   3.575   3.856   3.283
  334SOL    HW2 1902   3.692   3.769   3.356
  335SOL     OW 1903   3.816   1.712   1.061
  335SOL    HW1 1904   3.861   1.627   1.088
  335SOL    HW2 1905   3.757   1.744   1.135
  336SOL     OW 1906   2.833   1.913   4.120
  336SOL    HW1 1907   2.762   1.842   4.122
  336SOL    HW2 1908   2.902   1.893   4.190
  337SOL     OW 1909   1.196   1.048   5.543
  337SOL    HW1 1910   1.127   1.041   5.614
  337SOL    HW2 1911   1.188   1.137   5.498
  338SOL     OW 1912   4.290   1.694   1.273
  338SOL    HW1 1913   4.384   1.725   1.257
  338SOL    HW2 1914   4.266   1.709   1.369
  339SOL     OW 1915   3.977   6.242   5.161
  339SOL    HW1 1916   4.076   6.250   5.147
  339SOL    HW2 1917   3.960   6.195   5.248
  340SOL     OW 1918   5.087   2.292   4.482
  340SOL    HW1 1919   5.080   2.214   4.420
  340SOL    HW2 1920   5.158   2.274   4.550
  341SOL     OW 1921   6.196   0.109   3.307
  341SOL    HW1 1922   6.131   0.161   3.253
  341SOL    HW2 1923   6.278   0.090   3.253
  342SOL     OW 1924   4.390   2.414   2.472
  342SOL    HW1 1925   4.408   2.429   2.569
  342SOL    HW2 1926   4.419   2.493   2.419
  343SOL     OW 1927   6.661   6.237   2.430
  343SOL    HW1 1928   6.746   6.232   2.482
  343SOL    HW2 1929   6.676   6.201   2.338
  344SOL     OW 1930   0.970   1.865   0.771
  344SOL    HW1 1931   0.883   1.879   0.724
  344SOL    HW2 1932   0.986   1.940   0.835
  345SOL     OW 1933   6.599   3.374   4.034
  345SOL    HW1 1934   6.534   3.447   4.055
  345SOL    HW2 1935   6.564   3.319   3.958
  346SOL     OW 1936   1.818   6.450   3.517
  346SOL    HW1 1937   1.898   6.399   3.547
  346SOL    HW2 1938   1.822   6.463   3.418
  347SOL     OW 1939   2.229   5.318   0.580
  347SOL    HW1 1940   2.165   5.257   0.533
  347SOL    HW2 1941   2.202   5.327   0.676
  348SOL     OW 1942   4.259   5.012   1.409
  348SOL    HW1 1943   4.325   5.044   1.477
  348SOL    HW2 1944   4.309   4.979   1.329
  349SOL     OW 1945   5.795   4.269   1.301
  349SOL    HW1 1946   5.861   4.341   1.281
  349SOL    HW2 1947   5.706   4.309   1.323
  350SOL     OW 1948   3.449   2.688   0.339
  350SOL    HW1 1949   3.474   2.595   0.367
  350SOL    HW2 1950   3.465   2.750   0.416
  351SOL     OW 1951   3.148   4.409   1.053
  351SOL    HW1 1952   3.151   4.471   1.131
  351SOL    HW2 1953   3.156   4.315   1.085
  352SOL     OW 1954   3.941   0.405   3.038
  352SOL    HW1 1955   3.961   0.413   2.941
  352SOL    HW2 1956   3.907   0.492   3.073
  353SOL     OW 1957   2.179   6.624   6.290
  353SOL    HW1 1958   2.136   6.712   6.308
  353SOL    HW2 1959   2.240   6.633   6.211
  354SOL     OW 1960   0.420   2.705   0.377
  354SOL    HW1 1961   0.455   2.790   0.418
  354SOL    HW2 1962   0.454   2.697   0.284
  355SOL     OW 1963   1.396   1.328   2.720
  355SOL    HW1 1964   1.301   1.355   2.734
  355SOL    HW2 1965   1.457   1.395   2.761
  356SOL     OW 1966   1.598   1.022   5.968
  356SOL    HW1 1967   1.571   0.940   6.018
  356SOL    HW2 1968   1.638   0.995   5.880
  357SOL     OW 1969   5.026   0.167   5.298
  357SOL    HW1 1970   5.113   0.154   5.345
  357SOL    HW2 1971   5.018   0.262   5.267
  358SOL     OW 1972   3.611   5.797   6.661
  358SOL    HW1 1973   3.605   5.886   6.707
  358SOL    HW2 1974   3.642   5.728   6.726
  359SOL     OW 1975   2.078   2.164   2.723
  359SOL    HW1 1976   2.047   2.082   2.676
  359SOL    HW2 1977   2.178   2.165   2.726
  360SOL     OW 1978   0.917   4.413   4.217
  360SOL    HW1 1979   0.983   4.487   4.229
  360SOL    HW2 1980   0.836   4.431   4.272
  361SOL     OW 1981   6.467   1.600   2.919
  361SOL    HW1 1982   6.559   1.567   2.898
  361SOL    HW2 1983   6.399   1.538   2.880
  362SOL     OW 1984   3.704   4.762   0.806
  362SOL    HW1 1985   3.641   4.722   0.872
  362SOL    HW2 1986   3.678   4.858   0.790
  363SOL     OW 1987   5.190   5.419   1.683
  363SOL    HW1 1988   5.189   5.487   1.757
  363SOL    HW2 1989   5.201   5.466   1.595
  364SOL     OW 1990   0.967   6.473   6.094
  364SOL    HW1 1991   1.066   6.461   6.094
  364SOL    HW2 1992   0.945   6.570   6.105
  365SOL     OW 1993   4.622   1.706   3.394
  365SOL    HW1 1994   4.664   1.687   3.483
  365SOL    HW2 1995   4.560   1.632   3.369
  366SOL     OW 1996   4.918   2.162   7.015
  366SOL    HW1 1997   5.015   2.164   0.017
  366SOL    HW2 1998   4.906   2.156   6.916
  367SOL     OW 1999   5.346   1.548   5.527
  367SOL    HW1 2000   5.441   1.555   5.494
  367SOL    HW2 2001   5.306   1.462   5.495
  368SOL     OW 2002   6.616   2.181   5.640
  368SOL    HW1 2003   6.551   2.113   5.675
  368SOL    HW2 2004   6.702   2.137   5.617
  369SOL     OW 2005   6.306   3.255   2.116
  369SOL    HW1 2006   6.254   3.339   2.100
  369SOL    HW2 2007   6.258   3.198   2.181
  370SOL     OW 2008   1.220   2.999   3.582
  370SOL    HW1 2009   1.167   2.915   3.569
  370SOL    HW2 2010   1.317   2.977   3.590
  371SOL     OW 2011   1.067   4.860   0.132
  371SOL    HW1 2012   0.986   4.905   0.171
  371SOL    HW2 2013   1.149   4.908   0.162
  372SOL     OW 2014   3.462   5.785   6.101
  372SOL    HW1 2015   3.554   5.753   6.081
  372SOL    HW2 2016   3.457   5.884   6.088
  373SOL     OW 2017   5.629   5.486   4.043
  373SOL    HW1 2018   5.700   5.510   3.977
  373SOL    HW2 2019   5.572   5.565   4.062
  374SOL     OW 2020   2.842   2.018   3.194
  374SOL    HW1 2021   2.847   1.919   3.184
  374SOL    HW2 2022   2.766   2.042   3.254
  375SOL     OW 2023   1.198   5.359   4.277
  375SOL    HW1 2024   1.245   5.429   4.332
  375SOL    HW2 2025   1.260   5.326   4.205
  376SOL     OW 2026   2.886   0.747   3.951
  376SOL    HW1 2027   2.852   0.826   3.900
  376SOL    HW2 2028   2.943   0.779   4.027
  377SOL     OW 2029   0.727   1.767   6.367
  377SOL    HW1 2030   0.727   1.838   6.297
  377SOL    HW2 2031   0.650   1.782   6.430
  378SOL     OW 2032   4.151   1.027   2.174
  378SOL    HW1 2033   4.097   1.047   2.092
  378SOL    HW2 2034   4.217   0.955   2.153
  379SOL     OW 2035   5.924   1.811   6.607
  379SOL    HW1 2036   5.911   1.781   6.513
  379SOL    HW2 2037   5.930   1.731   6.667
  380SOL     OW 2038   4.155   2.141   0.682
  380SOL    HW1 2039   4.114   2.113   0.769
  380SOL    HW2 2040   4.213   2.221   0.696
  381SOL     OW 2041   1.883   3.671   2.689
  381SOL    HW1 2042   1.865   3.604   2.617
  381SOL    HW2 2043   1.981   3.675   2.707
  382SOL     OW 2044   4.845   0.811   6.989
  382SOL    HW1 2045   4.879   0.846   0.056
  382SOL    HW2 2046   4.872   0.873   6.915
  383SOL     OW 2047   4.631   2.483   0.751
  383SOL    HW1 2048   4.675   2.527   0.673
  383SOL    HW2 2049   4.654   2.386   0.753
  384SOL     OW 2050   5.754   3.925   4.501
  384SOL    HW1 2051   5.733   3.881   4.413
  384SOL    HW2 2052   5.753   4.024   4.489
  385SOL     OW 2053   4.292   3.848   0.752
  385SOL    HW1 2054   4.289   3.863   0.851
  385SOL    HW2 2055   4.335   3.926   0.707
  386SOL     OW 2056   3.886   6.319   3.578
  386SOL    HW1 2057   3.789   6.317   3.602
  386SOL    HW2 2058   3.902   6.393   3.512
  387SOL     OW 2059   2.478   6.648   3.383
  387SOL    HW1 2060   2.571   6.684   3.387
  387SOL    HW2 2061   2.468   6.593   3.301
  388SOL     OW 2062   2.111   4.244   6.313
  388SOL    HW1 2063   2.093   4.341   6.331
  388SOL    HW2 2064   2.062   4.216   6.231
  389SOL     OW 2065   2.921   3.642   3.392
  389SOL    HW1 2066   2.860   3.570   3.425
  389SOL    HW2 2067   3.013   3.627   3.427
  390SOL     OW 2068   2.136   1.151   4.096
  390SOL    HW1 2069   2.211   1.198   4.049
  390SOL    HW2 2070   2.066   1.217   4.121
  391SOL     OW 2071   1.162   3.037   6.912
  391SOL    HW1 2072   1.198   3.064   6.823
  391SOL    HW2 2073   1.086   2.973   6.900
  392SOL     OW 2074   2.183   5.531   2.601
  392SOL    HW1 2075   2.143   5.540   2.510
  392SOL    HW2 2076   2.119   5.564   2.669
  393SOL     OW 2077   6.112   4.381   4.902
  393SOL    HW1 2078   6.072   4.297   4.939
  393SOL    HW2 2079   6.094   4.457   4.965
  394SOL     OW 2080   2.257   0.681   6.729
  394SOL    HW1 2081   2.206   0.616   6.785
  394SOL    HW2 2082   2.232   0.668   6.633
  395SOL     OW 2083   5.983   3.644   1.206
  395SOL    HW1 2084   6.037   3.622   1.287
  395SOL    HW2 2085   6.002   3.737   1.177
  396SOL     OW 2086   3.083   4.010   3.732
  396SOL    HW1 2087   3.168   4.034   3.686
  396SOL    HW2 2088   3.034   3.941   3.679
  397SOL     OW 2089   4.567   2.460   5.595
  397SOL    HW1 2090   4.636   2.438   5.526
  397SOL    HW2 2091   4.541   2.557   5.587
  398SOL     OW 2092   1.025   5.065   2.161
  398SOL    HW1 2093   0.974   5.077   2.076
  398SOL    HW2 2094   1.062   5.153   2.190
  399SOL     OW 2095   5.028   5.190   1.719
  399SOL    HW1 2096   5.080   5.272   1.739
  399SOL    HW2 2097   5.008   5.185   1.621
  400SOL     OW 2098   1.460   5.744   5.035
  400SOL    HW1 2099   1.437   5.802   5.114
  400SOL    HW2 2100   1.425   5.786   4.952
  401SOL     OW 2101   4.644   1.643   0.073
  401SOL    HW1 2102   4.576   1.694   0.020
  401SOL    HW2 2103   4.679   1.567   0.017
  402SOL     OW 2104   5.404   5.107   1.181
  402SOL    HW1 2105   5.315   5.148   1.201
  402SOL    HW2 2106   5.473   5.179   1.172
  403SOL     OW 2107   5.090   2.515   5.819
  403SOL    HW1 2108   5.131   2.559   5.899
  403SOL    HW2 2109   5.161   2.495   5.751
  404SOL     OW 2110   0.877   0.434   4.533
  404SOL    HW1 2111   0.812   0.399   4.600
  404SOL    HW2 2112   0.852   0.528   4.509
  405SOL     OW 2113   0.372   2.122   0.835
  405SOL    HW1 2114   0.327   2.152   0.920
  405SOL    HW2 2115   0.433   2.194   0.803
  406SOL     OW 2116   1.936   3.050   3.922
  406SOL    HW1 2117   1.935   3.065   4.021
  406SOL    HW2 2118   2.009   3.105   3.881
  407SOL     OW 2119   3.115   0.765   4.776
  407SOL    HW1 2120   3.159   0.745   4.689
  407SOL    HW2 2121   3.082   0.680   4.817
  408SOL     OW 2122   1.805   0.643   3.775
  408SOL    HW1 2123   1.808   0.709   3.700
  408SOL    HW2 2124   1.741   0.675   3.845
  409SOL     OW 2125   5.808   3.473   3.622
  409SOL    HW1 2126   5.904   3.450   3.638
  409SOL    HW2 2127   5.800   3.529   3.539
  410SOL     OW 2128   2.675   1.241   6.726
  410SOL    HW1 2129   2.646   1.319   6.781
  410SOL    HW2 2130   2.622   1.238   6.641
  411SOL     OW 2131   5.993   4.380   5.317
  411SOL    HW1 2132   6.071   4.428   5.278
  411SOL    HW2 2133   5.960   4.429   5.398
  412SOL     OW 2134   3.840   0.633   2.729
  412SOL    HW1 2135   3.918   0.684   2.767
  412SOL    HW2 2136   3.755   0.678   2.755
  413SOL     OW 2137   3.220   6.374   0.563
  413SOL    HW1 2138   3.213   6.348   0.659
  413SOL    HW2 2139   3.312   6.353   0.529
  414SOL     OW 2140   3.987   3.925   0.565
  414SOL    HW1 2141   3.977   3.834   0.527
  414SOL    HW2 2142   3.909   3.946   0.623
  415SOL     OW 2143   1.975   6.814   1.137
  415SOL    HW1 2144   1.916   6.875   1.190
  415SOL    HW2 2145   2.007   6.740   1.196
  416SOL     OW 2146   4.048   6.103   4.898
  416SOL    HW1 2147   4.013   6.081   4.989
  416SOL    HW2 2148   4.036   6.201   4.880
  417SOL     OW 2149   4.399   6.090   1.820
  417SOL    HW1 2150   4.407   6.186   1.794
  417SOL    HW2 2151   4.415   6.080   1.918
  418SOL     OW 2152   4.993   5.443   1.159
  418SOL    HW1 2153   4.993   5.543   1.166
  418SOL    HW2 2154   4.921   5.413   1.097
  419SOL     OW 2155   7.001   6.599   1.333
  419SOL    HW1 2156   0.031   6.668   1.280
  419SOL    HW2 2157   0.020   6.595   1.425
  420SOL     OW 2158   4.936   4.923   0.472
  420SOL    HW1 2159   5.029   4.890   0.485
  420SOL    HW2 2160   4.898   4.951   0.560
  421SOL     OW 2161   2.257   6.172   6.393
  421SOL    HW1 2162   2.250   6.264   6.431
  421SOL    HW2 2163   2.192   6.112   6.440
  422SOL     OW 2164   5.312   3.860   6.507
  422SOL    HW1 2165   5.295   3.956   6.486
  422SOL    HW2 2166   5.281   3.804   6.430
  423SOL     OW 2167   0.006   3.420   6.904
  423SOL    HW1 2168   0.093   3.410   6.856
  423SOL    HW2 2169   0.022   3.459   6.995
  424SOL     OW 2170   3.129   4.193   0.108
  424SOL    HW1 2171   3.064   4.196   0.032
  424SOL    HW2 2172   3.195   4.119   0.092
  425SOL     OW 2173   3.461   1.817   0.471
  425SOL    HW1 2174   3.458   1.793   0.569
  425SOL    HW2 2175   3.496   1.739   0.420
  426SOL     OW 2176   5.339   3.881   6.107
  426SOL    HW1 2177   5.370   3.797   6.063
  426SOL    HW2 2178   5.268   3.860   6.174
  427SOL     OW 2179   5.211   3.938   1.092
  427SOL    HW1 2180   5.133   4.001   1.091
  427SOL    HW2 2181   5.259   3.943   1.005
  428SOL     OW 2182   3.886   0.845   5.238
  428SOL    HW1 2183   3.954   0.776   5.210
  428SOL    HW2 2184   3.926   0.903   5.308
  429SOL     OW 2185   1.483   4.964   0.293
  429SOL    HW1 2186   1.386   4.974   0.314
  429SOL    HW2 2187   1.530   5.051   0.312
  430SOL     OW 2188   1.242   0.215   5.064
  430SOL    HW1 2189   1.278   0.217   4.971
  430SOL    HW2 2190   1.183   0.295   5.079
  431SOL     OW 2191   3.464   1.766   0.771
  431SOL    HW1 2192   3.530   1.826   0.818
  431SOL    HW2 2193   3.388   1.745   0.833
  432SOL     OW 2194   0.035   1.569   1.076
  432SOL    HW1 2195   7.005   1.585   1.161
  432SOL    HW2 2196   0.030   1.471   1.053
  433SOL     OW 2197   3.152   6.513   5.385
  433SOL    HW1 2198   3.055   6.528   5.367
  433SOL    HW2 2199   3.182   6.431   5.337
  434SOL     OW 2200   6.371   3.167   1.713
  434SOL    HW1 2201   6.335   3.247   1.761
  434SOL    HW2 2202   6.378   3.091   1.776
  435SOL     OW 2203   3.022   4.425   0.185
  435SOL    HW1 2204   3.044   4.328   0.197
  435SOL    HW2 2205   3.059   4.458   0.098
  436SOL     OW 2206   1.952   0.476   0.680
  436SOL    HW1 2207   1.939   0.571   0.709
  436SOL    HW2 2208   1.964   0.472   0.581
  437SOL     OW 2209   6.884   0.231   6.553
  437SOL    HW1 2210   6.939   0.169   6.609
  437SOL    HW2 2211   6.789   0.228   6.583
  438SOL     OW 2212   1.005   2.627   1.588
  438SOL    HW1 2213   1.068   2.646   1.512
  438SOL    HW2 2214   1.021   2.534   1.622
  439SOL     OW 2215   6.565   4.893   2.927
  439SOL    HW1 2216   6.550   4.989   2.901
  439SOL    HW2 2217   6.627   4.889   3.005
  440SOL     OW 2218   1.275   2.624   4.016
  440SOL    HW1 2219   1.334   2.643   4.094
  440SOL    HW2 2220   1.243   2.529   4.021
  441SOL     OW 2221   1.338   1.415   3.109
  441SOL    HW1 2222   1.408   1.444   3.044
  441SOL    HW2 2223   1.374   1.339   3.164
  442SOL     OW 2224   0.032   3.614   0.080
  442SOL    HW1 2225   0.078   3.699   0.106
  442SOL    HW2 2226   6.979   3.596   0.145
  443SOL     OW 2227   0.898   4.031   5.121
  443SOL    HW1 2228   0.837   4.110   5.133
  443SOL    HW2 2229   0.909   3.984   5.209
  444SOL     OW 2230   4.486   2.409   6.295
  444SOL    HW1 2231   4.493   2.344   6.371
  444SOL    HW2 2232   4.473   2.359   6.209
  445SOL     OW 2233   2.407   4.378   3.301
  445SOL    HW1 2234   2.309   4.369   3.281
  445SOL    HW2 2235   2.453   4.292   3.278
  446SOL     OW 2236   3.756   5.072   3.855
  446SOL    HW1 2237   3.759   5.021   3.769
  446SOL    HW2 2238   3.721   5.164   3.839
  447SOL     OW 2239   6.981   5.722   0.442
  447SOL    HW1 2240   0.045   5.672   0.463
  447SOL    HW2 2241   6.936   5.680   0.363
  448SOL     OW 2242   4.296   1.189   4.457
  448SOL    HW1 2243   4.337   1.259   4.399
  448SOL    HW2 2244   4.235   1.131   4.402
  449SOL     OW 2245   5.504   1.244   4.779
  449SOL    HW1 2246   5.407   1.256   4.800
  449SOL    HW2 2247   5.557   1.318   4.819
  450SOL     OW 2248   0.301   6.028   3.541
  450SOL    HW1 2249   0.259   6.074   3.463
  450SOL    HW2 2250   0.230   5.983   3.595
  451SOL     OW 2251   0.409   2.166   2.827
  451SOL    HW1 2252   0.326   2.122   2.791
  451SOL    HW2 2253   0.489   2.127   2.782
  452SOL     OW 2254   0.291   4.352   6.664
  452SOL    HW1 2255   0.310   4.266   6.616
  452SOL    HW2 2256   0.371   4.411   6.660
  453SOL     OW 2257   3.260   1.323   6.650
  453SOL    HW1 2258   3.202   1.374   6.587
  453SOL    HW2 2259   3.317   1.387   6.702
  454SOL     OW 2260   0.725   6.124   6.673
  454SOL    HW1 2261   0.663   6.049   6.698
  454SOL    HW2 2262   0.766   6.105   6.584
  455SOL     OW 2263   6.137   0.877   4.806
  455SOL    HW1 2264   6.148   0.783   4.839
  455SOL    HW2 2265   6.226   0.914   4.782
  456SOL     OW 2266   4.533   5.705   6.338
  456SOL    HW1 2267   4.454   5.753   6.375
  456SOL    HW2 2268   4.502   5.625   6.287
  457SOL     OW 2269   2.261   4.722   3.375
  457SOL    HW1 2270   2.213   4.689   3.294
  457SOL    HW2 2271   2.319   4.649   3.411
  458SOL     OW 2272   6.322   5.243   5.547
  458SOL    HW1 2273   6.266   5.326   5.550
  458SOL    HW2 2274   6.302   5.187   5.628
  459SOL     OW 2275   1.561   0.642   2.343
  459SOL    HW1 2276   1.625   0.701   2.293
  459SOL    HW2 2277   1.483   0.620   2.284
  460SOL     OW 2278   6.519   1.957   2.703
  460SOL    HW1 2279   6.436   1.914   2.668
  460SOL    HW2 2280   6.553   2.023   2.636
  461SOL     OW 2281   4.765   6.403   5.460
  461SOL    HW1 2282   4.757   6.373   5.365
  461SOL    HW2 2283   4.773   6.322   5.519
  462SOL     OW 2284   3.291   3.096   6.521
  462SOL    HW1 2285   3.225   3.079   6.447
  462SOL    HW2 2286   3.242   3.103   6.608
  463SOL     OW 2287   7.016   4.999   2.760
  463SOL    HW1 2288   6.986   4.904   2.758
  463SOL    HW2 2289   6.938   5.058   2.782
  464SOL     OW 2290   1.498   1.695   6.121
  464SOL    HW1 2291   1.497   1.613   6.178
  464SOL    HW2 2292   1.520   1.775   6.176
  465SOL     OW 2293   0.498   2.585   3.916
  465SOL    HW1 2294   0.495   2.683   3.938
  465SOL    HW2 2295   0.440   2.536   3.981
  466SOL     OW 2296   1.292   6.903   4.122
  466SOL    HW1 2297   1.355   6.835   4.160
  466SOL    HW2 2298   1.235   6.860   4.052
  467SOL     OW 2299   1.819   0.508   5.896
  467SOL    HW1 2300   1.861   0.522   5.807
  467SOL    HW2 2301   1.753   0.581   5.914
  468SOL     OW 2302   3.750   5.430   1.151
  468SOL    HW1 2303   3.766   5.338   1.186
  468SOL    HW2 2304   3.727   5.491   1.228
  469SOL     OW 2305   1.785   5.691   0.018
  469SOL    HW1 2306   1.866   5.633   0.008
  469SOL    HW2 2307   1.739   5.669   0.104
  470SOL     OW 2308   4.176   0.909   2.511
  470SOL    HW1 2309   4.267   0.884   2.478
  470SOL    HW2 2310   4.110   0.902   2.435
  471SOL     OW 2311   2.399   2.722   4.727
  471SOL    HW1 2312   2.437   2.688   4.813
  471SOL    HW2 2313   2.408   2.651   4.657
  472SOL     OW 2314   4.714   5.546   6.057
  472SOL    HW1 2315   4.635   5.484   6.051
  472SOL    HW2 2316   4.700   5.610   6.132
  473SOL     OW 2317   1.037   3.153   2.343
  473SOL    HW1 2318   0.944   3.187   2.334
  473SOL    HW2 2319   1.087   3.210   2.409
  474SOL     OW 2320   3.985   5.144   5.059
  474SOL    HW1 2321   4.046   5.153   5.137
  474SOL    HW2 2322   3.903   5.199   5.075
  475SOL     OW 2323   0.096   6.752   6.194
  475SOL    HW1 2324   0.094   6.789   6.287
  475SOL    HW2 2325   0.035   6.673   6.188
  476SOL     OW 2326   6.276   5.023   2.571
  476SOL    HW1 2327   6.256   5.121   2.568
  476SOL    HW2 2328   6.234   4.983   2.652
  477SOL     OW 2329   2.193   5.254   4.006
  477SOL    HW1 2330   2.256   5.297   4.071
  477SOL    HW2 2331   2.154   5.172   4.046
  478SOL     OW 2332   3.529   5.624   3.629
  478SOL    HW1 2333   3.598   5.556   3.603
  478SOL    HW2 2334   3.565   5.716   3.612
  479SOL     OW 2335   3.091   2.655   0.490
  479SOL    HW1 2336   3.104   2.656   0.391
  479SOL    HW2 2337   3.178   2.675   0.535
  480SOL     OW 2338   0.932   6.845   2.644
  480SOL    HW1 2339   0.870   6.785   2.694
  480SOL    HW2 2340   0.904   6.850   2.549
  481SOL     OW 2341   3.124   0.116   1.661
  481SOL    HW1 2342   3.120   0.149   1.567
  481SOL    HW2 2343   3.208   0.147   1.705
  482SOL     OW 2344   5.958   4.762   2.692
  482SOL    HW1 2345   6.056   4.782   2.691
  482SOL    HW2 2346   5.942   4.674   2.646
  483SOL     OW 2347   5.558   1.877   1.886
  483SOL    HW1 2348   5.639   1.847   1.835
  483SOL    HW2 2349   5.491   1.803   1.888
  484SOL     OW 2350   0.590   3.141   4.201
  484SOL    HW1 2351   0.608   3.212   4.132
  484SOL    HW2 2352   0.670   3.129   4.258
  485SOL     OW 2353   3.465   5.169   2.162
  485SOL    HW1 2354   3.419   5.212   2.240
  485SOL    HW2 2355   3.414   5.188   2.078
  486SOL     OW 2356   0.958   0.781   6.936
  486SOL    HW1 2357   1.019   0.752   6.862
  486SOL    HW2 2358   1.011   0.826   7.007
  487SOL     OW 2359   0.639   2.478   0.169
  487SOL    HW1 2360   0.673   2.461   0.076
  487SOL    HW2 2361   0.698   2.544   0.214
  488SOL     OW 2362   0.247   1.981   1.910
  488SOL    HW1 2363   0.256   1.955   1.813
  488SOL    HW2 2364   0.216   2.076   1.916
  489SOL     OW 2365   3.215   6.128   0.053
  489SOL    HW1 2366   3.289   6.157   7.013
  489SOL    HW2 2367   3.170   6.208   0.093
  490SOL     OW 2368   6.223   6.492   4.219
  490SOL    HW1 2369   6.135   6.473   4.176
  490SOL    HW2 2370   6.274   6.558   4.164
  491SOL     OW 2371   1.035   2.487   2.575
  491SOL    HW1 2372   1.064   2.523   2.664
  491SOL    HW2 2373   0.941   2.515   2.557
  492SOL     OW 2374   2.700   0.060   6.405
  492SOL    HW1 2375   2.665   6.990   6.378
  492SOL    HW2 2376   2.766   0.092   6.337
  493SOL     OW 2377   6.458   4.580   5.361
  493SOL    HW1 2378   6.461   4.680   5.362
  493SOL    HW2 2379   6.466   4.548   5.267
  494SOL     OW 2380   0.384   6.952   0.115
  494SOL    HW1 2381   0.289   6.934   0.139
  494SOL    HW2 2382   0.393   0.024   0.076
  495SOL     OW 2383   4.715   4.632   1.747
  495SOL    HW1 2384   4.708   4.725   1.782
  495SOL    HW2 2385   4.755   4.573   1.818
  496SOL     OW 2386   5.510   3.567   3.061
  496SOL    HW1 2387   5.472   3.639   3.003
  496SOL    HW2 2388   5.449   3.488   3.061
  497SOL     OW 2389   3.617   1.261   4.655
  497SOL    HW1 2390   3.669   1.199   4.595
  497SOL    HW2 2391   3.551   1.312   4.600
  498SOL     OW 2392   0.179   2.933   2.455
  498SOL    HW1 2393   0.136   2.994   2.523
  498SOL    HW2 2394   0.265   2.973   2.425
  499SOL     OW 2395   3.890   0.255   5.147
  499SOL    HW1 2396   3.953   0.226   5.218
  499SOL    HW2 2397   3.796   0.253   5.182
  500SOL     OW 2398   0.557   3.434   2.823
  500SOL    HW1 2399   0.596   3.382   2.747
  500SOL    HW2 2400   0.621   3.431   2.901
  501SOL     OW 2401   1.988   3.264   6.625
  501SOL    HW1 2402   1.959   3.356   6.649
  501SOL    HW2 2403   1.909   3.211   6.594
  502SOL     OW 2404   4.551   4.849   6.716
  502SOL    HW1 2405   4.638   4.888   6.745
  502SOL    HW2 2406   4.500   4.818   6.796
  503SOL     OW 2407   5.935   4.687   5.778
  503SOL    HW1 2408   5.913   4.629   5.700
  503SOL    HW2 2409   5.929   4.634   5.862
  504SOL     OW 2410   2.227   6.264   4.561
  504SOL    HW1 2411   2.268   6.250   4.471
  504SOL    HW2 2412   2.128   6.256   4.554
  505SOL     OW 2413   4.687   0.428   5.742
  505SOL    HW1 2414   4.744   0.472   5.673
  505SOL    HW2 2415   4.700   0.473   5.830
  506SOL     OW 2416   1.760   4.376   5.293
  506SOL    HW1 2417   1.761   4.383   5.193
  506SOL    HW2 2418   1.736   4.282   5.319
  507SOL     OW 2419   3.387   0.096   4.943
  507SOL    HW1 2420   3.485   0.107   4.925
  507SOL    HW2 2421   3.337   0.097   4.856
  508SOL     OW 2422   6.746   3.747   3.009
  508SOL    HW1 2423   6.738   3.836   2.964
  508SOL    HW2 2424   6.666   3.691   2.987
  509SOL     OW 2425   4.875   1.406   1.762
  509SOL    HW1 2426   4.822   1.374   1.683
  509SOL    HW2 2427   4.850   1.501   1.781
  510SOL     OW 2428   6.662   4.756   5.110
  510SOL    HW1 2429   6.728   4.831   5.125
  510SOL    HW2 2430   6.584   4.790   5.059
  511SOL     OW 2431   0.584   6.422   0.339
  511SOL    HW1 2432   0.642   6.447   0.262
  511SOL    HW2 2433   0.515   6.493   0.354
  512SOL     OW 2434   1.691   3.438   0.059
  512SOL    HW1 2435   1.754   3.389   7.018
  512SOL    HW2 2436   1.627   3.492   0.005
  513SOL     OW 2437   6.379   5.924   3.946
  513SOL    HW1 2438   6.398   6.018   3.921
  513SOL    HW2 2439   6.441   5.863   3.897
  514SOL     OW 2440   6.491   1.809   4.141
  514SOL    HW1 2441   6.470   1.906   4.124
  514SOL    HW2 2442   6.590   1.797   4.144
  515SOL     OW 2443   2.179   6.983   5.773
  515SOL    HW1 2444   2.143   6.891   5.762
  515SOL    HW2 2445   2.203   6.999   5.869
  516SOL     OW 2446   2.119   4.666   1.262
  516SOL    HW1 2447   2.195   4.632   1.317
  516SOL    HW2 2448   2.042   4.688   1.322
  517SOL     OW 2449   4.773   6.960   1.772
  517SOL    HW1 2450   4.755   7.015   1.853
  517SOL    HW2 2451   4.841   6.889   1.794
  518SOL     OW 2452   2.465   2.329   1.265
  518SOL    HW1 2453   2.484   2.371   1.353
  518SOL    HW2 2454   2.404   2.251   1.277
  519SOL     OW 2455   0.513   0.261   6.102
  519SOL    HW1 2456   0.464   0.335   6.146
  519SOL    HW2 2457   0.466   0.174   6.119
  520SOL     OW 2458   5.540   5.001   6.169
  520SOL    HW1 2459   5.546   4.959   6.079
  520SOL    HW2 2460   5.454   4.976   6.213
  521SOL     OW 2461   7.011   1.953   6.642
  521SOL    HW1 2462   7.001   2.049   6.671
  521SOL    HW2 2463   0.063   1.947   6.572
  522SOL     OW 2464   4.010   3.230   4.867
  522SOL    HW1 2465   3.937   3.235   4.935
  522SOL    HW2 2466   4.035   3.134   4.852
  523SOL     OW 2467   6.799   0.085   4.127
  523SOL    HW1 2468   6.892   0.071   4.162
  523SOL    HW2 2469   6.741   0.122   4.199
  524SOL     OW 2470   2.992   1.207   6.601
  524SOL    HW1 2471   3.082   1.180   6.634
  524SOL    HW2 2472   2.948   1.129   6.556
  525SOL     OW 2473   2.666   3.946   6.754
  525SOL    HW1 2474   2.634   3.857   6.786
  525SOL    HW2 2475   2.766   3.946   6.750
  526SOL     OW 2476   3.346   5.424   4.385
  526SOL    HW1 2477   3.343   5.342   4.328
  526SOL    HW2 2478   3.439   5.461   4.385
  527SOL     OW 2479   0.107   1.464   6.488
  527SOL    HW1 2480   0.059   1.521   6.421
  527SOL    HW2 2481   0.066   1.477   6.578
  528SOL     OW 2482   2.208   1.744   5.220
  528SOL    HW1 2483   2.232   1.649   5.198
  528SOL    HW2 2484   2.193   1.795   5.136
  529SOL     OW 2485   1.182   4.986   4.483
  529SOL    HW1 2486   1.142   4.957   4.569
  529SOL    HW2 2487   1.281   4.990   4.491
  530SOL     OW 2488   2.397   3.242   5.331
  530SOL    HW1 2489   2.483   3.222   5.377
  530SOL    HW2 2490   2.381   3.174   5.260
  531SOL     OW 2491   0.649   0.473   1.377
  531SOL    HW1 2492   0.712   0.549   1.362
  531SOL    HW2 2493   0.577   0.501   1.442
  532SOL     OW 2494   1.012   1.444   5.610
  532SOL    HW1 2495   1.091   1.395   5.646
  532SOL    HW2 2496   0.964   1.386   5.544
  533SOL     OW 2497   5.505   6.445   5.030
  533SOL    HW1 2498   5.498   6.346   5.025
  533SOL    HW2 2499   5.595   6.474   4.997
  534SOL     OW 2500   4.546   5.164   2.955
  534SOL    HW1 2501   4.564   5.135   2.861
  534SOL    HW2 2502   4.451   5.147   2.978
  535SOL     OW 2503   0.511   4.332   3.799
  535SOL    HW1 2504   0.534   4.285   3.884
  535SOL    HW2 2505   0.424   4.297   3.764
  536SOL     OW 2506   1.548   5.561   1.270
  536SOL    HW1 2507   1.596   5.637   1.314
  536SOL    HW2 2508   1.523   5.493   1.339
  537SOL     OW 2509   2.212   0.190   2.365
  537SOL    HW1 2510   2.274   0.139   2.306
  537SOL    HW2 2511   2.253   0.277   2.390
  538SOL     OW 2512   0.856   5.922   3.094
  538SOL    HW1 2513   0.760   5.904   3.073
  538SOL    HW2 2514   0.879   6.016   3.069
  539SOL     OW 2515   1.554   5.121   2.100
  539SOL    HW1 2516   1.624   5.159   2.160
  539SOL    HW2 2517   1.533   5.027   2.128
  540SOL     OW 2518   1.622   2.309   2.164
  540SOL    HW1 2519   1.527   2.317   2.195
  540SOL    HW2 2520   1.636   2.367   2.084
  541SOL     OW 2521   3.261   5.983   5.488
  541SOL    HW1 2522   3.263   5.899   5.435
  541SOL    HW2 2523   3.169   6.022   5.485
  542SOL     OW 2524   6.004   5.529   6.891
  542SOL    HW1 2525   5.905   5.515   6.900
  542SOL    HW2 2526   6.045   5.529   6.982
  543SOL     OW 2527   1.012   4.909   6.783
  543SOL    HW1 2528   1.108   4.892   6.806
  543SOL    HW2 2529   0.956   4.897   6.864
  544SOL     OW 2530   0.825   4.982   0.701
  544SOL    HW1 2531   0.844   5.004   0.797
  544SOL    HW2 2532   0.818   4.883   0.690
  545SOL     OW 2533   3.746   1.374   2.797
  545SOL    HW1 2534   3.809   1.374   2.875
  545SOL    HW2 2535   3.654   1.397   2.828
  546SOL     OW 2536   1.252   3.337   1.060
  546SOL    HW1 2537   1.232   3.369   1.153
  546SOL    HW2 2538   1.176   3.280   1.028
  547SOL     OW 2539   2.467   3.108   0.278
  547SOL    HW1 2540   2.418   3.082   0.195
  547SOL    HW2 2541   2.551   3.157   0.254
  548SOL     OW 2542   3.817   2.936   4.248
  548SOL    HW1 2543   3.775   2.847   4.261
  548SOL    HW2 2544   3.825   2.955   4.151
  549SOL     OW 2545   5.460   3.602   1.278
  549SOL    HW1 2546   5.453   3.530   1.209
  549SOL    HW2 2547   5.548   3.647   1.271
  550SOL     OW 2548   6.370   3.008   2.583
  550SOL    HW1 2549   6.339   2.927   2.632
  550SOL    HW2 2550   6.317   3.088   2.614
  551SOL     OW 2551   6.169   1.886   0.727
  551SOL    HW1 2552   6.151   1.825   0.650
  551SOL    HW2 2553   6.095   1.876   0.794
  552SOL     OW 2554   3.568   5.500   0.748
  552SOL    HW1 2555   3.556   5.456   0.659
  552SOL    HW2 2556   3.658   5.478   0.785
  553SOL     OW 2557   2.272   0.945   1.345
  553SOL    HW1 2558   2.362   0.903   1.334
  553SOL    HW2 2559   2.276   1.014   1.418
  554SOL     OW 2560   5.953   6.329   5.343
  554SOL    HW1 2561   5.899   6.377   5.412
  554SOL    HW2 2562   5.998   6.249   5.385
  555SOL     OW 2563   1.531   4.455   4.415
  555SOL    HW1 2564   1.579   4.489   4.496
  555SOL    HW2 2565   1.559   4.508   4.335
  556SOL     OW 2566   5.810   2.551   3.937
  556SOL    HW1 2567   5.776   2.482   3.873
  556SOL    HW2 2568   5.859   2.622   3.886
  557SOL     OW 2569   7.005   6.522   6.294
  557SOL    HW1 2570   0.082   6.499   6.304
  557SOL    HW2 2571   6.973   6.493   6.204
  558SOL     OW 2572   4.011   3.774   5.073
  558SOL    HW1 2573   4.026   3.712   4.996
  558SOL    HW2 2574   3.961   3.855   5.042
  559SOL     OW 2575   0.110   6.335   6.597
  559SOL    HW1 2576   0.030   6.324   6.656
  559SOL    HW2 2577   0.081   6.354   6.503
  560SOL     OW 2578   4.525   0.222   0.693
  560SOL    HW1 2579   4.458   0.290   0.666
  560SOL    HW2 2580   4.508   0.194   0.788
  561SOL     OW 2581   5.892   0.008   0.565
  561SOL    HW1 2582   5.985   6.991   0.570
  561SOL    HW2 2583   5.860   0.006   0.470
  562SOL     OW 2584   5.227   1.308   5.455
  562SOL    HW1 2585   5.194   1.274   5.543
  562SOL    HW2 2586   5.276   1.235   5.408
  563SOL     OW 2587   3.156   6.361   4.083
  563SOL    HW1 2588   3.202   6.447   4.106
  563SOL    HW2 2589   3.104   6.373   3.999
  564SOL     OW 2590   6.787   1.231   6.567
  564SOL    HW1 2591   6.817   1.299   6.634
  564SOL    HW2 2592   6.705   1.265   6.521
  565SOL     OW 2593   4.758   4.026   5.555
  565SOL    HW1 2594   4.803   4.048   5.641
  565SOL    HW2 2595   4.708   4.107   5.522
  566SOL     OW 2596   4.844   4.560   2.821
  566SOL    HW1 2597   4.780   4.499   2.772
  566SOL    HW2 2598   4.834   4.653   2.785
  567SOL     OW 2599   2.901   3.418   4.630
  567SOL    HW1 2600   2.943   3.333   4.661
  567SOL    HW2 2601   2.898   3.483   4.705
  568SOL     OW 2602   2.268   2.022   0.257
  568SOL    HW1 2603   2.255   2.063   0.166
  568SOL    HW2 2604   2.324   2.083   0.313
  569SOL     OW 2605   2.071   3.063   1.085
  569SOL    HW1 2606   2.137   3.058   1.160
  569SOL    HW2 2607   2.001   3.131   1.106
  570SOL     OW 2608   0.307   6.160   1.039
  570SOL    HW1 2609   0.209   6.138   1.045
  570SOL    HW2 2610   0.349   6.152   1.129
  571SOL     OW 2611   4.169   5.062   2.732
  571SOL    HW1 2612   4.162   4.974   2.687
  571SOL    HW2 2613   4.225   5.053   2.815
  572SOL     OW 2614   1.202   3.978   5.010
  572SOL    HW1 2615   1.236   3.950   4.921
  572SOL    HW2 2616   1.189   4.077   5.011
  573SOL     OW 2617   3.749   1.700   5.578
  573SOL    HW1 2618   3.833   1.752   5.593
  573SOL    HW2 2619   3.727   1.647   5.660
  574SOL     OW 2620   2.107   1.949   4.348
  574SOL    HW1 2621   2.155   1.876   4.397
  574SOL    HW2 2622   2.153   2.036   4.365
  575SOL     OW 2623   5.821   2.399   0.086
  575SOL    HW1 2624   5.862   2.442   0.006
  575SOL    HW2 2625   5.781   2.469   0.144
  576SOL     OW 2626   1.084   1.362   2.309
  576SOL    HW1 2627   1.004   1.373   2.249
  576SOL    HW2 2628   1.053   1.361   2.404
  577SOL     OW 2629   3.129   1.921   3.316
  577SOL    HW1 2630   3.168   1.998   3.367
  577SOL    HW2 2631   3.057   1.878   3.370
  578SOL     OW 2632   0.533   3.670   3.871
  578SOL    HW1 2633   0.465   3.619   3.819
  578SOL    HW2 2634   0.623   3.655   3.830
  579SOL     OW 2635   4.387   2.460   6.977
  579SOL    HW1 2636   4.292   2.484   6.992
  579SOL    HW2 2637   4.441   2.481   0.038
  580SOL     OW 2638   1.343   5.624   6.300
  580SOL    HW1 2639   1.260   5.576   6.274
  580SOL    HW2 2640   1.408   5.559   6.340
  581SOL     OW 2641   4.035   3.339   2.742
  581SOL    HW1 2642   4.010   3.242   2.733
  581SOL    HW2 2643   4.084   3.352   2.828
  582SOL     OW 2644   5.345   3.479   2.385
  582SOL    HW1 2645   5.319   3.415   2.457
  582SOL    HW2 2646   5.420   3.440   2.332
  583SOL     OW 2647   2.194   4.286   0.174
  583SOL    HW1 2648   2.098   4.307   0.193
  583SOL    HW2 2649   2.251   4.361   0.207
  584SOL     OW 2650   6.909   4.945   4.934
  584SOL    HW1 2651   6.996   4.952   4.887
  584SOL    HW2 2652   6.882   4.849   4.941
  585SOL     OW 2653   0.028   1.733   6.776
  585SOL    HW1 2654   0.020   1.819   6.727
  585SOL    HW2 2655   0.004   1.746   6.872
  586SOL     OW 2656   2.656   6.670   0.556
  586SOL    HW1 2657   2.567   6.714   0.545
  586SOL    HW2 2658   2.644   6.580   0.598
  587SOL     OW 2659   1.113   3.423   5.411
  587SOL    HW1 2660   1.020   3.427   5.373
  587SOL    HW2 2661   1.124   3.495   5.480
  588SOL     OW 2662   3.280   6.460   1.510
  588SOL    HW1 2663   3.198   6.404   1.498
  588SOL    HW2 2664   3.256   6.544   1.558
  589SOL     OW 2665   3.592   5.242   2.546
  589SOL    HW1 2666   3.670   5.197   2.589
  589SOL    HW2 2667   3.608   5.252   2.448
  590SOL     OW 2668   0.060   1.621   1.895
  590SOL    HW1 2669   7.009   1.688   1.917
  590SOL    HW2 2670   0.092   1.637   1.801
  591SOL     OW 2671   3.585   6.953   3.128
  591SOL    HW1 2672   3.666   6.965   3.070
  591SOL    HW2 2673   3.604   6.884   3.198
  592SOL     OW 2674   4.933   0.943   0.529
  592SOL    HW1 2675   4.879   1.022   0.560
  592SOL    HW2 2676   4.876   0.861   0.534
  593SOL     OW 2677   5.000   2.448   3.952
  593SOL    HW1 2678   5.036   2.540   3.934
  593SOL    HW2 2679   5.015   2.390   3.872
  594SOL     OW 2680   3.928   3.073   1.646
  594SOL    HW1 2681   4.014   3.083   1.696
  594SOL    HW2 2682   3.873   3.001   1.688
  595SOL     OW 2683   3.709   6.075   3.405
  595SOL    HW1 2684   3.792   6.044   3.452
  595SOL    HW2 2685   3.727   6.163   3.360
  596SOL     OW 2686   1.356   4.307   3.011
  596SOL    HW1 2687   1.375   4.240   3.083
  596SOL    HW2 2688   1.258   4.326   3.008
  597SOL     OW 2689   4.114   1.347   5.402
  597SOL    HW1 2690   4.079   1.261   5.439
  597SOL    HW2 2691   4.064   1.370   5.318
  598SOL     OW 2692   3.861   4.663   1.235
  598SOL    HW1 2693   3.916   4.588   1.271
  598SOL    HW2 2694   3.815   4.634   1.152
  599SOL     OW 2695   5.913   6.720   2.586
  599SOL    HW1 2696   5.842   6.741   2.518
  599SOL    HW2 2697   5.871   6.710   2.676
  600SOL     OW 2698   2.162   6.751   0.398
  600SOL    HW1 2699   2.194   6.679   0.336
  600SOL    HW2 2700   2.068   6.776   0.375
  601SOL     OW 2701   3.164   5.564   4.009
  601SOL    HW1 2702   3.104   5.487   4.033
  601SOL    HW2 2703   3.135   5.603   3.922
  602SOL     OW 2704   2.440   0.526   1.319
  602SOL    HW1 2705   2.446   0.518   1.220
  602SOL    HW2 2706   2.385   0.606   1.343
  603SOL     OW 2707   4.413   1.993   3.208
  603SOL    HW1 2708   4.368   1.912   3.247
  603SOL    HW2 2709   4.353   2.072   3.219
  604SOL     OW 2710   0.623   4.110   6.380
  604SOL    HW1 2711   0.600   4.204   6.357
  604SOL    HW2 2712   0.717   4.105   6.415
  605SOL     OW 2713   5.829   0.393   4.484
  605SOL    HW1 2714   5.776   0.397   4.569
  605SOL    HW2 2715   5.882   0.477   4.475
  606SOL     OW 2716   3.121   0.036   3.657
  606SOL    HW1 2717   3.105   0.037   3.558
  606SOL    HW2 2718   3.215   0.066   3.676
  607SOL     OW 2719   5.193   0.650   4.424
  607SOL    HW1 2720   5.251   0.727   4.398
  607SOL    HW2 2721   5.109   0.684   4.467
  608SOL     OW 2722   3.982   1.522   1.397
  608SOL    HW1 2723   4.039   1.498   1.318
  608SOL    HW2 2724   3.889   1.540   1.368
  609SOL     OW 2725   3.801   3.810   4.428
  609SOL    HW1 2726   3.776   3.728   4.375
  609SOL    HW2 2727   3.749   3.888   4.395
  610SOL     OW 2728   5.047   2.554   4.589
  610SOL    HW1 2729   5.058   2.480   4.523
  610SOL    HW2 2730   5.063   2.641   4.544
  611SOL     OW 2731   0.753   6.969   0.406
  611SOL    HW1 2732   0.814   0.026   0.427
  611SOL    HW2 2733   0.718   6.930   0.491
  612SOL     OW 2734   3.112   5.454   5.839
  612SOL    HW1 2735   3.062   5.525   5.788
  612SOL    HW2 2736   3.087   5.364   5.803
  613SOL     OW 2737   3.252   1.859   0.089
  613SOL    HW1 2738   3.283   1.878   0.182
  613SOL    HW2 2739   3.160   1.896   0.076
  614SOL     OW 2740   5.106   4.699   1.195
  614SOL    HW1 2741   5.202   4.727   1.202
  614SOL    HW2 2742   5.094   4.642   1.114
  615SOL     OW 2743   6.806   6.913   0.741
  615SOL    HW1 2744   6.879   6.971   0.777
  615SOL    HW2 2745   6.717   6.950   0.769
  616SOL     OW 2746   5.883   1.606   4.522
  616SOL    HW1 2747   5.896   1.516   4.564
  616SOL    HW2 2748   5.857   1.672   4.593
  617SOL     OW 2749   0.440   4.912   5.602
  617SOL    HW1 2750   0.452   4.871   5.692
  617SOL    HW2 2751   0.384   4.852   5.545
  618SOL     OW 2752   6.743   3.621   0.494
  618SOL    HW1 2753   6.644   3.635   0.503
  618SOL    HW2 2754   6.791   3.707   0.511
  619SOL     OW 2755   2.533   0.216   6.830
  619SOL    HW1 2756   2.542   0.117   6.818
  619SOL    HW2 2757   2.583   0.245   6.912
  620SOL     OW 2758   6.645   1.314   2.732
  620SOL    HW1 2759   6.560   1.263   2.749
  620SOL    HW2 2760   6.648   1.342   2.636
  621SOL     OW 2761   3.452   0.979   6.783
  621SOL    HW1 2762   3.400   1.007   6.863
  621SOL    HW2 2763   3.457   0.879   6.779
  622SOL     OW 2764   0.972   1.525   5.117
  622SOL    HW1 2765   0.907   1.555   5.048
  622SOL    HW2 2766   0.942   1.557   5.207
  623SOL     OW 2767   6.036   6.879   4.711
  623SOL    HW1 2768   5.946   6.841   4.687
  623SOL    HW2 2769   6.077   6.922   4.631
  624SOL     OW 2770   6.122   1.214   6.218
  624SOL    HW1 2771   6.081   1.283   6.158
  624SOL    HW2 2772   6.065   1.204   6.300
  625SOL     OW 2773   2.561   1.476   0.659
  625SOL    HW1 2774   2.557   1.553   0.595
  625SOL    HW2 2775   2.480   1.419   0.649
  626SOL     OW 2776   0.204   5.002   3.588
  626SOL    HW1 2777   0.138   4.968   3.656
  626SOL    HW2 2778   0.295   4.965   3.609
  627SOL     OW 2779   6.437   0.170   6.952
  627SOL    HW1 2780   6.527   0.137   6.924
  627SOL    HW2 2781   6.429   0.267   6.929
  628SOL     OW 2782   4.628   4.626   5.947
  628SOL    HW1 2783   4.626   4.668   6.038
  628SOL    HW2 2784   4.544   4.575   5.931
  629SOL     OW 2785   0.393   6.792   6.250
  629SOL    HW1 2786   0.325   6.757   6.186
  629SOL    HW2 2787   0.446   6.716   6.288
  630SOL     OW 2788   6.695   0.842   1.200
  630SOL    HW1 2789   6.768   0.908   1.218
  630SOL    HW2 2790   6.639   0.831   1.282
  631SOL     OW 2791   1.894   2.673   4.595
  631SOL    HW1 2792   1.927   2.755   4.641
  631SOL    HW2 2793   1.967   2.605   4.592
  632SOL     OW 2794   3.611   3.594   6.562
  632SOL    HW1 2795   3.531   3.630   6.609
  632SOL    HW2 2796   3.588   3.507   6.518
  633SOL     OW 2797   1.820   6.078   1.448
  633SOL    HW1 2798   1.868   5.990   1.441
  633SOL    HW2 2799   1.886   6.152   1.437
  634SOL     OW 2800   3.185   3.035   3.914
  634SOL    HW1 2801   3.191   2.975   3.993
  634SOL    HW2 2802   3.275   3.046   3.873
  635SOL     OW 2803   5.596   1.152   6.723
  635SOL    HW1 2804   5.635   1.233   6.680
  635SOL    HW2 2805   5.500   1.168   6.744
  636SOL     OW 2806   2.924   0.980   6.462
  636SOL    HW1 2807   2.978   0.922   6.401
  636SOL    HW2 2808   2.841   0.931   6.489
  637SOL     OW 2809   6.436   1.448   2.461
  637SOL    HW1 2810   6.340   1.429   2.482
  637SOL    HW2 2811   6.473   1.374   2.405
  638SOL     OW 2812   6.287   3.614   4.348
  638SOL    HW1 2813   6.230   3.605   4.430
  638SOL    HW2 2814   6.236   3.663   4.278
  639SOL     OW 2815   5.294   4.713   2.526
  639SOL    HW1 2816   5.363   4.664   2.579
  639SOL    HW2 2817   5.207   4.664   2.532
  640SOL     OW 2818   0.850   2.134   1.597
  640SOL    HW1 2819   0.895   2.122   1.509
  640SOL    HW2 2820   0.832   2.231   1.613
  641SOL     OW 2821   2.525   5.182   4.314
  641SOL    HW1 2822   2.450   5.223   4.262
  641SOL    HW2 2823   2.578   5.122   4.253
  642SOL     OW 2824   0.581   3.754   4.817
  642SOL    HW1 2825   0.563   3.719   4.725
  642SOL    HW2 2826   0.590   3.678   4.880
  643SOL     OW 2827   4.912   5.390   0.028
  643SOL    HW1 2828   4.969   5.311   0.051
  643SOL    HW2 2829   4.817   5.361   0.021
  644SOL     OW 2830   7.003   6.516   4.942
  644SOL    HW1 2831   7.008   6.571   4.859
  644SOL    HW2 2832   0.067   6.462   4.952
  645SOL     OW 2833   3.870   5.263   1.778
  645SOL    HW1 2834   3.937   5.272   1.852
  645SOL    HW2 2835   3.823   5.175   1.786
  646SOL     OW 2836   3.890   1.467   5.195
  646SOL    HW1 2837   3.965   1.519   5.156
  646SOL    HW2 2838   3.916   1.371   5.204
  647SOL     OW 2839   4.501   2.734   5.846
  647SOL    HW1 2840   4.452   2.646   5.840
  647SOL    HW2 2841   4.523   2.766   5.754
  648SOL     OW 2842   5.759   1.365   3.337
  648SOL    HW1 2843   5.824   1.436   3.307
  648SOL    HW2 2844   5.802   1.308   3.407
  649SOL     OW 2845   2.333   5.829   0.552
  649SOL    HW1 2846   2.247   5.807   0.505
  649SOL    HW2 2847   2.407   5.774   0.512
  650SOL     OW 2848   0.235   4.370   0.717
  650SOL    HW1 2849   0.214   4.285   0.670
  650SOL    HW2 2850   0.185   4.445   0.674
  651SOL     OW 2851   1.570   0.295   4.847
  651SOL    HW1 2852   1.610   0.233   4.914
  651SOL    HW2 2853   1.603   0.270   4.756
  652SOL     OW 2854   3.778   6.145   2.159
  652SOL    HW1 2855   3.783   6.245   2.161
  652SOL    HW2 2856   3.869   6.107   2.147
  653SOL     OW 2857   0.903   6.975   2.068
  653SOL    HW1 2858   0.975   6.981   2.138
  653SOL    HW2 2859   0.814   6.972   2.112
  654SOL     OW 2860   0.130   6.954   4.891
  654SOL    HW1 2861   0.193   6.898   4.838
  654SOL    HW2 2862   0.103   6.905   4.974
  655SOL     OW 2863   6.791   4.027   2.417
  655SOL    HW1 2864   6.713   4.018   2.479
  655SOL    HW2 2865   6.818   3.936   2.385
  656SOL     OW 2866   3.830   6.063   0.298
  656SOL    HW1 2867   3.769   6.025   0.228
  656SOL    HW2 2868   3.821   6.162   0.299
  657SOL     OW 2869   3.877   3.332   2.167
  657SOL    HW1 2870   3.923   3.321   2.079
  657SOL    HW2 2871   3.846   3.427   2.177
  658SOL     OW 2872   1.697   2.827   4.497
  658SOL    HW1 2873   1.750   2.910   4.517
  658SOL    HW2 2874   1.739   2.749   4.542
  659SOL     OW 2875   2.206   6.107   6.084
  659SOL    HW1 2876   2.240   6.127   6.176
  659SOL    HW2 2877   2.214   6.008   6.067
  660SOL     OW 2878   5.404   4.378   2.508
  660SOL    HW1 2879   5.449   4.466   2.518
  660SOL    HW2 2880   5.331   4.369   2.576
  661SOL     OW 2881   4.584   4.552   4.267
  661SOL    HW1 2882   4.635   4.482   4.316
  661SOL    HW2 2883   4.555   4.517   4.178
  662SOL     OW 2884   4.833   3.567   0.160
  662SOL    HW1 2885   4.769   3.512   0.214
  662SOL    HW2 2886   4.850   3.522   0.073
  663SOL     OW 2887   0.519   4.338   0.550
  663SOL    HW1 2888   0.427   4.314   0.581
  663SOL    HW2 2889   0.513   4.399   0.471
  664SOL     OW 2890   1.828   6.663   6.978
  664SOL    HW1 2891   1.888   6.739   6.954
  664SOL    HW2 2892   1.880   6.578   6.980
  665SOL     OW 2893   4.012   5.084   1.326
  665SOL    HW1 2894   4.004   5.058   1.229
  665SOL    HW2 2895   4.107   5.074   1.355
  666SOL     OW 2896   2.945   1.589   0.316
  666SOL    HW1 2897   2.849   1.564   0.324
  666SOL    HW2 2898   3.001   1.525   0.368
  667SOL     OW 2899   1.164   2.913   3.008
  667SOL    HW1 2900   1.185   2.899   2.911
  667SOL    HW2 2901   1.104   2.840   3.040
  668SOL     OW 2902   5.373   7.018   0.228
  668SOL    HW1 2903   5.423   6.932   0.216
  668SOL    HW2 2904   5.396   0.038   0.317
  669SOL     OW 2905   1.586   5.873   3.194
  669SOL    HW1 2906   1.638   5.942   3.244
  669SOL    HW2 2907   1.621   5.866   3.100
  670SOL     OW 2908   3.445   2.960   3.354
  670SOL    HW1 2909   3.362   2.953   3.299
  670SOL    HW2 2910   3.447   3.049   3.399
  671SOL     OW 2911   1.721   0.007   5.928
  671SOL    HW1 2912   1.738   0.094   5.973
  671SOL    HW2 2913   1.663   6.970   5.986
  672SOL     OW 2914   2.509   2.540   3.747
  672SOL    HW1 2915   2.439   2.602   3.711
  672SOL    HW2 2916   2.537   2.569   3.838
  673SOL     OW 2917   5.668   0.126   1.347
  673SOL    HW1 2918   5.645   0.151   1.253
  673SOL    HW2 2919   5.638   0.033   1.365
  674SOL     OW 2920   0.452   1.965   3.562
  674SOL    HW1 2921   0.403   1.973   3.475
  674SOL    HW2 2922   0.420   2.037   3.624
  675SOL     OW 2923   6.011   2.882   5.020
  675SOL    HW1 2924   5.996   2.784   5.006
  675SOL    HW2 2925   6.097   2.909   4.976
  676SOL     OW 2926   1.984   4.208   4.223
  676SOL    HW1 2927   2.072   4.249   4.199
  676SOL    HW2 2928   1.992   4.163   4.312
  677SOL     OW 2929   6.225   6.982   0.561
  677SOL    HW1 2930   6.218   0.061   0.572
  677SOL    HW2 2931   6.314   6.951   0.592
  678SOL     OW 2932   2.564   1.557   6.579
  678SOL    HW1 2933   2.576   1.546   6.678
  678SOL    HW2 2934   2.555   1.467   6.537
  679SOL     OW 2935   5.207   7.015   3.031
  679SOL    HW1 2936   5.141   0.066   3.009
  679SOL    HW2 2937   5.159   6.932   3.059
  680SOL     OW 2938   4.882   4.328   5.279
  680SOL    HW1 2939   4.953   4.381   5.326
  680SOL    HW2 2940   4.835   4.386   5.213
  681SOL     OW 2941   0.702   6.922   1.860
  681SOL    HW1 2942   0.718   6.976   1.778
  681SOL    HW2 2943   0.764   6.952   1.933
  682SOL     OW 2944   1.962   5.823   0.925
  682SOL    HW1 2945   1.932   5.893   0.990
  682SOL    HW2 2946   1.909   5.740   0.939
  683SOL     OW 2947   5.479   1.277   0.596
  683SOL    HW1 2948   5.562   1.333   0.584
  683SOL    HW2 2949   5.401   1.337   0.611
  684SOL     OW 2950   0.107   5.797   6.120
  684SOL    HW1 2951   0.016   5.820   6.084
  684SOL    HW2 2952   0.114   5.829   6.214
  685SOL     OW 2953   5.970   0.438   5.523
  685SOL    HW1 2954   6.046   0.407   5.581
  685SOL    HW2 2955   5.982   0.535   5.501
  686SOL     OW 2956   5.524   4.864   3.029
  686SOL    HW1 2957   5.475   4.789   3.074
  686SOL    HW2 2958   5.579   4.828   2.954
  687SOL     OW 2959   6.387   3.471   5.742
  687SOL    HW1 2960   6.431   3.516   5.820
  687SOL    HW2 2961   6.453   3.464   5.667
  688SOL     OW 2962   6.932   4.142   5.640
  688SOL    HW1 2963   6.996   4.170   5.568
  688SOL    HW2 2964   6.838   4.159   5.610
  689SOL     OW 2965   5.722   3.887   5.906
  689SOL    HW1 2966   5.696   3.836   5.988
  689SOL    HW2 2967   5.810   3.853   5.872
  690SOL     OW 2968   1.321   1.740   3.234
  690SOL    HW1 2969   1.319   1.783   3.144
  690SOL    HW2 2970   1.332   1.641   3.223
  691SOL     OW 2971   0.723   3.050   6.381
  691SOL    HW1 2972   0.669   2.969   6.403
  691SOL    HW2 2973   0.801   3.024   6.324
  692SOL     OW 2974   1.973   0.263   3.180
  692SOL    HW1 2975   2.030   0.344   3.193
  692SOL    HW2 2976   2.012   0.206   3.108
  693SOL     OW 2977   6.891   1.813   1.965
  693SOL    HW1 2978   6.803   1.856   1.943
  693SOL    HW2 2979   6.887   1.777   2.058
  694SOL     OW 2980   1.859   0.414   1.409
  694SOL    HW1 2981   1.820   0.327   1.438
  694SOL    HW2 2982   1.868   0.414   1.309
  695SOL     OW 2983   4.307   6.338   5.705
  695SOL    HW1 2984   4.273   6.300   5.619
  695SOL    HW2 2985   4.342   6.265   5.762
  696SOL     OW 2986   4.259   5.798   2.352
  696SOL    HW1 2987   4.299   5.885   2.323
  696SOL    HW2 2988   4.214   5.755   2.274
  697SOL     OW 2989   1.063   4.058   3.473
  697SOL    HW1 2990   1.053   3.964   3.443
  697SOL    HW2 2991   1.159   4.085   3.467
  698SOL     OW 2992   4.520   0.091   3.431
  698SOL    HW1 2993   4.596   0.039   3.470
  698SOL    HW2 2994   4.441   0.087   3.492
  699SOL     OW 2995   1.660   4.223   0.840
  699SOL    HW1 2996   1.719   4.258   0.912
  699SOL    HW2 2997   1.686   4.264   0.752
  700SOL     OW 2998   2.247   1.525   4.583
  700SOL    HW1 2999   2.230   1.601   4.646
  700SOL    HW2 3000   2.293   1.451   4.632
  701SOL     OW 3001   0.208   4.239   6.084
  701SOL    HW1 3002   0.145   4.223   6.008
  701SOL    HW2 3003   0.209   4.159   6.144
  702SOL     OW 3004   5.342   5.791   4.709
  702SOL    HW1 3005   5.347   5.833   4.619
  702SOL    HW2 3006   5.250   5.757   4.726
  703SOL     OW 3007   3.661   3.885   6.533
  703SOL    HW1 3008   3.704   3.888   6.623
  703SOL    HW2 3009   3.633   3.792   6.512
  704SOL     OW 3010   2.070   6.953   0.131
  704SOL    HW1 3011   2.042   0.011   0.075
  704SOL    HW2 3012   2.111   6.883   0.073
  705SOL     OW 3013   6.133   2.404   2.213
  705SOL    HW1 3014   6.194   2.343   2.264
  705SOL    HW2 3015   6.084   2.352   2.143
  706SOL     OW 3016   3.383   1.882   3.616
  706SOL    HW1 3017   3.371   1.798   3.669
  706SOL    HW2 3018   3.404   1.859   3.521
  707SOL     OW 3019   5.328   0.978   1.522
  707SOL    HW1 3020   5.317   1.070   1.559
  707SOL    HW2 3021   5.275   0.970   1.437
  708SOL     OW 3022   4.166   0.775   1.765
  708SOL    HW1 3023   4.073   0.737   1.764
  708SOL    HW2 3024   4.231   0.704   1.790
  709SOL     OW 3025   0.851   4.978   0.267
  709SOL    HW1 3026   0.767   4.934   0.236
  709SOL    HW2 3027   0.840   5.078   0.261
  710SOL     OW 3028   3.003   3.964   2.626
  710SOL    HW1 3029   3.100   3.979   2.605
  710SOL    HW2 3030   2.948   4.035   2.582
  711SOL     OW 3031   0.296   0.606   4.113
  711SOL    HW1 3032   0.268   0.575   4.022
  711SOL    HW2 3033   0.373   0.668   4.104
  712SOL     OW 3034   1.616   3.876   1.587
  712SOL    HW1 3035   1.711   3.878   1.617
  712SOL    HW2 3036   1.575   3.789   1.612
  713SOL     OW 3037   3.956   3.096   2.756
  713SOL    HW1 3038   3.891   3.109   2.682
  713SOL    HW2 3039   4.023   3.026   2.731
  714SOL     OW 3040   4.765   5.099   4.912
  714SOL    HW1 3041   4.728   5.019   4.960
  714SOL    HW2 3042   4.730   5.101   4.819
  715SOL     OW 3043   4.369   0.146   6.251
  715SOL    HW1 3044   4.290   0.086   6.263
  715SOL    HW2 3045   4.394   0.149   6.154
  716SOL     OW 3046   0.081   4.632   1.338
  716SOL    HW1 3047   0.147   4.647   1.265
  716SOL    HW2 3048   0.116   4.564   1.402
  717SOL     OW 3049   6.273   2.374   0.558
  717SOL    HW1 3050   6.219   2.308   0.610
  717SOL    HW2 3051   6.212   2.445   0.522
  718SOL     OW 3052   3.870   3.681   6.231
  718SOL    HW1 3053   3.922   3.709   6.311
  718SOL    HW2 3054   3.933   3.654   6.158
  719SOL     OW 3055   5.661   4.037   0.850
  719SOL    HW1 3056   5.654   4.027   0.949
  719SOL    HW2 3057   5.670   3.947   0.808
  720SOL     OW 3058   2.721   1.587   6.369
  720SOL    HW1 3059   2.725   1.490   6.345
  720SOL    HW2 3060   2.657   1.600   6.444
  721SOL     OW 3061   1.429   0.168   5.841
  721SOL    HW1 3062   1.354   0.197   5.781
  721SOL    HW2 3063   1.478   0.092   5.798
  722SOL     OW 3064   4.001   0.221   4.903
  722SOL    HW1 3065   4.051   0.135   4.890
  722SOL    HW2 3066   3.950   0.217   4.989
  723SOL     OW 3067   0.962   2.926   1.905
  723SOL    HW1 3068   0.977   2.986   1.983
  723SOL    HW2 3069   0.871   2.883   1.912
  724SOL     OW 3070   0.111   0.964   5.048
  724SOL    HW1 3071   0.158   0.984   5.134
  724SOL    HW2 3072   0.178   0.941   4.978
  725SOL     OW 3073   2.045   4.964   1.699
  725SOL    HW1 3074   2.094   4.959   1.786
  725SOL    HW2 3075   2.106   4.998   1.628
  726SOL     OW 3076   4.120   6.949   6.319
  726SOL    HW1 3077   4.032   6.902   6.311
  726SOL    HW2 3078   4.107   0.017   6.364
  727SOL     OW 3079   3.128   5.018   4.226
  727SOL    HW1 3080   3.134   4.976   4.135
  727SOL    HW2 3081   3.212   5.068   4.245
  728SOL     OW 3082   6.833   4.080   5.237
  728SOL    HW1 3083   6.904   4.149   5.221
  728SOL    HW2 3084   6.790   4.055   5.150
  729SOL     OW 3085   2.579   6.964   1.606
  729SOL    HW1 3086   2.640   0.018   1.633
  729SOL    HW2 3087   2.610   6.925   1.519
  730SOL     OW 3088   5.683   0.547   3.834
  730SOL    HW1 3089   5.653   0.481   3.764
  730SOL    HW2 3090   5.676   0.505   3.924
  731SOL     OW 3091   5.491   3.730   3.925
  731SOL    HW1 3092   5.526   3.734   4.018
  731SOL    HW2 3093   5.552   3.676   3.868
  732SOL     OW 3094   6.240   2.722   1.196
  732SOL    HW1 3095   6.166   2.668   1.157
  732SOL    HW2 3096   6.328   2.690   1.162
  733SOL     OW 3097   4.919   4.459   3.813
  733SOL    HW1 3098   4.856   4.537   3.805
  733SOL    HW2 3099   5.009   4.485   3.778
  734SOL     OW 3100   6.447   4.573   0.842
  734SOL    HW1 3101   6.423   4.670   0.851
  734SOL    HW2 3102   6.367   4.518   0.865
  735SOL     OW 3103   1.795   4.279   6.419
  735SOL    HW1 3104   1.713   4.223   6.433
  735SOL    HW2 3105   1.850   4.279   6.503
  736SOL     OW 3106   6.311   1.215   3.554
  736SOL    HW1 3107   6.355   1.136   3.511
  736SOL    HW2 3108   6.252   1.260   3.487
  737SOL     OW 3109   5.197   3.293   0.503
  737SOL    HW1 3110   5.218   3.390   0.515
  737SOL    HW2 3111   5.106   3.273   0.541
  738SOL     OW 3112   0.839   3.949   3.995
  738SOL    HW1 3113   0.770   3.944   4.068
  738SOL    HW2 3114   0.793   3.966   3.907
  739SOL     OW 3115   4.261   6.118   6.483
  739SOL    HW1 3116   4.306   6.200   6.449
  739SOL    HW2 3117   4.172   6.108   6.438
  740SOL     OW 3118   6.539   6.527   1.745
  740SOL    HW1 3119   6.501   6.570   1.663
  740SOL    HW2 3120   6.611   6.463   1.719
  741SOL     OW 3121   2.036   0.190   2.606
  741SOL    HW1 3122   2.112   0.170   2.544
  741SOL    HW2 3123   1.961   0.232   2.554
  742SOL     OW 3124   0.834   6.976   3.357
  742SOL    HW1 3125   0.808   0.049   3.381
  742SOL    HW2 3126   0.790   6.950   3.271
  743SOL     OW 3127   2.259   4.009   4.534
  743SOL    HW1 3128   2.299   3.921   4.506
  743SOL    HW2 3129   2.299   4.082   4.478
  744SOL     OW 3130   0.162   5.289   0.635
  744SOL    HW1 3131   0.130   5.332   0.720
  744SOL    HW2 3132   0.260   5.271   0.642
  745SOL     OW 3133   1.596   5.742   2.701
  745SOL    HW1 3134   1.686   5.720   2.663
  745SOL    HW2 3135   1.546   5.801   2.637
  746SOL     OW 3136   1.604   0.860   5.209
  746SOL    HW1 3137   1.670   0.915   5.259
  746SOL    HW2 3138   1.619   0.871   5.110
  747SOL     OW 3139   4.930   4.879   3.223
  747SOL    HW1 3140   4.892   4.870   3.131
  747SOL    HW2 3141   4.943   4.976   3.244
  748SOL     OW 3142   4.987   3.555   1.296
  748SOL    HW1 3143   5.076   3.590   1.267
  748SOL    HW2 3144   5.000   3.477   1.357
  749SOL     OW 3145   6.853   1.681   5.391
  749SOL    HW1 3146   6.784   1.650   5.325
  749SOL    HW2 3147   6.922   1.737   5.344
  750SOL     OW 3148   2.411   4.336   0.440
  750SOL    HW1 3149   2.375   4.244   0.433
  750SOL    HW2 3150   2.507   4.333   0.468
  751SOL     OW 3151   4.356   0.885   0.152
  751SOL    HW1 3152   4.329   0.982   0.153
  751SOL    HW2 3153   4.353   0.850   0.059
  752SOL     OW 3154   4.787   2.189   1.630
  752SOL    HW1 3155   4.694   2.199   1.596
  752SOL    HW2 3156   4.796   2.238   1.717
  753SOL     OW 3157   1.962   2.790   4.176
  753SOL    HW1 3158   2.054   2.757   4.198
  753SOL    HW2 3159   1.956   2.887   4.200
  754SOL     OW 3160   3.983   5.677   6.911
  754SOL    HW1 3161   3.950   5.771   6.902
  754SOL    HW2 3162   4.052   5.659   6.841
  755SOL     OW 3163   0.213   6.318   0.569
  755SOL    HW1 3164   0.188   6.302   0.474
  755SOL    HW2 3165   0.241   6.232   0.611
  756SOL     OW 3166   5.040   0.585   2.752
  756SOL    HW1 3167   5.043   0.668   2.697
  756SOL    HW2 3168   4.945   0.566   2.779
  757SOL     OW 3169   0.212   6.880   3.877
  757SOL    HW1 3170   0.121   6.839   3.867
  757SOL    HW2 3171   0.206   6.979   3.859
  758SOL     OW 3172   3.917   2.032   0.886
  758SOL    HW1 3173   3.875   1.959   0.832
  758SOL    HW2 3174   3.865   2.044   0.971
  759SOL     OW 3175   1.343   1.454   0.001
  759SOL    HW1 3176   1.244   1.462   0.008
  759SOL    HW2 3177   1.381   1.435   0.092
  760SOL     OW 3178   4.800   1.472   6.065
  760SOL    HW1 3179   4.817   1.463   5.967
  760SOL    HW2 3180   4.873   1.526   6.106
  761SOL     OW 3181   5.806   2.378   6.817
  761SOL    HW1 3182   5.711   2.408   6.805
  761SOL    HW2 3183   5.812   2.280   6.796
  762SOL     OW 3184   2.313   6.804   4.190
  762SOL    HW1 3185   2.370   6.835   4.114
  762SOL    HW2 3186   2.247   6.736   4.157
  763SOL     OW 3187   4.110   5.881   6.702
  763SOL    HW1 3188   4.192   5.919   6.744
  763SOL    HW2 3189   4.127   5.785   6.678
  764SOL     OW 3190   4.018   1.452   2.135
  764SOL    HW1 3191   3.992   1.536   2.183
  764SOL    HW2 3192   3.944   1.424   2.075
  765SOL     OW 3193   6.855   0.051   3.010
  765SOL    HW1 3194   6.901   0.078   3.095
  765SOL    HW2 3195   6.772   0.105   2.999
  766SOL     OW 3196   0.363   6.278   0.217
  766SOL    HW1 3197   0.394   6.270   0.122
  766SOL    HW2 3198   0.440   6.308   0.274
  767SOL     OW 3199   6.163   6.762   2.905
  767SOL    HW1 3200   6.202   6.683   2.858
  767SOL    HW2 3201   6.094   6.730   2.970
  768SOL     OW 3202   2.812   6.398   3.202
  768SOL    HW1 3203   2.811   6.433   3.108
  768SOL    HW2 3204   2.734   6.338   3.215
  769SOL     OW 3205   4.246   0.885   5.266
  769SOL    HW1 3206   4.239   0.900   5.365
  769SOL    HW2 3207   4.188   0.807   5.241
  770SOL     OW 3208   3.125   4.864   3.986
  770SOL    HW1 3209   3.218   4.868   4.020
  770SOL    HW2 3210   3.119   4.910   3.898
  771SOL     OW 3211   0.765   5.238   3.067
  771SOL    HW1 3212   0.705   5.318   3.063
  771SOL    HW2 3213   0.823   5.243   3.148
  772SOL     OW 3214   0.078   3.622   6.294
  772SOL    HW1 3215   0.055   3.621   6.391
  772SOL    HW2 3216   0.143   3.548   6.275
  773SOL     OW 3217   0.057   3.686   2.378
  773SOL    HW1 3218   0.096   3.731   2.298
  773SOL    HW2 3219   0.130   3.664   2.443
  774SOL     OW 3220   1.388   0.937   1.126
  774SOL    HW1 3221   1.345   0.971   1.210
  774SOL    HW2 3222   1.448   1.007   1.088
  775SOL     OW 3223   1.465   2.355   4.631
  775SOL    HW1 3224   1.513   2.271   4.657
  775SOL    HW2 3225   1.400   2.379   4.703
  776SOL     OW 3226   2.777   0.316   5.963
  776SOL    HW1 3227   2.692   0.288   6.008
  776SOL    HW2 3228   2.836   0.362   6.028
  777SOL     OW 3229   4.179   1.463   1.181
  777SOL    HW1 3230   4.212   1.556   1.197
  777SOL    HW2 3231   4.255   1.404   1.156
  778SOL     OW 3232   4.302   6.506   3.876
  778SOL    HW1 3233   4.257   6.472   3.959
  778SOL    HW2 3234   4.361   6.434   3.839
  779SOL     OW 3235   1.015   2.113   1.810
  779SOL    HW1 3236   0.956   2.138   1.733
  779SOL    HW2 3237   1.025   2.013   1.814
  780SOL     OW 3238   6.166   3.481   4.842
  780SOL    HW1 3239   6.158   3.419   4.921
  780SOL    HW2 3240   6.130   3.571   4.868
  781SOL     OW 3241   6.766   0.732   6.368
  781SOL    HW1 3242   6.821   0.670   6.312
  781SOL    HW2 3243   6.821   0.766   6.444
  782SOL     OW 3244   6.642   2.648   0.924
  782SOL    HW1 3245   6.565   2.610   0.873
  782SOL    HW2 3246   6.712   2.681   0.860
  783SOL     OW 3247   2.520   5.073   0.500
  783SOL    HW1 3248   2.608   5.063   0.455
  783SOL    HW2 3249   2.534   5.111   0.592
  784SOL     OW 3250   4.511   0.885   4.908
  784SOL    HW1 3251   4.429   0.928   4.945
  784SOL    HW2 3252   4.512   0.788   4.930
  785SOL     OW 3253   6.173   2.215   3.577
  785SOL    HW1 3254   6.254   2.160   3.556
  785SOL    HW2 3255   6.093   2.155   3.585
  786SOL     OW 3256   6.995   6.660   0.087
  786SOL    HW1 3257   0.026   6.614   0.014
  786SOL    HW2 3258   6.922   6.600   0.119
  787SOL     OW 3259   2.649   1.930   6.148
  787SOL    HW1 3260   2.654   2.026   6.176
  787SOL    HW2 3261   2.678   1.871   6.223
  788SOL     OW 3262   1.244   3.438   3.810
  788SOL    HW1 3263   1.195   3.523   3.791
  788SOL    HW2 3264   1.283   3.402   3.725
  789SOL     OW 3265   5.543   4.326   1.660
  789SOL    HW1 3266   5.545   4.403   1.722
  789SOL    HW2 3267   5.488   4.349   1.579
  790SOL     OW 3268   3.187   1.395   3.458
  790SOL    HW1 3269   3.111   1.379   3.520
  790SOL    HW2 3270   3.248   1.316   3.458
  791SOL     OW 3271   3.042   1.458   4.408
  791SOL    HW1 3272   3.120   1.477   4.467
  791SOL    HW2 3273   3.065   1.483   4.314
  792SOL     OW 3274   5.641   0.600   3.417
  792SOL    HW1 3275   5.663   0.541   3.339
  792SOL    HW2 3276   5.710   0.672   3.425
  793SOL     OW 3277   5.256   0.514   0.256
  793SOL    HW1 3278   5.279   0.555   0.168
  793SOL    HW2 3279   5.167   0.468   0.250
  794SOL     OW 3280   2.158   5.224   6.098
  794SOL    HW1 3281   2.257   5.214   6.091
  794SOL    HW2 3282   2.129   5.306   6.049
  795SOL     OW 3283   4.465   4.188   6.334
  795SOL    HW1 3284   4.385   4.229   6.376
  795SOL    HW2 3285   4.535   4.258   6.318
  796SOL     OW 3286   0.251   2.284   7.003
  796SOL    HW1 3287   0.214   2.358   6.946
  796SOL    HW2 3288   0.344   2.262   6.972
  797SOL     OW 3289   6.243   2.842   3.866
  797SOL    HW1 3290   6.209   2.934   3.883
  797SOL    HW2 3291   6.341   2.845   3.849
  798SOL     OW 3292   5.157   1.349   6.354
  798SOL    HW1 3293   5.140   1.383   6.446
  798SOL    HW2 3294   5.256   1.345   6.337
  799SOL     OW 3295   6.875   2.315   2.918
  799SOL    HW1 3296   6.804   2.377   2.952
  799SOL    HW2 3297   6.845   2.221   2.930
  800SOL     OW 3298   6.220   1.145   2.495
  800SOL    HW1 3299   6.189   1.076   2.560
  800SOL    HW2 3300   6.306   1.115   2.454
  801SOL     OW 3301   0.116   2.228   2.861
  801SOL    HW1 3302   0.029   2.273   2.881
  801SOL    HW2 3303   0.188   2.264   2.920
  802SOL     OW 3304   5.618   1.001   0.490
  802SOL    HW1 3305   5.649   1.055   0.412
  802SOL    HW2 3306   5.561   1.057   0.549
  803SOL     OW 3307   6.524   6.082   4.624
  803SOL    HW1 3308   6.619   6.069   4.596
  803SOL    HW2 3309   6.463   6.044   4.554
  804SOL     OW 3310   0.760   6.615   6.782
  804SOL    HW1 3311   0.668   6.622   6.744
  804SOL    HW2 3312   0.805   6.533   6.746
  805SOL     OW 3313   2.849   3.008   6.067
  805SOL    HW1 3314   2.948   3.021   6.081
  805SOL    HW2 3315   2.799   3.057   6.138
  806SOL     OW 3316   5.176   1.024   0.625
  806SOL    HW1 3317   5.103   1.016   0.558
  806SOL    HW2 3318   5.152   1.095   0.692
  807SOL     OW 3319   1.162   0.299   3.509
  807SOL    HW1 3320   1.224   0.254   3.573
  807SOL    HW2 3321   1.127   0.383   3.550
  808SOL     OW 3322   5.391   3.321   5.761
  808SOL    HW1 3323   5.304   3.288   5.799
  808SOL    HW2 3324   5.374   3.364   5.672
  809SOL     OW 3325   0.390   4.130   6.517
  809SOL    HW1 3326   0.469   4.112   6.459
  809SOL    HW2 3327   0.312   4.077   6.485
  810SOL     OW 3328   5.640   3.677   0.055
  810SOL    HW1 3329   5.643   3.719   6.985
  810SOL    HW2 3330   5.578   3.598   0.053
  811SOL     OW 3331   5.337   4.836   3.973
  811SOL    HW1 3332   5.283   4.905   3.924
  811SOL    HW2 3333   5.434   4.857   3.964
  812SOL     OW 3334   0.029   0.273   1.330
  812SOL    HW1 3335   0.008   0.303   1.237
  812SOL    HW2 3336   7.014   0.180   1.343
  813SOL     OW 3337   5.162   5.174   2.531
  813SOL    HW1 3338   5.106   5.242   2.484
  813SOL    HW2 3339   5.130   5.162   2.625
  814SOL     OW 3340   5.908   6.084   2.103
  814SOL    HW1 3341   5.951   6.144   2.035
  814SOL    HW2 3342   5.910   6.128   2.193
  815SOL     OW 3343   6.447   2.005   1.076
  815SOL    HW1 3344   6.481   2.065   1.004
  815SOL    HW2 3345   6.404   1.925   1.035
  816SOL     OW 3346   6.680   6.109   1.055
  816SOL    HW1 3347   6.640   6.196   1.027
  816SOL    HW2 3348   6.670   6.098   1.154
  817SOL     OW 3349   1.858   3.349   2.276
  817SOL    HW1 3350   1.949   3.378   2.247
  817SOL    HW2 3351   1.854   3.249   2.275
  818SOL     OW 3352   6.175   1.160   0.761
  818SOL    HW1 3353   6.246   1.107   0.714
  818SOL    HW2 3354   6.087   1.114   0.749
  819SOL     OW 3355   6.981   3.184   4.145
  819SOL    HW1 3356   6.942   3.246   4.076
  819SOL    HW2 3357   7.008   3.098   4.101
  820SOL     OW 3358   1.112   3.229   4.797
  820SOL    HW1 3359   1.063   3.286   4.731
  820SOL    HW2 3360   1.209   3.227   4.774
  821SOL     OW 3361   1.444   3.262   6.855
  821SOL    HW1 3362   1.482   3.174   6.884
  821SOL    HW2 3363   1.352   3.273   6.894
  822SOL     OW 3364   1.467   3.714   4.880
  822SOL    HW1 3365   1.488   3.677   4.789
  822SOL    HW2 3366   1.415   3.799   4.870
  823SOL     OW 3367   4.053   4.366   0.139
  823SOL    HW1 3368   4.027   4.303   0.212
  823SOL    HW2 3369   3.971   4.404   0.097
  824SOL     OW 3370   5.391   2.659   5.471
  824SOL    HW1 3371   5.311   2.720   5.472
  824SOL    HW2 3372   5.367   2.572   5.513
  825SOL     OW 3373   2.139   3.993   2.720
  825SOL    HW1 3374   2.182   4.066   2.667
  825SOL    HW2 3375   2.042   4.013   2.731
  826SOL     OW 3376   6.774   3.661   6.688
  826SOL    HW1 3377   6.743   3.633   6.598
  826SOL    HW2 3378   6.721   3.614   6.759
  827SOL     OW 3379   3.536   5.706   0.244
  827SOL    HW1 3380   3.578   5.674   0.160
  827SOL    HW2 3381   3.436   5.699   0.236
  828SOL     OW 3382   5.639   0.404   5.934
  828SOL    HW1 3383   5.723   0.394   5.881
  828SOL    HW2 3384   5.614   0.500   5.939
  829SOL     OW 3385   3.037   3.181   4.428
  829SOL    HW1 3386   2.983   3.206   4.508
  829SOL    HW2 3387   3.110   3.118   4.455
  830SOL     OW 3388   4.638   4.117   5.312
  830SOL    HW1 3389   4.733   4.098   5.287
  830SOL    HW2 3390   4.608   4.202   5.269
  831SOL     OW 3391   0.046   1.063   5.658
  831SOL    HW1 3392   0.008   1.119   5.584
  831SOL    HW2 3393   7.004   1.064   5.736
  832SOL     OW 3394   2.372   1.724   6.485
  832SOL    HW1 3395   2.327   1.777   6.557
  832SOL    HW2 3396   2.440   1.664   6.526
  833SOL     OW 3397   6.654   6.685   5.942
  833SOL    HW1 3398   6.600   6.765   5.968
  833SOL    HW2 3399   6.751   6.705   5.951
  834SOL     OW 3400   2.910   3.633   4.144
  834SOL    HW1 3401   2.938   3.728   4.158
  834SOL    HW2 3402   2.903   3.587   4.232
  835SOL     OW 3403   3.611   6.860   3.550
  835SOL    HW1 3404   3.512   6.862   3.562
  835SOL    HW2 3405   3.639   6.769   3.517
  836SOL     OW 3406   2.846   0.951   0.381
  836SOL    HW1 3407   2.820   0.993   0.294
  836SOL    HW2 3408   2.766   0.943   0.440
  837SOL     OW 3409   5.095   1.564   5.737
  837SOL    HW1 3410   5.058   1.591   5.648
  837SOL    HW2 3411   5.144   1.478   5.728
  838SOL     OW 3412   2.125   5.540   3.709
  838SOL    HW1 3413   2.053   5.504   3.650
  838SOL    HW2 3414   2.109   5.638   3.725
  839SOL     OW 3415   3.009   1.915   2.954
  839SOL    HW1 3416   3.094   1.951   2.993
  839SOL    HW2 3417   2.961   1.860   3.022
  840SOL     OW 3418   0.940   1.328   0.113
  840SOL    HW1 3419   0.968   1.279   0.031
  840SOL    HW2 3420   0.963   1.425   0.104
  841SOL     OW 3421   0.667   3.565   6.922
  841SOL    HW1 3422   0.761   3.575   6.954
  841SOL    HW2 3423   0.643   3.468   6.917
  842SOL     OW 3424   3.742   4.944   2.843
  842SOL    HW1 3425   3.657   4.911   2.885
  842SOL    HW2 3426   3.799   4.988   2.912
  843SOL     OW 3427   6.600   1.630   2.021
  843SOL    HW1 3428   6.593   1.712   2.079
  843SOL    HW2 3429   6.510   1.609   1.983
  844SOL     OW 3430   4.759   5.830   0.664
  844SOL    HW1 3431   4.848   5.827   0.619
  844SOL    HW2 3432   4.767   5.792   0.756
  845SOL     OW 3433   0.497   4.607   5.104
  845SOL    HW1 3434   0.595   4.606   5.124
  845SOL    HW2 3435   0.460   4.698   5.124
  846SOL     OW 3436   6.588   1.361   6.407
  846SOL    HW1 3437   6.595   1.450   6.452
  846SOL    HW2 3438   6.549   1.373   6.316
  847SOL     OW 3439   4.918   3.555   2.284
  847SOL    HW1 3440   4.899   3.639   2.233
  847SOL    HW2 3441   4.883   3.476   2.233
  848SOL     OW 3442   5.904   0.779   6.032
  848SOL    HW1 3443   6.002   0.796   6.036
  848SOL    HW2 3444   5.881   0.701   6.090
  849SOL     OW 3445   0.352   5.050   4.458
  849SOL    HW1 3446   0.318   5.137   4.422
  849SOL    HW2 3447   0.449   5.060   4.481
  850SOL     OW 3448   3.918   1.044   2.871
  850SOL    HW1 3449   3.916   1.142   2.849
  850SOL    HW2 3450   3.861   0.994   2.806
  851SOL     OW 3451   1.436   0.526   0.188
  851SOL    HW1 3452   1.340   0.513   0.162
  851SOL    HW2 3453   1.449   0.495   0.283
  852SOL     OW 3454   1.885   3.468   6.430
  852SOL    HW1 3455   1.878   3.549   6.488
  852SOL    HW2 3456   1.802   3.458   6.374
  853SOL     OW 3457   0.809   3.620   1.481
  853SOL    HW1 3458   0.729   3.675   1.502
  853SOL    HW2 3459   0.878   3.676   1.436
  854SOL     OW 3460   5.225   5.599   1.865
  854SOL    HW1 3461   5.290   5.562   1.931
  854SOL    HW2 3462   5.259   5.688   1.832
  855SOL     OW 3463   5.209   6.605   1.880
  855SOL    HW1 3464   5.298   6.633   1.845
  855SOL    HW2 3465   5.193   6.649   1.968
  856SOL     OW 3466   2.345   6.644   5.182
  856SOL    HW1 3467   2.303   6.701   5.253
  856SOL    HW2 3468   2.428   6.601   5.218
  857SOL     OW 3469   5.987   3.084   1.844
  857SOL    HW1 3470   5.981   3.175   1.803
  857SOL    HW2 3471   5.933   3.019   1.791
  858SOL     OW 3472   3.168   4.515   1.299
  858SOL    HW1 3473   3.114   4.470   1.370
  858SOL    HW2 3474   3.261   4.529   1.331
  859SOL     OW 3475   6.559   4.885   0.181
  859SOL    HW1 3476   6.650   4.860   0.213
  859SOL    HW2 3477   6.567   4.940   0.098
  860SOL     OW 3478   2.424   5.004   1.166
  860SOL    HW1 3479   2.493   4.947   1.121
  860SOL    HW2 3480   2.344   4.948   1.186
  861SOL     OW 3481   3.574   5.496   5.588
  861SOL    HW1 3482   3.637   5.520   5.663
  861SOL    HW2 3483   3.483   5.531   5.608
  862SOL     OW 3484   4.648   4.344   4.426
  862SOL    HW1 3485   4.642   4.257   4.475
  862SOL    HW2 3486   4.695   4.330   4.339
  863SOL     OW 3487   5.956   1.138   1.153
  863SOL    HW1 3488   6.050   1.106   1.160
  863SOL    HW2 3489   5.947   1.227   1.197
  864SOL     OW 3490   6.209   3.997   2.691
  864SOL    HW1 3491   6.140   4.069   2.689
  864SOL    HW2 3492   6.181   3.922   2.631
  865SOL     OW 3493   1.941   6.253   4.609
  865SOL    HW1 3494   1.933   6.342   4.653
  865SOL    HW2 3495   1.869   6.243   4.540
  866SOL     OW 3496   2.937   1.929   1.870
  866SOL    HW1 3497   3.027   1.885   1.873
  866SOL    HW2 3498   2.874   1.871   1.817
  867SOL     OW 3499   2.108   3.155   6.167
  867SOL    HW1 3500   2.053   3.102   6.102
  867SOL    HW2 3501   2.156   3.093   6.228
  868SOL     OW 3502   5.231   2.299   3.297
  868SOL    HW1 3503   5.144   2.346   3.312
  868SOL    HW2 3504   5.305   2.366   3.295
  869SOL     OW 3505   6.088   5.567   2.802
  869SOL    HW1 3506   5.994   5.589   2.777
  869SOL    HW2 3507   6.104   5.469   2.792
  870SOL     OW 3508   0.044   1.293   1.171
  870SOL    HW1 3509   0.010   1.217   1.115
  870SOL    HW2 3510   0.113   1.258   1.235
  871SOL     OW 3511   6.039   2.565   1.068
  871SOL    HW1 3512   5.960   2.624   1.055
  871SOL    HW2 3513   6.009   2.478   1.108
  872SOL     OW 3514   5.783   2.126   3.271
  872SOL    HW1 3515   5.790   2.059   3.345
  872SOL    HW2 3516   5.687   2.137   3.246
  873SOL     OW 3517   4.302   6.923   5.370
  873SOL    HW1 3518   4.311   0.003   5.370
  873SOL    HW2 3519   4.360   6.884   5.299
  874SOL     OW 3520   0.698   3.242   5.737
  874SOL    HW1 3521   0.749   3.215   5.819
  874SOL    HW2 3522   0.724   3.182   5.661
  875SOL     OW 3523   6.606   4.074   0.118
  875SOL    HW1 3524   6.564   4.020   0.190
  875SOL    HW2 3525   6.636   4.014   0.044
  876SOL     OW 3526   0.285   3.370   1.790
  876SOL    HW1 3527   0.261   3.434   1.717
  876SOL    HW2 3528   0.202   3.326   1.823
  877SOL     OW 3529   5.879   5.952   0.492
  877SOL    HW1 3530   5.963   5.934   0.441
  877SOL    HW2 3531   5.862   6.051   0.495
  878SOL     OW 3532   2.829   4.748   0.477
  878SOL    HW1 3533   2.852   4.843   0.456
  878SOL    HW2 3534   2.901   4.688   0.443
  879SOL     OW 3535   4.685   2.445   2.559
  879SOL    HW1 3536   4.619   2.502   2.510
  879SOL    HW2 3537   4.714   2.370   2.499
  880SOL     OW 3538   3.853   5.261   0.420
  880SOL    HW1 3539   3.850   5.222   0.512
  880SOL    HW2 3540   3.816   5.354   0.421
  881SOL     OW 3541   4.110   5.093   5.352
  881SOL    HW1 3542   4.196   5.050   5.381
  881SOL    HW2 3543   4.036   5.025   5.358
  882SOL     OW 3544   1.377   1.351   4.863
  882SOL    HW1 3545   1.363   1.304   4.776
  882SOL    HW2 3546   1.305   1.419   4.876
  883SOL     OW 3547   3.070   5.282   6.315
  883SOL    HW1 3548   3.159   5.246   6.286
  883SOL    HW2 3549   3.021   5.318   6.235
  884SOL     OW 3550   4.803   3.716   1.507
  884SOL    HW1 3551   4.825   3.680   1.416
  884SOL    HW2 3552   4.720   3.772   1.501
  885SOL     OW 3553   4.444   6.440   0.105
  885SOL    HW1 3554   4.448   6.349   0.145
  885SOL    HW2 3555   4.462   6.509   0.175
  886SOL     OW 3556   4.367   1.950   6.098
  886SOL    HW1 3557   4.352   1.968   6.001
  886SOL    HW2 3558   4.340   2.030   6.152
  887SOL     OW 3559   4.216   0.557   6.223
  887SOL    HW1 3560   4.301   0.605   6.244
  887SOL    HW2 3561   4.146   0.623   6.198
  888SOL     OW 3562   6.348   5.806   3.047
  888SOL    HW1 3563   6.431   5.749   3.049
  888SOL    HW2 3564   6.360   5.884   3.109
  889SOL     OW 3565   0.907   6.713   4.693
  889SOL    HW1 3566   1.002   6.730   4.667
  889SOL    HW2 3567   0.887   6.761   4.779
  890SOL     OW 3568   2.653   4.680   2.159
  890SOL    HW1 3569   2.559   4.651   2.141
  890SOL    HW2 3570   2.713   4.649   2.086
  891SOL     OW 3571   5.038   3.265   6.673
  891SOL    HW1 3572   5.023   3.169   6.691
  891SOL    HW2 3573   4.958   3.305   6.629
  892SOL     OW 3574   2.105   4.478   1.073
  892SOL    HW1 3575   2.194   4.446   1.106
  892SOL    HW2 3576   2.090   4.571   1.103
  893SOL     OW 3577   1.314   0.161   0.122
  893SOL    HW1 3578   1.296   0.099   0.046
  893SOL    HW2 3579   1.266   0.128   0.204
  894SOL     OW 3580   0.880   5.728   3.999
  894SOL    HW1 3581   0.855   5.642   3.955
  894SOL    HW2 3582   0.947   5.710   4.071
  895SOL     OW 3583   2.674   6.676   5.236
  895SOL    HW1 3584   2.596   6.685   5.298
  895SOL    HW2 3585   2.749   6.733   5.269
  896SOL     OW 3586   5.615   6.907   3.007
  896SOL    HW1 3587   5.516   6.895   3.019
  896SOL    HW2 3588   5.632   6.963   2.926
  897SOL     OW 3589   5.531   2.434   5.901
  897SOL    HW1 3590   5.461   2.362   5.908
  897SOL    HW2 3591   5.490   2.516   5.859
  898SOL     OW 3592   5.833   6.424   3.831
  898SOL    HW1 3593   5.868   6.437   3.738
  898SOL    HW2 3594   5.747   6.473   3.841
  899SOL     OW 3595   0.754   4.687   5.385
  899SOL    HW1 3596   0.752   4.772   5.437
  899SOL    HW2 3597   0.683   4.625   5.419
  900SOL     OW 3598   0.635   5.766   3.401
  900SOL    HW1 3599   0.716   5.714   3.429
  900SOL    HW2 3600   0.571   5.773   3.478
  901SOL     OW 3601   6.000   2.006   3.664
  901SOL    HW1 3602   5.962   1.969   3.748
  901SOL    HW2 3603   5.938   2.075   3.626
  902SOL     OW 3604   0.336   6.266   6.932
  902SOL    HW1 3605   0.241   6.297   6.922
  902SOL    HW2 3606   0.350   6.183   6.879
  903SOL     OW 3607   1.308   5.399   0.640
  903SOL    HW1 3608   1.377   5.455   0.686
  903SOL    HW2 3609   1.354   5.332   0.582
  904SOL     OW 3610   1.897   1.389   3.487
  904SOL    HW1 3611   1.878   1.342   3.573
  904SOL    HW2 3612   1.899   1.488   3.502
  905SOL     OW 3613   5.297   2.334   5.032
  905SOL    HW1 3614   5.265   2.240   5.026
  905SOL    HW2 3615   5.230   2.389   5.083
  906SOL     OW 3616   5.885   4.139   5.710
  906SOL    HW1 3617   5.954   4.090   5.657
  906SOL    HW2 3618   5.906   4.130   5.808
  907SOL     OW 3619   6.450   2.682   2.489
  907SOL    HW1 3620   6.531   2.652   2.439
  907SOL    HW2 3621   6.369   2.673   2.431
  908SOL     OW 3622   1.934   0.955   4.191
  908SOL    HW1 3623   2.030   0.979   4.200
  908SOL    HW2 3624   1.879   1.038   4.200
  909SOL     OW 3625   3.389   1.305   1.838
  909SOL    HW1 3626   3.377   1.373   1.911
  909SOL    HW2 3627   3.421   1.219   1.878
  910SOL     OW 3628   2.307   2.101   1.283
  910SOL    HW1 3629   2.213   2.068   1.285
  910SOL    HW2 3630   2.361   2.045   1.220
  911SOL     OW 3631   0.232   4.304   1.113
  911SOL    HW1 3632   0.145   4.277   1.154
  911SOL    HW2 3633   0.227   4.296   1.014
  912SOL     OW 3634   1.282   0.495   5.672
  912SOL    HW1 3635   1.249   0.451   5.588
  912SOL    HW2 3636   1.206   0.543   5.716
  913SOL     OW 3637   2.674   1.107   1.914
  913SOL    HW1 3638   2.728   1.046   1.855
  913SOL    HW2 3639   2.704   1.097   2.009
  914SOL     OW 3640   3.225   6.541   2.909
  914SOL    HW1 3641   3.171   6.461   2.937
  914SOL    HW2 3642   3.164   6.620   2.903
  915SOL     OW 3643   0.808   2.557   0.388
  915SOL    HW1 3644   0.854   2.472   0.414
  915SOL    HW2 3645   0.861   2.635   0.420
  916SOL     OW 3646   2.223   3.069   2.934
  916SOL    HW1 3647   2.242   3.164   2.911
  916SOL    HW2 3648   2.220   3.014   2.850
  917SOL     OW 3649   3.600   1.957   0.178
  917SOL    HW1 3650   3.574   1.873   0.131
  917SOL    HW2 3651   3.538   1.971   0.256
  918SOL     OW 3652   1.558   0.792   6.134
  918SOL    HW1 3653   1.524   0.710   6.089
  918SOL    HW2 3654   1.631   0.768   6.198
  919SOL     OW 3655   2.616   6.042   2.437
  919SOL    HW1 3656   2.521   6.065   2.413
  919SOL    HW2 3657   2.625   6.042   2.537
  920SOL     OW 3658   2.219   0.344   4.040
  920SOL    HW1 3659   2.290   0.278   4.061
  920SOL    HW2 3660   2.192   0.392   4.123
  921SOL     OW 3661   5.331   4.765   5.376
  921SOL    HW1 3662   5.316   4.860   5.402
  921SOL    HW2 3663   5.314   4.755   5.278
  922SOL     OW 3664   2.393   3.923   0.116
  922SOL    HW1 3665   2.490   3.900   0.121
  922SOL    HW2 3666   2.356   3.895   0.028
  923SOL     OW 3667   4.053   0.144   6.464
  923SOL    HW1 3668   4.109   0.114   6.542
  923SOL    HW2 3669   4.069   0.241   6.448
  924SOL     OW 3670   5.603   3.566   3.325
  924SOL    HW1 3671   5.589   3.546   3.228
  924SOL    HW2 3672   5.700   3.570   3.345
  925SOL     OW 3673   6.330   1.840   2.976
  925SOL    HW1 3674   6.370   1.755   2.942
  925SOL    HW2 3675   6.400   1.892   3.026
  926SOL     OW 3676   5.192   6.279   0.904
  926SOL    HW1 3677   5.289   6.255   0.899
  926SOL    HW2 3678   5.182   6.372   0.939
  927SOL     OW 3679   3.983   5.323   5.425
  927SOL    HW1 3680   4.065   5.322   5.482
  927SOL    HW2 3681   3.953   5.229   5.407
  928SOL     OW 3682   0.707   1.260   1.408
  928SOL    HW1 3683   0.757   1.251   1.322
  928SOL    HW2 3684   0.616   1.299   1.390
  929SOL     OW 3685   0.821   2.271   2.129
  929SOL    HW1 3686   0.896   2.338   2.131
  929SOL    HW2 3687   0.736   2.317   2.102
  930SOL     OW 3688   4.926   6.455   3.868
  930SOL    HW1 3689   4.903   6.481   3.962
  930SOL    HW2 3690   4.920   6.536   3.809
  931SOL     OW 3691   1.120   2.689   1.828
  931SOL    HW1 3692   1.078   2.676   1.738
  931SOL    HW2 3693   1.060   2.746   1.884
  932SOL     OW 3694   4.514   6.884   1.529
  932SOL    HW1 3695   4.508   6.819   1.605
  932SOL    HW2 3696   4.597   6.939   1.539
  933SOL     OW 3697   2.225   6.184   2.917
  933SOL    HW1 3698   2.214   6.095   2.960
  933SOL    HW2 3699   2.301   6.181   2.852
  934SOL     OW 3700   3.289   1.142   5.194
  934SOL    HW1 3701   3.213   1.146   5.259
  934SOL    HW2 3702   3.327   1.049   5.193
  935SOL     OW 3703   3.428   3.127   6.159
  935SOL    HW1 3704   3.429   3.030   6.185
  935SOL    HW2 3705   3.521   3.163   6.160
  936SOL     OW 3706   0.474   1.379   1.349
  936SOL    HW1 3707   0.471   1.467   1.303
  936SOL    HW2 3708   0.453   1.391   1.446
  937SOL     OW 3709   4.651   2.345   4.321
  937SOL    HW1 3710   4.579   2.409   4.296
  937SOL    HW2 3711   4.621   2.252   4.300
  938SOL     OW 3712   0.215   2.649   0.064
  938SOL    HW1 3713   0.310   2.675   0.077
  938SOL    HW2 3714   0.206   2.597   6.999
  939SOL     OW 3715   6.308   1.047   6.095
  939SOL    HW1 3716   6.397   1.088   6.110
  939SOL    HW2 3717   6.237   1.106   6.132
  940SOL     OW 3718   0.482   0.842   4.474
  940SOL    HW1 3719   0.546   0.889   4.414
  940SOL    HW2 3720   0.388   0.869   4.450
  941SOL     OW 3721   5.631   2.547   4.659
  941SOL    HW1 3722   5.533   2.527   4.662
  941SOL    HW2 3723   5.655   2.602   4.739
  942SOL     OW 3724   5.383   6.675   4.887
  942SOL    HW1 3725   5.385   6.775   4.898
  942SOL    HW2 3726   5.429   6.632   4.965
  943SOL     OW 3727   5.056   2.173   0.770
  943SOL    HW1 3728   5.130   2.112   0.798
  943SOL    HW2 3729   5.063   2.190   0.672
  944SOL     OW 3730   6.121   3.906   4.591
  944SOL    HW1 3731   6.035   3.903   4.643
  944SOL    HW2 3732   6.166   3.817   4.595
  945SOL     OW 3733   5.351   4.203   4.884
  945SOL    HW1 3734   5.335   4.105   4.894
  945SOL    HW2 3735   5.441   4.227   4.921
  946SOL     OW 3736   5.675   2.560   5.353
  946SOL    HW1 3737   5.695   2.565   5.255
  946SOL    HW2 3738   5.576   2.546   5.365
  947SOL     OW 3739   1.998   3.302   5.490
  947SOL    HW1 3740   1.965   3.326   5.398
  947SOL    HW2 3741   2.054   3.220   5.485
  948SOL     OW 3742   3.274   1.965   0.348
  948SOL    HW1 3743   3.332   1.900   0.397
  948SOL    HW2 3744   3.280   2.055   0.392
  949SOL     OW 3745   5.666   6.291   6.203
  949SOL    HW1 3746   5.659   6.390   6.188
  949SOL    HW2 3747   5.713   6.275   6.290
  950SOL     OW 3748   4.093   5.321   1.560
  950SOL    HW1 3749   4.122   5.347   1.468
  950SOL    HW2 3750   4.000   5.355   1.576
  951SOL     OW 3751   1.048   2.089   3.105
  951SOL    HW1 3752   1.099   2.003   3.098
  951SOL    HW2 3753   0.986   2.085   3.183
  952SOL     OW 3754   4.994   2.353   2.141
  952SOL    HW1 3755   5.031   2.446   2.131
  952SOL    HW2 3756   5.069   2.287   2.138
  953SOL     OW 3757   4.064   6.965   6.681
  953SOL    HW1 3758   3.975   7.008   6.692
  953SOL    HW2 3759   4.060   6.870   6.713
  954SOL     OW 3760   6.035   5.940   0.783
  954SOL    HW1 3761   5.953   5.890   0.753
  954SOL    HW2 3762   6.100   5.946   0.708
  955SOL     OW 3763   6.517   6.618   2.497
  955SOL    HW1 3764   6.514   6.583   2.590
  955SOL    HW2 3765   6.490   6.714   2.496
  956SOL     OW 3766   0.817   2.238   0.806
  956SOL    HW1 3767   0.743   2.285   0.758
  956SOL    HW2 3768   0.780   2.188   0.884
  957SOL     OW 3769   2.394   6.073   5.256
  957SOL    HW1 3770   2.304   6.114   5.271
  957SOL    HW2 3771   2.409   6.061   5.157
  958SOL     OW 3772   5.248   2.535   0.774
  958SOL    HW1 3773   5.176   2.466   0.780
  958SOL    HW2 3774   5.220   2.617   0.824
  959SOL     OW 3775   1.796   4.350   2.543
  959SOL    HW1 3776   1.810   4.302   2.456
  959SOL    HW2 3777   1.749   4.437   2.526
  960SOL     OW 3778   1.813   5.289   5.278
  960SOL    HW1 3779   1.834   5.330   5.189
  960SOL    HW2 3780   1.871   5.209   5.291
  961SOL     OW 3781   3.812   0.040   2.186
  961SOL    HW1 3782   3.882   7.005   2.231
  961SOL    HW2 3783   3.723   7.015   2.195
  962SOL     OW 3784   1.595   6.983   4.631
  962SOL    HW1 3785   1.640   6.970   4.543
  962SOL    HW2 3786   1.622   0.051   4.670
  963SOL     OW 3787   6.745   6.684   0.932
  963SOL    HW1 3788   6.829   6.718   0.890
  963SOL    HW2 3789   6.764   6.655   1.026
  964SOL     OW 3790   5.397   4.046   1.959
  964SOL    HW1 3791   5.346   4.077   1.879
  964SOL    HW2 3792   5.358   3.961   1.993
  965SOL     OW 3793   0.561   1.901   0.837
  965SOL    HW1 3794   0.532   1.809   0.812
  965SOL    HW2 3795   0.483   1.963   0.833
  966SOL     OW 3796   0.226   2.260   2.114
  966SOL    HW1 3797   0.165   2.217   2.047
  966SOL    HW2 3798   0.314   2.213   2.114
  967SOL     OW 3799   0.960   6.089   2.008
  967SOL    HW1 3800   1.022   6.054   1.938
  967SOL    HW2 3801   0.918   6.175   1.976
  968SOL     OW 3802   5.491   3.235   2.967
  968SOL    HW1 3803   5.527   3.159   3.022
  968SOL    HW2 3804   5.424   3.286   3.021
  969SOL     OW 3805   4.402   5.671   5.731
  969SOL    HW1 3806   4.489   5.663   5.683
  969SOL    HW2 3807   4.329   5.634   5.674
  970SOL     OW 3808   4.308   2.148   5.191
  970SOL    HW1 3809   4.349   2.057   5.178
  970SOL    HW2 3810   4.226   2.139   5.247
  971SOL     OW 3811   6.651   1.663   1.727
  971SOL    HW1 3812   6.704   1.593   1.679
  971SOL    HW2 3813   6.668   1.656   1.825
  972SOL     OW 3814   6.341   5.377   0.841
  972SOL    HW1 3815   6.408   5.396   0.913
  972SOL    HW2 3816   6.282   5.456   0.829
  973SOL     OW 3817   5.336   4.467   5.793
  973SOL    HW1 3818   5.375   4.376   5.804
  973SOL    HW2 3819   5.392   4.534   5.843
  974SOL     OW 3820   2.987   1.041   4.208
  974SOL    HW1 3821   2.931   0.987   4.272
  974SOL    HW2 3822   2.930   1.112   4.166
  975SOL     OW 3823   3.840   6.575   5.544
  975SOL    HW1 3824   3.807   6.483   5.524
  975SOL    HW2 3825   3.933   6.569   5.580
  976SOL     OW 3826   0.256   4.557   3.988
  976SOL    HW1 3827   0.182   4.544   3.923
  976SOL    HW2 3828   0.326   4.616   3.948
  977SOL     OW 3829   2.027   1.412   4.131
  977SOL    HW1 3830   1.929   1.434   4.134
  977SOL    HW2 3831   2.078   1.492   4.099
  978SOL     OW 3832   6.246   3.159   4.256
  978SOL    HW1 3833   6.250   3.093   4.331
  978SOL    HW2 3834   6.190   3.237   4.284
  979SOL     OW 3835   5.878   0.777   3.769
  979SOL    HW1 3836   5.807   0.715   3.802
  979SOL    HW2 3837   5.946   0.791   3.841
  980SOL     OW 3838   6.653   1.090   4.722
  980SOL    HW1 3839   6.672   1.062   4.816
  980SOL    HW2 3840   6.639   1.189   4.719
  981SOL     OW 3841   6.981   2.758   5.525
  981SOL    HW1 3842   0.034   2.717   5.580
  981SOL    HW2 3843   7.008   2.850   5.498
  982SOL     OW 3844   1.950   2.710   1.386
  982SOL    HW1 3845   1.982   2.706   1.480
  982SOL    HW2 3846   1.874   2.775   1.379
  983SOL     OW 3847   5.621   1.718   3.319
  983SOL    HW1 3848   5.708   1.738   3.272
  983SOL    HW2 3849   5.553   1.691   3.251
  984SOL     OW 3850   4.959   1.372   4.644
  984SOL    HW1 3851   4.877   1.334   4.688
  984SOL    HW2 3852   4.969   1.332   4.553
  985SOL     OW 3853   3.090   5.572   0.551
  985SOL    HW1 3854   3.134   5.491   0.591
  985SOL    HW2 3855   3.147   5.652   0.568
  986SOL     OW 3856   4.529   4.869   6.427
  986SOL    HW1 3857   4.528   4.860   6.526
  986SOL    HW2 3858   4.608   4.924   6.399
  987SOL     OW 3859   4.153   0.014   2.626
  987SOL    HW1 3860   4.099   0.097   2.639
  987SOL    HW2 3861   4.101   6.968   2.571
  988SOL     OW 3862   3.177   3.470   1.954
  988SOL    HW1 3863   3.104   3.505   2.013
  988SOL    HW2 3864   3.265   3.485   1.998
  989SOL     OW 3865   0.382   6.936   5.889
  989SOL    HW1 3866   0.305   6.883   5.925
  989SOL    HW2 3867   0.467   6.885   5.904
  990SOL     OW 3868   4.835   6.765   3.963
  990SOL    HW1 3869   4.742   6.745   3.931
  990SOL    HW2 3870   4.869   6.687   4.016
  991SOL     OW 3871   6.643   1.359   4.638
  991SOL    HW1 3872   6.689   1.446   4.659
  991SOL    HW2 3873   6.608   1.362   4.545
  992SOL     OW 3874   0.776   3.323   0.244
  992SOL    HW1 3875   0.806   3.366   0.159
  992SOL    HW2 3876   0.812   3.375   0.321
  993SOL     OW 3877   3.313   5.247   3.204
  993SOL    HW1 3878   3.268   5.213   3.121
  993SOL    HW2 3879   3.276   5.337   3.227
  994SOL     OW 3880   2.880   3.708   3.134
  994SOL    HW1 3881   2.974   3.730   3.105
  994SOL    HW2 3882   2.877   3.702   3.233
  995SOL     OW 3883   1.200   1.787   4.820
  995SOL    HW1 3884   1.227   1.811   4.727
  995SOL    HW2 3885   1.278   1.747   4.868
  996SOL     OW 3886   1.505   3.934   2.464
  996SOL    HW1 3887   1.530   4.012   2.521
  996SOL    HW2 3888   1.407   3.937   2.445
  997SOL     OW 3889   6.577   0.793   1.470
  997SOL    HW1 3890   6.633   0.859   1.520
  997SOL    HW2 3891   6.480   0.819   1.478
  998SOL     OW 3892   5.007   0.228   3.031
  998SOL    HW1 3893   4.961   0.150   2.988
  998SOL    HW2 3894   4.963   0.313   3.002
  999SOL     OW 3895   0.116   4.957   1.108
  999SOL    HW1 3896   0.147   5.034   1.164
  999SOL    HW2 3897   0.033   4.983   1.059
 1000SOL     OW 3898   3.537   1.586   4.100
 1000SOL    HW1 3899   3.581   1.559   4.185
 1000SOL    HW2 3900   3.467   1.655   4.120
 1001SOL     OW 3901   4.866   0.525   5.562
 1001SOL    HW1 3902   4.849   0.450   5.498
 1001SOL    HW2 3903   4.884   0.609   5.511
 1002SOL     OW 3904   6.629   1.219   1.052
 1002SOL    HW1 3905   6.701   1.213   0.983
 1002SOL    HW2 3906   6.659   1.279   1.127
 1003SOL     OW 3907   3.745   5.727   2.350
 1003SOL    HW1 3908   3.706   5.769   2.432
 1003SOL    HW2 3909   3.685   5.744   2.272
 1004SOL     OW 3910   5.773   6.685   6.850
 1004SOL    HW1 3911   5.718   6.664   6.769
 1004SOL    HW2 3912   5.736   6.766   6.896
 1005SOL     OW 3913   0.078   6.537   3.337
 1005SOL    HW1 3914   0.174   6.533   3.363
 1005SOL    HW2 3915   0.053   6.631   3.313
 1006SOL     OW 3916   2.144   4.912   1.115
 1006SOL    HW1 3917   2.133   4.822   1.157
 1006SOL    HW2 3918   2.186   4.903   1.025
 1007SOL     OW 3919   0.030   0.978   3.819
 1007SOL    HW1 3920   0.111   0.994   3.875
 1007SOL    HW2 3921   7.002   0.895   3.851
 1008SOL     OW 3922   2.040   3.472   3.315
 1008SOL    HW1 3923   1.981   3.480   3.396
 1008SOL    HW2 3924   2.003   3.403   3.254
 1009SOL     OW 3925   1.344   6.165   5.358
 1009SOL    HW1 3926   1.327   6.144   5.454
 1009SOL    HW2 3927   1.377   6.259   5.350
 1010SOL     OW 3928   4.508   1.973   0.086
 1010SOL    HW1 3929   4.421   1.999   0.045
 1010SOL    HW2 3930   4.496   1.891   0.142
 1011SOL     OW 3931   3.385   6.292   3.093
 1011SOL    HW1 3932   3.427   6.361   3.035
 1011SOL    HW2 3933   3.325   6.337   3.159
 1012SOL     OW 3934   5.356   5.637   6.760
 1012SOL    HW1 3935   5.350   5.636   6.860
 1012SOL    HW2 3936   5.407   5.718   6.730
 1013SOL     OW 3937   0.724   1.169   1.668
 1013SOL    HW1 3938   0.627   1.163   1.691
 1013SOL    HW2 3939   0.735   1.213   1.579
 1014SOL     OW 3940   4.513   0.145   5.586
 1014SOL    HW1 3941   4.527   0.210   5.661
 1014SOL    HW2 3942   4.599   0.097   5.567
 1015SOL     OW 3943   3.440   5.627   4.128
 1015SOL    HW1 3944   3.376   5.553   4.113
 1015SOL    HW2 3945   3.421   5.670   4.216
 1016SOL     OW 3946   3.935   2.768   1.198
 1016SOL    HW1 3947   3.974   2.804   1.282
 1016SOL    HW2 3948   3.992   2.693   1.164
 1017SOL     OW 3949   3.986   1.959   6.485
 1017SOL    HW1 3950   3.907   1.956   6.546
 1017SOL    HW2 3951   3.992   2.049   6.442
 1018SOL     OW 3952   1.947   3.024   2.865
 1018SOL    HW1 3953   2.039   3.063   2.870
 1018SOL    HW2 3954   1.892   3.077   2.802
 1019SOL     OW 3955   6.946   1.665   0.020
 1019SOL    HW1 3956   6.869   1.650   0.081
 1019SOL    HW2 3957   0.005   1.696   0.073
 1020SOL     OW 3958   2.761   1.315   1.521
 1020SOL    HW1 3959   2.752   1.401   1.470
 1020SOL    HW2 3960   2.703   1.245   1.479
 1021SOL     OW 3961   6.756   1.579   1.018
 1021SOL    HW1 3962   6.771   1.519   1.096
 1021SOL    HW2 3963   6.826   1.651   1.017
 1022SOL     OW 3964   4.101   3.428   6.281
 1022SOL    HW1 3965   4.082   3.436   6.183
 1022SOL    HW2 3966   4.019   3.452   6.333
 1023SOL     OW 3967   5.518   1.194   2.739
 1023SOL    HW1 3968   5.430   1.231   2.708
 1023SOL    HW2 3969   5.503   1.132   2.816
 1024SOL     OW 3970   6.449   1.410   3.734
 1024SOL    HW1 3971   6.398   1.348   3.674
 1024SOL    HW2 3972   6.481   1.489   3.681
 1025SOL     OW 3973   3.151   5.012   1.385
 1025SOL    HW1 3974   3.100   4.980   1.465
 1025SOL    HW2 3975   3.099   4.989   1.302
 1026SOL     OW 3976   1.265   2.528   0.307
 1026SOL    HW1 3977   1.219   2.564   0.226
 1026SOL    HW2 3978   1.255   2.593   0.382
 1027SOL     OW 3979   2.744   4.734   2.418
 1027SOL    HW1 3980   2.711   4.710   2.327
 1027SOL    HW2 3981   2.843   4.727   2.421
 1028SOL     OW 3982   1.462   6.214   0.823
 1028SOL    HW1 3983   1.454   6.121   0.860
 1028SOL    HW2 3984   1.390   6.229   0.756
 1029SOL     OW 3985   2.550   0.513   6.492
 1029SOL    HW1 3986   2.628   0.451   6.499
 1029SOL    HW2 3987   2.475   0.478   6.548
 1030SOL     OW 3988   4.043   3.530   4.880
 1030SOL    HW1 3989   4.080   3.437   4.875
 1030SOL    HW2 3990   4.055   3.576   4.792
 1031SOL     OW 3991   2.510   5.684   2.163
 1031SOL    HW1 3992   2.465   5.596   2.152
 1031SOL    HW2 3993   2.502   5.715   2.258
 1032SOL     OW 3994   1.716   0.851   4.425
 1032SOL    HW1 3995   1.787   0.857   4.355
 1032SOL    HW2 3996   1.655   0.775   4.404
 1033SOL     OW 3997   2.613   6.033   2.706
 1033SOL    HW1 3998   2.710   6.013   2.720
 1033SOL    HW2 3999   2.557   5.960   2.745
 1034SOL     OW 4000   1.315   4.509   3.808
 1034SOL    HW1 4001   1.221   4.484   3.784
 1034SOL    HW2 4002   1.318   4.538   3.903
 1035SOL     OW 4003   2.577   1.509   4.322
 1035SOL    HW1 4004   2.616   1.455   4.397
 1035SOL    HW2 4005   2.519   1.451   4.265
 1036SOL     OW 4006   4.338   2.225   0.257
 1036SOL    HW1 4007   4.386   2.201   0.173
 1036SOL    HW2 4008   4.258   2.166   0.269
 1037SOL     OW 4009   2.093   2.060   6.764
 1037SOL    HW1 4010   1.995   2.078   6.761
 1037SOL    HW2 4011   2.125   2.068   6.858
 1038SOL     OW 4012   1.999   1.234   4.943
 1038SOL    HW1 4013   2.020   1.156   4.885
 1038SOL    HW2 4014   1.915   1.279   4.911
 1039SOL     OW 4015   3.931   1.911   3.333
 1039SOL    HW1 4016   3.916   2.010   3.329
 1039SOL    HW2 4017   3.846   1.866   3.362
 1040SOL     OW 4018   6.527   4.360   3.133
 1040SOL    HW1 4019   6.573   4.385   3.219
 1040SOL    HW2 4020   6.547   4.265   3.112
 1041SOL     OW 4021   1.265   0.846   4.504
 1041SOL    HW1 4022   1.321   0.769   4.534
 1041SOL    HW2 4023   1.238   0.900   4.584
 1042SOL     OW 4024   5.515   4.936   0.678
 1042SOL    HW1 4025   5.496   4.980   0.765
 1042SOL    HW2 4026   5.463   4.982   0.606
 1043SOL     OW 4027   2.772   1.698   5.962
 1043SOL    HW1 4028   2.796   1.706   6.059
 1043SOL    HW2 4029   2.813   1.774   5.911
 1044SOL     OW 4030   4.374   3.372   1.670
 1044SOL    HW1 4031   4.304   3.368   1.598
 1044SOL    HW2 4032   4.397   3.280   1.700
 1045SOL     OW 4033   3.111   1.566   3.198
 1045SOL    HW1 4034   3.148   1.583   3.289
 1045SOL    HW2 4035   3.150   1.482   3.161
 1046SOL     OW 4036   4.280   0.432   2.124
 1046SOL    HW1 4037   4.230   0.478   2.198
 1046SOL    HW2 4038   4.292   0.496   2.048
 1047SOL     OW 4039   0.959   4.494   2.733
 1047SOL    HW1 4040   1.028   4.565   2.742
 1047SOL    HW2 4041   0.983   4.416   2.791
 1048SOL     OW 4042   5.079   4.535   5.282
 1048SOL    HW1 4043   5.169   4.520   5.323
 1048SOL    HW2 4044   5.080   4.500   5.188
 1049SOL     OW 4045   0.246   3.161   4.993
 1049SOL    HW1 4046   0.230   3.063   5.004
 1049SOL    HW2 4047   0.158   3.209   4.993
 1050SOL     OW 4048   3.341   0.485   0.256
 1050SOL    HW1 4049   3.415   0.446   0.310
 1050SOL    HW2 4050   3.271   0.414   0.241
 1051SOL     OW 4051   4.908   4.366   1.474
 1051SOL    HW1 4052   4.831   4.407   1.523
 1051SOL    HW2 4053   4.993   4.384   1.524
 1052SOL     OW 4054   3.611   0.232   4.668
 1052SOL    HW1 4055   3.645   0.226   4.762
 1052SOL    HW2 4056   3.534   0.169   4.657
 1053SOL     OW 4057   4.367   4.817   3.709
 1053SOL    HW1 4058   4.364   4.889   3.639
 1053SOL    HW2 4059   4.423   4.741   3.677
 1054SOL     OW 4060   3.407   6.034   4.684
 1054SOL    HW1 4061   3.448   6.090   4.612
 1054SOL    HW2 4062   3.318   6.074   4.709
 1055SOL     OW 4063   4.322   5.482   5.007
 1055SOL    HW1 4064   4.324   5.561   5.068
 1055SOL    HW2 4065   4.415   5.466   4.972
 1056SOL     OW 4066   1.879   6.509   5.153
 1056SOL    HW1 4067   1.819   6.461   5.088
 1056SOL    HW2 4068   1.966   6.529   5.108
 1057SOL     OW 4069   3.343   3.865   2.030
 1057SOL    HW1 4070   3.443   3.871   2.040
 1057SOL    HW2 4071   3.300   3.935   2.086
 1058SOL     OW 4072   3.508   1.077   1.910
 1058SOL    HW1 4073   3.606   1.062   1.902
 1058SOL    HW2 4074   3.460   1.024   1.840
 1059SOL     OW 4075   4.066   1.889   1.215
 1059SOL    HW1 4076   4.146   1.841   1.180
 1059SOL    HW2 4077   3.983   1.845   1.181
 1060SOL     OW 4078   2.298   1.888   5.713
 1060SOL    HW1 4079   2.348   1.975   5.709
 1060SOL    HW2 4080   2.335   1.832   5.786
 1061SOL     OW 4081   2.837   5.703   1.750
 1061SOL    HW1 4082   2.929   5.677   1.722
 1061SOL    HW2 4083   2.772   5.630   1.726
 1062SOL     OW 4084   5.561   5.158   4.591
 1062SOL    HW1 4085   5.623   5.201   4.525
 1062SOL    HW2 4086   5.605   5.077   4.629
 1063SOL     OW 4087   2.059   2.495   6.457
 1063SOL    HW1 4088   2.106   2.445   6.383
 1063SOL    HW2 4089   2.015   2.429   6.518
 1064SOL     OW 4090   6.799   2.731   1.809
 1064SOL    HW1 4091   6.785   2.744   1.907
 1064SOL    HW2 4092   6.718   2.762   1.759
 1065SOL     OW 4093   6.561   6.574   4.965
 1065SOL    HW1 4094   6.626   6.499   4.954
 1065SOL    HW2 4095   6.595   6.638   5.034
 1066SOL     OW 4096   4.471   0.809   3.555
 1066SOL    HW1 4097   4.533   0.882   3.524
 1066SOL    HW2 4098   4.377   0.844   3.558
 1067SOL     OW 4099   1.826   3.355   1.491
 1067SOL    HW1 4100   1.809   3.403   1.577
 1067SOL    HW2 4101   1.739   3.338   1.444
 1068SOL     OW 4102   0.481   3.772   1.807
 1068SOL    HW1 4103   0.497   3.849   1.868
 1068SOL    HW2 4104   0.469   3.689   1.862
 1069SOL     OW 4105   3.725   3.885   1.319
 1069SOL    HW1 4106   3.739   3.980   1.345
 1069SOL    HW2 4107   3.806   3.832   1.343
 1070SOL     OW 4108   2.177   0.943   6.965
 1070SOL    HW1 4109   2.243   1.014   6.940
 1070SOL    HW2 4110   2.225   0.856   6.977
 1071SOL     OW 4111   4.435   6.820   3.156
 1071SOL    HW1 4112   4.457   6.782   3.246
 1071SOL    HW2 4113   4.448   6.919   3.157
 1072SOL     OW 4114   4.001   5.773   3.169
 1072SOL    HW1 4115   4.013   5.844   3.239
 1072SOL    HW2 4116   4.090   5.751   3.130
 1073SOL     OW 4117   2.390   4.787   2.841
 1073SOL    HW1 4118   2.340   4.865   2.805
 1073SOL    HW2 4119   2.365   4.705   2.790
 1074SOL     OW 4120   1.428   5.445   1.813
 1074SOL    HW1 4121   1.393   5.425   1.721
 1074SOL    HW2 4122   1.373   5.517   1.855
 1075SOL     OW 4123   7.010   4.216   4.348
 1075SOL    HW1 4124   0.005   4.283   4.275
 1075SOL    HW2 4125   6.918   4.227   4.385
 1076SOL     OW 4126   0.339   4.777   3.244
 1076SOL    HW1 4127   0.418   4.782   3.182
 1076SOL    HW2 4128   0.364   4.722   3.324
 1077SOL     OW 4129   4.751   0.306   0.505
 1077SOL    HW1 4130   4.740   0.298   0.406
 1077SOL    HW2 4131   4.675   0.259   0.551
 1078SOL     OW 4132   0.567   2.107   1.242
 1078SOL    HW1 4133   0.592   2.039   1.310
 1078SOL    HW2 4134   0.575   2.199   1.282
 1079SOL     OW 4135   2.456   5.605   3.005
 1079SOL    HW1 4136   2.545   5.593   3.049
 1079SOL    HW2 4137   2.458   5.564   2.913
 1080SOL     OW 4138   1.683   5.146   4.317
 1080SOL    HW1 4139   1.767   5.186   4.281
 1080SOL    HW2 4140   1.702   5.105   4.406
 1081SOL     OW 4141   1.849   0.577   6.914
 1081SOL    HW1 4142   1.789   0.580   6.993
 1081SOL    HW2 4143   1.836   0.491   6.864
 1082SOL     OW 4144   2.233   6.869   6.014
 1082SOL    HW1 4145   2.272   6.778   6.026
 1082SOL    HW2 4146   2.172   6.889   6.092
 1083SOL     OW 4147   4.032   3.300   1.231
 1083SOL    HW1 4148   4.074   3.379   1.275
 1083SOL    HW2 4149   3.957   3.266   1.287
 1084SOL     OW 4150   6.530   3.974   0.558
 1084SOL    HW1 4151   6.582   4.009   0.636
 1084SOL    HW2 4152   6.433   3.993   0.572
 1085SOL     OW 4153   1.994   3.751   4.173
 1085SOL    HW1 4154   2.040   3.816   4.113
 1085SOL    HW2 4155   2.056   3.676   4.194
 1086SOL     OW 4156   4.228   4.883   1.877
 1086SOL    HW1 4157   4.134   4.854   1.895
 1086SOL    HW2 4158   4.249   4.871   1.780
 1087SOL     OW 4159   4.392   2.790   5.319
 1087SOL    HW1 4160   4.294   2.794   5.334
 1087SOL    HW2 4161   4.425   2.879   5.289
 1088SOL     OW 4162   4.815   3.851   3.261
 1088SOL    HW1 4163   4.747   3.879   3.328
 1088SOL    HW2 4164   4.810   3.909   3.180
 1089SOL     OW 4165   6.761   0.403   3.028
 1089SOL    HW1 4166   6.686   0.465   3.005
 1089SOL    HW2 4167   6.847   0.441   2.995
 1090SOL     OW 4168   0.790   1.723   5.616
 1090SOL    HW1 4169   0.750   1.810   5.644
 1090SOL    HW2 4170   0.813   1.670   5.698
 1091SOL     OW 4171   0.933   1.924   4.806
 1091SOL    HW1 4172   0.925   1.878   4.718
 1091SOL    HW2 4173   1.007   1.882   4.859
 1092SOL     OW 4174   2.213   4.288   0.882
 1092SOL    HW1 4175   2.239   4.330   0.795
 1092SOL    HW2 4176   2.163   4.354   0.937
 1093SOL     OW 4177   0.608   1.882   2.232
 1093SOL    HW1 4178   0.586   1.972   2.271
 1093SOL    HW2 4179   0.647   1.894   2.140
 1094SOL     OW 4180   0.423   6.137   1.901
 1094SOL    HW1 4181   0.399   6.121   1.806
 1094SOL    HW2 4182   0.475   6.058   1.936
 1095SOL     OW 4183   5.605   3.805   6.247
 1095SOL    HW1 4184   5.653   3.876   6.300
 1095SOL    HW2 4185   5.517   3.841   6.217
 1096SOL     OW 4186   3.439   4.511   1.695
 1096SOL    HW1 4187   3.345   4.544   1.692
 1096SOL    HW2 4188   3.491   4.564   1.762
 1097SOL     OW 4189   1.414   5.314   5.553
 1097SOL    HW1 4190   1.343   5.284   5.617
 1097SOL    HW2 4191   1.384   5.397   5.506
 1098SOL     OW 4192   4.515   2.082   2.749
 1098SOL    HW1 4193   4.471   2.172   2.755
 1098SOL    HW2 4194   4.514   2.050   2.654
 1099SOL     OW 4195   3.726   1.641   2.959
 1099SOL    HW1 4196   3.650   1.705   2.953
 1099SOL    HW2 4197   3.803   1.684   3.006
 1100SOL     OW 4198   0.944   0.288   0.122
 1100SOL    HW1 4199   0.883   0.346   0.067
 1100SOL    HW2 4200   0.935   0.193   0.092
 1101SOL     OW 4201   5.847   2.756   1.030
 1101SOL    HW1 4202   5.811   2.817   0.959
 1101SOL    HW2 4203   5.910   2.807   1.089
 1102SOL     OW 4204   0.687   4.832   3.428
 1102SOL    HW1 4205   0.629   4.751   3.424
 1102SOL    HW2 4206   0.745   4.836   3.346
 1103SOL     OW 4207   0.312   2.776   1.247
 1103SOL    HW1 4208   0.219   2.814   1.244
 1103SOL    HW2 4209   0.354   2.785   1.156
 1104SOL     OW 4210   2.828   4.981   6.306
 1104SOL    HW1 4211   2.836   4.889   6.346
 1104SOL    HW2 4212   2.918   5.012   6.277
 1105SOL     OW 4213   4.226   5.104   0.075
 1105SOL    HW1 4214   4.309   5.054   0.099
 1105SOL    HW2 4215   4.244   5.163   7.017
 1106SOL     OW 4216   0.518   2.245   6.935
 1106SOL    HW1 4217   0.590   2.311   6.912
 1106SOL    HW2 4218   0.558   2.166   6.982
 1107SOL     OW 4219   1.333   0.540   0.675
 1107SOL    HW1 4220   1.236   0.558   0.659
 1107SOL    HW2 4221   1.351   0.541   0.774
 1108SOL     OW 4222   0.665   2.020   4.789
 1108SOL    HW1 4223   0.762   2.007   4.810
 1108SOL    HW2 4224   0.639   2.114   4.812
 1109SOL     OW 4225   5.071   0.881   4.224
 1109SOL    HW1 4226   5.155   0.904   4.272
 1109SOL    HW2 4227   5.074   0.915   4.130
 1110SOL     OW 4228   3.356   2.828   2.062
 1110SOL    HW1 4229   3.267   2.783   2.063
 1110SOL    HW2 4230   3.344   2.927   2.052
 1111SOL     OW 4231   5.751   0.131   6.935
 1111SOL    HW1 4232   5.818   0.062   6.909
 1111SOL    HW2 4233   5.738   0.130   0.015
 1112SOL     OW 4234   6.421   0.663   2.748
 1112SOL    HW1 4235   6.462   0.697   2.663
 1112SOL    HW2 4236   6.400   0.565   2.738
 1113SOL     OW 4237   6.594   3.727   2.200
 1113SOL    HW1 4238   6.592   3.724   2.101
 1113SOL    HW2 4239   6.688   3.745   2.231
 1114SOL     OW 4240   4.806   1.210   4.839
 1114SOL    HW1 4241   4.757   1.186   4.923
 1114SOL    HW2 4242   4.812   1.130   4.779
 1115SOL     OW 4243   2.534   3.320   0.874
 1115SOL    HW1 4244   2.538   3.229   0.833
 1115SOL    HW2 4245   2.535   3.389   0.802
 1116SOL     OW 4246   4.703   6.637   4.585
 1116SOL    HW1 4247   4.664   6.719   4.627
 1116SOL    HW2 4248   4.747   6.662   4.498
 1117SOL     OW 4249   2.642   3.425   1.249
 1117SOL    HW1 4250   2.585   3.432   1.331
 1117SOL    HW2 4251   2.660   3.328   1.230
 1118SOL     OW 4252   2.174   3.696   3.377
 1118SOL    HW1 4253   2.105   3.634   3.339
 1118SOL    HW2 4254   2.264   3.653   3.372
 1119SOL     OW 4255   3.957   3.900   1.650
 1119SOL    HW1 4256   3.943   3.822   1.590
 1119SOL    HW2 4257   4.015   3.967   1.605
 1120SOL     OW 4258   4.399   1.109   4.067
 1120SOL    HW1 4259   4.356   1.058   3.992
 1120SOL    HW2 4260   4.414   1.048   4.145
 1121SOL     OW 4261   5.212   3.369   2.164
 1121SOL    HW1 4262   5.201   3.427   2.245
 1121SOL    HW2 4263   5.303   3.328   2.165
 1122SOL     OW 4264   4.897   4.176   0.004
 1122SOL    HW1 4265   4.943   4.106   6.970
 1122SOL    HW2 4266   4.838   4.230   6.965
 1123SOL     OW 4267   3.327   0.531   2.613
 1123SOL    HW1 4268   3.396   0.537   2.541
 1123SOL    HW2 4269   3.317   0.620   2.657
 1124SOL     OW 4270   0.817   4.425   4.627
 1124SOL    HW1 4271   0.857   4.334   4.627
 1124SOL    HW2 4272   0.796   4.453   4.720
 1125SOL     OW 4273   3.584   3.308   5.115
 1125SOL    HW1 4274   3.650   3.238   5.139
 1125SOL    HW2 4275   3.501   3.296   5.170
 1126SOL     OW 4276   5.683   6.426   1.909
 1126SOL    HW1 4277   5.594   6.468   1.894
 1126SOL    HW2 4278   5.672   6.337   1.954
 1127SOL     OW 4279   1.222   5.275   0.099
 1127SOL    HW1 4280   1.211   5.360   0.149
 1127SOL    HW2 4281   1.293   5.286   0.029
 1128SOL     OW 4282   2.627   1.796   4.479
 1128SOL    HW1 4283   2.638   1.700   4.454
 1128SOL    HW2 4284   2.663   1.811   4.571
 1129SOL     OW 4285   5.400   0.445   6.885
 1129SOL    HW1 4286   5.432   0.433   6.979
 1129SOL    HW2 4287   5.478   0.464   6.826
 1130SOL     OW 4288   6.836   4.524   6.480
 1130SOL    HW1 4289   6.918   4.490   6.526
 1130SOL    HW2 4290   6.757   4.512   6.541
 1131SOL     OW 4291   0.718   5.298   6.281
 1131SOL    HW1 4292   0.686   5.339   6.196
 1131SOL    HW2 4293   0.815   5.276   6.273
 1132SOL     OW 4294   5.519   0.281   5.699
 1132SOL    HW1 4295   5.426   0.247   5.709
 1132SOL    HW2 4296   5.533   0.359   5.760
 1133SOL     OW 4297   0.239   3.581   1.607
 1133SOL    HW1 4298   0.150   3.535   1.607
 1133SOL    HW2 4299   0.225   3.679   1.596
 1134SOL     OW 4300   5.528   2.765   6.050
 1134SOL    HW1 4301   5.533   2.849   5.996
 1134SOL    HW2 4302   5.618   2.724   6.056
 1135SOL     OW 4303   3.648   1.925   2.903
 1135SOL    HW1 4304   3.686   1.879   2.823
 1135SOL    HW2 4305   3.582   1.994   2.873
 1136SOL     OW 4306   3.663   5.069   4.123
 1136SOL    HW1 4307   3.748   5.065   4.175
 1136SOL    HW2 4308   3.683   5.068   4.025
 1137SOL     OW 4309   1.956   1.269   6.006
 1137SOL    HW1 4310   1.941   1.312   5.917
 1137SOL    HW2 4311   1.887   1.302   6.070
 1138SOL     OW 4312   0.859   4.239   5.623
 1138SOL    HW1 4313   0.935   4.182   5.591
 1138SOL    HW2 4314   0.891   4.332   5.638
 1139SOL     OW 4315   1.351   6.046   1.745
 1139SOL    HW1 4316   1.409   6.009   1.673
 1139SOL    HW2 4317   1.377   6.141   1.764
 1140SOL     OW 4318   3.679   1.812   3.410
 1140SOL    HW1 4319   3.655   1.721   3.444
 1140SOL    HW2 4320   3.647   1.821   3.315
 1141SOL     OW 4321   6.786   5.737   5.286
 1141SOL    HW1 4322   6.686   5.740   5.283
 1141SOL    HW2 4323   6.823   5.806   5.223
 1142SOL     OW 4324   6.711   0.736   4.099
 1142SOL    HW1 4325   6.619   0.704   4.077
 1142SOL    HW2 4326   6.726   0.825   4.056
 1143SOL     OW 4327   4.240   1.950   2.952
 1143SOL    HW1 4328   4.293   1.957   3.037
 1143SOL    HW2 4329   4.178   2.028   2.945
 1144SOL     OW 4330   6.899   5.905   5.101
 1144SOL    HW1 4331   6.826   5.844   5.070
 1144SOL    HW2 4332   6.977   5.897   5.040
 1145SOL     OW 4333   1.036   5.226   5.006
 1145SOL    HW1 4334   0.946   5.197   4.974
 1145SOL    HW2 4335   1.093   5.251   4.928
 1146SOL     OW 4336   5.532   2.138   0.693
 1146SOL    HW1 4337   5.551   2.122   0.596
 1146SOL    HW2 4338   5.452   2.084   0.720
 1147SOL     OW 4339   6.370   2.464   1.484
 1147SOL    HW1 4340   6.417   2.511   1.409
 1147SOL    HW2 4341   6.416   2.378   1.503
 1148SOL     OW 4342   3.862   0.237   0.657
 1148SOL    HW1 4343   3.871   0.334   0.634
 1148SOL    HW2 4344   3.855   0.183   0.573
 1149SOL     OW 4345   6.501   2.978   2.330
 1149SOL    HW1 4346   6.446   2.988   2.412
 1149SOL    HW2 4347   6.560   2.898   2.337
 1150SOL     OW 4348   1.249   4.638   6.744
 1150SOL    HW1 4349   1.215   4.718   6.695
 1150SOL    HW2 4350   1.318   4.592   6.689
 1151SOL     OW 4351   4.781   4.997   6.835
 1151SOL    HW1 4352   4.866   5.002   6.888
 1151SOL    HW2 4353   4.793   5.048   6.750
 1152SOL     OW 4354   0.734   0.347   4.744
 1152SOL    HW1 4355   0.679   0.286   4.800
 1152SOL    HW2 4356   0.805   0.390   4.800
 1153SOL     OW 4357   2.269   5.272   2.655
 1153SOL    HW1 4358   2.365   5.263   2.629
 1153SOL    HW2 4359   2.238   5.365   2.636
 1154SOL     OW 4360   1.307   5.455   1.573
 1154SOL    HW1 4361   1.265   5.545   1.576
 1154SOL    HW2 4362   1.299   5.417   1.481
 1155SOL     OW 4363   3.589   6.058   2.000
 1155SOL    HW1 4364   3.602   6.064   1.901
 1155SOL    HW2 4365   3.676   6.076   2.046
 1156SOL     OW 4366   2.099   0.463   4.247
 1156SOL    HW1 4367   2.010   0.473   4.202
 1156SOL    HW2 4368   2.087   0.475   4.346
 1157SOL     OW 4369   0.808   2.657   3.936
 1157SOL    HW1 4370   0.739   2.729   3.929
 1157SOL    HW2 4371   0.771   2.578   3.984
 1158SOL     OW 4372   4.744   5.248   5.123
 1158SOL    HW1 4373   4.756   5.197   5.038
 1158SOL    HW2 4374   4.656   5.222   5.165
 1159SOL     OW 4375   4.929   5.142   3.272
 1159SOL    HW1 4376   4.987   5.209   3.317
 1159SOL    HW2 4377   4.901   5.176   3.182
 1160SOL     OW 4378   2.867   3.859   0.313
 1160SOL    HW1 4379   2.950   3.856   0.257
 1160SOL    HW2 4380   2.867   3.782   0.376
 1161SOL     OW 4381   5.380   0.505   3.893
 1161SOL    HW1 4382   5.449   0.564   3.851
 1161SOL    HW2 4383   5.310   0.562   3.937
 1162SOL     OW 4384   3.807   4.160   1.620
 1162SOL    HW1 4385   3.711   4.170   1.647
 1162SOL    HW2 4386   3.845   4.078   1.662
 1163SOL     OW 4387   5.094   2.631   2.977
 1163SOL    HW1 4388   5.088   2.545   2.927
 1163SOL    HW2 4389   5.010   2.683   2.964
 1164SOL     OW 4390   5.700   3.209   3.639
 1164SOL    HW1 4391   5.761   3.288   3.630
 1164SOL    HW2 4392   5.743   3.140   3.697
 1165SOL     OW 4393   1.101   4.931   2.478
 1165SOL    HW1 4394   1.071   4.913   2.572
 1165SOL    HW2 4395   1.190   4.976   2.480
 1166SOL     OW 4396   4.274   3.035   6.834
 1166SOL    HW1 4397   4.308   3.081   6.752
 1166SOL    HW2 4398   4.350   2.994   6.884
 1167SOL     OW 4399   4.859   1.407   5.097
 1167SOL    HW1 4400   4.875   1.321   5.049
 1167SOL    HW2 4401   4.941   1.432   5.149
 1168SOL     OW 4402   5.726   6.243   3.555
 1168SOL    HW1 4403   5.787   6.164   3.567
 1168SOL    HW2 4404   5.637   6.222   3.596
 1169SOL     OW 4405   0.866   3.357   1.845
 1169SOL    HW1 4406   0.878   3.448   1.883
 1169SOL    HW2 4407   0.795   3.358   1.775
 1170SOL     OW 4408   2.920   0.461   1.385
 1170SOL    HW1 4409   2.960   0.370   1.372
 1170SOL    HW2 4410   2.829   0.452   1.424
 1171SOL     OW 4411   2.489   6.482   0.343
 1171SOL    HW1 4412   2.512   6.399   0.292
 1171SOL    HW2 4413   2.426   6.538   0.289
 1172SOL     OW 4414   3.157   3.590   5.322
 1172SOL    HW1 4415   3.089   3.635   5.264
 1172SOL    HW2 4416   3.124   3.587   5.417
 1173SOL     OW 4417   4.074   0.404   6.408
 1173SOL    HW1 4418   4.152   0.424   6.348
 1173SOL    HW2 4419   3.993   0.450   6.374
 1174SOL     OW 4420   2.998   6.146   0.857
 1174SOL    HW1 4421   2.924   6.207   0.828
 1174SOL    HW2 4422   2.966   6.051   0.853
 1175SOL     OW 4423   6.388   4.790   5.785
 1175SOL    HW1 4424   6.378   4.712   5.723
 1175SOL    HW2 4425   6.365   4.874   5.737
 1176SOL     OW 4426   6.218   4.009   0.364
 1176SOL    HW1 4427   6.241   3.980   0.457
 1176SOL    HW2 4428   6.264   4.095   0.343
 1177SOL     OW 4429   6.321   2.433   6.711
 1177SOL    HW1 4430   6.328   2.517   6.657
 1177SOL    HW2 4431   6.340   2.454   6.807
 1178SOL     OW 4432   5.839   4.255   1.858
 1178SOL    HW1 4433   5.841   4.352   1.833
 1178SOL    HW2 4434   5.920   4.210   1.823
 1179SOL     OW 4435   2.686   5.578   6.209
 1179SOL    HW1 4436   2.702   5.549   6.303
 1179SOL    HW2 4437   2.758   5.643   6.182
 1180SOL     OW 4438   2.527   1.904   4.201
 1180SOL    HW1 4439   2.498   2.000   4.207
 1180SOL    HW2 4440   2.587   1.882   4.278
 1181SOL     OW 4441   2.344   4.518   3.057
 1181SOL    HW1 4442   2.264   4.577   3.067
 1181SOL    HW2 4443   2.359   4.498   2.960
 1182SOL     OW 4444   1.429   4.143   3.220
 1182SOL    HW1 4445   1.442   4.057   3.171
 1182SOL    HW2 4446   1.516   4.172   3.260
 1183SOL     OW 4447   4.728   5.614   1.361
 1183SOL    HW1 4448   4.806   5.564   1.399
 1183SOL    HW2 4449   4.700   5.685   1.425
 1184SOL     OW 4450   3.076   2.921   5.581
 1184SOL    HW1 4451   2.976   2.914   5.579
 1184SOL    HW2 4452   3.109   2.949   5.491
 1185SOL     OW 4453   2.049   1.220   6.722
 1185SOL    HW1 4454   1.974   1.196   6.784
 1185SOL    HW2 4455   2.011   1.253   6.635
 1186SOL     OW 4456   4.796   1.752   4.821
 1186SOL    HW1 4457   4.881   1.711   4.788
 1186SOL    HW2 4458   4.721   1.687   4.812
 1187SOL     OW 4459   0.000   0.749   5.575
 1187SOL    HW1 4460   6.977   0.716   5.491
 1187SOL    HW2 4461   7.014   0.849   5.579
 1188SOL     OW 4462   1.231   6.992   5.623
 1188SOL    HW1 4463   1.197   6.913   5.674
 1188SOL    HW2 4464   1.323   7.016   5.655
 1189SOL     OW 4465   5.935   1.253   1.796
 1189SOL    HW1 4466   6.026   1.294   1.806
 1189SOL    HW2 4467   5.895   1.237   1.886
 1190SOL     OW 4468   4.261   5.115   2.970
 1190SOL    HW1 4469   4.186   5.051   2.983
 1190SOL    HW2 4470   4.237   5.204   3.009
 1191SOL     OW 4471   3.302   5.199   6.667
 1191SOL    HW1 4472   3.304   5.123   6.601
 1191SOL    HW2 4473   3.255   5.277   6.626
 1192SOL     OW 4474   5.102   5.410   2.839
 1192SOL    HW1 4475   5.099   5.310   2.833
 1192SOL    HW2 4476   5.039   5.441   2.910
 1193SOL     OW 4477   4.497   0.330   3.660
 1193SOL    HW1 4478   4.455   0.239   3.653
 1193SOL    HW2 4479   4.595   0.323   3.639
 1194SOL     OW 4480   5.992   0.450   0.786
 1194SOL    HW1 4481   5.898   0.484   0.786
 1194SOL    HW2 4482   6.052   0.521   0.749
 1195SOL     OW 4483   4.091   0.800   6.142
 1195SOL    HW1 4484   4.046   0.809   6.053
 1195SOL    HW2 4485   4.151   0.879   6.156
 1196SOL     OW 4486   0.598   5.153   2.197
 1196SOL    HW1 4487   0.522   5.207   2.233
 1196SOL    HW2 4488   0.628   5.088   2.267
 1197SOL     OW 4489   3.339   5.154   6.200
 1197SOL    HW1 4490   3.409   5.163   6.271
 1197SOL    HW2 4491   3.382   5.160   6.110
 1198SOL     OW 4492   2.849   1.547   2.921
 1198SOL    HW1 4493   2.759   1.513   2.893
 1198SOL    HW2 4494   2.918   1.519   2.854
 1199SOL     OW 4495   4.056   3.828   2.816
 1199SOL    HW1 4496   4.147   3.816   2.777
 1199SOL    HW2 4497   3.988   3.826   2.743
 1200SOL     OW 4498   3.128   4.151   0.389
 1200SOL    HW1 4499   3.046   4.183   0.437
 1200SOL    HW2 4500   3.108   4.141   0.292
 1201SOL     OW 4501   1.347   0.575   5.298
 1201SOL    HW1 4502   1.333   0.653   5.358
 1201SOL    HW2 4503   1.441   0.576   5.264
 1202SOL     OW 4504   5.873   6.560   4.710
 1202SOL    HW1 4505   5.955   6.582   4.762
 1202SOL    HW2 4506   5.846   6.639   4.655
 1203SOL     OW 4507   5.783   0.289   1.674
 1203SOL    HW1 4508   5.833   0.376   1.682
 1203SOL    HW2 4509   5.692   0.307   1.636
 1204SOL     OW 4510   2.908   0.307   0.484
 1204SOL    HW1 4511   2.994   0.317   0.433
 1204SOL    HW2 4512   2.832   0.340   0.428
 1205SOL     OW 4513   0.626   2.728   5.790
 1205SOL    HW1 4514   0.546   2.709   5.733
 1205SOL    HW2 4515   0.615   2.682   5.878
 1206SOL     OW 4516   1.382   1.613   4.469
 1206SOL    HW1 4517   1.445   1.585   4.396
 1206SOL    HW2 4518   1.418   1.581   4.557
 1207SOL     OW 4519   5.531   6.759   6.721
 1207SOL    HW1 4520   5.458   6.690   6.720
 1207SOL    HW2 4521   5.494   6.848   6.746
 1208SOL     OW 4522   4.183   3.556   3.544
 1208SOL    HW1 4523   4.132   3.534   3.460
 1208SOL    HW2 4524   4.176   3.654   3.562
 1209SOL     OW 4525   6.216   5.408   4.418
 1209SOL    HW1 4526   6.125   5.426   4.456
 1209SOL    HW2 4527   6.231   5.310   4.412
 1210SOL     OW 4528   3.432   6.787   2.682
 1210SOL    HW1 4529   3.489   6.859   2.721
 1210SOL    HW2 4530   3.342   6.788   2.728
 1211SOL     OW 4531   0.974   4.177   4.628
 1211SOL    HW1 4532   1.069   4.193   4.604
 1211SOL    HW2 4533   0.969   4.135   4.719
 1212SOL     OW 4534   1.996   4.082   4.479
 1212SOL    HW1 4535   1.935   4.003   4.466
 1212SOL    HW2 4536   2.075   4.055   4.533
 1213SOL     OW 4537   5.899   2.446   5.465
 1213SOL    HW1 4538   5.971   2.496   5.416
 1213SOL    HW2 4539   5.813   2.496   5.458
 1214SOL     OW 4540   2.197   2.627   3.444
 1214SOL    HW1 4541   2.163   2.552   3.500
 1214SOL    HW2 4542   2.121   2.670   3.395
 1215SOL     OW 4543   0.777   4.648   1.842
 1215SOL    HW1 4544   0.722   4.624   1.762
 1215SOL    HW2 4545   0.838   4.723   1.820
 1216SOL     OW 4546   2.496   0.175   2.153
 1216SOL    HW1 4547   2.491   0.083   2.113
 1216SOL    HW2 4548   2.581   0.184   2.205
 1217SOL     OW 4549   1.064   0.549   2.064
 1217SOL    HW1 4550   1.077   0.455   2.031
 1217SOL    HW2 4551   1.023   0.547   2.155
 1218SOL     OW 4552   0.768   3.590   3.512
 1218SOL    HW1 4553   0.681   3.578   3.465
 1218SOL    HW2 4554   0.763   3.547   3.603
 1219SOL     OW 4555   3.059   6.112   2.445
 1219SOL    HW1 4556   3.111   6.027   2.433
 1219SOL    HW2 4557   3.117   6.180   2.491
 1220SOL     OW 4558   6.526   3.474   3.188
 1220SOL    HW1 4559   6.565   3.382   3.183
 1220SOL    HW2 4560   6.495   3.492   3.281
 1221SOL     OW 4561   4.595   3.133   0.093
 1221SOL    HW1 4562   4.551   3.182   0.018
 1221SOL    HW2 4563   4.615   3.039   0.065
 1222SOL     OW 4564   6.980   6.242   1.258
 1222SOL    HW1 4565   6.893   6.242   1.307
 1222SOL    HW2 4566   6.967   6.283   1.168
 1223SOL     OW 4567   6.168   6.394   5.203
 1223SOL    HW1 4568   6.209   6.483   5.222
 1223SOL    HW2 4569   6.091   6.379   5.265
 1224SOL     OW 4570   5.659   5.063   2.135
 1224SOL    HW1 4571   5.598   5.111   2.198
 1224SOL    HW2 4572   5.605   5.022   2.061
 1225SOL     OW 4573   4.712   2.138   0.150
 1225SOL    HW1 4574   4.642   2.072   0.120
 1225SOL    HW2 4575   4.790   2.134   0.088
 1226SOL     OW 4576   5.298   5.261   0.913
 1226SOL    HW1 4577   5.226   5.298   0.854
 1226SOL    HW2 4578   5.387   5.274   0.868
 1227SOL     OW 4579   4.933   4.186   6.383
 1227SOL    HW1 4580   4.897   4.129   6.457
 1227SOL    HW2 4581   4.940   4.281   6.415
 1228SOL     OW 4582   3.785   3.433   2.968
 1228SOL    HW1 4583   3.853   3.507   2.964
 1228SOL    HW2 4584   3.829   3.349   3.000
 1229SOL     OW 4585   2.003   5.112   2.680
 1229SOL    HW1 4586   2.022   5.064   2.765
 1229SOL    HW2 4587   2.088   5.130   2.631
 1230SOL     OW 4588   5.618   4.704   1.334
 1230SOL    HW1 4589   5.613   4.802   1.355
 1230SOL    HW2 4590   5.677   4.691   1.254
 1231SOL     OW 4591   1.860   2.294   6.198
 1231SOL    HW1 4592   1.842   2.257   6.290
 1231SOL    HW2 4593   1.775   2.331   6.161
 1232SOL     OW 4594   3.224   0.198   5.600
 1232SOL    HW1 4595   3.233   0.149   5.513
 1232SOL    HW2 4596   3.297   0.267   5.606
 1233SOL     OW 4597   1.152   5.625   5.285
 1233SOL    HW1 4598   1.237   5.577   5.263
 1233SOL    HW2 4599   1.091   5.622   5.206
 1234SOL     OW 4600   0.354   3.227   0.225
 1234SOL    HW1 4601   0.260   3.222   0.192
 1234SOL    HW2 4602   0.375   3.148   0.281
 1235SOL     OW 4603   6.158   4.731   1.114
 1235SOL    HW1 4604   6.251   4.749   1.147
 1235SOL    HW2 4605   6.157   4.735   1.014
 1236SOL     OW 4606   1.834   1.617   2.507
 1236SOL    HW1 4607   1.762   1.552   2.484
 1236SOL    HW2 4608   1.893   1.630   2.427
 1237SOL     OW 4609   0.318   0.068   5.012
 1237SOL    HW1 4610   0.254   0.006   4.965
 1237SOL    HW2 4611   0.266   0.131   5.069
 1238SOL     OW 4612   0.147   0.609   4.635
 1238SOL    HW1 4613   0.116   0.599   4.729
 1238SOL    HW2 4614   0.074   0.647   4.579
 1239SOL     OW 4615   5.613   5.002   5.008
 1239SOL    HW1 4616   5.659   5.073   4.954
 1239SOL    HW2 4617   5.518   4.994   4.979
 1240SOL     OW 4618   0.132   4.250   2.807
 1240SOL    HW1 4619   0.053   4.202   2.770
 1240SOL    HW2 4620   0.132   4.345   2.773
 1241SOL     OW 4621   5.003   4.892   5.124
 1241SOL    HW1 4622   5.017   4.932   5.033
 1241SOL    HW2 4623   4.911   4.855   5.130
 1242SOL     OW 4624   1.222   5.014   0.273
 1242SOL    HW1 4625   1.219   5.110   0.245
 1242SOL    HW2 4626   1.155   4.997   0.345
 1243SOL     OW 4627   1.309   4.350   4.704
 1243SOL    HW1 4628   1.344   4.338   4.797
 1243SOL    HW2 4629   1.225   4.404   4.706
 1244SOL     OW 4630   5.780   7.020   5.438
 1244SOL    HW1 4631   5.859   6.989   5.491
 1244SOL    HW2 4632   5.811   0.053   5.359
 1245SOL     OW 4633   4.835   6.902   0.794
 1245SOL    HW1 4634   4.881   6.867   0.713
 1245SOL    HW2 4635   4.771   6.974   0.768
 1246SOL     OW 4636   5.132   0.958   0.003
 1246SOL    HW1 4637   5.093   0.958   6.931
 1246SOL    HW2 4638   5.067   0.915   0.066
 1247SOL     OW 4639   0.059   6.824   3.547
 1247SOL    HW1 4640   0.006   6.808   3.464
 1247SOL    HW2 4641   0.120   6.747   3.564
 1248SOL     OW 4642   1.408   6.374   4.063
 1248SOL    HW1 4643   1.448   6.440   4.000
 1248SOL    HW2 4644   1.419   6.282   4.027
 1249SOL     OW 4645   5.742   5.496   6.942
 1249SOL    HW1 4646   5.699   5.414   6.904
 1249SOL    HW2 4647   5.696   5.521   0.007
 1250SOL     OW 4648   6.533   3.183   5.005
 1250SOL    HW1 4649   6.457   3.194   4.941
 1250SOL    HW2 4650   6.620   3.196   4.956
 1251SOL     OW 4651   3.026   0.743   2.936
 1251SOL    HW1 4652   2.955   0.733   3.006
 1251SOL    HW2 4653   2.992   0.801   2.862
 1252SOL     OW 4654   1.812   6.038   6.392
 1252SOL    HW1 4655   1.771   6.122   6.427
 1252SOL    HW2 4656   1.748   5.962   6.402
 1253SOL     OW 4657   3.356   0.592   0.846
 1253SOL    HW1 4658   3.401   0.540   0.773
 1253SOL    HW2 4659   3.352   0.535   0.928
 1254SOL     OW 4660   6.116   0.653   2.322
 1254SOL    HW1 4661   6.146   0.589   2.393
 1254SOL    HW2 4662   6.189   0.665   2.255
 1255SOL     OW 4663   5.798   1.474   5.761
 1255SOL    HW1 4664   5.728   1.434   5.701
 1255SOL    HW2 4665   5.880   1.417   5.758
 1256SOL     OW 4666   1.163   5.492   3.924
 1256SOL    HW1 4667   1.244   5.446   3.961
 1256SOL    HW2 4668   1.100   5.424   3.886
 1257SOL     OW 4669   0.636   6.451   4.361
 1257SOL    HW1 4670   0.590   6.404   4.286
 1257SOL    HW2 4671   0.597   6.543   4.371
 1258SOL     OW 4672   4.596   6.686   4.975
 1258SOL    HW1 4673   4.597   6.777   4.934
 1258SOL    HW2 4674   4.520   6.634   4.937
 1259SOL     OW 4675   6.383   0.078   4.578
 1259SOL    HW1 4676   6.361   0.146   4.508
 1259SOL    HW2 4677   6.396   0.123   4.666
 1260SOL     OW 4678   2.196   0.967   1.759
 1260SOL    HW1 4679   2.263   0.992   1.829
 1260SOL    HW2 4680   2.108   1.008   1.780
 1261SOL     OW 4681   5.987   4.180   5.973
 1261SOL    HW1 4682   6.030   4.248   6.033
 1261SOL    HW2 4683   5.890   4.201   5.963
 1262SOL     OW 4684   4.645   5.267   0.512
 1262SOL    HW1 4685   4.549   5.294   0.499
 1262SOL    HW2 4686   4.685   5.242   0.424
 1263SOL     OW 4687   6.625   2.026   1.349
 1263SOL    HW1 4688   6.640   2.040   1.251
 1263SOL    HW2 4689   6.691   1.959   1.383
 1264SOL     OW 4690   0.381   3.552   3.654
 1264SOL    HW1 4691   0.320   3.630   3.654
 1264SOL    HW2 4692   0.413   3.533   3.561
 1265SOL     OW 4693   6.611   5.391   4.791
 1265SOL    HW1 4694   6.665   5.328   4.848
 1265SOL    HW2 4695   6.672   5.440   4.729
 1266SOL     OW 4696   2.168   1.751   4.705
 1266SOL    HW1 4697   2.227   1.799   4.641
 1266SOL    HW2 4698   2.073   1.775   4.687
 1267SOL     OW 4699   0.035   5.144   2.530
 1267SOL    HW1 4700   0.014   5.099   2.617
 1267SOL    HW2 4701   0.116   5.201   2.540
 1268SOL     OW 4702   6.166   2.873   6.885
 1268SOL    HW1 4703   6.256   2.894   6.846
 1268SOL    HW2 4704   6.112   2.957   6.889
 1269SOL     OW 4705   0.054   5.493   5.584
 1269SOL    HW1 4706   0.151   5.477   5.564
 1269SOL    HW2 4707   0.044   5.511   5.682
 1270SOL     OW 4708   1.825   3.090   4.656
 1270SOL    HW1 4709   1.829   3.177   4.704
 1270SOL    HW2 4710   1.876   3.021   4.707
 1271SOL     OW 4711   4.762   0.846   2.881
 1271SOL    HW1 4712   4.765   0.798   2.794
 1271SOL    HW2 4713   4.771   0.781   2.956
 1272SOL     OW 4714   0.654   6.109   1.620
 1272SOL    HW1 4715   0.559   6.137   1.633
 1272SOL    HW2 4716   0.665   6.015   1.653
 1273SOL     OW 4717   2.822   6.172   6.480
 1273SOL    HW1 4718   2.742   6.129   6.440
 1273SOL    HW2 4719   2.823   6.156   6.579
 1274SOL     OW 4720   0.060   2.187   1.901
 1274SOL    HW1 4721   7.011   2.127   1.860
 1274SOL    HW2 4722   0.073   2.267   1.843
 1275SOL     OW 4723   3.461   2.055   4.159
 1275SOL    HW1 4724   3.505   2.082   4.245
 1275SOL    HW2 4725   3.524   2.068   4.083
 1276SOL     OW 4726   6.753   0.325   3.280
 1276SOL    HW1 4727   6.825   0.255   3.286
 1276SOL    HW2 4728   6.744   0.354   3.185
 1277SOL     OW 4729   0.305   0.808   5.214
 1277SOL    HW1 4730   0.277   0.901   5.238
 1277SOL    HW2 4731   0.366   0.810   5.135
 1278SOL     OW 4732   2.021   1.906   5.855
 1278SOL    HW1 4733   2.037   1.940   5.948
 1278SOL    HW2 4734   2.107   1.875   5.815
 1279SOL     OW 4735   2.661   5.198   6.906
 1279SOL    HW1 4736   2.688   5.268   6.972
 1279SOL    HW2 4737   2.565   5.209   6.883
 1280SOL     OW 4738   1.884   0.045   3.330
 1280SOL    HW1 4739   1.927   0.129   3.296
 1280SOL    HW2 4740   1.921   6.986   3.282
 1281SOL     OW 4741   1.151   6.044   3.371
 1281SOL    HW1 4742   1.207   6.033   3.453
 1281SOL    HW2 4743   1.069   5.988   3.380
 1282SOL     OW 4744   0.409   0.700   1.915
 1282SOL    HW1 4745   0.464   0.782   1.900
 1282SOL    HW2 4746   0.332   0.698   1.851
 1283SOL     OW 4747   5.671   5.625   6.058
 1283SOL    HW1 4748   5.616   5.603   6.139
 1283SOL    HW2 4749   5.655   5.556   5.987
 1284SOL     OW 4750   2.712   2.550   1.779
 1284SOL    HW1 4751   2.648   2.605   1.833
 1284SOL    HW2 4752   2.781   2.511   1.839
 1285SOL     OW 4753   4.398   2.505   5.280
 1285SOL    HW1 4754   4.427   2.598   5.300
 1285SOL    HW2 4755   4.298   2.502   5.269
 1286SOL     OW 4756   6.276   5.020   1.716
 1286SOL    HW1 4757   6.237   4.931   1.692
 1286SOL    HW2 4758   6.292   5.073   1.634
 1287SOL     OW 4759   7.014   5.447   6.757
 1287SOL    HW1 4760   6.981   5.408   6.843
 1287SOL    HW2 4761   6.941   5.500   6.714
 1288SOL     OW 4762   6.140   3.065   2.267
 1288SOL    HW1 4763   6.051   3.101   2.238
 1288SOL    HW2 4764   6.131   3.021   2.356
 1289SOL     OW 4765   0.640   5.881   2.565
 1289SOL    HW1 4766   0.605   5.917   2.478
 1289SOL    HW2 4767   0.697   5.951   2.609
 1290SOL     OW 4768   0.747   6.288   1.442
 1290SOL    HW1 4769   0.714   6.235   1.520
 1290SOL    HW2 4770   0.753   6.384   1.467
 1291SOL     OW 4771   2.336   6.055   6.683
 1291SOL    HW1 4772   2.303   5.962   6.695
 1291SOL    HW2 4773   2.259   6.114   6.655
 1292SOL     OW 4774   1.069   6.081   0.624
 1292SOL    HW1 4775   1.017   6.130   0.694
 1292SOL    HW2 4776   1.152   6.132   0.602
 1293SOL     OW 4777   0.428   2.164   6.180
 1293SOL    HW1 4778   0.438   2.221   6.261
 1293SOL    HW2 4779   0.435   2.220   6.098
 1294SOL     OW 4780   1.023   2.083   2.304
 1294SOL    HW1 4781   0.940   2.124   2.268
 1294SOL    HW2 4782   1.064   2.024   2.235
 1295SOL     OW 4783   5.857   2.705   1.501
 1295SOL    HW1 4784   5.840   2.666   1.591
 1295SOL    HW2 4785   5.947   2.675   1.468
 1296SOL     OW 4786   3.739   1.849   5.894
 1296SOL    HW1 4787   3.709   1.942   5.915
 1296SOL    HW2 4788   3.828   1.852   5.850
 1297SOL     OW 4789   6.553   1.214   5.944
 1297SOL    HW1 4790   6.584   1.210   6.039
 1297SOL    HW2 4791   6.601   1.145   5.891
 1298SOL     OW 4792   5.611   2.762   3.198
 1298SOL    HW1 4793   5.598   2.855   3.165
 1298SOL    HW2 4794   5.533   2.706   3.171
 1299SOL     OW 4795   0.850   4.237   4.022
 1299SOL    HW1 4796   0.883   4.299   4.093
 1299SOL    HW2 4797   0.861   4.142   4.054
 1300SOL     OW 4798   3.602   2.786   1.489
 1300SOL    HW1 4799   3.639   2.720   1.554
 1300SOL    HW2 4800   3.639   2.877   1.509
 1301SOL     OW 4801   1.335   0.150   3.666
 1301SOL    HW1 4802   1.312   0.055   3.689
 1301SOL    HW2 4803   1.413   0.180   3.720
 1302SOL     OW 4804   3.421   6.476   4.855
 1302SOL    HW1 4805   3.500   6.428   4.892
 1302SOL    HW2 4806   3.386   6.426   4.775
 1303SOL     OW 4807   3.570   1.779   1.190
 1303SOL    HW1 4808   3.473   1.755   1.185
 1303SOL    HW2 4809   3.580   1.872   1.225
 1304SOL     OW 4810   2.942   0.846   6.971
 1304SOL    HW1 4811   2.921   0.930   6.920
 1304SOL    HW2 4812   2.990   0.782   6.911
 1305SOL     OW 4813   4.629   6.962   5.304
 1305SOL    HW1 4814   4.597   6.871   5.328
 1305SOL    HW2 4815   4.724   6.958   5.271
 1306SOL     OW 4816   0.718   4.506   4.397
 1306SOL    HW1 4817   0.618   4.500   4.394
 1306SOL    HW2 4818   0.751   4.471   4.485
 1307SOL     OW 4819   1.287   2.462   4.350
 1307SOL    HW1 4820   1.345   2.426   4.276
 1307SOL    HW2 4821   1.344   2.480   4.430
 1308SOL     OW 4822   4.624   5.943   3.442
 1308SOL    HW1 4823   4.582   5.905   3.360
 1308SOL    HW2 4824   4.672   5.871   3.492
 1309SOL     OW 4825   5.992   3.037   4.648
 1309SOL    HW1 4826   6.039   2.976   4.712
 1309SOL    HW2 4827   5.917   3.083   4.696
 1310SOL     OW 4828   5.580   3.472   4.720
 1310SOL    HW1 4829   5.597   3.373   4.725
 1310SOL    HW2 4830   5.667   3.520   4.716
 1311SOL     OW 4831   6.193   5.701   5.309
 1311SOL    HW1 4832   6.166   5.720   5.403
 1311SOL    HW2 4833   6.111   5.691   5.252
 1312SOL     OW 4834   0.881   6.324   0.385
 1312SOL    HW1 4835   0.973   6.334   0.346
 1312SOL    HW2 4836   0.815   6.371   0.326
 1313SOL     OW 4837   3.497   5.161   4.639
 1313SOL    HW1 4838   3.427   5.232   4.639
 1313SOL    HW2 4839   3.588   5.203   4.639
 1314SOL     OW 4840   0.354   1.693   4.955
 1314SOL    HW1 4841   0.322   1.690   5.050
 1314SOL    HW2 4842   0.276   1.692   4.893
 1315SOL     OW 4843   2.298   1.254   2.575
 1315SOL    HW1 4844   2.315   1.350   2.597
 1315SOL    HW2 4845   2.384   1.211   2.549
 1316SOL     OW 4846   3.029   6.820   3.232
 1316SOL    HW1 4847   3.058   6.725   3.241
 1316SOL    HW2 4848   3.035   6.847   3.136
 1317SOL     OW 4849   0.136   5.842   3.664
 1317SOL    HW1 4850   0.184   5.826   3.750
 1317SOL    HW2 4851   0.163   5.772   3.598
 1318SOL     OW 4852   0.104   6.623   0.495
 1318SOL    HW1 4853   0.036   6.552   0.515
 1318SOL    HW2 4854   0.057   6.708   0.471
 1319SOL     OW 4855   6.286   1.146   6.685
 1319SOL    HW1 4856   6.277   1.202   6.602
 1319SOL    HW2 4857   6.282   1.049   6.660
 1320SOL     OW 4858   5.324   5.761   6.403
 1320SOL    HW1 4859   5.404   5.723   6.449
 1320SOL    HW2 4860   5.332   5.749   6.305
 1321SOL     OW 4861   3.282   2.659   6.850
 1321SOL    HW1 4862   3.351   2.661   6.922
 1321SOL    HW2 4863   3.233   2.572   6.854
 1322SOL     OW 4864   6.366   1.470   4.218
 1322SOL    HW1 4865   6.441   1.511   4.167
 1322SOL    HW2 4866   6.283   1.471   4.162
 1323SOL     OW 4867   6.825   1.757   4.921
 1323SOL    HW1 4868   6.876   1.776   5.005
 1323SOL    HW2 4869   6.732   1.793   4.930
 1324SOL     OW 4870   1.524   3.644   1.321
 1324SOL    HW1 4871   1.424   3.635   1.318
 1324SOL    HW2 4872   1.562   3.623   1.231
 1325SOL     OW 4873   2.854   5.934   2.598
 1325SOL    HW1 4874   2.921   5.968   2.531
 1325SOL    HW2 4875   2.792   5.870   2.554
 1326SOL     OW 4876   5.747   3.244   4.615
 1326SOL    HW1 4877   5.701   3.159   4.588
 1326SOL    HW2 4878   5.787   3.233   4.706
 1327SOL     OW 4879   3.734   5.214   3.210
 1327SOL    HW1 4880   3.685   5.249   3.291
 1327SOL    HW2 4881   3.668   5.200   3.136
 1328SOL     OW 4882   2.435   2.507   6.331
 1328SOL    HW1 4883   2.452   2.565   6.411
 1328SOL    HW2 4884   2.358   2.544   6.279
 1329SOL     OW 4885   0.515   0.622   0.579
 1329SOL    HW1 4886   0.469   0.586   0.660
 1329SOL    HW2 4887   0.574   0.699   0.605
 1330SOL     OW 4888   6.339   6.732   1.281
 1330SOL    HW1 4889   6.375   6.710   1.191
 1330SOL    HW2 4890   6.250   6.776   1.272
 1331SOL     OW 4891   5.220   0.568   2.391
 1331SOL    HW1 4892   5.178   0.550   2.302
 1331SOL    HW2 4893   5.185   0.503   2.458
 1332SOL     OW 4894   4.363   1.179   1.472
 1332SOL    HW1 4895   4.429   1.222   1.411
 1332SOL    HW2 4896   4.384   1.204   1.567
 1333SOL     OW 4897   3.805   4.174   5.150
 1333SOL    HW1 4898   3.896   4.181   5.190
 1333SOL    HW2 4899   3.803   4.098   5.085
 1334SOL     OW 4900   0.020   3.999   4.555
 1334SOL    HW1 4901   0.063   4.065   4.494
 1334SOL    HW2 4902   0.083   3.924   4.572
 1335SOL     OW 4903   2.738   4.880   3.281
 1335SOL    HW1 4904   2.659   4.842   3.234
 1335SOL    HW2 4905   2.790   4.937   3.218
 1336SOL     OW 4906   0.685   0.465   5.143
 1336SOL    HW1 4907   0.622   0.388   5.137
 1336SOL    HW2 4908   0.662   0.532   5.071
 1337SOL     OW 4909   2.177   2.007   6.287
 1337SOL    HW1 4910   2.262   2.056   6.303
 1337SOL    HW2 4911   2.137   1.979   6.374
 1338SOL     OW 4912   4.078   5.464   0.282
 1338SOL    HW1 4913   4.019   5.383   0.289
 1338SOL    HW2 4914   4.024   5.541   0.249
 1339SOL     OW 4915   6.359   4.137   5.067
 1339SOL    HW1 4916   6.269   4.105   5.037
 1339SOL    HW2 4917   6.426   4.063   5.056
 1340SOL     OW 4918   1.283   1.917   6.964
 1340SOL    HW1 4919   1.204   1.951   7.015
 1340SOL    HW2 4920   1.334   1.994   6.926
 1341SOL     OW 4921   3.544   1.027   4.127
 1341SOL    HW1 4922   3.474   1.052   4.059
 1341SOL    HW2 4923   3.547   1.097   4.198
 1342SOL     OW 4924   0.488   6.319   0.917
 1342SOL    HW1 4925   0.426   6.270   0.978
 1342SOL    HW2 4926   0.543   6.384   0.971
 1343SOL     OW 4927   4.169   5.369   3.035
 1343SOL    HW1 4928   4.125   5.316   3.108
 1343SOL    HW2 4929   4.175   5.465   3.062
 1344SOL     OW 4930   6.177   1.343   3.106
 1344SOL    HW1 4931   6.180   1.440   3.130
 1344SOL    HW2 4932   6.138   1.332   3.014
 1345SOL     OW 4933   0.085   0.253   2.862
 1345SOL    HW1 4934   0.037   0.340   2.867
 1345SOL    HW2 4935   0.026   0.185   2.819
 1346SOL     OW 4936   0.246   0.938   3.968
 1346SOL    HW1 4937   0.329   0.992   3.953
 1346SOL    HW2 4938   0.255   0.849   3.923
 1347SOL     OW 4939   6.092   0.454   3.490
 1347SOL    HW1 4940   6.045   0.434   3.403
 1347SOL    HW2 4941   6.172   0.395   3.499
 1348SOL     OW 4942   5.524   4.611   4.831
 1348SOL    HW1 4943   5.556   4.654   4.915
 1348SOL    HW2 4944   5.549   4.514   4.831
 1349SOL     OW 4945   3.818   3.301   6.636
 1349SOL    HW1 4946   3.911   3.272   6.657
 1349SOL    HW2 4947   3.754   3.252   6.694
 1350SOL     OW 4948   3.205   0.561   6.179
 1350SOL    HW1 4949   3.169   0.618   6.104
 1350SOL    HW2 4950   3.273   0.613   6.230
 1351SOL     OW 4951   0.831   0.666   4.414
 1351SOL    HW1 4952   0.922   0.700   4.389
 1351SOL    HW2 4953   0.792   0.726   4.484
 1352SOL     OW 4954   0.218   0.488   3.557
 1352SOL    HW1 4955   0.193   0.464   3.651
 1352SOL    HW2 4956   0.164   0.433   3.493
 1353SOL     OW 4957   1.178   4.164   3.811
 1353SOL    HW1 4958   1.116   4.242   3.819
 1353SOL    HW2 4959   1.215   4.161   3.718
 1354SOL     OW 4960   0.194   6.283   2.308
 1354SOL    HW1 4961   0.291   6.273   2.326
 1354SOL    HW2 4962   0.141   6.230   2.375
 1355SOL     OW 4963   4.660   2.885   0.029
 1355SOL    HW1 4964   4.712   2.809   0.068
 1355SOL    HW2 4965   4.566   2.856   0.012
 1356SOL     OW 4966   3.005   3.707   2.520
 1356SOL    HW1 4967   3.064   3.717   2.440
 1356SOL    HW2 4968   3.001   3.794   2.569
 1357SOL     OW 4969   2.778   2.881   5.573
 1357SOL    HW1 4970   2.785   2.820   5.494
 1357SOL    HW2 4971   2.784   2.828   5.657
 1358SOL     OW 4972   2.003   2.041   6.096
 1358SOL    HW1 4973   1.960   2.131   6.099
 1358SOL    HW2 4974   2.074   2.035   6.166
 1359SOL     OW 4975   6.057   1.652   0.153
 1359SOL    HW1 4976   6.140   1.705   0.175
 1359SOL    HW2 4977   6.083   1.558   0.130
 1360SOL     OW 4978   3.405   3.779   4.011
 1360SOL    HW1 4979   3.332   3.729   4.059
 1360SOL    HW2 4980   3.466   3.714   3.966
 1361SOL     OW 4981   0.852   6.056   0.453
 1361SOL    HW1 4982   0.850   6.151   0.422
 1361SOL    HW2 4983   0.930   6.042   0.514
 1362SOL     OW 4984   2.621   2.946   5.835
 1362SOL    HW1 4985   2.629   2.847   5.829
 1362SOL    HW2 4986   2.657   2.977   5.923
 1363SOL     OW 4987   5.753   6.438   2.232
 1363SOL    HW1 4988   5.736   6.507   2.303
 1363SOL    HW2 4989   5.708   6.353   2.257
 1364SOL     OW 4990   6.685   3.187   1.680
 1364SOL    HW1 4991   6.592   3.213   1.655
 1364SOL    HW2 4992   6.682   3.108   1.741
 1365SOL     OW 4993   0.938   4.036   6.293
 1365SOL    HW1 4994   0.862   4.025   6.229
 1365SOL    HW2 4995   0.917   4.109   6.358
 1366SOL     OW 4996   5.953   1.218   0.320
 1366SOL    HW1 4997   6.025   1.150   0.327
 1366SOL    HW2 4998   5.975   1.296   0.379
 1367SOL     OW 4999   0.878   5.878   4.462
 1367SOL    HW1 5000   0.968   5.915   4.438
 1367SOL    HW2 5001   0.868   5.788   4.421
 1368SOL     OW 5002   0.744   6.281   5.351
 1368SOL    HW1 5003   0.744   6.381   5.343
 1368SOL    HW2 5004   0.673   6.243   5.292
 1369SOL     OW 5005   2.993   6.550   3.321
 1369SOL    HW1 5006   2.953   6.536   3.412
 1369SOL    HW2 5007   2.943   6.497   3.253
 1370SOL     OW 5008   6.780   2.149   3.117
 1370SOL    HW1 5009   6.738   2.236   3.143
 1370SOL    HW2 5010   6.723   2.104   3.048
 1371SOL     OW 5011   6.161   1.816   4.882
 1371SOL    HW1 5012   6.257   1.796   4.863
 1371SOL    HW2 5013   6.148   1.915   4.885
 1372SOL     OW 5014   6.984   2.279   0.169
 1372SOL    HW1 5015   0.047   2.296   0.222
 1372SOL    HW2 5016   6.985   2.337   0.087
 1373SOL     OW 5017   4.669   2.554   1.850
 1373SOL    HW1 5018   4.718   2.620   1.907
 1373SOL    HW2 5019   4.620   2.602   1.777
 1374SOL     OW 5020   4.479   4.693   0.217
 1374SOL    HW1 5021   4.550   4.686   0.288
 1374SOL    HW2 5022   4.520   4.727   0.132
 1375SOL     OW 5023   5.652   5.711   4.477
 1375SOL    HW1 5024   5.656   5.677   4.571
 1375SOL    HW2 5025   5.666   5.810   4.477
 1376SOL     OW 5026   2.408   5.150   6.099
 1376SOL    HW1 5027   2.465   5.135   6.018
 1376SOL    HW2 5028   2.438   5.090   6.173
 1377SOL     OW 5029   1.451   1.049   2.878
 1377SOL    HW1 5030   1.433   1.148   2.876
 1377SOL    HW2 5031   1.547   1.033   2.858
 1378SOL     OW 5032   4.760   2.392   4.586
 1378SOL    HW1 5033   4.854   2.356   4.590
 1378SOL    HW2 5034   4.729   2.392   4.491
 1379SOL     OW 5035   4.990   5.187   1.416
 1379SOL    HW1 5036   4.985   5.089   1.396
 1379SOL    HW2 5037   5.044   5.232   1.346
 1380SOL     OW 5038   0.246   5.494   1.545
 1380SOL    HW1 5039   0.346   5.499   1.544
 1380SOL    HW2 5040   0.217   5.428   1.615
 1381SOL     OW 5041   6.040   2.486   5.769
 1381SOL    HW1 5042   5.952   2.533   5.771
 1381SOL    HW2 5043   6.101   2.527   5.836
 1382SOL     OW 5044   4.247   2.490   0.269
 1382SOL    HW1 5045   4.269   2.392   0.276
 1382SOL    HW2 5046   4.278   2.537   0.352
 1383SOL     OW 5047   0.103   0.927   2.057
 1383SOL    HW1 5048   0.155   0.854   2.102
 1383SOL    HW2 5049   0.080   0.997   2.125
 1384SOL     OW 5050   5.705   0.998   1.703
 1384SOL    HW1 5051   5.768   1.060   1.657
 1384SOL    HW2 5052   5.747   0.908   1.714
 1385SOL     OW 5053   1.272   5.662   1.899
 1385SOL    HW1 5054   1.224   5.737   1.944
 1385SOL    HW2 5055   1.333   5.699   1.829
 1386SOL     OW 5056   3.178   5.897   4.337
 1386SOL    HW1 5057   3.125   5.899   4.252
 1386SOL    HW2 5058   3.188   5.803   4.368
 1387SOL     OW 5059   3.545   5.813   2.125
 1387SOL    HW1 5060   3.577   5.905   2.103
 1387SOL    HW2 5061   3.460   5.819   2.178
 1388SOL     OW 5062   6.384   0.074   1.222
 1388SOL    HW1 5063   6.446   0.003   1.188
 1388SOL    HW2 5064   6.291   0.037   1.228
 1389SOL     OW 5065   6.194   0.991   2.863
 1389SOL    HW1 5066   6.280   1.021   2.903
 1389SOL    HW2 5067   6.129   1.067   2.862
 1390SOL     OW 5068   0.065   1.764   6.075
 1390SOL    HW1 5069   7.004   1.800   6.030
 1390SOL    HW2 5070   0.137   1.833   6.073
 1391SOL     OW 5071   0.450   2.685   3.019
 1391SOL    HW1 5072   0.410   2.595   3.002
 1391SOL    HW2 5073   0.504   2.712   2.939
 1392SOL     OW 5074   4.969   5.183   5.529
 1392SOL    HW1 5075   5.017   5.096   5.535
 1392SOL    HW2 5076   4.974   5.218   5.435
 1393SOL     OW 5077   4.204   0.396   5.590
 1393SOL    HW1 5078   4.241   0.486   5.569
 1393SOL    HW2 5079   4.256   0.354   5.664
 1394SOL     OW 5080   3.006   5.602   5.615
 1394SOL    HW1 5081   2.969   5.517   5.578
 1394SOL    HW2 5082   2.985   5.677   5.552
 1395SOL     OW 5083   3.746   4.572   5.923
 1395SOL    HW1 5084   3.730   4.490   5.977
 1395SOL    HW2 5085   3.711   4.558   5.830
 1396SOL     OW 5086   6.013   6.068   4.751
 1396SOL    HW1 5087   5.945   6.118   4.697
 1396SOL    HW2 5088   6.095   6.124   4.761
 1397SOL     OW 5089   4.718   6.399   4.721
 1397SOL    HW1 5090   4.725   6.446   4.809
 1397SOL    HW2 5091   4.707   6.466   4.648
 1398SOL     OW 5092   1.232   1.620   5.179
 1398SOL    HW1 5093   1.283   1.589   5.259
 1398SOL    HW2 5094   1.140   1.583   5.181
 1399SOL     OW 5095   2.991   6.096   1.679
 1399SOL    HW1 5096   2.944   6.117   1.764
 1399SOL    HW2 5097   2.926   6.057   1.614
 1400SOL     OW 5098   7.016   0.570   2.087
 1400SOL    HW1 5099   6.986   0.479   2.059
 1400SOL    HW2 5100   6.959   0.640   2.044
 1401SOL     OW 5101   0.205   1.634   4.734
 1401SOL    HW1 5102   0.200   1.544   4.691
 1401SOL    HW2 5103   0.172   1.704   4.670
 1402SOL     OW 5104   0.137   2.972   0.612
 1402SOL    HW1 5105   0.191   2.888   0.613
 1402SOL    HW2 5106   0.059   2.963   0.675
 1403SOL     OW 5107   2.679   6.848   2.335
 1403SOL    HW1 5108   2.635   6.759   2.340
 1403SOL    HW2 5109   2.758   6.850   2.397
 1404SOL     OW 5110   5.285   0.664   0.003
 1404SOL    HW1 5111   5.330   0.593   6.970
 1404SOL    HW2 5112   5.326   0.753   7.002
 1405SOL     OW 5113   2.034   3.665   0.867
 1405SOL    HW1 5114   1.971   3.741   0.851
 1405SOL    HW2 5115   2.123   3.701   0.894
 1406SOL     OW 5116   0.917   3.861   1.347
 1406SOL    HW1 5117   0.998   3.874   1.403
 1406SOL    HW2 5118   0.850   3.933   1.367
 1407SOL     OW 5119   6.707   1.541   2.488
 1407SOL    HW1 5120   6.612   1.519   2.510
 1407SOL    HW2 5121   6.733   1.626   2.534
 1408SOL     OW 5122   5.310   1.021   6.212
 1408SOL    HW1 5123   5.392   1.007   6.266
 1408SOL    HW2 5124   5.246   1.080   6.262
 1409SOL     OW 5125   0.189   0.868   4.405
 1409SOL    HW1 5126   0.164   0.771   4.409
 1409SOL    HW2 5127   0.260   0.880   4.336
 1410SOL     OW 5128   0.845   3.264   6.833
 1410SOL    HW1 5129   0.850   3.295   6.738
 1410SOL    HW2 5130   0.750   3.251   6.859
 1411SOL     OW 5131   1.772   6.750   2.447
 1411SOL    HW1 5132   1.773   6.834   2.393
 1411SOL    HW2 5133   1.837   6.758   2.522
 1412SOL     OW 5134   1.370   2.809   0.320
 1412SOL    HW1 5135   1.351   2.871   0.244
 1412SOL    HW2 5136   1.344   2.716   0.294
 1413SOL     OW 5137   2.333   0.581   4.319
 1413SOL    HW1 5138   2.249   0.545   4.279
 1413SOL    HW2 5139   2.327   0.681   4.325
 1414SOL     OW 5140   2.598   1.800   1.783
 1414SOL    HW1 5141   2.576   1.877   1.722
 1414SOL    HW2 5142   2.685   1.760   1.755
 1415SOL     OW 5143   4.102   6.718   5.113
 1415SOL    HW1 5144   4.005   6.707   5.137
 1415SOL    HW2 5145   4.156   6.649   5.160
 1416SOL     OW 5146   4.364   4.603   2.196
 1416SOL    HW1 5147   4.286   4.666   2.192
 1416SOL    HW2 5148   4.357   4.538   2.120
 1417SOL     OW 5149   2.554   2.326   0.016
 1417SOL    HW1 5150   2.490   2.389   0.059
 1417SOL    HW2 5151   2.552   2.338   6.937
 1418SOL     OW 5152   3.254   4.111   2.619
 1418SOL    HW1 5153   3.351   4.088   2.624
 1418SOL    HW2 5154   3.237   4.192   2.675
 1419SOL     OW 5155   3.572   6.723   4.883
 1419SOL    HW1 5156   3.578   6.723   4.783
 1419SOL    HW2 5157   3.521   6.642   4.914
 1420SOL     OW 5158   1.171   6.021   2.196
 1420SOL    HW1 5159   1.162   6.090   2.268
 1420SOL    HW2 5160   1.117   6.049   2.117
 1421SOL     OW 5161   2.796   2.258   2.634
 1421SOL    HW1 5162   2.890   2.281   2.607
 1421SOL    HW2 5163   2.743   2.235   2.552
 1422SOL     OW 5164   1.943   4.787   1.437
 1422SOL    HW1 5165   1.858   4.741   1.461
 1422SOL    HW2 5166   2.005   4.789   1.515
 1423SOL     OW 5167   4.988   6.730   2.635
 1423SOL    HW1 5168   5.006   6.828   2.634
 1423SOL    HW2 5169   4.896   6.712   2.601
 1424SOL     OW 5170   6.094   4.996   5.544
 1424SOL    HW1 5171   6.142   5.051   5.476
 1424SOL    HW2 5172   6.138   5.007   5.633
 1425SOL     OW 5173   1.856   6.754   3.942
 1425SOL    HW1 5174   1.894   6.846   3.932
 1425SOL    HW2 5175   1.783   6.755   4.010
 1426SOL     OW 5176   1.103   1.652   5.470
 1426SOL    HW1 5177   1.100   1.580   5.539
 1426SOL    HW2 5178   1.011   1.667   5.434
 1427SOL     OW 5179   6.236   0.527   3.946
 1427SOL    HW1 5180   6.278   0.506   3.858
 1427SOL    HW2 5181   6.138   0.504   3.942
 1428SOL     OW 5182   5.623   2.167   0.095
 1428SOL    HW1 5183   5.632   2.082   0.044
 1428SOL    HW2 5184   5.714   2.205   0.113
 1429SOL     OW 5185   6.266   0.216   0.520
 1429SOL    HW1 5186   6.229   0.277   0.451
 1429SOL    HW2 5187   6.361   0.241   0.540
 1430SOL     OW 5188   1.875   4.467   3.771
 1430SOL    HW1 5189   1.900   4.456   3.675
 1430SOL    HW2 5190   1.956   4.450   3.828
 1431SOL     OW 5191   2.406   1.042   1.982
 1431SOL    HW1 5192   2.472   1.102   1.938
 1431SOL    HW2 5193   2.447   0.952   1.998
 1432SOL     OW 5194   2.138   1.016   2.778
 1432SOL    HW1 5195   2.113   0.972   2.692
 1432SOL    HW2 5196   2.096   1.106   2.784
 1433SOL     OW 5197   4.349   0.484   3.833
 1433SOL    HW1 5198   4.257   0.505   3.799
 1433SOL    HW2 5199   4.397   0.428   3.766
 1434SOL     OW 5200   0.662   0.970   5.723
 1434SOL    HW1 5201   0.613   1.001   5.804
 1434SOL    HW2 5202   0.608   0.989   5.641
 1435SOL     OW 5203   5.664   1.450   2.999
 1435SOL    HW1 5204   5.683   1.548   3.012
 1435SOL    HW2 5205   5.731   1.396   3.050
 1436SOL     OW 5206   4.130   3.832   0.215
 1436SOL    HW1 5207   4.057   3.808   0.279
 1436SOL    HW2 5208   4.160   3.926   0.231
 1437SOL     OW 5209   2.887   1.734   3.122
 1437SOL    HW1 5210   2.966   1.686   3.161
 1437SOL    HW2 5211   2.854   1.684   3.042
 1438SOL     OW 5212   3.300   6.757   1.009
 1438SOL    HW1 5213   3.225   6.706   0.967
 1438SOL    HW2 5214   3.311   6.728   1.104
 1439SOL     OW 5215   0.196   5.727   2.322
 1439SOL    HW1 5216   0.270   5.740   2.388
 1439SOL    HW2 5217   0.234   5.729   2.230
 1440SOL     OW 5218   3.168   3.985   0.891
 1440SOL    HW1 5219   3.125   3.902   0.927
 1440SOL    HW2 5220   3.119   4.015   0.809
 1441SOL     OW 5221   5.970   6.723   1.355
 1441SOL    HW1 5222   6.041   6.793   1.344
 1441SOL    HW2 5223   5.893   6.762   1.405
 1442SOL     OW 5224   5.775   5.812   0.265
 1442SOL    HW1 5225   5.756   5.893   0.210
 1442SOL    HW2 5226   5.806   5.840   0.356
 1443SOL     OW 5227   1.055   2.421   3.035
 1443SOL    HW1 5228   0.963   2.409   2.995
 1443SOL    HW2 5229   1.117   2.352   2.997
 1444SOL     OW 5230   6.005   6.245   0.020
 1444SOL    HW1 5231   5.992   6.241   0.120
 1444SOL    HW2 5232   5.966   6.331   7.006
 1445SOL     OW 5233   0.547   3.395   2.323
 1445SOL    HW1 5234   0.468   3.442   2.363
 1445SOL    HW2 5235   0.612   3.372   2.396
 1446SOL     OW 5236   6.155   6.879   6.580
 1446SOL    HW1 5237   6.205   6.922   6.656
 1446SOL    HW2 5238   6.189   6.787   6.565
 1447SOL     OW 5239   6.097   5.125   4.271
 1447SOL    HW1 5240   6.092   5.187   4.193
 1447SOL    HW2 5241   6.013   5.131   4.325
 1448SOL     OW 5242   0.676   2.665   5.416
 1448SOL    HW1 5243   0.740   2.685   5.489
 1448SOL    HW2 5244   0.609   2.739   5.408
 1449SOL     OW 5245   1.476   3.595   4.629
 1449SOL    HW1 5246   1.575   3.591   4.617
 1449SOL    HW2 5247   1.432   3.601   4.540
 1450SOL     OW 5248   1.914   2.180   5.324
 1450SOL    HW1 5249   1.832   2.186   5.380
 1450SOL    HW2 5250   1.933   2.084   5.304
 1451SOL     OW 5251   2.558   6.651   1.737
 1451SOL    HW1 5252   2.544   6.600   1.653
 1451SOL    HW2 5253   2.470   6.668   1.781
 1452SOL     OW 5254   4.516   3.274   6.406
 1452SOL    HW1 5255   4.455   3.216   6.351
 1452SOL    HW2 5256   4.471   3.362   6.423
 1453SOL     OW 5257   0.723   4.173   5.829
 1453SOL    HW1 5258   0.714   4.074   5.824
 1453SOL    HW2 5259   0.779   4.206   5.753
 1454SOL     OW 5260   2.826   2.290   3.516
 1454SOL    HW1 5261   2.818   2.191   3.500
 1454SOL    HW2 5262   2.900   2.326   3.459
 1455SOL     OW 5263   1.468   6.017   2.301
 1455SOL    HW1 5264   1.466   5.968   2.387
 1455SOL    HW2 5265   1.377   6.014   2.258
 1456SOL     OW 5266   6.635   5.679   5.849
 1456SOL    HW1 5267   6.732   5.693   5.833
 1456SOL    HW2 5268   6.616   5.581   5.857
 1457SOL     OW 5269   0.825   4.109   6.573
 1457SOL    HW1 5270   0.749   4.094   6.637
 1457SOL    HW2 5271   0.909   4.125   6.625
 1458SOL     OW 5272   6.235   5.100   5.784
 1458SOL    HW1 5273   6.141   5.078   5.810
 1458SOL    HW2 5274   6.282   5.142   5.862
 1459SOL     OW 5275   4.944   6.453   5.144
 1459SOL    HW1 5276   5.005   6.514   5.093
 1459SOL    HW2 5277   4.974   6.450   5.240
 1460SOL     OW 5278   2.121   6.154   5.292
 1460SOL    HW1 5279   2.082   6.214   5.363
 1460SOL    HW2 5280   2.048   6.101   5.251
 1461SOL     OW 5281   0.042   2.787   2.256
 1461SOL    HW1 5282   0.036   2.687   2.248
 1461SOL    HW2 5283   0.108   2.810   2.327
 1462SOL     OW 5284   0.913   0.029   0.636
 1462SOL    HW1 5285   0.937   0.050   0.730
 1462SOL    HW2 5286   0.899   0.114   0.585
 1463SOL     OW 5287   1.681   6.090   6.781
 1463SOL    HW1 5288   1.719   5.997   6.785
 1463SOL    HW2 5289   1.602   6.091   6.721
 1464SOL     OW 5290   6.952   4.169   4.859
 1464SOL    HW1 5291   6.923   4.074   4.845
 1464SOL    HW2 5292   6.998   4.202   4.777
 1465SOL     OW 5293   1.562   1.445   3.593
 1465SOL    HW1 5294   1.632   1.490   3.538
 1465SOL    HW2 5295   1.490   1.510   3.617
 1466SOL     OW 5296   4.101   2.380   1.693
 1466SOL    HW1 5297   4.043   2.304   1.723
 1466SOL    HW2 5298   4.065   2.466   1.730
 1467SOL     OW 5299   1.144   0.919   3.757
 1467SOL    HW1 5300   1.229   0.876   3.724
 1467SOL    HW2 5301   1.073   0.850   3.764
 1468SOL     OW 5302   2.756   6.486   1.932
 1468SOL    HW1 5303   2.713   6.422   1.996
 1468SOL    HW2 5304   2.701   6.490   1.848
 1469SOL     OW 5305   6.028   5.665   3.316
 1469SOL    HW1 5306   6.090   5.659   3.238
 1469SOL    HW2 5307   6.010   5.761   3.337
 1470SOL     OW 5308   6.201   2.419   0.909
 1470SOL    HW1 5309   6.165   2.495   0.962
 1470SOL    HW2 5310   6.167   2.332   0.945
 1471SOL     OW 5311   5.765   6.784   1.567
 1471SOL    HW1 5312   5.797   6.869   1.608
 1471SOL    HW2 5313   5.773   6.710   1.633
 1472SOL     OW 5314   2.467   7.019   6.104
 1472SOL    HW1 5315   2.395   6.968   6.057
 1472SOL    HW2 5316   2.466   0.094   6.072
 1473SOL     OW 5317   3.383   4.897   4.686
 1473SOL    HW1 5318   3.418   4.989   4.671
 1473SOL    HW2 5319   3.434   4.832   4.629
 1474SOL     OW 5320   4.481   4.331   1.469
 1474SOL    HW1 5321   4.469   4.277   1.552
 1474SOL    HW2 5322   4.498   4.270   1.392
 1475SOL     OW 5323   5.162   0.746   0.358
 1475SOL    HW1 5324   5.157   0.744   0.457
 1475SOL    HW2 5325   5.201   0.659   0.325
 1476SOL     OW 5326   4.121   1.401   1.618
 1476SOL    HW1 5327   4.099   1.453   1.535
 1476SOL    HW2 5328   4.103   1.304   1.603
 1477SOL     OW 5329   4.589   5.544   1.137
 1477SOL    HW1 5330   4.624   5.552   1.230
 1477SOL    HW2 5331   4.492   5.570   1.135
 1478SOL     OW 5332   5.257   5.616   5.471
 1478SOL    HW1 5333   5.251   5.615   5.571
 1478SOL    HW2 5334   5.245   5.709   5.438
 1479SOL     OW 5335   3.715   3.479   1.366
 1479SOL    HW1 5336   3.685   3.505   1.275
 1479SOL    HW2 5337   3.788   3.410   1.359
 1480SOL     OW 5338   3.226   0.872   5.017
 1480SOL    HW1 5339   3.145   0.896   5.070
 1480SOL    HW2 5340   3.200   0.857   4.921
 1481SOL     OW 5341   5.127   2.505   5.134
 1481SOL    HW1 5342   5.052   2.564   5.105
 1481SOL    HW2 5343   5.176   2.547   5.210
 1482SOL     OW 5344   4.315   0.310   0.543
 1482SOL    HW1 5345   4.227   0.352   0.567
 1482SOL    HW2 5346   4.308   0.211   0.556
 1483SOL     OW 5347   4.302   1.028   6.156
 1483SOL    HW1 5348   4.354   0.996   6.076
 1483SOL    HW2 5349   4.244   1.105   6.130
 1484SOL     OW 5350   3.013   5.562   4.389
 1484SOL    HW1 5351   2.914   5.572   4.394
 1484SOL    HW2 5352   3.037   5.465   4.382
 1485SOL     OW 5353   5.439   2.436   2.665
 1485SOL    HW1 5354   5.522   2.480   2.699
 1485SOL    HW2 5355   5.395   2.496   2.598
 1486SOL     OW 5356   5.166   6.821   3.467
 1486SOL    HW1 5357   5.146   6.747   3.531
 1486SOL    HW2 5358   5.259   6.854   3.483
 1487SOL     OW 5359   6.517   0.299   0.545
 1487SOL    HW1 5360   6.553   0.288   0.452
 1487SOL    HW2 5361   6.570   0.368   0.594
 1488SOL     OW 5362   6.430   1.015   3.000
 1488SOL    HW1 5363   6.439   0.915   3.003
 1488SOL    HW2 5364   6.441   1.051   3.093
 1489SOL     OW 5365   4.051   5.067   6.445
 1489SOL    HW1 5366   4.039   5.150   6.390
 1489SOL    HW2 5367   3.989   4.996   6.412
 1490SOL     OW 5368   0.611   2.390   2.016
 1490SOL    HW1 5369   0.660   2.393   1.929
 1490SOL    HW2 5370   0.559   2.474   2.028
 1491SOL     OW 5371   0.032   3.281   1.864
 1491SOL    HW1 5372   6.973   3.334   1.830
 1491SOL    HW2 5373   0.005   3.186   1.876
 1492SOL     OW 5374   6.142   1.318   3.377
 1492SOL    HW1 5375   6.153   1.415   3.398
 1492SOL    HW2 5376   6.141   1.304   3.278
 1493SOL     OW 5377   4.473   2.236   6.036
 1493SOL    HW1 5378   4.420   2.164   5.991
 1493SOL    HW2 5379   4.570   2.212   6.034
 1494SOL     OW 5380   5.702   3.059   6.220
 1494SOL    HW1 5381   5.696   2.985   6.287
 1494SOL    HW2 5382   5.797   3.072   6.193
 1495SOL     OW 5383   5.910   3.742   3.890
 1495SOL    HW1 5384   5.930   3.838   3.907
 1495SOL    HW2 5385   5.820   3.733   3.848
 1496SOL     OW 5386   0.014   6.060   6.855
 1496SOL    HW1 5387   6.994   6.151   6.862
 1496SOL    HW2 5388   0.080   6.058   6.780
 1497SOL     OW 5389   5.750   3.280   2.827
 1497SOL    HW1 5390   5.659   3.278   2.868
 1497SOL    HW2 5391   5.742   3.290   2.728
 1498SOL     OW 5392   3.306   5.004   0.897
 1498SOL    HW1 5393   3.263   5.081   0.943
 1498SOL    HW2 5394   3.267   4.994   0.805
 1499SOL     OW 5395   0.103   3.862   5.944
 1499SOL    HW1 5396   0.068   3.770   5.960
 1499SOL    HW2 5397   0.185   3.876   6.000
 1500SOL     OW 5398   0.624   5.460   1.285
 1500SOL    HW1 5399   0.565   5.459   1.204
 1500SOL    HW2 5400   0.719   5.447   1.258
 1501SOL     OW 5401   5.439   1.742   6.153
 1501SOL    HW1 5402   5.447   1.692   6.067
 1501SOL    HW2 5403   5.524   1.732   6.205
 1502SOL     OW 5404   6.525   0.736   6.521
 1502SOL    HW1 5405   6.615   0.722   6.478
 1502SOL    HW2 5406   6.519   0.681   6.604
 1503SOL     OW 5407   0.587   3.931   2.217
 1503SOL    HW1 5408   0.613   3.835   2.228
 1503SOL    HW2 5409   0.506   3.936   2.158
 1504SOL     OW 5410   0.544   0.672   3.297
 1504SOL    HW1 5411   0.628   0.634   3.259
 1504SOL    HW2 5412   0.546   0.771   3.291
 1505SOL     OW 5413   5.924   6.132   4.996
 1505SOL    HW1 5414   6.015   6.105   5.030
 1505SOL    HW2 5415   5.917   6.110   4.899
 1506SOL     OW 5416   1.315   1.523   0.738
 1506SOL    HW1 5417   1.402   1.568   0.759
 1506SOL    HW2 5418   1.312   1.435   0.785
 1507SOL     OW 5419   1.492   2.591   4.502
 1507SOL    HW1 5420   1.496   2.496   4.530
 1507SOL    HW2 5421   1.438   2.643   4.569
 1508SOL     OW 5422   0.727   0.765   0.680
 1508SOL    HW1 5423   0.791   0.812   0.619
 1508SOL    HW2 5424   0.779   0.709   0.745
 1509SOL     OW 5425   5.057   0.774   4.702
 1509SOL    HW1 5426   5.027   0.816   4.616
 1509SOL    HW2 5427   5.029   0.831   4.779
 1510SOL     OW 5428   3.820   6.674   4.140
 1510SOL    HW1 5429   3.910   6.716   4.144
 1510SOL    HW2 5430   3.764   6.721   4.072
 1511SOL     OW 5431   3.843   3.706   3.928
 1511SOL    HW1 5432   3.887   3.666   3.848
 1511SOL    HW2 5433   3.897   3.685   4.010
 1512SOL     OW 5434   6.467   5.794   1.231
 1512SOL    HW1 5435   6.525   5.722   1.267
 1512SOL    HW2 5436   6.513   5.883   1.243
 1513SOL     OW 5437   2.631   6.870   6.259
 1513SOL    HW1 5438   2.587   6.945   6.209
 1513SOL    HW2 5439   2.604   6.782   6.220
 1514SOL     OW 5440   3.749   2.154   5.485
 1514SOL    HW1 5441   3.779   2.073   5.435
 1514SOL    HW2 5442   3.820   2.224   5.480
 1515SOL     OW 5443   6.556   1.834   2.202
 1515SOL    HW1 5444   6.484   1.813   2.268
 1515SOL    HW2 5445   6.645   1.825   2.245
 1516SOL     OW 5446   6.388   6.408   4.653
 1516SOL    HW1 5447   6.375   6.472   4.729
 1516SOL    HW2 5448   6.343   6.321   4.675
 1517SOL     OW 5449   4.141   6.280   3.723
 1517SOL    HW1 5450   4.055   6.231   3.739
 1517SOL    HW2 5451   4.121   6.370   3.683
 1518SOL     OW 5452   6.957   2.144   0.784
 1518SOL    HW1 5453   6.859   2.162   0.780
 1518SOL    HW2 5454   7.007   2.226   0.755
 1519SOL     OW 5455   6.879   3.886   0.508
 1519SOL    HW1 5456   6.840   3.975   0.532
 1519SOL    HW2 5457   6.958   3.868   0.566
 1520SOL     OW 5458   0.204   5.284   1.727
 1520SOL    HW1 5459   0.208   5.204   1.666
 1520SOL    HW2 5460   0.155   5.259   1.810
 1521SOL     OW 5461   1.979   5.096   6.261
 1521SOL    HW1 5462   1.989   5.131   6.354
 1521SOL    HW2 5463   2.056   5.127   6.205
 1522SOL     OW 5464   5.068   5.482   4.587
 1522SOL    HW1 5465   5.065   5.451   4.682
 1522SOL    HW2 5466   5.082   5.403   4.527
 1523SOL     OW 5467   3.363   6.189   6.844
 1523SOL    HW1 5468   3.434   6.258   6.832
 1523SOL    HW2 5469   3.347   6.141   6.758
 1524SOL     OW 5470   2.148   2.228   2.407
 1524SOL    HW1 5471   2.173   2.281   2.326
 1524SOL    HW2 5472   2.051   2.240   2.426
 1525SOL     OW 5473   5.693   2.918   0.840
 1525SOL    HW1 5474   5.646   2.858   0.776
 1525SOL    HW2 5475   5.638   2.930   0.923
 1526SOL     OW 5476   0.769   1.388   0.581
 1526SOL    HW1 5477   0.802   1.313   0.638
 1526SOL    HW2 5478   0.846   1.444   0.550
 1527SOL     OW 5479   3.459   1.537   4.588
 1527SOL    HW1 5480   3.481   1.595   4.666
 1527SOL    HW2 5481   3.363   1.509   4.593
 1528SOL     OW 5482   4.806   3.893   1.019
 1528SOL    HW1 5483   4.813   3.801   1.057
 1528SOL    HW2 5484   4.854   3.957   1.079
 1529SOL     OW 5485   4.923   1.277   6.235
 1529SOL    HW1 5486   5.011   1.316   6.261
 1529SOL    HW2 5487   4.859   1.351   6.213
 1530SOL     OW 5488   3.571   6.887   1.693
 1530SOL    HW1 5489   3.655   6.886   1.640
 1530SOL    HW2 5490   3.593   6.896   1.790
 1531SOL     OW 5491   3.639   6.938   4.012
 1531SOL    HW1 5492   3.628   0.016   4.029
 1531SOL    HW2 5493   3.671   6.893   4.096
 1532SOL     OW 5494   3.094   4.994   6.184
 1532SOL    HW1 5495   3.061   4.937   6.109
 1532SOL    HW2 5496   3.185   5.030   6.161
 1533SOL     OW 5497   5.480   5.404   1.572
 1533SOL    HW1 5498   5.573   5.408   1.537
 1533SOL    HW2 5499   5.481   5.402   1.672
 1534SOL     OW 5500   3.877   5.983   6.594
 1534SOL    HW1 5501   3.839   6.047   6.660
 1534SOL    HW2 5502   3.969   5.957   6.622
 1535SOL     OW 5503   6.413   6.407   4.391
 1535SOL    HW1 5504   6.331   6.452   4.356
 1535SOL    HW2 5505   6.408   6.400   4.490
 1536SOL     OW 5506   4.091   4.225   6.541
 1536SOL    HW1 5507   4.094   4.126   6.555
 1536SOL    HW2 5508   4.083   4.271   6.629
 1537SOL     OW 5509   3.331   5.250   3.576
 1537SOL    HW1 5510   3.271   5.318   3.534
 1537SOL    HW2 5511   3.362   5.283   3.665
 1538SOL     OW 5512   3.283   1.256   0.409
 1538SOL    HW1 5513   3.362   1.313   0.389
 1538SOL    HW2 5514   3.202   1.315   0.423
 1539SOL     OW 5515   5.364   3.249   1.202
 1539SOL    HW1 5516   5.350   3.322   1.135
 1539SOL    HW2 5517   5.461   3.225   1.205
 1540SOL     OW 5518   2.481   0.278   4.436
 1540SOL    HW1 5519   2.520   0.185   4.429
 1540SOL    HW2 5520   2.540   0.342   4.386
 1541SOL     OW 5521   3.327   3.146   4.593
 1541SOL    HW1 5522   3.354   3.233   4.634
 1541SOL    HW2 5523   3.380   3.132   4.509
 1542SOL     OW 5524   6.544   6.942   2.247
 1542SOL    HW1 5525   6.623   6.894   2.208
 1542SOL    HW2 5526   6.499   6.994   2.175
 1543SOL     OW 5527   3.005   5.107   6.545
 1543SOL    HW1 5528   3.031   5.160   6.464
 1543SOL    HW2 5529   3.074   5.038   6.564
 1544SOL     OW 5530   3.984   3.224   3.588
 1544SOL    HW1 5531   4.024   3.307   3.628
 1544SOL    HW2 5532   3.937   3.248   3.503
 1545SOL     OW 5533   6.125   0.279   2.181
 1545SOL    HW1 5534   6.209   0.265   2.234
 1545SOL    HW2 5535   6.092   0.190   2.149
 1546SOL     OW 5536   5.040   6.337   5.735
 1546SOL    HW1 5537   5.082   6.319   5.823
 1546SOL    HW2 5538   4.941   6.336   5.744
 1547SOL     OW 5539   1.670   4.241   0.325
 1547SOL    HW1 5540   1.634   4.328   0.290
 1547SOL    HW2 5541   1.649   4.168   0.260
 1548SOL     OW 5542   6.016   2.056   0.019
 1548SOL    HW1 5543   6.051   2.128   0.080
 1548SOL    HW2 5544   6.092   2.016   6.988
 1549SOL     OW 5545   3.867   1.552   4.441
 1549SOL    HW1 5546   3.882   1.536   4.539
 1549SOL    HW2 5547   3.945   1.601   4.403
 1550SOL     OW 5548   3.714   3.355   2.400
 1550SOL    HW1 5549   3.785   3.417   2.366
 1550SOL    HW2 5550   3.641   3.348   2.332
 1551SOL     OW 5551   0.608   5.420   6.938
 1551SOL    HW1 5552   0.614   5.349   7.008
 1551SOL    HW2 5553   0.538   5.395   6.872
 1552SOL     OW 5554   2.371   4.540   1.410
 1552SOL    HW1 5555   2.461   4.512   1.443
 1552SOL    HW2 5556   2.349   4.630   1.446
 1553SOL     OW 5557   6.698   1.471   5.858
 1553SOL    HW1 5558   6.678   1.401   5.790
 1553SOL    HW2 5559   6.693   1.562   5.816
 1554SOL     OW 5560   3.023   2.202   3.285
 1554SOL    HW1 5561   2.978   2.123   3.243
 1554SOL    HW2 5562   3.078   2.250   3.217
 1555SOL     OW 5563   6.482   2.954   6.369
 1555SOL    HW1 5564   6.525   2.993   6.287
 1555SOL    HW2 5565   6.549   2.951   6.443
 1556SOL     OW 5566   2.209   1.186   6.093
 1556SOL    HW1 5567   2.253   1.172   6.004
 1556SOL    HW2 5568   2.112   1.204   6.079
 1557SOL     OW 5569   1.642   3.449   6.698
 1557SOL    HW1 5570   1.561   3.393   6.719
 1557SOL    HW2 5571   1.617   3.520   6.633
 1558SOL     OW 5572   7.008   0.206   4.985
 1558SOL    HW1 5573   6.934   0.165   5.038
 1558SOL    HW2 5574   0.019   0.142   4.915
 1559SOL     OW 5575   0.335   2.263   5.935
 1559SOL    HW1 5576   0.272   2.310   5.997
 1559SOL    HW2 5577   0.313   2.287   5.841
 1560SOL     OW 5578   0.505   0.816   6.117
 1560SOL    HW1 5579   0.556   0.751   6.060
 1560SOL    HW2 5580   0.414   0.780   6.135
 1561SOL     OW 5581   4.789   6.251   2.634
 1561SOL    HW1 5582   4.745   6.302   2.707
 1561SOL    HW2 5583   4.888   6.251   2.649
 1562SOL     OW 5584   4.952   6.989   2.865
 1562SOL    HW1 5585   5.006   6.980   2.781
 1562SOL    HW2 5586   4.856   6.971   2.845
 1563SOL     OW 5587   3.359   1.365   6.205
 1563SOL    HW1 5588   3.282   1.405   6.254
 1563SOL    HW2 5589   3.325   1.315   6.125
 1564SOL     OW 5590   1.606   1.913   2.000
 1564SOL    HW1 5591   1.628   1.956   2.087
 1564SOL    HW2 5592   1.612   1.813   2.009
 1565SOL     OW 5593   5.086   3.719   1.874
 1565SOL    HW1 5594   5.032   3.803   1.868
 1565SOL    HW2 5595   5.026   3.640   1.868
 1566SOL     OW 5596   5.494   4.040   3.474
 1566SOL    HW1 5597   5.418   3.976   3.467
 1566SOL    HW2 5598   5.536   4.052   3.384
 1567SOL     OW 5599   6.299   5.684   6.072
 1567SOL    HW1 5600   6.276   5.603   6.125
 1567SOL    HW2 5601   6.274   5.669   5.976
 1568SOL     OW 5602   1.120   0.319   0.332
 1568SOL    HW1 5603   1.091   0.407   0.370
 1568SOL    HW2 5604   1.068   0.300   0.248
 1569SOL     OW 5605   4.039   6.371   4.800
 1569SOL    HW1 5606   4.057   6.437   4.727
 1569SOL    HW2 5607   3.940   6.365   4.815
 1570SOL     OW 5608   2.793   1.545   1.329
 1570SOL    HW1 5609   2.704   1.541   1.285
 1570SOL    HW2 5610   2.804   1.634   1.374
 1571SOL     OW 5611   6.032   3.329   1.708
 1571SOL    HW1 5612   6.024   3.307   1.611
 1571SOL    HW2 5613   6.128   3.349   1.730
 1572SOL     OW 5614   0.273   0.265   1.978
 1572SOL    HW1 5615   0.356   0.221   1.943
 1572SOL    HW2 5616   0.298   0.350   2.024
 1573SOL     OW 5617   4.760   0.057   1.534
 1573SOL    HW1 5618   4.793   0.019   1.620
 1573SOL    HW2 5619   4.753   0.157   1.542
 1574SOL     OW 5620   6.530   2.215   1.530
 1574SOL    HW1 5621   6.487   2.136   1.573
 1574SOL    HW2 5622   6.592   2.185   1.457
 1575SOL     OW 5623   1.497   2.316   0.411
 1575SOL    HW1 5624   1.416   2.337   0.356
 1575SOL    HW2 5625   1.572   2.290   0.352
 1576SOL     OW 5626   5.761   6.171   3.877
 1576SOL    HW1 5627   5.798   6.263   3.868
 1576SOL    HW2 5628   5.668   6.169   3.840
 1577SOL     OW 5629   2.970   0.085   5.596
 1577SOL    HW1 5630   3.055   0.117   5.638
 1577SOL    HW2 5631   2.967   0.114   5.501
 1578SOL     OW 5632   5.228   4.221   5.458
 1578SOL    HW1 5633   5.230   4.190   5.362
 1578SOL    HW2 5634   5.220   4.321   5.460
 1579SOL     OW 5635   0.741   0.846   3.619
 1579SOL    HW1 5636   0.812   0.813   3.682
 1579SOL    HW2 5637   0.783   0.899   3.546
 1580SOL     OW 5638   3.064   4.346   5.319
 1580SOL    HW1 5639   3.035   4.258   5.281
 1580SOL    HW2 5640   3.021   4.420   5.267
 1581SOL     OW 5641   6.798   3.897   5.003
 1581SOL    HW1 5642   6.882   3.846   5.022
 1581SOL    HW2 5643   6.787   3.907   4.904
 1582SOL     OW 5644   0.658   5.296   4.188
 1582SOL    HW1 5645   0.659   5.239   4.106
 1582SOL    HW2 5646   0.735   5.270   4.247
 1583SOL     OW 5647   1.921   2.216   3.720
 1583SOL    HW1 5648   1.876   2.227   3.631
 1583SOL    HW2 5649   1.861   2.164   3.781
 1584SOL     OW 5650   2.538   0.300   5.551
 1584SOL    HW1 5651   2.470   0.231   5.524
 1584SOL    HW2 5652   2.606   0.258   5.611
 1585SOL     OW 5653   5.537   0.779   3.880
 1585SOL    HW1 5654   5.605   0.709   3.898
 1585SOL    HW2 5655   5.497   0.810   3.966
 1586SOL     OW 5656   3.793   4.087   2.757
 1586SOL    HW1 5657   3.877   4.117   2.802
 1586SOL    HW2 5658   3.806   3.994   2.722
 1587SOL     OW 5659   3.339   6.488   0.103
 1587SOL    HW1 5660   3.296   6.567   0.147
 1587SOL    HW2 5661   3.288   6.463   0.021
 1588SOL     OW 5662   5.313   2.426   1.449
 1588SOL    HW1 5663   5.320   2.372   1.366
 1588SOL    HW2 5664   5.341   2.371   1.528
 1589SOL     OW 5665   6.141   4.720   4.602
 1589SOL    HW1 5666   6.113   4.809   4.639
 1589SOL    HW2 5667   6.241   4.716   4.596
 1590SOL     OW 5668   2.030   0.297   6.618
 1590SOL    HW1 5669   2.032   0.211   6.566
 1590SOL    HW2 5670   2.082   0.285   6.703
 1591SOL     OW 5671   1.085   4.154   2.416
 1591SOL    HW1 5672   1.091   4.243   2.461
 1591SOL    HW2 5673   0.997   4.146   2.369
 1592SOL     OW 5674   3.377   3.907   2.384
 1592SOL    HW1 5675   3.298   3.855   2.351
 1592SOL    HW2 5676   3.460   3.872   2.342
 1593SOL     OW 5677   1.497   5.750   4.287
 1593SOL    HW1 5678   1.477   5.788   4.196
 1593SOL    HW2 5679   1.593   5.724   4.292
 1594SOL     OW 5680   6.501   5.253   2.558
 1594SOL    HW1 5681   6.601   5.248   2.555
 1594SOL    HW2 5682   6.465   5.246   2.465
 1595SOL     OW 5683   6.449   4.593   6.421
 1595SOL    HW1 5684   6.356   4.613   6.390
 1595SOL    HW2 5685   6.514   4.618   6.349
 1596SOL     OW 5686   2.464   5.372   6.365
 1596SOL    HW1 5687   2.542   5.310   6.357
 1596SOL    HW2 5688   2.496   5.466   6.353
 1597SOL     OW 5689   2.556   6.464   1.533
 1597SOL    HW1 5690   2.552   6.370   1.501
 1597SOL    HW2 5691   2.550   6.526   1.455
 1598SOL     OW 5692   0.241   4.839   0.858
 1598SOL    HW1 5693   0.233   4.874   0.952
 1598SOL    HW2 5694   0.232   4.915   0.794
 1599SOL     OW 5695   3.816   5.302   0.109
 1599SOL    HW1 5696   3.897   5.246   0.124
 1599SOL    HW2 5697   3.734   5.248   0.127
 1600SOL     OW 5698   4.904   1.225   4.124
 1600SOL    HW1 5699   4.998   1.244   4.098
 1600SOL    HW2 5700   4.844   1.244   4.046
 1601SOL     OW 5701   1.395   5.111   4.656
 1601SOL    HW1 5702   1.318   5.151   4.607
 1601SOL    HW2 5703   1.429   5.032   4.604
 1602SOL     OW 5704   0.903   5.259   3.606
 1602SOL    HW1 5705   0.819   5.221   3.569
 1602SOL    HW2 5706   0.962   5.290   3.531
 1603SOL     OW 5707   6.963   6.307   2.044
 1603SOL    HW1 5708   6.995   6.214   2.031
 1603SOL    HW2 5709   0.020   6.366   2.069
 1604SOL     OW 5710   6.903   4.768   6.353
 1604SOL    HW1 5711   6.901   4.689   6.413
 1604SOL    HW2 5712   6.898   4.852   6.407
 1605SOL     OW 5713   5.896   6.542   3.204
 1605SOL    HW1 5714   5.922   6.635   3.179
 1605SOL    HW2 5715   5.915   6.480   3.127
 1606SOL     OW 5716   4.923   6.888   6.007
 1606SOL    HW1 5717   4.830   6.924   5.995
 1606SOL    HW2 5718   4.985   6.934   5.944
 1607SOL     OW 5719   4.423   2.553   0.927
 1607SOL    HW1 5720   4.464   2.597   1.006
 1607SOL    HW2 5721   4.491   2.543   0.854
 1608SOL     OW 5722   2.257   7.006   0.664
 1608SOL    HW1 5723   2.329   0.025   0.722
 1608SOL    HW2 5724   2.167   0.010   0.702
 1609SOL     OW 5725   4.401   2.210   5.586
 1609SOL    HW1 5726   4.444   2.300   5.590
 1609SOL    HW2 5727   4.301   2.221   5.585
 1610SOL     OW 5728   6.077   6.024   4.431
 1610SOL    HW1 5729   6.011   6.099   4.435
 1610SOL    HW2 5730   6.168   6.061   4.410
 1611SOL     OW 5731   3.189   3.420   1.669
 1611SOL    HW1 5732   3.163   3.328   1.638
 1611SOL    HW2 5733   3.202   3.420   1.768
 1612SOL     OW 5734   2.344   0.854   4.774
 1612SOL    HW1 5735   2.271   0.798   4.813
 1612SOL    HW2 5736   2.420   0.860   4.840
 1613SOL     OW 5737   2.422   5.967   0.159
 1613SOL    HW1 5738   2.512   5.927   0.173
 1613SOL    HW2 5739   2.408   6.042   0.223
 1614SOL     OW 5740   5.857   2.108   6.848
 1614SOL    HW1 5741   5.919   2.102   6.927
 1614SOL    HW2 5742   5.891   2.050   6.774
 1615SOL     OW 5743   6.984   4.184   0.116
 1615SOL    HW1 5744   0.004   4.138   0.037
 1615SOL    HW2 5745   6.958   4.116   0.185
 1616SOL     OW 5746   3.450   1.814   5.774
 1616SOL    HW1 5747   3.490   1.880   5.709
 1616SOL    HW2 5748   3.517   1.794   5.845
 1617SOL     OW 5749   5.130   0.466   3.719
 1617SOL    HW1 5750   5.163   0.443   3.627
 1617SOL    HW2 5751   5.207   0.468   3.783
 1618SOL     OW 5752   5.843   3.123   0.688
 1618SOL    HW1 5753   5.901   3.177   0.749
 1618SOL    HW2 5754   5.803   3.047   0.739
 1619SOL     OW 5755   2.120   3.419   4.567
 1619SOL    HW1 5756   2.111   3.486   4.493
 1619SOL    HW2 5757   2.215   3.415   4.596
 1620SOL     OW 5758   2.602   5.317   1.539
 1620SOL    HW1 5759   2.603   5.400   1.484
 1620SOL    HW2 5760   2.554   5.245   1.490
 1621SOL     OW 5761   1.281   0.610   0.951
 1621SOL    HW1 5762   1.363   0.657   0.982
 1621SOL    HW2 5763   1.227   0.580   1.030
 1622SOL     OW 5764   2.145   1.842   4.982
 1622SOL    HW1 5765   2.054   1.874   4.955
 1622SOL    HW2 5766   2.174   1.769   4.919
 1623SOL     OW 5767   2.736   1.963   5.334
 1623SOL    HW1 5768   2.658   1.997   5.282
 1623SOL    HW2 5769   2.716   1.872   5.370
 1624SOL     OW 5770   2.886   1.336   6.954
 1624SOL    HW1 5771   2.886   1.272   6.877
 1624SOL    HW2 5772   2.797   1.332   7.000
 1625SOL     OW 5773   0.674   4.962   2.363
 1625SOL    HW1 5774   0.731   4.892   2.320
 1625SOL    HW2 5775   0.582   4.926   2.377
 1626SOL     OW 5776   1.798   2.845   6.298
 1626SOL    HW1 5777   1.836   2.903   6.226
 1626SOL    HW2 5778   1.704   2.821   6.276
 1627SOL     OW 5779   6.002   2.896   3.446
 1627SOL    HW1 5780   6.033   2.960   3.516
 1627SOL    HW2 5781   5.999   2.943   3.357
 1628SOL     OW 5782   3.186   4.322   0.674
 1628SOL    HW1 5783   3.243   4.278   0.743
 1628SOL    HW2 5784   3.237   4.396   0.630
 1629SOL     OW 5785   3.619   2.106   3.928
 1629SOL    HW1 5786   3.538   2.124   3.872
 1629SOL    HW2 5787   3.684   2.052   3.876
 1630SOL     OW 5788   0.369   4.390   5.364
 1630SOL    HW1 5789   0.396   4.295   5.377
 1630SOL    HW2 5790   0.381   4.415   5.268
 1631SOL     OW 5791   6.977   0.094   5.657
 1631SOL    HW1 5792   6.898   0.057   5.707
 1631SOL    HW2 5793   6.955   0.098   5.560
 1632SOL     OW 5794   6.423   1.040   1.005
 1632SOL    HW1 5795   6.498   1.106   1.013
 1632SOL    HW2 5796   6.460   0.947   1.007
 1633SOL     OW 5797   5.955   2.250   3.953
 1633SOL    HW1 5798   5.882   2.315   3.929
 1633SOL    HW2 5799   6.008   2.287   4.029
 1634SOL     OW 5800   3.212   0.577   6.979
 1634SOL    HW1 5801   3.233   0.657   0.014
 1634SOL    HW2 5802   3.153   0.515   0.011
 1635SOL     OW 5803   0.591   5.883   5.061
 1635SOL    HW1 5804   0.546   5.819   5.124
 1635SOL    HW2 5805   0.537   5.891   4.977
 1636SOL     OW 5806   2.204   5.890   1.843
 1636SOL    HW1 5807   2.188   5.981   1.805
 1636SOL    HW2 5808   2.155   5.881   1.930
 1637SOL     OW 5809   6.230   2.819   2.096
 1637SOL    HW1 5810   6.204   2.889   2.163
 1637SOL    HW2 5811   6.299   2.759   2.135
 1638SOL     OW 5812   0.011   3.312   5.024
 1638SOL    HW1 5813   6.952   3.335   5.080
 1638SOL    HW2 5814   0.041   3.392   4.973
 1639SOL     OW 5815   5.067   5.367   2.394
 1639SOL    HW1 5816   4.979   5.359   2.347
 1639SOL    HW2 5817   5.072   5.455   2.441
 1640SOL     OW 5818   6.406   0.277   1.005
 1640SOL    HW1 5819   6.353   0.219   1.066
 1640SOL    HW2 5820   6.355   0.292   0.921
 1641SOL     OW 5821   5.670   2.695   5.012
 1641SOL    HW1 5822   5.686   2.792   5.029
 1641SOL    HW2 5823   5.576   2.672   5.036
 1642SOL     OW 5824   0.037   1.891   1.225
 1642SOL    HW1 5825   0.007   1.949   1.150
 1642SOL    HW2 5826   0.118   1.930   1.268
 1643SOL     OW 5827   4.225   6.856   5.629
 1643SOL    HW1 5828   4.268   6.772   5.661
 1643SOL    HW2 5829   4.254   6.875   5.535
 1644SOL     OW 5830   2.895   0.813   1.433
 1644SOL    HW1 5831   2.907   0.787   1.337
 1644SOL    HW2 5832   2.974   0.780   1.486
 1645SOL     OW 5833   2.752   6.542   6.708
 1645SOL    HW1 5834   2.695   6.493   6.642
 1645SOL    HW2 5835   2.768   6.635   6.676
 1646SOL     OW 5836   1.247   4.082   1.039
 1646SOL    HW1 5837   1.227   4.053   0.945
 1646SOL    HW2 5838   1.342   4.059   1.061
 1647SOL     OW 5839   5.960   2.747   3.788
 1647SOL    HW1 5840   6.046   2.784   3.824
 1647SOL    HW2 5841   5.966   2.736   3.689
 1648SOL     OW 5842   4.243   6.850   2.281
 1648SOL    HW1 5843   4.331   6.890   2.253
 1648SOL    HW2 5844   4.260   6.767   2.335
 1649SOL     OW 5845   3.276   0.785   3.835
 1649SOL    HW1 5846   3.204   0.721   3.809
 1649SOL    HW2 5847   3.339   0.798   3.759
 1650SOL     OW 5848   2.706   6.878   4.209
 1650SOL    HW1 5849   2.748   6.917   4.127
 1650SOL    HW2 5850   2.754   6.793   4.233
 1651SOL     OW 5851   1.123   6.910   0.559
 1651SOL    HW1 5852   1.025   6.932   0.561
 1651SOL    HW2 5853   1.170   6.968   0.626
 1652SOL     OW 5854   3.053   2.291   1.711
 1652SOL    HW1 5855   3.002   2.345   1.777
 1652SOL    HW2 5856   3.067   2.344   1.627
 1653SOL     OW 5857   1.135   5.553   1.281
 1653SOL    HW1 5858   1.173   5.627   1.336
 1653SOL    HW2 5859   1.182   5.467   1.302
 1654SOL     OW 5860   6.614   3.276   2.592
 1654SOL    HW1 5861   6.630   3.257   2.495
 1654SOL    HW2 5862   6.701   3.295   2.637
 1655SOL     OW 5863   4.906   4.463   6.493
 1655SOL    HW1 5864   4.911   4.530   6.420
 1655SOL    HW2 5865   4.910   4.510   6.582
 1656SOL     OW 5866   0.873   4.928   3.643
 1656SOL    HW1 5867   0.827   4.870   3.575
 1656SOL    HW2 5868   0.930   4.995   3.597
 1657SOL     OW 5869   1.389   0.189   5.325
 1657SOL    HW1 5870   1.351   0.280   5.341
 1657SOL    HW2 5871   1.362   0.156   5.235
 1658SOL     OW 5872   5.956   6.188   3.383
 1658SOL    HW1 5873   5.944   6.172   3.285
 1658SOL    HW2 5874   5.882   6.245   3.418
 1659SOL     OW 5875   3.723   2.848   6.026
 1659SOL    HW1 5876   3.777   2.880   6.104
 1659SOL    HW2 5877   3.692   2.755   6.044
 1660SOL     OW 5878   1.805   5.678   3.356
 1660SOL    HW1 5879   1.896   5.720   3.355
 1660SOL    HW2 5880   1.739   5.741   3.315
 1661SOL     OW 5881   3.537   0.532   2.405
 1661SOL    HW1 5882   3.622   0.490   2.436
 1661SOL    HW2 5883   3.527   0.519   2.307
 1662SOL     OW 5884   0.912   0.737   3.811
 1662SOL    HW1 5885   0.951   0.746   3.902
 1662SOL    HW2 5886   0.874   0.645   3.800
 1663SOL     OW 5887   2.638   0.261   2.530
 1663SOL    HW1 5888   2.667   0.196   2.461
 1663SOL    HW2 5889   2.715   0.285   2.589
 1664SOL     OW 5890   2.279   5.589   3.970
 1664SOL    HW1 5891   2.376   5.612   3.962
 1664SOL    HW2 5892   2.250   5.537   3.889
 1665SOL     OW 5893   6.731   0.417   3.521
 1665SOL    HW1 5894   6.785   0.501   3.536
 1665SOL    HW2 5895   6.747   0.384   3.428
 1666SOL     OW 5896   5.835   2.766   6.028
 1666SOL    HW1 5897   5.840   2.762   6.128
 1666SOL    HW2 5898   5.923   2.740   5.989
 1667SOL     OW 5899   6.900   0.050   6.098
 1667SOL    HW1 5900   6.837   0.072   6.172
 1667SOL    HW2 5901   6.893   0.120   6.026
 1668SOL     OW 5902   4.303   0.332   4.864
 1668SOL    HW1 5903   4.336   0.413   4.913
 1668SOL    HW2 5904   4.226   0.293   4.913
 1669SOL     OW 5905   5.734   6.720   5.713
 1669SOL    HW1 5906   5.659   6.741   5.650
 1669SOL    HW2 5907   5.817   6.767   5.683
 1670SOL     OW 5908   5.553   4.879   5.922
 1670SOL    HW1 5909   5.461   4.842   5.918
 1670SOL    HW2 5910   5.592   4.881   5.830
 1671SOL     OW 5911   4.737   3.050   6.760
 1671SOL    HW1 5912   4.695   3.140   6.749
 1671SOL    HW2 5913   4.745   3.029   6.858
 1672SOL     OW 5914   1.623   4.891   2.287
 1672SOL    HW1 5915   1.721   4.887   2.265
 1672SOL    HW2 5916   1.580   4.804   2.262
 1673SOL     OW 5917   6.704   3.669   4.331
 1673SOL    HW1 5918   6.674   3.642   4.423
 1673SOL    HW2 5919   6.793   3.713   4.337
 1674SOL     OW 5920   0.745   4.113   0.020
 1674SOL    HW1 5921   0.830   4.068   7.010
 1674SOL    HW2 5922   0.687   4.130   6.961
 1675SOL     OW 5923   4.512   1.552   6.700
 1675SOL    HW1 5924   4.498   1.614   6.623
 1675SOL    HW2 5925   4.610   1.534   6.711
 1676SOL     OW 5926   1.314   0.587   2.766
 1676SOL    HW1 5927   1.288   0.679   2.795
 1676SOL    HW2 5928   1.284   0.572   2.672
 1677SOL     OW 5929   5.658   2.024   5.237
 1677SOL    HW1 5930   5.610   2.042   5.323
 1677SOL    HW2 5931   5.637   2.096   5.171
 1678SOL     OW 5932   5.498   0.118   1.815
 1678SOL    HW1 5933   5.544   0.104   1.902
 1678SOL    HW2 5934   5.485   0.216   1.800
 1679SOL     OW 5935   0.757   3.551   6.480
 1679SOL    HW1 5936   0.711   3.631   6.518
 1679SOL    HW2 5937   0.835   3.528   6.538
 1680SOL     OW 5938   1.074   2.115   4.200
 1680SOL    HW1 5939   1.131   2.045   4.158
 1680SOL    HW2 5940   1.066   2.097   4.298
 1681SOL     OW 5941   6.190   5.613   0.823
 1681SOL    HW1 5942   6.269   5.642   0.771
 1681SOL    HW2 5943   6.173   5.677   0.898
 1682SOL     OW 5944   6.896   3.200   6.081
 1682SOL    HW1 5945   6.936   3.259   6.011
 1682SOL    HW2 5946   6.955   3.198   6.161
 1683SOL     OW 5947   5.433   6.517   1.321
 1683SOL    HW1 5948   5.360   6.579   1.295
 1683SOL    HW2 5949   5.514   6.534   1.264
 1684SOL     OW 5950   1.013   5.970   5.126
 1684SOL    HW1 5951   1.092   5.939   5.180
 1684SOL    HW2 5952   0.931   5.968   5.183
 1685SOL     OW 5953   1.590   1.063   0.141
 1685SOL    HW1 5954   1.674   1.010   0.137
 1685SOL    HW2 5955   1.610   1.159   0.120
 1686SOL     OW 5956   1.204   6.741   6.578
 1686SOL    HW1 5957   1.254   6.674   6.632
 1686SOL    HW2 5958   1.121   6.767   6.626
 1687SOL     OW 5959   1.767   6.050   2.085
 1687SOL    HW1 5960   1.716   6.129   2.051
 1687SOL    HW2 5961   1.708   5.969   2.084
 1688SOL     OW 5962   1.529   1.770   2.814
 1688SOL    HW1 5963   1.608   1.810   2.863
 1688SOL    HW2 5964   1.548   1.769   2.716
 1689SOL     OW 5965   1.898   1.749   2.746
 1689SOL    HW1 5966   1.883   1.668   2.689
 1689SOL    HW2 5967   1.979   1.735   2.803
 1690SOL     OW 5968   1.603   1.496   1.145
 1690SOL    HW1 5969   1.678   1.433   1.124
 1690SOL    HW2 5970   1.630   1.589   1.122
 1691SOL     OW 5971   5.268   4.323   2.745
 1691SOL    HW1 5972   5.338   4.334   2.815
 1691SOL    HW2 5973   5.199   4.257   2.777
 1692SOL     OW 5974   0.725   0.241   2.109
 1692SOL    HW1 5975   0.762   0.205   2.194
 1692SOL    HW2 5976   0.631   0.269   2.122
 1693SOL     OW 5977   2.687   2.369   3.296
 1693SOL    HW1 5978   2.725   2.341   3.384
 1693SOL    HW2 5979   2.625   2.446   3.310
 1694SOL     OW 5980   5.336   5.456   4.969
 1694SOL    HW1 5981   5.271   5.380   4.966
 1694SOL    HW2 5982   5.285   5.542   4.977
 1695SOL     OW 5983   3.114   2.512   5.573
 1695SOL    HW1 5984   3.193   2.562   5.538
 1695SOL    HW2 5985   3.081   2.449   5.503
 1696SOL     OW 5986   4.523   6.175   0.780
 1696SOL    HW1 5987   4.618   6.144   0.787
 1696SOL    HW2 5988   4.470   6.108   0.728
 1697SOL     OW 5989   0.891   1.436   1.888
 1697SOL    HW1 5990   0.900   1.379   1.970
 1697SOL    HW2 5991   0.939   1.391   1.812
 1698SOL     OW 5992   4.305   2.109   1.867
 1698SOL    HW1 5993   4.310   2.208   1.872
 1698SOL    HW2 5994   4.278   2.073   1.957
 1699SOL     OW 5995   2.393   3.301   1.117
 1699SOL    HW1 5996   2.469   3.318   1.054
 1699SOL    HW2 5997   2.308   3.337   1.077
 1700SOL     OW 5998   6.877   3.114   3.323
 1700SOL    HW1 5999   6.971   3.099   3.355
 1700SOL    HW2 6000   6.833   3.025   3.306
 1701SOL     OW 6001   5.931   3.221   3.901
 1701SOL    HW1 6002   5.957   3.310   3.938
 1701SOL    HW2 6003   5.861   3.180   3.960
 1702SOL     OW 6004   4.941   3.973   0.807
 1702SOL    HW1 6005   4.924   3.920   0.724
 1702SOL    HW2 6006   4.894   3.929   0.884
 1703SOL     OW 6007   2.015   3.510   0.284
 1703SOL    HW1 6008   1.961   3.594   0.274
 1703SOL    HW2 6009   2.075   3.500   0.206
 1704SOL     OW 6010   0.603   0.884   1.796
 1704SOL    HW1 6011   0.698   0.887   1.763
 1704SOL    HW2 6012   0.561   0.974   1.784
 1705SOL     OW 6013   4.383   3.081   1.703
 1705SOL    HW1 6014   4.293   3.046   1.730
 1705SOL    HW2 6015   4.448   3.068   1.777
 1706SOL     OW 6016   3.437   0.385   0.674
 1706SOL    HW1 6017   3.338   0.389   0.665
 1706SOL    HW2 6018   3.462   0.327   0.751
 1707SOL     OW 6019   5.465   2.132   3.254
 1707SOL    HW1 6020   5.414   2.047   3.239
 1707SOL    HW2 6021   5.407   2.210   3.235
 1708SOL     OW 6022   6.768   5.006   3.466
 1708SOL    HW1 6023   6.823   5.003   3.550
 1708SOL    HW2 6024   6.811   4.949   3.396
 1709SOL     OW 6025   2.807   6.177   2.284
 1709SOL    HW1 6026   2.894   6.144   2.322
 1709SOL    HW2 6027   2.732   6.150   2.345
 1710SOL     OW 6028   0.440   5.699   4.248
 1710SOL    HW1 6029   0.499   5.759   4.302
 1710SOL    HW2 6030   0.496   5.647   4.184
 1711SOL     OW 6031   1.157   4.630   5.338
 1711SOL    HW1 6032   1.079   4.576   5.368
 1711SOL    HW2 6033   1.234   4.569   5.319
 1712SOL     OW 6034   0.367   4.023   0.442
 1712SOL    HW1 6035   0.336   3.930   0.419
 1712SOL    HW2 6036   0.467   4.023   0.452
 1713SOL     OW 6037   1.250   2.460   1.044
 1713SOL    HW1 6038   1.257   2.502   0.954
 1713SOL    HW2 6039   1.171   2.400   1.046
 1714SOL     OW 6040   3.285   2.065   0.874
 1714SOL    HW1 6041   3.224   2.028   0.804
 1714SOL    HW2 6042   3.363   2.003   0.886
 1715SOL     OW 6043   0.046   3.046   2.696
 1715SOL    HW1 6044   0.126   3.106   2.687
 1715SOL    HW2 6045   0.071   2.965   2.750
 1716SOL     OW 6046   0.116   5.851   7.010
 1716SOL    HW1 6047   0.145   5.803   6.928
 1716SOL    HW2 6048   0.117   5.950   6.993
 1717SOL     OW 6049   2.858   0.037   6.805
 1717SOL    HW1 6050   2.853   0.109   6.874
 1717SOL    HW2 6051   2.928   0.062   6.737
 1718SOL     OW 6052   1.378   4.219   6.635
 1718SOL    HW1 6053   1.391   4.318   6.635
 1718SOL    HW2 6054   1.466   4.174   6.645
 1719SOL     OW 6055   2.131   3.750   1.372
 1719SOL    HW1 6056   2.077   3.802   1.306
 1719SOL    HW2 6057   2.174   3.672   1.327
 1720SOL     OW 6058   6.414   1.154   0.296
 1720SOL    HW1 6059   6.499   1.136   0.246
 1720SOL    HW2 6060   6.386   1.072   0.345
 1721SOL     OW 6061   2.148   6.583   3.472
 1721SOL    HW1 6062   2.075   6.627   3.419
 1721SOL    HW2 6063   2.237   6.615   3.438
 1722SOL     OW 6064   5.681   6.597   2.432
 1722SOL    HW1 6065   5.615   6.649   2.487
 1722SOL    HW2 6066   5.717   6.521   2.487
 1723SOL     OW 6067   6.867   1.724   2.200
 1723SOL    HW1 6068   6.886   1.634   2.239
 1723SOL    HW2 6069   6.872   1.793   2.273
 1724SOL     OW 6070   4.650   0.944   0.131
 1724SOL    HW1 6071   4.688   0.886   0.060
 1724SOL    HW2 6072   4.552   0.925   0.141
 1725SOL     OW 6073   3.730   4.162   1.354
 1725SOL    HW1 6074   3.754   4.153   1.450
 1725SOL    HW2 6075   3.639   4.204   1.346
 1726SOL     OW 6076   0.243   4.206   4.682
 1726SOL    HW1 6077   0.320   4.254   4.722
 1726SOL    HW2 6078   0.276   4.132   4.623
 1727SOL     OW 6079   3.791   3.937   4.996
 1727SOL    HW1 6080   3.742   3.855   5.025
 1727SOL    HW2 6081   3.749   3.973   4.912
 1728SOL     OW 6082   4.477   4.564   3.307
 1728SOL    HW1 6083   4.565   4.523   3.284
 1728SOL    HW2 6084   4.414   4.492   3.339
 1729SOL     OW 6085   1.851   3.202   2.685
 1729SOL    HW1 6086   1.922   3.249   2.632
 1729SOL    HW2 6087   1.780   3.168   2.623
 1730SOL     OW 6088   6.268   2.708   5.057
 1730SOL    HW1 6089   6.274   2.608   5.056
 1730SOL    HW2 6090   6.351   2.746   5.015
 1731SOL     OW 6091   1.849   5.267   0.876
 1731SOL    HW1 6092   1.880   5.251   0.970
 1731SOL    HW2 6093   1.750   5.256   0.872
 1732SOL     OW 6094   0.831   4.645   0.036
 1732SOL    HW1 6095   0.922   4.686   0.041
 1732SOL    HW2 6096   0.812   4.594   0.120
 1733SOL     OW 6097   1.532   3.305   1.094
 1733SOL    HW1 6098   1.568   3.293   1.002
 1733SOL    HW2 6099   1.433   3.320   1.090
 1734SOL     OW 6100   4.629   2.538   1.376
 1734SOL    HW1 6101   4.556   2.470   1.374
 1734SOL    HW2 6102   4.690   2.519   1.453
 1735SOL     OW 6103   6.010   5.289   1.488
 1735SOL    HW1 6104   6.017   5.218   1.418
 1735SOL    HW2 6105   6.053   5.257   1.572
 1736SOL     OW 6106   3.789   3.098   0.090
 1736SOL    HW1 6107   3.866   3.034   0.079
 1736SOL    HW2 6108   3.803   3.151   0.174
 1737SOL     OW 6109   1.903   6.978   3.674
 1737SOL    HW1 6110   1.807   6.975   3.699
 1737SOL    HW2 6111   1.959   6.966   3.756
 1738SOL     OW 6112   2.154   3.146   2.218
 1738SOL    HW1 6113   2.173   3.058   2.260
 1738SOL    HW2 6114   2.190   3.148   2.125
 1739SOL     OW 6115   4.740   1.861   5.193
 1739SOL    HW1 6116   4.725   1.936   5.128
 1739SOL    HW2 6117   4.832   1.867   5.230
 1740SOL     OW 6118   0.679   0.690   5.822
 1740SOL    HW1 6119   0.747   0.686   5.896
 1740SOL    HW2 6120   0.681   0.781   5.780
 1741SOL     OW 6121   1.316   0.284   2.528
 1741SOL    HW1 6122   1.399   0.335   2.504
 1741SOL    HW2 6123   1.339   0.189   2.547
 1742SOL     OW 6124   6.304   0.563   4.489
 1742SOL    HW1 6125   6.357   0.554   4.573
 1742SOL    HW2 6126   6.354   0.619   4.423
 1743SOL     OW 6127   3.760   1.329   1.437
 1743SOL    HW1 6128   3.794   1.347   1.529
 1743SOL    HW2 6129   3.756   1.415   1.385
 1744SOL     OW 6130   2.706   0.698   1.648
 1744SOL    HW1 6131   2.760   0.741   1.575
 1744SOL    HW2 6132   2.671   0.610   1.616
 1745SOL     OW 6133   6.733   2.064   2.850
 1745SOL    HW1 6134   6.806   2.001   2.876
 1745SOL    HW2 6135   6.658   2.013   2.807
 1746SOL     OW 6136   3.032   0.507   5.799
 1746SOL    HW1 6137   2.955   0.550   5.751
 1746SOL    HW2 6138   3.106   0.491   5.735
 1747SOL     OW 6139   3.343   0.307   2.244
 1747SOL    HW1 6140   3.442   0.319   2.238
 1747SOL    HW2 6141   3.299   0.359   2.170
 1748SOL     OW 6142   5.493   2.134   2.988
 1748SOL    HW1 6143   5.525   2.108   3.079
 1748SOL    HW2 6144   5.566   2.117   2.921
 1749SOL     OW 6145   4.235   6.854   6.066
 1749SOL    HW1 6146   4.199   6.921   6.001
 1749SOL    HW2 6147   4.199   6.874   6.158
 1750SOL     OW 6148   4.904   1.475   2.858
 1750SOL    HW1 6149   4.816   1.465   2.905
 1750SOL    HW2 6150   4.888   1.481   2.759
 1751SOL     OW 6151   1.591   5.492   4.005
 1751SOL    HW1 6152   1.617   5.464   3.913
 1751SOL    HW2 6153   1.664   5.548   4.045
 1752SOL     OW 6154   6.164   1.444   0.436
 1752SOL    HW1 6155   6.140   1.415   0.343
 1752SOL    HW2 6156   6.264   1.455   0.442
 1753SOL     OW 6157   1.230   0.162   1.544
 1753SOL    HW1 6158   1.162   0.196   1.478
 1753SOL    HW2 6159   1.232   0.223   1.623
 1754SOL     OW 6160   3.945   3.240   0.741
 1754SOL    HW1 6161   3.846   3.232   0.748
 1754SOL    HW2 6162   3.980   3.295   0.816
 1755SOL     OW 6163   5.418   4.244   1.012
 1755SOL    HW1 6164   5.435   4.201   0.924
 1755SOL    HW2 6165   5.319   4.244   1.031
 1756SOL     OW 6166   0.054   5.713   4.081
 1756SOL    HW1 6167   7.019   5.652   4.024
 1756SOL    HW2 6168   0.075   5.796   4.030
 1757SOL     OW 6169   3.222   6.686   4.556
 1757SOL    HW1 6170   3.171   6.772   4.548
 1757SOL    HW2 6171   3.192   6.637   4.638
 1758SOL     OW 6172   2.298   0.413   3.403
 1758SOL    HW1 6173   2.326   0.322   3.373
 1758SOL    HW2 6174   2.245   0.456   3.330
 1759SOL     OW 6175   0.573   5.419   6.061
 1759SOL    HW1 6176   0.485   5.423   6.108
 1759SOL    HW2 6177   0.559   5.405   5.963
 1760SOL     OW 6178   6.340   0.615   2.149
 1760SOL    HW1 6179   6.293   0.599   2.062
 1760SOL    HW2 6180   6.408   0.687   2.138
 1761SOL     OW 6181   6.245   1.209   1.122
 1761SOL    HW1 6182   6.313   1.150   1.080
 1761SOL    HW2 6183   6.199   1.263   1.052
 1762SOL     OW 6184   5.938   1.822   6.310
 1762SOL    HW1 6185   6.004   1.752   6.283
 1762SOL    HW2 6186   5.975   1.912   6.288
 1763SOL     OW 6187   1.564   3.897   4.316
 1763SOL    HW1 6188   1.487   3.875   4.256
 1763SOL    HW2 6189   1.615   3.975   4.278
 1764SOL     OW 6190   0.360   3.251   2.897
 1764SOL    HW1 6191   0.424   3.327   2.885
 1764SOL    HW2 6192   0.281   3.283   2.949
 1765SOL     OW 6193   2.611   2.332   6.762
 1765SOL    HW1 6194   2.525   2.320   6.713
 1765SOL    HW2 6195   2.672   2.390   6.707
 1766SOL     OW 6196   5.750   2.976   5.071
 1766SOL    HW1 6197   5.709   3.000   5.159
 1766SOL    HW2 6198   5.847   2.954   5.085
 1767SOL     OW 6199   5.620   3.437   2.279
 1767SOL    HW1 6200   5.614   3.523   2.228
 1767SOL    HW2 6201   5.622   3.361   2.215
 1768SOL     OW 6202   4.638   6.435   3.588
 1768SOL    HW1 6203   4.715   6.375   3.610
 1768SOL    HW2 6204   4.671   6.528   3.571
 1769SOL     OW 6205   3.553   1.801   2.518
 1769SOL    HW1 6206   3.592   1.755   2.598
 1769SOL    HW2 6207   3.453   1.801   2.525
 1770SOL     OW 6208   2.952   5.796   5.416
 1770SOL    HW1 6209   2.912   5.886   5.436
 1770SOL    HW2 6210   3.042   5.809   5.374
 1771SOL     OW 6211   3.270   5.677   6.636
 1771SOL    HW1 6212   3.307   5.744   6.572
 1771SOL    HW2 6213   3.184   5.640   6.600
 1772SOL     OW 6214   3.045   7.012   3.031
 1772SOL    HW1 6215   3.133   0.033   3.057
 1772SOL    HW2 6216   3.021   0.020   2.938
 1773SOL     OW 6217   1.533   5.337   6.437
 1773SOL    HW1 6218   1.566   5.417   6.487
 1773SOL    HW2 6219   1.604   5.266   6.438
 1774SOL     OW 6220   4.341   5.618   1.219
 1774SOL    HW1 6221   4.364   5.596   1.314
 1774SOL    HW2 6222   4.327   5.717   1.211
 1775SOL     OW 6223   1.141   3.703   2.121
 1775SOL    HW1 6224   1.068   3.766   2.095
 1775SOL    HW2 6225   1.148   3.630   2.052
 1776SOL     OW 6226   3.953   6.049   4.640
 1776SOL    HW1 6227   3.992   5.966   4.600
 1776SOL    HW2 6228   4.000   6.069   4.726
 1777SOL     OW 6229   4.152   5.926   0.590
 1777SOL    HW1 6230   4.169   5.847   0.648
 1777SOL    HW2 6231   4.054   5.944   0.584
 1778SOL     OW 6232   4.896   3.428   6.321
 1778SOL    HW1 6233   4.893   3.392   6.414
 1778SOL    HW2 6234   4.871   3.524   6.321
 1779SOL     OW 6235   3.993   1.084   4.994
 1779SOL    HW1 6236   3.998   0.985   4.988
 1779SOL    HW2 6237   3.939   1.110   5.074
 1780SOL     OW 6238   3.063   3.036   6.321
 1780SOL    HW1 6239   3.082   3.016   6.225
 1780SOL    HW2 6240   3.000   2.968   6.358
 1781SOL     OW 6241   4.393   5.400   2.681
 1781SOL    HW1 6242   4.421   5.304   2.682
 1781SOL    HW2 6243   4.453   5.452   2.743
 1782SOL     OW 6244   2.714   1.153   3.295
 1782SOL    HW1 6245   2.812   1.172   3.300
 1782SOL    HW2 6246   2.677   1.139   3.387
 1783SOL     OW 6247   2.818   5.337   6.161
 1783SOL    HW1 6248   2.789   5.277   6.235
 1783SOL    HW2 6249   2.777   5.427   6.173
 1784SOL     OW 6250   3.342   0.199   6.449
 1784SOL    HW1 6251   3.322   0.291   6.485
 1784SOL    HW2 6252   3.288   0.183   6.367
 1785SOL     OW 6253   6.011   3.328   2.570
 1785SOL    HW1 6254   5.933   3.387   2.590
 1785SOL    HW2 6255   6.087   3.352   2.631
 1786SOL     OW 6256   2.086   2.739   0.503
 1786SOL    HW1 6257   2.042   2.774   0.420
 1786SOL    HW2 6258   2.031   2.765   0.583
 1787SOL     OW 6259   3.337   1.388   5.606
 1787SOL    HW1 6260   3.335   1.456   5.679
 1787SOL    HW2 6261   3.254   1.396   5.551
 1788SOL     OW 6262   1.571   5.036   5.692
 1788SOL    HW1 6263   1.538   5.118   5.645
 1788SOL    HW2 6264   1.671   5.034   5.690
 1789SOL     OW 6265   5.527   1.808   0.263
 1789SOL    HW1 6266   5.528   1.809   0.363
 1789SOL    HW2 6267   5.546   1.715   0.230
 1790SOL     OW 6268   3.863   6.674   3.484
 1790SOL    HW1 6269   3.935   6.744   3.482
 1790SOL    HW2 6270   3.871   6.620   3.568
 1791SOL     OW 6271   6.908   0.277   2.529
 1791SOL    HW1 6272   6.885   0.193   2.579
 1791SOL    HW2 6273   6.842   0.290   2.454
 1792SOL     OW 6274   0.946   3.887   5.364
 1792SOL    HW1 6275   0.891   3.821   5.312
 1792SOL    HW2 6276   1.043   3.866   5.351
 1793SOL     OW 6277   6.554   0.614   3.585
 1793SOL    HW1 6278   6.601   0.529   3.560
 1793SOL    HW2 6279   6.522   0.660   3.502
 1794SOL     OW 6280   5.193   5.808   5.881
 1794SOL    HW1 6281   5.107   5.852   5.857
 1794SOL    HW2 6282   5.267   5.875   5.879
 1795SOL     OW 6283   7.002   2.536   0.526
 1795SOL    HW1 6284   6.930   2.473   0.557
 1795SOL    HW2 6285   7.002   2.540   0.426
 1796SOL     OW 6286   1.976   0.864   5.663
 1796SOL    HW1 6287   2.033   0.929   5.614
 1796SOL    HW2 6288   2.000   0.865   5.760
 1797SOL     OW 6289   1.107   6.681   0.431
 1797SOL    HW1 6290   1.109   6.767   0.482
 1797SOL    HW2 6291   1.199   6.662   0.395
 1798SOL     OW 6292   4.693   2.364   3.776
 1798SOL    HW1 6293   4.712   2.447   3.829
 1798SOL    HW2 6294   4.767   2.298   3.791
 1799SOL     OW 6295   6.971   2.415   5.542
 1799SOL    HW1 6296   6.894   2.420   5.607
 1799SOL    HW2 6297   6.994   2.506   5.510
 1800SOL     OW 6298   4.030   4.489   1.337
 1800SOL    HW1 6299   4.082   4.435   1.271
 1800SOL    HW2 6300   4.084   4.498   1.421
 1801SOL     OW 6301   6.743   0.709   2.114
 1801SOL    HW1 6302   6.649   0.706   2.148
 1801SOL    HW2 6303   6.800   0.760   2.179
 1802SOL     OW 6304   6.612   5.726   4.255
 1802SOL    HW1 6305   6.617   5.627   4.243
 1802SOL    HW2 6306   6.682   5.755   4.320
 1803SOL     OW 6307   0.020   5.617   0.086
 1803SOL    HW1 6308   0.076   5.575   0.157
 1803SOL    HW2 6309   0.064   5.700   0.053
 1804SOL     OW 6310   3.567   4.015   5.239
 1804SOL    HW1 6311   3.646   4.069   5.268
 1804SOL    HW2 6312   3.514   4.067   5.172
 1805SOL     OW 6313   5.170   3.781   6.300
 1805SOL    HW1 6314   5.089   3.793   6.242
 1805SOL    HW2 6315   5.216   3.696   6.275
 1806SOL     OW 6316   1.506   0.138   1.494
 1806SOL    HW1 6317   1.538   0.114   1.402
 1806SOL    HW2 6318   1.406   0.149   1.492
 1807SOL     OW 6319   6.481   1.749   4.711
 1807SOL    HW1 6320   6.487   1.795   4.622
 1807SOL    HW2 6321   6.398   1.694   4.714
 1808SOL     OW 6322   0.189   5.157   4.745
 1808SOL    HW1 6323   0.148   5.248   4.755
 1808SOL    HW2 6324   0.257   5.160   4.672
 1809SOL     OW 6325   2.949   1.894   5.851
 1809SOL    HW1 6326   3.044   1.924   5.863
 1809SOL    HW2 6327   2.913   1.931   5.765
 1810SOL     OW 6328   3.194   6.704   3.656
 1810SOL    HW1 6329   3.272   6.650   3.690
 1810SOL    HW2 6330   3.228   6.780   3.601
 1811SOL     OW 6331   5.874   5.504   3.071
 1811SOL    HW1 6332   5.925   5.419   3.061
 1811SOL    HW2 6333   5.917   5.561   3.141
 1812SOL     OW 6334   4.575   5.560   5.188
 1812SOL    HW1 6335   4.585   5.539   5.091
 1812SOL    HW2 6336   4.522   5.488   5.233
 1813SOL     OW 6337   5.685   4.084   0.064
 1813SOL    HW1 6338   5.617   4.146   0.024
 1813SOL    HW2 6339   5.777   4.114   0.037
 1814SOL     OW 6340   4.691   6.989   2.396
 1814SOL    HW1 6341   4.689   7.015   2.300
 1814SOL    HW2 6342   4.615   6.926   2.415
 1815SOL     OW 6343   0.106   1.418   3.467
 1815SOL    HW1 6344   0.112   1.326   3.430
 1815SOL    HW2 6345   0.087   1.414   3.565
 1816SOL     OW 6346   1.908   3.195   0.841
 1816SOL    HW1 6347   1.998   3.172   0.878
 1816SOL    HW2 6348   1.878   3.123   0.779
 1817SOL     OW 6349   1.698   6.008   2.567
 1817SOL    HW1 6350   1.711   6.084   2.503
 1817SOL    HW2 6351   1.650   6.042   2.648
 1818SOL     OW 6352   1.686   0.292   2.966
 1818SOL    HW1 6353   1.612   0.336   2.915
 1818SOL    HW2 6354   1.666   0.294   3.064
 1819SOL     OW 6355   1.154   3.912   1.467
 1819SOL    HW1 6356   1.137   3.922   1.565
 1819SOL    HW2 6357   1.222   3.979   1.438
 1820SOL     OW 6358   4.578   0.987   2.455
 1820SOL    HW1 6359   4.674   1.016   2.450
 1820SOL    HW2 6360   4.522   1.063   2.486
 1821SOL     OW 6361   1.960   1.217   2.682
 1821SOL    HW1 6362   1.879   1.199   2.626
 1821SOL    HW2 6363   2.020   1.282   2.636
 1822SOL     OW 6364   3.264   2.733   1.634
 1822SOL    HW1 6365   3.185   2.688   1.676
 1822SOL    HW2 6366   3.317   2.667   1.581
 1823SOL     OW 6367   4.677   6.604   2.495
 1823SOL    HW1 6368   4.651   6.695   2.527
 1823SOL    HW2 6369   4.621   6.535   2.541
 1824SOL     OW 6370   4.430   2.744   1.388
 1824SOL    HW1 6371   4.374   2.744   1.305
 1824SOL    HW2 6372   4.505   2.680   1.378
 1825SOL     OW 6373   0.864   0.670   1.423
 1825SOL    HW1 6374   0.955   0.639   1.451
 1825SOL    HW2 6375   0.860   0.770   1.427
 1826SOL     OW 6376   3.191   0.439   0.611
 1826SOL    HW1 6377   3.174   0.509   0.541
 1826SOL    HW2 6378   3.119   0.442   0.680
 1827SOL     OW 6379   6.780   5.516   1.852
 1827SOL    HW1 6380   6.830   5.439   1.813
 1827SOL    HW2 6381   6.843   5.589   1.878
 1828SOL     OW 6382   0.879   2.888   6.734
 1828SOL    HW1 6383   0.797   2.932   6.700
 1828SOL    HW2 6384   0.941   2.869   6.658
 1829SOL     OW 6385   4.930   5.901   3.090
 1829SOL    HW1 6386   4.965   5.843   3.164
 1829SOL    HW2 6387   4.987   5.983   3.082
 1830SOL     OW 6388   4.278   6.424   3.288
 1830SOL    HW1 6389   4.260   6.342   3.343
 1830SOL    HW2 6390   4.196   6.482   3.287
 1831SOL     OW 6391   5.609   6.152   1.817
 1831SOL    HW1 6392   5.664   6.233   1.799
 1831SOL    HW2 6393   5.652   6.072   1.775
 1832SOL     OW 6394   4.655   2.496   1.078
 1832SOL    HW1 6395   4.657   2.545   1.166
 1832SOL    HW2 6396   4.610   2.408   1.090
 1833SOL     OW 6397   5.311   0.525   5.074
 1833SOL    HW1 6398   5.241   0.573   5.126
 1833SOL    HW2 6399   5.288   0.428   5.068
 1834SOL     OW 6400   3.846   3.454   1.052
 1834SOL    HW1 6401   3.875   3.367   1.091
 1834SOL    HW2 6402   3.747   3.453   1.040
 1835SOL     OW 6403   1.556   5.074   1.112
 1835SOL    HW1 6404   1.586   5.020   1.034
 1835SOL    HW2 6405   1.489   5.142   1.082
 1836SOL     OW 6406   0.653   0.408   0.410
 1836SOL    HW1 6407   0.624   0.481   0.472
 1836SOL    HW2 6408   0.591   0.330   0.418
 1837SOL     OW 6409   0.847   2.302   4.456
 1837SOL    HW1 6410   0.855   2.331   4.551
 1837SOL    HW2 6411   0.913   2.352   4.399
 1838SOL     OW 6412   0.337   3.078   4.144
 1838SOL    HW1 6413   0.434   3.098   4.157
 1838SOL    HW2 6414   0.283   3.142   4.198
 1839SOL     OW 6415   6.268   3.083   5.077
 1839SOL    HW1 6416   6.357   3.086   5.031
 1839SOL    HW2 6417   6.282   3.073   5.176
 1840SOL     OW 6418   2.606   6.057   0.763
 1840SOL    HW1 6419   2.588   5.993   0.838
 1840SOL    HW2 6420   2.679   6.021   0.706
 1841SOL     OW 6421   2.142   3.219   3.813
 1841SOL    HW1 6422   2.174   3.243   3.905
 1841SOL    HW2 6423   2.066   3.279   3.788
 1842SOL     OW 6424   0.662   4.321   1.053
 1842SOL    HW1 6425   0.649   4.223   1.037
 1842SOL    HW2 6426   0.678   4.338   1.150
 1843SOL     OW 6427   2.402   1.398   5.581
 1843SOL    HW1 6428   2.411   1.356   5.672
 1843SOL    HW2 6429   2.317   1.450   5.576
 1844SOL     OW 6430   4.122   2.229   4.118
 1844SOL    HW1 6431   4.027   2.224   4.086
 1844SOL    HW2 6432   4.184   2.221   4.039
 1845SOL     OW 6433   3.798   0.106   0.040
 1845SOL    HW1 6434   3.821   0.072   6.969
 1845SOL    HW2 6435   3.776   0.204   0.035
 1846SOL     OW 6436   3.268   1.874   6.497
 1846SOL    HW1 6437   3.193   1.813   6.521
 1846SOL    HW2 6438   3.283   1.872   6.398
 1847SOL     OW 6439   1.250   7.002   1.241
 1847SOL    HW1 6440   1.273   6.940   1.315
 1847SOL    HW2 6441   1.242   6.951   1.155
 1848SOL     OW 6442   3.219   6.505   2.011
 1848SOL    HW1 6443   3.183   6.581   1.956
 1848SOL    HW2 6444   3.317   6.496   1.994
 1849SOL     OW 6445   3.316   1.571   0.054
 1849SOL    HW1 6446   3.259   1.490   0.071
 1849SOL    HW2 6447   3.261   1.653   0.069
 1850SOL     OW 6448   6.324   2.361   2.928
 1850SOL    HW1 6449   6.318   2.351   2.829
 1850SOL    HW2 6450   6.302   2.273   2.971
 1851SOL     OW 6451   0.361   1.978   2.557
 1851SOL    HW1 6452   0.402   2.026   2.480
 1851SOL    HW2 6453   0.268   2.012   2.573
 1852SOL     OW 6454   4.150   2.968   0.373
 1852SOL    HW1 6455   4.191   2.989   0.285
 1852SOL    HW2 6456   4.060   2.926   0.360
 1853SOL     OW 6457   0.671   3.932   1.066
 1853SOL    HW1 6458   0.596   3.948   1.130
 1853SOL    HW2 6459   0.715   3.845   1.087
 1854SOL     OW 6460   3.008   6.027   4.525
 1854SOL    HW1 6461   3.082   5.976   4.482
 1854SOL    HW2 6462   2.951   6.069   4.454
 1855SOL     OW 6463   5.072   5.365   0.834
 1855SOL    HW1 6464   4.984   5.322   0.854
 1855SOL    HW2 6465   5.056   5.456   0.795
 1856SOL     OW 6466   5.540   2.231   5.094
 1856SOL    HW1 6467   5.460   2.274   5.053
 1856SOL    HW2 6468   5.610   2.215   5.024
 1857SOL     OW 6469   3.951   0.851   4.222
 1857SOL    HW1 6470   4.028   0.833   4.160
 1857SOL    HW2 6471   3.936   0.771   4.281
 1858SOL     OW 6472   5.289   2.797   3.967
 1858SOL    HW1 6473   5.222   2.757   3.905
 1858SOL    HW2 6474   5.365   2.733   3.980
 1859SOL     OW 6475   4.288   2.243   3.256
 1859SOL    HW1 6476   4.214   2.242   3.323
 1859SOL    HW2 6477   4.370   2.283   3.296
 1860SOL     OW 6478   6.027   0.926   4.454
 1860SOL    HW1 6479   5.971   0.846   4.475
 1860SOL    HW2 6480   5.971   1.008   4.459
 1861SOL     OW 6481   5.282   6.355   2.782
 1861SOL    HW1 6482   5.277   6.434   2.843
 1861SOL    HW2 6483   5.376   6.344   2.749
 1862SOL     OW 6484   1.819   1.140   6.888
 1862SOL    HW1 6485   1.750   1.093   6.833
 1862SOL    HW2 6486   1.874   1.073   6.938
 1863SOL     OW 6487   2.912   2.597   1.234
 1863SOL    HW1 6488   2.853   2.614   1.155
 1863SOL    HW2 6489   2.996   2.650   1.226
 1864SOL     OW 6490   0.797   6.462   4.682
 1864SOL    HW1 6491   0.869   6.404   4.643
 1864SOL    HW2 6492   0.812   6.557   4.655
 1865SOL     OW 6493   4.043   2.105   5.839
 1865SOL    HW1 6494   4.030   2.120   5.937
 1865SOL    HW2 6495   4.027   2.008   5.817
 1866SOL     OW 6496   4.692   4.300   2.281
 1866SOL    HW1 6497   4.641   4.285   2.196
 1866SOL    HW2 6498   4.730   4.213   2.312
 1867SOL     OW 6499   6.958   4.110   6.779
 1867SOL    HW1 6500   6.989   4.034   6.836
 1867SOL    HW2 6501   6.997   4.196   6.813
 1868SOL     OW 6502   5.850   4.624   6.179
 1868SOL    HW1 6503   5.898   4.588   6.099
 1868SOL    HW2 6504   5.825   4.719   6.162
 1869SOL     OW 6505   6.448   1.340   5.254
 1869SOL    HW1 6506   6.411   1.425   5.216
 1869SOL    HW2 6507   6.497   1.290   5.183
 1870SOL     OW 6508   1.974   5.391   4.522
 1870SOL    HW1 6509   1.961   5.346   4.433
 1870SOL    HW2 6510   1.939   5.485   4.517
 1871SOL     OW 6511   2.183   0.304   0.714
 1871SOL    HW1 6512   2.095   0.344   0.689
 1871SOL    HW2 6513   2.204   0.325   0.809
 1872SOL     OW 6514   2.201   4.412   0.607
 1872SOL    HW1 6515   2.293   4.451   0.603
 1872SOL    HW2 6516   2.198   4.327   0.554
 1873SOL     OW 6517   4.082   1.211   6.132
 1873SOL    HW1 6518   4.114   1.289   6.186
 1873SOL    HW2 6519   4.022   1.154   6.188
 1874SOL     OW 6520   1.595   1.657   2.063
 1874SOL    HW1 6521   1.678   1.661   2.118
 1874SOL    HW2 6522   1.556   1.565   2.068
 1875SOL     OW 6523   0.079   6.820   6.452
 1875SOL    HW1 6524   0.105   6.743   6.509
 1875SOL    HW2 6525   0.145   6.894   6.463
 1876SOL     OW 6526   2.827   0.023   4.377
 1876SOL    HW1 6527   2.777   6.979   4.318
 1876SOL    HW2 6528   2.819   7.014   4.472
 1877SOL     OW 6529   0.993   0.312   3.984
 1877SOL    HW1 6530   0.919   0.376   3.966
 1877SOL    HW2 6531   1.025   0.324   4.078
 1878SOL     OW 6532   6.714   2.207   4.044
 1878SOL    HW1 6533   6.676   2.298   4.029
 1878SOL    HW2 6534   6.812   2.215   4.062
 1879SOL     OW 6535   0.913   4.007   4.853
 1879SOL    HW1 6536   0.934   3.916   4.818
 1879SOL    HW2 6537   0.902   4.004   4.952
 1880SOL     OW 6538   6.648   1.684   5.184
 1880SOL    HW1 6539   6.617   1.764   5.235
 1880SOL    HW2 6540   6.571   1.622   5.170
 1881SOL     OW 6541   6.262   2.059   0.217
 1881SOL    HW1 6542   6.218   2.147   0.232
 1881SOL    HW2 6543   6.229   2.018   0.132
 1882SOL     OW 6544   1.062   4.367   6.063
 1882SOL    HW1 6545   1.125   4.392   5.990
 1882SOL    HW2 6546   1.081   4.274   6.094
 1883SOL     OW 6547   7.005   2.593   2.891
 1883SOL    HW1 6548   0.030   2.540   2.963
 1883SOL    HW2 6549   6.909   2.567   2.884
 1884SOL     OW 6550   0.308   1.971   1.312
 1884SOL    HW1 6551   0.401   1.936   1.297
 1884SOL    HW2 6552   0.305   2.023   1.398
 1885SOL     OW 6553   2.322   1.702   5.463
 1885SOL    HW1 6554   2.331   1.790   5.510
 1885SOL    HW2 6555   2.274   1.716   5.376
 1886SOL     OW 6556   1.120   6.915   3.351
 1886SOL    HW1 6557   1.025   6.947   3.355
 1886SOL    HW2 6558   1.132   6.838   3.413
 1887SOL     OW 6559   1.109   6.161   6.273
 1887SOL    HW1 6560   1.028   6.202   6.230
 1887SOL    HW2 6561   1.099   6.062   6.273
 1888SOL     OW 6562   2.763   1.327   0.927
 1888SOL    HW1 6563   2.851   1.317   0.881
 1888SOL    HW2 6564   2.724   1.417   0.907
 1889SOL     OW 6565   1.433   3.523   3.255
 1889SOL    HW1 6566   1.453   3.597   3.319
 1889SOL    HW2 6567   1.519   3.480   3.226
 1890SOL     OW 6568   1.151   5.900   3.809
 1890SOL    HW1 6569   1.081   5.881   3.877
 1890SOL    HW2 6570   1.227   5.835   3.819
 1891SOL     OW 6571   4.071   3.869   2.461
 1891SOL    HW1 6572   4.099   3.778   2.494
 1891SOL    HW2 6573   4.131   3.897   2.386
 1892SOL     OW 6574   6.761   0.163   1.640
 1892SOL    HW1 6575   6.686   0.229   1.653
 1892SOL    HW2 6576   6.732   0.073   1.672
 1893SOL     OW 6577   3.563   3.600   3.075
 1893SOL    HW1 6578   3.645   3.547   3.055
 1893SOL    HW2 6579   3.587   3.677   3.134
 1894SOL     OW 6580   3.627   3.651   4.221
 1894SOL    HW1 6581   3.643   3.669   4.124
 1894SOL    HW2 6582   3.531   3.669   4.243
 1895SOL     OW 6583   4.630   0.279   0.241
 1895SOL    HW1 6584   4.559   0.344   0.270
 1895SOL    HW2 6585   4.649   0.290   0.144
 1896SOL     OW 6586   4.906   1.677   0.847
 1896SOL    HW1 6587   4.964   1.667   0.766
 1896SOL    HW2 6588   4.892   1.774   0.866
 1897SOL     OW 6589   2.406   4.899   3.513
 1897SOL    HW1 6590   2.412   4.864   3.607
 1897SOL    HW2 6591   2.345   4.841   3.460
 1898SOL     OW 6592   1.518   5.598   3.223
 1898SOL    HW1 6593   1.520   5.694   3.194
 1898SOL    HW2 6594   1.598   5.551   3.185
 1899SOL     OW 6595   6.945   0.382   1.790
 1899SOL    HW1 6596   6.890   0.326   1.728
 1899SOL    HW2 6597   6.926   0.355   1.884
 1900SOL     OW 6598   2.936   0.293   6.969
 1900SOL    HW1 6599   3.020   0.294   0.004
 1900SOL    HW2 6600   2.935   0.371   6.908
 1901SOL     OW 6601   2.916   3.847   1.289
 1901SOL    HW1 6602   2.838   3.827   1.349
 1901SOL    HW2 6603   2.882   3.886   1.203
 1902SOL     OW 6604   1.751   6.591   4.737
 1902SOL    HW1 6605   1.840   6.552   4.715
 1902SOL    HW2 6606   1.678   6.531   4.704
 1903SOL     OW 6607   1.025   2.857   4.026
 1903SOL    HW1 6608   1.104   2.875   3.968
 1903SOL    HW2 6609   0.974   2.780   3.989
 1904SOL     OW 6610   5.500   5.708   2.797
 1904SOL    HW1 6611   5.530   5.654   2.875
 1904SOL    HW2 6612   5.415   5.670   2.760
 1905SOL     OW 6613   0.586   0.651   4.015
 1905SOL    HW1 6614   0.614   0.741   3.981
 1905SOL    HW2 6615   0.576   0.588   3.938
 1906SOL     OW 6616   2.737   0.167   5.722
 1906SOL    HW1 6617   2.761   0.234   5.793
 1906SOL    HW2 6618   2.816   0.151   5.663
 1907SOL     OW 6619   4.847   2.705   0.164
 1907SOL    HW1 6620   4.941   2.714   0.132
 1907SOL    HW2 6621   4.816   2.610   0.151
 1908SOL     OW 6622   3.540   0.914   1.037
 1908SOL    HW1 6623   3.596   0.920   0.954
 1908SOL    HW2 6624   3.444   0.902   1.011
 1909SOL     OW 6625   0.072   4.307   5.462
 1909SOL    HW1 6626   0.113   4.347   5.544
 1909SOL    HW2 6627   0.144   4.288   5.395
 1910SOL     OW 6628   6.672   6.082   5.996
 1910SOL    HW1 6629   6.599   6.014   5.995
 1910SOL    HW2 6630   6.637   6.169   6.029
 1911SOL     OW 6631   0.060   5.179   4.346
 1911SOL    HW1 6632   0.068   5.098   4.405
 1911SOL    HW2 6633   0.100   5.159   4.256
 1912SOL     OW 6634   2.516   4.929   3.068
 1912SOL    HW1 6635   2.558   4.984   2.996
 1912SOL    HW2 6636   2.477   4.846   3.028
 1913SOL     OW 6637   2.568   4.677   5.076
 1913SOL    HW1 6638   2.667   4.673   5.063
 1913SOL    HW2 6639   2.523   4.616   5.009
 1914SOL     OW 6640   2.598   4.557   6.207
 1914SOL    HW1 6641   2.604   4.459   6.221
 1914SOL    HW2 6642   2.524   4.578   6.143
 1915SOL     OW 6643   5.194   2.375   6.175
 1915SOL    HW1 6644   5.264   2.436   6.138
 1915SOL    HW2 6645   5.107   2.424   6.180
 1916SOL     OW 6646   4.273   0.186   2.024
 1916SOL    HW1 6647   4.259   0.270   2.078
 1916SOL    HW2 6648   4.362   0.148   2.046
 1917SOL     OW 6649   2.352   4.416   1.140
 1917SOL    HW1 6650   2.348   4.440   1.238
 1917SOL    HW2 6651   2.436   4.454   1.100
 1918SOL     OW 6652   6.977   1.698   4.492
 1918SOL    HW1 6653   7.019   1.777   4.537
 1918SOL    HW2 6654   0.025   1.626   4.481
 1919SOL     OW 6655   0.990   2.004   0.991
 1919SOL    HW1 6656   0.896   2.025   1.018
 1919SOL    HW2 6657   1.033   1.950   1.063
 1920SOL     OW 6658   5.018   2.441   1.103
 1920SOL    HW1 6659   5.099   2.404   1.057
 1920SOL    HW2 6660   4.997   2.386   1.184
 1921SOL     OW 6661   1.922   3.060   6.869
 1921SOL    HW1 6662   2.004   3.057   6.811
 1921SOL    HW2 6663   1.876   2.972   6.867
 1922SOL     OW 6664   2.975   3.539   2.115
 1922SOL    HW1 6665   2.955   3.547   2.213
 1922SOL    HW2 6666   2.935   3.454   2.080
 1923SOL     OW 6667   4.367   0.611   5.240
 1923SOL    HW1 6668   4.326   0.527   5.205
 1923SOL    HW2 6669   4.458   0.623   5.200
 1924SOL     OW 6670   4.605   6.881   1.019
 1924SOL    HW1 6671   4.590   6.913   0.926
 1924SOL    HW2 6672   4.696   6.840   1.026
 1925SOL     OW 6673   0.910   4.189   0.829
 1925SOL    HW1 6674   0.883   4.234   0.914
 1925SOL    HW2 6675   0.921   4.091   0.845
 1926SOL     OW 6676   3.587   6.867   2.218
 1926SOL    HW1 6677   3.614   6.773   2.198
 1926SOL    HW2 6678   3.569   6.876   2.316
 1927SOL     OW 6679   1.887   5.051   1.404
 1927SOL    HW1 6680   1.807   5.074   1.460
 1927SOL    HW2 6681   1.892   4.952   1.393
 1928SOL     OW 6682   5.023   4.449   2.962
 1928SOL    HW1 6683   5.020   4.349   2.951
 1928SOL    HW2 6684   4.956   4.491   2.900
 1929SOL     OW 6685   2.823   0.640   3.115
 1929SOL    HW1 6686   2.785   0.729   3.138
 1929SOL    HW2 6687   2.753   0.584   3.070
 1930SOL     OW 6688   4.724   2.585   6.813
 1930SOL    HW1 6689   4.762   2.554   6.900
 1930SOL    HW2 6690   4.776   2.664   6.780
 1931SOL     OW 6691   1.074   1.219   4.868
 1931SOL    HW1 6692   1.081   1.319   4.867
 1931SOL    HW2 6693   0.978   1.192   4.856
 1932SOL     OW 6694   4.674   2.671   2.774
 1932SOL    HW1 6695   4.615   2.629   2.843
 1932SOL    HW2 6696   4.685   2.607   2.697
 1933SOL     OW 6697   0.992   1.394   1.070
 1933SOL    HW1 6698   0.908   1.367   1.117
 1933SOL    HW2 6699   0.975   1.477   1.017
 1934SOL     OW 6700   0.200   0.160   5.930
 1934SOL    HW1 6701   0.299   0.170   5.929
 1934SOL    HW2 6702   0.176   0.065   5.952
 1935SOL     OW 6703   6.739   4.742   4.197
 1935SOL    HW1 6704   6.838   4.729   4.199
 1935SOL    HW2 6705   6.704   4.718   4.107
 1936SOL     OW 6706   5.061   3.008   4.966
 1936SOL    HW1 6707   5.056   2.975   4.872
 1936SOL    HW2 6708   5.063   3.108   4.966
 1937SOL     OW 6709   5.136   5.247   0.040
 1937SOL    HW1 6710   5.136   5.154   0.005
 1937SOL    HW2 6711   5.209   5.299   7.015
 1938SOL     OW 6712   0.804   2.622   6.277
 1938SOL    HW1 6713   0.754   2.538   6.254
 1938SOL    HW2 6714   0.760   2.700   6.233
 1939SOL     OW 6715   1.305   0.173   4.796
 1939SOL    HW1 6716   1.395   0.216   4.789
 1939SOL    HW2 6717   1.285   0.123   4.712
 1940SOL     OW 6718   6.351   4.821   1.347
 1940SOL    HW1 6719   6.316   4.913   1.369
 1940SOL    HW2 6720   6.398   4.824   1.259
 1941SOL     OW 6721   0.529   2.844   4.036
 1941SOL    HW1 6722   0.438   2.875   4.064
 1941SOL    HW2 6723   0.593   2.921   4.041
 1942SOL     OW 6724   5.956   3.616   2.567
 1942SOL    HW1 6725   5.941   3.641   2.663
 1942SOL    HW2 6726   5.874   3.636   2.514
 1943SOL     OW 6727   0.836   1.272   2.766
 1943SOL    HW1 6728   0.751   1.233   2.801
 1943SOL    HW2 6729   0.910   1.251   2.830
 1944SOL     OW 6730   6.618   2.378   1.851
 1944SOL    HW1 6731   6.682   2.391   1.775
 1944SOL    HW2 6732   6.529   2.416   1.825
 1945SOL     OW 6733   4.657   0.431   1.832
 1945SOL    HW1 6734   4.561   0.404   1.841
 1945SOL    HW2 6735   4.684   0.484   1.912
 1946SOL     OW 6736   5.997   5.761   1.816
 1946SOL    HW1 6737   6.069   5.830   1.814
 1946SOL    HW2 6738   5.968   5.741   1.722
 1947SOL     OW 6739   6.263   4.672   4.063
 1947SOL    HW1 6740   6.225   4.720   3.984
 1947SOL    HW2 6741   6.196   4.671   4.137
 1948SOL     OW 6742   4.863   3.540   3.224
 1948SOL    HW1 6743   4.846   3.638   3.214
 1948SOL    HW2 6744   4.962   3.524   3.234
 1949SOL     OW 6745   3.478   5.103   6.860
 1949SOL    HW1 6746   3.480   5.004   6.847
 1949SOL    HW2 6747   3.425   5.145   6.787
 1950SOL     OW 6748   3.474   4.157   4.168
 1950SOL    HW1 6749   3.388   4.161   4.219
 1950SOL    HW2 6750   3.551   4.160   4.231
 1951SOL     OW 6751   6.205   4.461   5.813
 1951SOL    HW1 6752   6.239   4.522   5.741
 1951SOL    HW2 6753   6.236   4.368   5.796
 1952SOL     OW 6754   5.574   4.501   6.773
 1952SOL    HW1 6755   5.581   4.441   6.693
 1952SOL    HW2 6756   5.619   4.458   6.851
 1953SOL     OW 6757   0.674   1.593   6.701
 1953SOL    HW1 6758   0.664   1.588   6.602
 1953SOL    HW2 6759   0.636   1.511   6.743
 1954SOL     OW 6760   4.136   0.026   1.823
 1954SOL    HW1 6761   4.188   0.048   1.905
 1954SOL    HW2 6762   4.185   6.977   1.770
 1955SOL     OW 6763   0.985   1.707   2.356
 1955SOL    HW1 6764   1.054   1.715   2.427
 1955SOL    HW2 6765   1.015   1.757   2.275
 1956SOL     OW 6766   5.711   0.286   2.301
 1956SOL    HW1 6767   5.766   0.368   2.287
 1956SOL    HW2 6768   5.618   0.312   2.327
 1957SOL     OW 6769   5.300   2.084   4.258
 1957SOL    HW1 6770   5.318   2.107   4.162
 1957SOL    HW2 6771   5.387   2.068   4.305
 1958SOL     OW 6772   4.565   1.817   1.352
 1958SOL    HW1 6773   4.498   1.877   1.396
 1958SOL    HW2 6774   4.654   1.830   1.395
 1959SOL     OW 6775   0.591   0.479   4.543
 1959SOL    HW1 6776   0.632   0.413   4.606
 1959SOL    HW2 6777   0.503   0.444   4.509
 1960SOL     OW 6778   6.081   4.297   3.445
 1960SOL    HW1 6779   5.986   4.324   3.429
 1960SOL    HW2 6780   6.105   4.315   3.540
 1961SOL     OW 6781   6.433   3.756   4.941
 1961SOL    HW1 6782   6.498   3.682   4.928
 1961SOL    HW2 6783   6.476   3.831   4.991
 1962SOL     OW 6784   0.498   0.254   2.703
 1962SOL    HW1 6785   0.573   0.287   2.646
 1962SOL    HW2 6786   0.480   0.320   2.776
 1963SOL     OW 6787   0.609   2.023   1.785
 1963SOL    HW1 6788   0.677   2.074   1.733
 1963SOL    HW2 6789   0.647   1.996   1.873
 1964SOL     OW 6790   5.362   4.414   1.509
 1964SOL    HW1 6791   5.371   4.371   1.420
 1964SOL    HW2 6792   5.395   4.508   1.505
 1965SOL     OW 6793   0.425   4.973   4.200
 1965SOL    HW1 6794   0.403   5.002   4.293
 1965SOL    HW2 6795   0.398   4.878   4.187
 1966SOL     OW 6796   1.379   4.560   0.142
 1966SOL    HW1 6797   1.331   4.595   0.061
 1966SOL    HW2 6798   1.329   4.586   0.224
 1967SOL     OW 6799   5.597   3.099   3.412
 1967SOL    HW1 6800   5.581   3.007   3.449
 1967SOL    HW2 6801   5.636   3.157   3.484
 1968SOL     OW 6802   2.697   1.503   5.071
 1968SOL    HW1 6803   2.753   1.441   5.125
 1968SOL    HW2 6804   2.659   1.574   5.130
 1969SOL     OW 6805   3.118   6.860   0.664
 1969SOL    HW1 6806   3.162   6.778   0.700
 1969SOL    HW2 6807   3.019   6.849   0.669
 1970SOL     OW 6808   5.997   5.649   5.125
 1970SOL    HW1 6809   6.012   5.713   5.050
 1970SOL    HW2 6810   5.900   5.648   5.150
 1971SOL     OW 6811   1.582   6.199   5.129
 1971SOL    HW1 6812   1.565   6.123   5.190
 1971SOL    HW2 6813   1.505   6.263   5.131
 1972SOL     OW 6814   5.906   2.407   2.369
 1972SOL    HW1 6815   5.997   2.408   2.329
 1972SOL    HW2 6816   5.874   2.501   2.382
 1973SOL     OW 6817   1.928   4.412   0.267
 1973SOL    HW1 6818   1.937   4.432   0.365
 1973SOL    HW2 6819   1.831   4.404   0.243
 1974SOL     OW 6820   3.755   6.382   5.093
 1974SOL    HW1 6821   3.747   6.374   4.994
 1974SOL    HW2 6822   3.836   6.332   5.124
 1975SOL     OW 6823   1.573   2.083   3.429
 1975SOL    HW1 6824   1.529   1.997   3.454
 1975SOL    HW2 6825   1.512   2.159   3.450
 1976SOL     OW 6826   6.820   6.895   6.418
 1976SOL    HW1 6827   6.818   6.977   6.362
 1976SOL    HW2 6828   6.915   6.868   6.434
 1977SOL     OW 6829   2.018   4.626   5.662
 1977SOL    HW1 6830   2.026   4.586   5.753
 1977SOL    HW2 6831   2.088   4.587   5.602
 1978SOL     OW 6832   2.612   6.937   2.071
 1978SOL    HW1 6833   2.679   6.994   2.025
 1978SOL    HW2 6834   2.626   6.943   2.170
 1979SOL     OW 6835   0.028   4.766   6.783
 1979SOL    HW1 6836   0.062   4.687   6.835
 1979SOL    HW2 6837   0.083   4.778   6.700
 1980SOL     OW 6838   3.552   1.322   0.982
 1980SOL    HW1 6839   3.488   1.260   0.937
 1980SOL    HW2 6840   3.501   1.387   1.039
 1981SOL     OW 6841   4.350   2.369   2.988
 1981SOL    HW1 6842   4.364   2.344   3.084
 1981SOL    HW2 6843   4.399   2.454   2.968
 1982SOL     OW 6844   6.620   2.539   5.170
 1982SOL    HW1 6845   6.595   2.444   5.153
 1982SOL    HW2 6846   6.714   2.543   5.205
 1983SOL     OW 6847   6.989   0.342   1.065
 1983SOL    HW1 6848   7.006   0.281   0.988
 1983SOL    HW2 6849   6.939   0.422   1.034
 1984SOL     OW 6850   5.078   3.245   5.236
 1984SOL    HW1 6851   4.994   3.284   5.200
 1984SOL    HW2 6852   5.106   3.167   5.179
 1985SOL     OW 6853   6.176   3.785   2.524
 1985SOL    HW1 6854   6.102   3.722   2.547
 1985SOL    HW2 6855   6.249   3.734   2.477
 1986SOL     OW 6856   3.376   2.454   1.533
 1986SOL    HW1 6857   3.409   2.402   1.612
 1986SOL    HW2 6858   3.279   2.434   1.518
 1987SOL     OW 6859   2.272   0.656   2.491
 1987SOL    HW1 6860   2.264   0.741   2.439
 1987SOL    HW2 6861   2.191   0.644   2.548
 1988SOL     OW 6862   6.822   1.852   0.911
 1988SOL    HW1 6863   6.874   1.780   0.865
 1988SOL    HW2 6864   6.775   1.908   0.843
 1989SOL     OW 6865   3.117   4.933   5.019
 1989SOL    HW1 6866   3.211   4.965   5.013
 1989SOL    HW2 6867   3.109   4.863   5.090
 1990SOL     OW 6868   3.821   0.517   0.694
 1990SOL    HW1 6869   3.851   0.541   0.787
 1990SOL    HW2 6870   3.732   0.559   0.677
 1991SOL     OW 6871   2.882   5.559   0.730
 1991SOL    HW1 6872   2.912   5.556   0.825
 1991SOL    HW2 6873   2.962   5.564   0.669
 1992SOL     OW 6874   0.504   5.759   1.397
 1992SOL    HW1 6875   0.484   5.663   1.416
 1992SOL    HW2 6876   0.523   5.771   1.300
 1993SOL     OW 6877   2.174   3.236   4.076
 1993SOL    HW1 6878   2.236   3.286   4.136
 1993SOL    HW2 6879   2.178   3.139   4.096
 1994SOL     OW 6880   3.087   3.491   0.345
 1994SOL    HW1 6881   3.088   3.578   0.296
 1994SOL    HW2 6882   3.175   3.478   0.392
 1995SOL     OW 6883   5.706   2.147   4.877
 1995SOL    HW1 6884   5.649   2.171   4.799
 1995SOL    HW2 6885   5.700   2.048   4.893
 1996SOL     OW 6886   3.631   1.918   0.932
 1996SOL    HW1 6887   3.654   2.009   0.967
 1996SOL    HW2 6888   3.668   1.848   0.994
 1997SOL     OW 6889   4.142   0.841   3.517
 1997SOL    HW1 6890   4.189   0.783   3.449
 1997SOL    HW2 6891   4.047   0.852   3.490
 1998SOL     OW 6892   1.876   3.211   1.151
 1998SOL    HW1 6893   1.825   3.183   1.232
 1998SOL    HW2 6894   1.879   3.310   1.145
 1999SOL     OW 6895   1.878   6.799   6.036
 1999SOL    HW1 6896   1.871   6.886   5.987
 1999SOL    HW2 6897   1.787   6.770   6.065
 2000SOL     OW 6898   3.965   4.271   5.708
 2000SOL    HW1 6899   3.902   4.213   5.760
 2000SOL    HW2 6900   4.019   4.326   5.772
 2001SOL     OW 6901   2.242   1.638   0.012
 2001SOL    HW1 6902   2.308   1.702   0.052
 2001SOL    HW2 6903   2.193   1.592   0.086
 2002SOL     OW 6904   0.177   4.097   0.613
 2002SOL    HW1 6905   0.149   4.010   0.653
 2002SOL    HW2 6906   0.258   4.083   0.556
 2003SOL     OW 6907   6.517   5.514   1.983
 2003SOL    HW1 6908   6.596   5.494   1.925
 2003SOL    HW2 6909   6.540   5.588   2.046
 2004SOL     OW 6910   3.318   6.876   3.466
 2004SOL    HW1 6911   3.336   6.792   3.415
 2004SOL    HW2 6912   3.236   6.920   3.430
 2005SOL     OW 6913   1.696   6.277   1.081
 2005SOL    HW1 6914   1.716   6.245   0.988
 2005SOL    HW2 6915   1.645   6.207   1.130
 2006SOL     OW 6916   5.795   0.073   2.828
 2006SOL    HW1 6917   5.784   0.169   2.802
 2006SOL    HW2 6918   5.884   0.040   2.796
 2007SOL     OW 6919   6.010   4.524   6.939
 2007SOL    HW1 6920   5.953   4.592   6.891
 2007SOL    HW2 6921   5.956   4.481   7.011
 2008SOL     OW 6922   1.805   3.481   3.508
 2008SOL    HW1 6923   1.751   3.499   3.590
 2008SOL    HW2 6924   1.776   3.544   3.435
 2009SOL     OW 6925   5.918   6.829   2.217
 2009SOL    HW1 6926   5.997   6.769   2.229
 2009SOL    HW2 6927   5.878   6.813   2.126
 2010SOL     OW 6928   1.407   1.592   1.323
 2010SOL    HW1 6929   1.332   1.528   1.305
 2010SOL    HW2 6930   1.494   1.548   1.304
 2011SOL     OW 6931   1.129   6.785   5.758
 2011SOL    HW1 6932   1.054   6.814   5.699
 2011SOL    HW2 6933   1.117   6.689   5.783
 2012SOL     OW 6934   1.071   3.197   1.819
 2012SOL    HW1 6935   1.113   3.162   1.903
 2012SOL    HW2 6936   0.988   3.248   1.843
 2013SOL     OW 6937   0.152   3.357   2.497
 2013SOL    HW1 6938   0.176   3.266   2.530
 2013SOL    HW2 6939   0.052   3.366   2.494
 2014SOL     OW 6940   3.720   0.444   4.536
 2014SOL    HW1 6941   3.691   0.419   4.443
 2014SOL    HW2 6942   3.685   0.377   4.601
 2015SOL     OW 6943   4.703   0.536   1.409
 2015SOL    HW1 6944   4.658   0.625   1.410
 2015SOL    HW2 6945   4.634   0.464   1.401
 2016SOL     OW 6946   1.534   0.466   5.805
 2016SOL    HW1 6947   1.522   0.369   5.825
 2016SOL    HW2 6948   1.451   0.501   5.763
 2017SOL     OW 6949   4.233   6.362   2.819
 2017SOL    HW1 6950   4.156   6.392   2.877
 2017SOL    HW2 6951   4.317   6.363   2.873
 2018SOL     OW 6952   0.963   1.086   3.568
 2018SOL    HW1 6953   1.027   1.153   3.529
 2018SOL    HW2 6954   1.014   1.006   3.599
 2019SOL     OW 6955   6.135   5.141   6.412
 2019SOL    HW1 6956   6.198   5.212   6.444
 2019SOL    HW2 6957   6.044   5.182   6.400
 2020SOL     OW 6958   2.643   5.871   6.323
 2020SOL    HW1 6959   2.616   5.847   6.229
 2020SOL    HW2 6960   2.741   5.852   6.335
 2021SOL     OW 6961   0.085   6.257   4.078
 2021SOL    HW1 6962   0.098   6.320   4.154
 2021SOL    HW2 6963   0.147   6.180   4.088
 2022SOL     OW 6964   1.957   4.173   5.144
 2022SOL    HW1 6965   1.998   4.260   5.118
 2022SOL    HW2 6966   2.023   4.100   5.129
 2023SOL     OW 6967   0.341   6.593   0.318
 2023SOL    HW1 6968   0.409   6.652   0.361
 2023SOL    HW2 6969   0.259   6.590   0.375
 2024SOL     OW 6970   1.198   5.903   4.116
 2024SOL    HW1 6971   1.181   5.868   4.208
 2024SOL    HW2 6972   1.289   5.875   4.086
 2025SOL     OW 6973   1.686   6.829   4.838
 2025SOL    HW1 6974   1.668   6.879   4.754
 2025SOL    HW2 6975   1.717   6.736   4.816
 2026SOL     OW 6976   6.791   0.218   5.907
 2026SOL    HW1 6977   6.784   0.292   5.841
 2026SOL    HW2 6978   6.712   0.157   5.897
 2027SOL     OW 6979   6.823   6.059   2.243
 2027SOL    HW1 6980   6.907   6.094   2.200
 2027SOL    HW2 6981   6.835   5.962   2.264
 2028SOL     OW 6982   3.493   4.995   4.390
 2028SOL    HW1 6983   3.591   4.978   4.396
 2028SOL    HW2 6984   3.458   5.022   4.480
 2029SOL     OW 6985   6.003   2.593   6.451
 2029SOL    HW1 6986   5.961   2.502   6.447
 2029SOL    HW2 6987   5.947   2.658   6.400
 2030SOL     OW 6988   2.424   6.576   2.609
 2030SOL    HW1 6989   2.478   6.619   2.536
 2030SOL    HW2 6990   2.350   6.523   2.568
 2031SOL     OW 6991   6.974   5.944   3.495
 2031SOL    HW1 6992   6.928   5.879   3.434
 2031SOL    HW2 6993   0.012   5.894   3.558
 2032SOL     OW 6994   2.908   2.298   5.622
 2032SOL    HW1 6995   2.899   2.258   5.531
 2032SOL    HW2 6996   2.988   2.357   5.625
 2033SOL     OW 6997   1.872   2.143   0.480
 2033SOL    HW1 6998   1.873   2.123   0.382
 2033SOL    HW2 6999   1.808   2.081   0.526
 2034SOL     OW 7000   6.818   4.537   5.207
 2034SOL    HW1 7001   6.809   4.470   5.134
 2034SOL    HW2 7002   6.740   4.599   5.206
 2035SOL     OW 7003   5.793   0.474   2.959
 2035SOL    HW1 7004   5.803   0.411   2.882
 2035SOL    HW2 7005   5.782   0.567   2.925
 2036SOL     OW 7006   1.430   4.024   1.782
 2036SOL    HW1 7007   1.477   4.002   1.697
 2036SOL    HW2 7008   1.467   3.968   1.856
 2037SOL     OW 7009   0.167   2.987   6.770
 2037SOL    HW1 7010   0.251   2.956   6.726
 2037SOL    HW2 7011   0.113   3.041   6.705
 2038SOL     OW 7012   1.864   1.530   6.676
 2038SOL    HW1 7013   1.853   1.472   6.595
 2038SOL    HW2 7014   1.914   1.613   6.651
 2039SOL     OW 7015   6.327   5.667   2.691
 2039SOL    HW1 7016   6.241   5.627   2.723
 2039SOL    HW2 7017   6.365   5.726   2.763
 2040SOL     OW 7018   1.830   2.620   0.571
 2040SOL    HW1 7019   1.739   2.653   0.546
 2040SOL    HW2 7020   1.831   2.520   0.569
 2041SOL     OW 7021   2.098   0.124   6.407
 2041SOL    HW1 7022   2.074   0.179   6.327
 2041SOL    HW2 7023   2.196   0.130   6.424
 2042SOL     OW 7024   5.146   1.002   5.610
 2042SOL    HW1 7025   5.169   0.964   5.699
 2042SOL    HW2 7026   5.230   1.019   5.558
 2043SOL     OW 7027   6.750   4.302   1.160
 2043SOL    HW1 7028   6.725   4.246   1.239
 2043SOL    HW2 7029   6.759   4.397   1.188
 2044SOL     OW 7030   4.464   0.477   1.023
 2044SOL    HW1 7031   4.543   0.536   1.007
 2044SOL    HW2 7032   4.384   0.516   0.977
 2045SOL     OW 7033   1.349   6.706   6.194
 2045SOL    HW1 7034   1.290   6.772   6.149
 2045SOL    HW2 7035   1.344   6.618   6.145
 2046SOL     OW 7036   1.005   2.327   4.883
 2046SOL    HW1 7037   0.947   2.392   4.931
 2046SOL    HW2 7038   1.041   2.260   4.948
 2047SOL     OW 7039   0.238   0.231   0.403
 2047SOL    HW1 7040   0.240   0.186   0.314
 2047SOL    HW2 7041   0.212   0.327   0.392
 2048SOL     OW 7042   0.865   1.802   4.429
 2048SOL    HW1 7043   0.935   1.731   4.435
 2048SOL    HW2 7044   0.908   1.892   4.438
 2049SOL     OW 7045   5.086   1.715   5.091
 2049SOL    HW1 7046   5.091   1.636   5.152
 2049SOL    HW2 7047   5.041   1.688   5.006
 2050SOL     OW 7048   0.864   1.225   3.961
 2050SOL    HW1 7049   0.790   1.221   3.894
 2050SOL    HW2 7050   0.903   1.317   3.963
 2051SOL     OW 7051   3.003   6.208   0.486
 2051SOL    HW1 7052   3.027   6.113   0.506
 2051SOL    HW2 7053   3.078   6.268   0.513
 2052SOL     OW 7054   0.993   4.435   6.565
 2052SOL    HW1 7055   1.058   4.431   6.489
 2052SOL    HW2 7056   0.973   4.530   6.588
 2053SOL     OW 7057   0.450   5.257   3.449
 2053SOL    HW1 7058   0.453   5.327   3.520
 2053SOL    HW2 7059   0.463   5.299   3.359
 2054SOL     OW 7060   3.466   3.015   3.870
 2054SOL    HW1 7061   3.506   2.976   3.787
 2054SOL    HW2 7062   3.473   3.115   3.866
 2055SOL     OW 7063   3.288   2.254   5.761
 2055SOL    HW1 7064   3.190   2.267   5.776
 2055SOL    HW2 7065   3.303   2.167   5.715
 2056SOL     OW 7066   4.118   4.750   1.202
 2056SOL    HW1 7067   4.109   4.693   1.283
 2056SOL    HW2 7068   4.027   4.774   1.168
 2057SOL     OW 7069   5.893   2.427   4.389
 2057SOL    HW1 7070   5.849   2.439   4.478
 2057SOL    HW2 7071   5.824   2.437   4.317
 2058SOL     OW 7072   6.873   5.961   2.936
 2058SOL    HW1 7073   6.924   5.889   2.889
 2058SOL    HW2 7074   6.776   5.955   2.911
 2059SOL     OW 7075   2.121   0.510   6.235
 2059SOL    HW1 7076   2.062   0.522   6.315
 2059SOL    HW2 7077   2.217   0.516   6.263
 2060SOL     OW 7078   1.810   3.086   6.551
 2060SOL    HW1 7079   1.720   3.079   6.594
 2060SOL    HW2 7080   1.817   3.019   6.477
 2061SOL     OW 7081   1.832   2.595   2.113
 2061SOL    HW1 7082   1.746   2.582   2.064
 2061SOL    HW2 7083   1.816   2.589   2.212
 2062SOL     OW 7084   7.004   5.019   4.569
 2062SOL    HW1 7085   0.032   5.044   4.653
 2062SOL    HW2 7086   6.910   5.053   4.573
 2063SOL     OW 7087   0.556   0.695   4.701
 2063SOL    HW1 7088   0.507   0.756   4.638
 2063SOL    HW2 7089   0.548   0.601   4.669
 2064SOL     OW 7090   0.683   3.062   3.504
 2064SOL    HW1 7091   0.686   3.018   3.415
 2064SOL    HW2 7092   0.760   3.031   3.560
 2065SOL     OW 7093   4.150   2.974   5.570
 2065SOL    HW1 7094   4.107   2.931   5.490
 2065SOL    HW2 7095   4.188   3.063   5.544
 2066SOL     OW 7096   6.492   3.060   5.269
 2066SOL    HW1 7097   6.491   3.148   5.317
 2066SOL    HW2 7098   6.556   3.065   5.193
 2067SOL     OW 7099   6.024   5.514   1.308
 2067SOL    HW1 7100   6.113   5.499   1.265
 2067SOL    HW2 7101   6.008   5.443   1.377
 2068SOL     OW 7102   4.188   0.672   4.507
 2068SOL    HW1 7103   4.164   0.583   4.547
 2068SOL    HW2 7104   4.258   0.658   4.436
 2069SOL     OW 7105   0.492   3.054   3.729
 2069SOL    HW1 7106   0.467   3.137   3.779
 2069SOL    HW2 7107   0.552   2.998   3.786
 2070SOL     OW 7108   1.057   4.723   0.767
 2070SOL    HW1 7109   1.154   4.701   0.757
 2070SOL    HW2 7110   1.046   4.822   0.771
 2071SOL     OW 7111   6.891   1.355   5.998
 2071SOL    HW1 7112   6.962   1.424   5.983
 2071SOL    HW2 7113   6.809   1.379   5.946
 2072SOL     OW 7114   4.265   4.415   5.451
 2072SOL    HW1 7115   4.234   4.438   5.359
 2072SOL    HW2 7116   4.241   4.319   5.471
 2073SOL     OW 7117   2.988   5.632   6.522
 2073SOL    HW1 7118   3.003   5.730   6.539
 2073SOL    HW2 7119   2.895   5.618   6.488
 2074SOL     OW 7120   0.774   4.355   6.041
 2074SOL    HW1 7121   0.867   4.324   6.057
 2074SOL    HW2 7122   0.737   4.308   5.960
 2075SOL     OW 7123   6.681   1.695   1.400
 2075SOL    HW1 7124   6.670   1.608   1.449
 2075SOL    HW2 7125   6.599   1.750   1.412
 2076SOL     OW 7126   6.227   6.860   4.924
 2076SOL    HW1 7127   6.312   6.849   4.872
 2076SOL    HW2 7128   6.149   6.848   4.863
 2077SOL     OW 7129   6.439   4.249   0.333
 2077SOL    HW1 7130   6.481   4.193   0.406
 2077SOL    HW2 7131   6.493   4.332   0.321
 2078SOL     OW 7132   0.868   3.003   5.827
 2078SOL    HW1 7133   0.906   2.910   5.831
 2078SOL    HW2 7134   0.819   3.015   5.741
 2079SOL     OW 7135   4.853   2.058   2.216
 2079SOL    HW1 7136   4.945   2.027   2.240
 2079SOL    HW2 7137   4.838   2.043   2.118
 2080SOL     OW 7138   2.511   3.202   5.883
 2080SOL    HW1 7139   2.474   3.176   5.972
 2080SOL    HW2 7140   2.540   3.120   5.833
 2081SOL     OW 7141   5.516   6.217   2.655
 2081SOL    HW1 7142   5.482   6.150   2.588
 2081SOL    HW2 7143   5.538   6.170   2.740
 2082SOL     OW 7144   6.761   5.967   3.804
 2082SOL    HW1 7145   6.771   5.870   3.784
 2082SOL    HW2 7146   6.792   5.985   3.897
 2083SOL     OW 7147   0.915   6.432   4.432
 2083SOL    HW1 7148   0.817   6.454   4.428
 2083SOL    HW2 7149   0.928   6.335   4.409
 2084SOL     OW 7150   6.018   1.958   1.737
 2084SOL    HW1 7151   5.928   1.998   1.718
 2084SOL    HW2 7152   6.041   1.894   1.663
 2085SOL     OW 7153   5.266   5.708   0.662
 2085SOL    HW1 7154   5.258   5.798   0.705
 2085SOL    HW2 7155   5.343   5.658   0.703
 2086SOL     OW 7156   4.405   0.827   6.891
 2086SOL    HW1 7157   4.396   0.858   6.796
 2086SOL    HW2 7158   4.374   0.733   6.899
 2087SOL     OW 7159   3.768   1.579   6.636
 2087SOL    HW1 7160   3.768   1.649   6.707
 2087SOL    HW2 7161   3.842   1.596   6.572
 2088SOL     OW 7162   1.045   5.773   5.999
 2088SOL    HW1 7163   0.991   5.693   6.024
 2088SOL    HW2 7164   1.140   5.759   6.029
 2089SOL     OW 7165   2.644   3.818   0.137
 2089SOL    HW1 7166   2.703   3.861   0.205
 2089SOL    HW2 7167   2.639   3.719   0.154
 2090SOL     OW 7168   4.797   3.204   5.740
 2090SOL    HW1 7169   4.708   3.239   5.711
 2090SOL    HW2 7170   4.783   3.131   5.806
 2091SOL     OW 7171   5.496   6.034   2.117
 2091SOL    HW1 7172   5.547   5.951   2.099
 2091SOL    HW2 7173   5.515   6.101   2.045
 2092SOL     OW 7174   4.615   3.546   1.711
 2092SOL    HW1 7175   4.666   3.527   1.627
 2092SOL    HW2 7176   4.541   3.480   1.721
 2093SOL     OW 7177   3.465   0.976   2.177
 2093SOL    HW1 7178   3.480   1.012   2.085
 2093SOL    HW2 7179   3.402   0.899   2.172
 2094SOL     OW 7180   5.221   2.231   6.398
 2094SOL    HW1 7181   5.237   2.284   6.314
 2094SOL    HW2 7182   5.306   2.185   6.425
 2095SOL     OW 7183   5.341   5.962   3.511
 2095SOL    HW1 7184   5.284   6.021   3.568
 2095SOL    HW2 7185   5.283   5.902   3.456
 2096SOL     OW 7186   4.973   6.949   2.291
 2096SOL    HW1 7187   5.008   6.856   2.302
 2096SOL    HW2 7188   4.882   6.955   2.333
 2097SOL     OW 7189   1.094   5.522   6.267
 2097SOL    HW1 7190   1.022   5.580   6.303
 2097SOL    HW2 7191   1.094   5.434   6.315
 2098SOL     OW 7192   2.944   6.012   3.576
 2098SOL    HW1 7193   2.922   5.917   3.599
 2098SOL    HW2 7194   2.935   6.025   3.477
 2099SOL     OW 7195   4.995   1.583   6.228
 2099SOL    HW1 7196   5.058   1.516   6.268
 2099SOL    HW2 7197   5.032   1.617   6.142
 2100SOL     OW 7198   5.197   0.108   1.318
 2100SOL    HW1 7199   5.258   0.161   1.378
 2100SOL    HW2 7200   5.228   0.117   1.224
 2101SOL     OW 7201   0.175   6.935   1.955
 2101SOL    HW1 7202   0.086   6.943   2.001
 2101SOL    HW2 7203   0.198   6.839   1.943
 2102SOL     OW 7204   3.465   2.606   0.743
 2102SOL    HW1 7205   3.406   2.685   0.726
 2102SOL    HW2 7206   3.491   2.604   0.840
 2103SOL     OW 7207   2.791   5.993   0.574
 2103SOL    HW1 7208   2.747   6.063   0.518
 2103SOL    HW2 7209   2.888   5.986   0.550
 2104SOL     OW 7210   1.532   4.843   2.926
 2104SOL    HW1 7211   1.534   4.845   2.826
 2104SOL    HW2 7212   1.576   4.760   2.959
 2105SOL     OW 7213   6.132   4.837   5.237
 2105SOL    HW1 7214   6.200   4.907   5.258
 2105SOL    HW2 7215   6.168   4.776   5.166
 2106SOL     OW 7216   4.316   3.464   0.895
 2106SOL    HW1 7217   4.309   3.433   0.989
 2106SOL    HW2 7218   4.323   3.385   0.834
 2107SOL     OW 7219   4.878   4.631   5.451
 2107SOL    HW1 7220   4.945   4.585   5.392
 2107SOL    HW2 7221   4.921   4.712   5.492
 2108SOL     OW 7222   5.361   0.530   5.806
 2108SOL    HW1 7223   5.334   0.477   5.726
 2108SOL    HW2 7224   5.281   0.574   5.846
 2109SOL     OW 7225   2.885   6.730   2.830
 2109SOL    HW1 7226   2.824   6.807   2.810
 2109SOL    HW2 7227   2.980   6.761   2.825
 2110SOL     OW 7228   3.974   6.823   7.017
 2110SOL    HW1 7229   3.889   6.780   0.028
 2110SOL    HW2 7230   3.960   6.861   6.926
 2111SOL     OW 7231   0.656   2.291   5.670
 2111SOL    HW1 7232   0.705   2.377   5.686
 2111SOL    HW2 7233   0.604   2.266   5.752
 2112SOL     OW 7234   0.514   1.022   6.727
 2112SOL    HW1 7235   0.423   1.045   6.759
 2112SOL    HW2 7236   0.577   1.019   6.805
 2113SOL     OW 7237   0.548   0.591   4.941
 2113SOL    HW1 7238   0.554   0.621   4.845
 2113SOL    HW2 7239   0.498   0.659   4.994
 2114SOL     OW 7240   1.270   1.654   5.948
 2114SOL    HW1 7241   1.276   1.555   5.962
 2114SOL    HW2 7242   1.352   1.698   5.986
 2115SOL     OW 7243   6.386   6.383   2.971
 2115SOL    HW1 7244   6.469   6.329   2.984
 2115SOL    HW2 7245   6.372   6.442   3.051
 2116SOL     OW 7246   0.781   2.107   0.166
 2116SOL    HW1 7247   0.758   2.052   0.246
 2116SOL    HW2 7248   0.712   2.093   0.095
 2117SOL     OW 7249   6.413   1.354   2.095
 2117SOL    HW1 7250   6.364   1.438   2.068
 2117SOL    HW2 7251   6.362   1.274   2.063
 2118SOL     OW 7252   6.214   2.614   2.365
 2118SOL    HW1 7253   6.182   2.543   2.302
 2118SOL    HW2 7254   6.152   2.692   2.362
 2119SOL     OW 7255   1.851   1.402   0.278
 2119SOL    HW1 7256   1.763   1.385   0.234
 2119SOL    HW2 7257   1.907   1.320   0.273
 2120SOL     OW 7258   5.680   0.927   0.856
 2120SOL    HW1 7259   5.594   0.955   0.814
 2120SOL    HW2 7260   5.665   0.846   0.912
 2121SOL     OW 7261   1.175   0.425   6.804
 2121SOL    HW1 7262   1.181   0.419   6.904
 2121SOL    HW2 7263   1.267   0.420   6.765
 2122SOL     OW 7264   6.568   1.411   4.370
 2122SOL    HW1 7265   6.479   1.426   4.327
 2122SOL    HW2 7266   6.621   1.496   4.368
 2123SOL     OW 7267   1.549   5.339   2.742
 2123SOL    HW1 7268   1.542   5.403   2.818
 2123SOL    HW2 7269   1.639   5.348   2.699
 2124SOL     OW 7270   4.025   3.576   6.027
 2124SOL    HW1 7271   3.972   3.491   6.034
 2124SOL    HW2 7272   4.074   3.578   5.940
 2125SOL     OW 7273   1.998   5.810   3.765
 2125SOL    HW1 7274   1.925   5.877   3.750
 2125SOL    HW2 7275   2.023   5.808   3.861
 2126SOL     OW 7276   3.044   4.612   0.397
 2126SOL    HW1 7277   3.139   4.606   0.429
 2126SOL    HW2 7278   3.034   4.559   0.313
 2127SOL     OW 7279   0.310   2.318   4.306
 2127SOL    HW1 7280   0.320   2.372   4.390
 2127SOL    HW2 7281   0.377   2.243   4.306
 2128SOL     OW 7282   5.269   2.985   1.492
 2128SOL    HW1 7283   5.296   3.081   1.493
 2128SOL    HW2 7284   5.216   2.966   1.410
 2129SOL     OW 7285   5.308   4.446   4.177
 2129SOL    HW1 7286   5.298   4.416   4.271
 2129SOL    HW2 7287   5.229   4.417   4.124
 2130SOL     OW 7288   2.294   0.961   2.321
 2130SOL    HW1 7289   2.370   1.026   2.331
 2130SOL    HW2 7290   2.212   0.999   2.365
 2131SOL     OW 7291   5.618   0.825   4.898
 2131SOL    HW1 7292   5.552   0.847   4.825
 2131SOL    HW2 7293   5.704   0.874   4.881
 2132SOL     OW 7294   2.460   2.687   0.229
 2132SOL    HW1 7295   2.402   2.763   0.260
 2132SOL    HW2 7296   2.550   2.722   0.205
 2133SOL     OW 7297   3.010   2.087   1.517
 2133SOL    HW1 7298   2.993   2.160   1.584
 2133SOL    HW2 7299   3.108   2.068   1.513
 2134SOL     OW 7300   1.781   6.088   4.820
 2134SOL    HW1 7301   1.808   6.116   4.728
 2134SOL    HW2 7302   1.863   6.068   4.874
 2135SOL     OW 7303   1.535   0.699   4.243
 2135SOL    HW1 7304   1.444   0.678   4.278
 2135SOL    HW2 7305   1.553   0.796   4.253
 2136SOL     OW 7306   0.725   4.002   3.748
 2136SOL    HW1 7307   0.735   4.100   3.731
 2136SOL    HW2 7308   0.761   3.950   3.670
 2137SOL     OW 7309   0.946   0.603   5.296
 2137SOL    HW1 7310   0.974   0.654   5.377
 2137SOL    HW2 7311   0.852   0.629   5.271
 2138SOL     OW 7312   0.726   2.870   0.160
 2138SOL    HW1 7313   0.769   2.824   0.238
 2138SOL    HW2 7314   0.795   2.923   0.111
 2139SOL     OW 7315   2.917   1.322   5.180
 2139SOL    HW1 7316   3.000   1.375   5.196
 2139SOL    HW2 7317   2.936   1.249   5.115
 2140SOL     OW 7318   1.985   5.829   3.097
 2140SOL    HW1 7319   1.902   5.779   3.070
 2140SOL    HW2 7320   2.017   5.794   3.186
 2141SOL     OW 7321   5.862   1.512   0.316
 2141SOL    HW1 7322   5.911   1.532   0.231
 2141SOL    HW2 7323   5.867   1.591   0.377
 2142SOL     OW 7324   2.576   2.118   3.238
 2142SOL    HW1 7325   2.605   2.073   3.154
 2142SOL    HW2 7326   2.611   2.211   3.240
 2143SOL     OW 7327   3.838   6.799   0.407
 2143SOL    HW1 7328   3.931   6.787   0.373
 2143SOL    HW2 7329   3.776   6.812   0.330
 2144SOL     OW 7330   6.758   1.120   3.259
 2144SOL    HW1 7331   6.740   1.039   3.202
 2144SOL    HW2 7332   6.766   1.092   3.354
 2145SOL     OW 7333   3.811   5.707   3.002
 2145SOL    HW1 7334   3.874   5.741   3.073
 2145SOL    HW2 7335   3.837   5.614   2.977
 2146SOL     OW 7336   3.623   2.903   2.173
 2146SOL    HW1 7337   3.618   2.968   2.097
 2146SOL    HW2 7338   3.576   2.818   2.147
 2147SOL     OW 7339   0.736   0.895   4.977
 2147SOL    HW1 7340   0.754   0.879   5.074
 2147SOL    HW2 7341   0.822   0.886   4.926
 2148SOL     OW 7342   5.021   3.059   3.413
 2148SOL    HW1 7343   5.103   3.085   3.463
 2148SOL    HW2 7344   4.977   3.140   3.376
 2149SOL     OW 7345   3.116   0.983   3.245
 2149SOL    HW1 7346   3.054   0.915   3.284
 2149SOL    HW2 7347   3.091   1.074   3.277
 2150SOL     OW 7348   3.678   1.757   2.265
 2150SOL    HW1 7349   3.618   1.713   2.332
 2150SOL    HW2 7350   3.702   1.849   2.297
 2151SOL     OW 7351   4.052   2.961   5.852
 2151SOL    HW1 7352   4.082   2.956   5.757
 2151SOL    HW2 7353   4.038   3.057   5.878
 2152SOL     OW 7354   6.862   5.811   1.648
 2152SOL    HW1 7355   6.904   5.797   1.737
 2152SOL    HW2 7356   6.779   5.757   1.641
 2153SOL     OW 7357   4.944   2.813   3.344
 2153SOL    HW1 7358   4.966   2.901   3.387
 2153SOL    HW2 7359   5.028   2.765   3.321
 2154SOL     OW 7360   4.851   5.996   5.016
 2154SOL    HW1 7361   4.932   6.055   5.010
 2154SOL    HW2 7362   4.803   6.014   5.102
 2155SOL     OW 7363   6.745   3.570   0.194
 2155SOL    HW1 7364   6.739   3.611   0.284
 2155SOL    HW2 7365   6.680   3.495   0.187
 2156SOL     OW 7366   1.158   1.159   1.486
 2156SOL    HW1 7367   1.196   1.067   1.475
 2156SOL    HW2 7368   1.220   1.226   1.445
 2157SOL     OW 7369   0.649   1.303   4.672
 2157SOL    HW1 7370   0.590   1.380   4.696
 2157SOL    HW2 7371   0.713   1.332   4.601
 2158SOL     OW 7372   4.478   6.412   2.565
 2158SOL    HW1 7373   4.459   6.316   2.585
 2158SOL    HW2 7374   4.414   6.470   2.615
 2159SOL     OW 7375   2.323   5.942   4.179
 2159SOL    HW1 7376   2.373   5.883   4.243
 2159SOL    HW2 7377   2.388   6.000   4.129
 2160SOL     OW 7378   3.108   3.692   0.579
 2160SOL    HW1 7379   3.011   3.674   0.565
 2160SOL    HW2 7380   3.132   3.779   0.535
 2161SOL     OW 7381   5.561   2.507   3.674
 2161SOL    HW1 7382   5.552   2.528   3.576
 2161SOL    HW2 7383   5.554   2.592   3.726
 2162SOL     OW 7384   0.862   1.664   0.131
 2162SOL    HW1 7385   0.773   1.627   0.156
 2162SOL    HW2 7386   0.863   1.686   0.033
 2163SOL     OW 7387   2.001   2.175   0.172
 2163SOL    HW1 7388   2.080   2.133   0.128
 2163SOL    HW2 7389   2.000   2.273   0.154
 2164SOL     OW 7390   0.993   6.976   1.571
 2164SOL    HW1 7391   1.062   0.008   1.520
 2164SOL    HW2 7392   1.017   6.879   1.569
 2165SOL     OW 7393   2.832   6.676   1.656
 2165SOL    HW1 7394   2.743   6.688   1.700
 2165SOL    HW2 7395   2.855   6.579   1.652
 2166SOL     OW 7396   6.601   1.974   6.934
 2166SOL    HW1 7397   6.691   1.993   6.973
 2166SOL    HW2 7398   6.604   1.988   6.835
 2167SOL     OW 7399   2.617   0.400   2.240
 2167SOL    HW1 7400   2.646   0.387   2.145
 2167SOL    HW2 7401   2.517   0.407   2.244
 2168SOL     OW 7402   5.930   5.779   4.624
 2168SOL    HW1 7403   6.026   5.801   4.640
 2168SOL    HW2 7404   5.916   5.759   4.527
 2169SOL     OW 7405   4.967   2.276   5.206
 2169SOL    HW1 7406   4.977   2.375   5.191
 2169SOL    HW2 7407   4.894   2.260   5.271
 2170SOL     OW 7408   4.921   4.769   4.317
 2170SOL    HW1 7409   4.942   4.672   4.318
 2170SOL    HW2 7410   4.920   4.802   4.222
 2171SOL     OW 7411   0.259   2.331   0.240
 2171SOL    HW1 7412   0.219   2.421   0.260
 2171SOL    HW2 7413   0.263   2.319   0.140
 2172SOL     OW 7414   2.978   0.652   0.694
 2172SOL    HW1 7415   2.972   0.559   0.729
 2172SOL    HW2 7416   3.067   0.692   0.720
 2173SOL     OW 7417   5.217   0.885   5.256
 2173SOL    HW1 7418   5.310   0.911   5.229
 2173SOL    HW2 7419   5.218   0.856   5.352
 2174SOL     OW 7420   1.309   5.576   4.385
 2174SOL    HW1 7421   1.364   5.629   4.320
 2174SOL    HW2 7422   1.370   5.533   4.452
 2175SOL     OW 7423   2.654   6.156   5.341
 2175SOL    HW1 7424   2.627   6.253   5.339
 2175SOL    HW2 7425   2.575   6.100   5.316
 2176SOL     OW 7426   1.706   2.076   2.242
 2176SOL    HW1 7427   1.794   2.049   2.202
 2176SOL    HW2 7428   1.664   2.147   2.186
 2177SOL     OW 7429   6.382   1.654   1.644
 2177SOL    HW1 7430   6.390   1.725   1.574
 2177SOL    HW2 7431   6.472   1.619   1.668
 2178SOL     OW 7432   0.737   5.183   0.512
 2178SOL    HW1 7433   0.805   5.213   0.445
 2178SOL    HW2 7434   0.780   5.121   0.577
 2179SOL     OW 7435   1.109   4.634   3.533
 2179SOL    HW1 7436   1.079   4.700   3.465
 2179SOL    HW2 7437   1.143   4.682   3.614
 2180SOL     OW 7438   4.039   3.180   2.317
 2180SOL    HW1 7439   3.994   3.239   2.250
 2180SOL    HW2 7440   3.990   3.093   2.324
 2181SOL     OW 7441   4.984   6.209   6.713
 2181SOL    HW1 7442   4.964   6.139   6.644
 2181SOL    HW2 7443   4.951   6.298   6.681
 2182SOL     OW 7444   6.085   2.273   0.165
 2182SOL    HW1 7445   6.053   2.297   0.257
 2182SOL    HW2 7446   6.031   2.324   0.097
 2183SOL     OW 7447   2.769   3.053   0.470
 2183SOL    HW1 7448   2.846   2.990   0.470
 2183SOL    HW2 7449   2.802   3.146   0.454
 2184SOL     OW 7450   4.115   3.039   6.185
 2184SOL    HW1 7451   4.155   2.949   6.174
 2184SOL    HW2 7452   4.017   3.034   6.167
 2185SOL     OW 7453   1.798   1.352   1.026
 2185SOL    HW1 7454   1.736   1.370   0.950
 2185SOL    HW2 7455   1.820   1.254   1.029
 2186SOL     OW 7456   0.170   5.578   2.598
 2186SOL    HW1 7457   0.247   5.639   2.615
 2186SOL    HW2 7458   0.096   5.629   2.555
 2187SOL     OW 7459   0.445   1.080   6.160
 2187SOL    HW1 7460   0.469   1.102   6.255
 2187SOL    HW2 7461   0.460   0.983   6.143
 2188SOL     OW 7462   5.420   0.463   2.912
 2188SOL    HW1 7463   5.371   0.491   2.995
 2188SOL    HW2 7464   5.472   0.381   2.931
 2189SOL     OW 7465   2.712   0.599   6.746
 2189SOL    HW1 7466   2.699   0.620   6.649
 2189SOL    HW2 7467   2.626   0.611   6.795
 2190SOL     OW 7468   4.983   1.807   1.660
 2190SOL    HW1 7469   5.076   1.784   1.632
 2190SOL    HW2 7470   4.975   1.802   1.760
 2191SOL     OW 7471   2.792   1.821   0.593
 2191SOL    HW1 7472   2.873   1.855   0.544
 2191SOL    HW2 7473   2.813   1.733   0.634
 2192SOL     OW 7474   4.199   5.710   4.770
 2192SOL    HW1 7475   4.274   5.674   4.714
 2192SOL    HW2 7476   4.113   5.665   4.745
 2193SOL     OW 7477   0.384   4.838   5.857
 2193SOL    HW1 7478   0.317   4.781   5.904
 2193SOL    HW2 7479   0.418   4.908   5.920
 2194SOL     OW 7480   2.660   0.482   1.486
 2194SOL    HW1 7481   2.634   0.425   1.564
 2194SOL    HW2 7482   2.582   0.488   1.423
 2195SOL     OW 7483   1.426   4.449   2.509
 2195SOL    HW1 7484   1.365   4.528   2.510
 2195SOL    HW2 7485   1.416   4.399   2.595
 2196SOL     OW 7486   3.712   3.280   6.888
 2196SOL    HW1 7487   3.618   3.260   6.862
 2196SOL    HW2 7488   3.733   3.234   6.975
 2197SOL     OW 7489   4.450   4.295   0.341
 2197SOL    HW1 7490   4.404   4.383   0.327
 2197SOL    HW2 7491   4.533   4.310   0.396
 2198SOL     OW 7492   6.157   4.659   0.455
 2198SOL    HW1 7493   6.206   4.645   0.541
 2198SOL    HW2 7494   6.199   4.605   0.383
 2199SOL     OW 7495   4.361   0.622   1.869
 2199SOL    HW1 7496   4.337   0.530   1.837
 2199SOL    HW2 7497   4.434   0.659   1.811
 2200SOL     OW 7498   2.810   0.254   4.278
 2200SOL    HW1 7499   2.848   0.312   4.351
 2200SOL    HW2 7500   2.818   0.158   4.304
 2201SOL     OW 7501   4.799   4.112   2.052
 2201SOL    HW1 7502   4.708   4.153   2.042
 2201SOL    HW2 7503   4.857   4.172   2.107
 2202SOL     OW 7504   4.471   6.177   3.182
 2202SOL    HW1 7505   4.543   6.108   3.169
 2202SOL    HW2 7506   4.498   6.241   3.254
 2203SOL     OW 7507   3.195   1.712   2.743
 2203SOL    HW1 7508   3.160   1.805   2.732
 2203SOL    HW2 7509   3.121   1.647   2.727
 2204SOL     OW 7510   2.766   2.862   0.819
 2204SOL    HW1 7511   2.794   2.840   0.725
 2204SOL    HW2 7512   2.672   2.831   0.834
 2205SOL     OW 7513   2.638   0.296   0.051
 2205SOL    HW1 7514   2.724   0.295   0.000
 2205SOL    HW2 7515   2.604   0.202   0.059
 2206SOL     OW 7516   2.245   2.980   6.337
 2206SOL    HW1 7517   2.344   2.989   6.329
 2206SOL    HW2 7518   2.220   2.884   6.335
 2207SOL     OW 7519   0.977   4.479   5.001
 2207SOL    HW1 7520   1.017   4.557   5.050
 2207SOL    HW2 7521   0.888   4.505   4.964
 2208SOL     OW 7522   0.679   4.171   1.898
 2208SOL    HW1 7523   0.598   4.183   1.841
 2208SOL    HW2 7524   0.761   4.190   1.843
 2209SOL     OW 7525   1.147   6.021   0.906
 2209SOL    HW1 7526   1.134   6.118   0.927
 2209SOL    HW2 7527   1.062   5.983   0.869
 2210SOL     OW 7528   1.160   5.824   4.371
 2210SOL    HW1 7529   1.170   5.877   4.455
 2210SOL    HW2 7530   1.210   5.737   4.381
 2211SOL     OW 7531   6.588   0.817   6.191
 2211SOL    HW1 7532   6.554   0.909   6.214
 2211SOL    HW2 7533   6.653   0.788   6.261
 2212SOL     OW 7534   1.687   0.066   6.331
 2212SOL    HW1 7535   1.735   0.154   6.337
 2212SOL    HW2 7536   1.589   0.082   6.332
 2213SOL     OW 7537   2.897   0.858   3.373
 2213SOL    HW1 7538   2.812   0.854   3.320
 2213SOL    HW2 7539   2.887   0.923   3.448
 2214SOL     OW 7540   4.651   0.363   5.056
 2214SOL    HW1 7541   4.686   0.276   5.020
 2214SOL    HW2 7542   4.586   0.344   5.130
 2215SOL     OW 7543   5.667   3.431   5.222
 2215SOL    HW1 7544   5.726   3.357   5.255
 2215SOL    HW2 7545   5.589   3.392   5.172
 2216SOL     OW 7546   2.117   0.302   1.583
 2216SOL    HW1 7547   2.176   0.286   1.662
 2216SOL    HW2 7548   2.024   0.271   1.603
 2217SOL     OW 7549   4.720   0.855   1.751
 2217SOL    HW1 7550   4.629   0.814   1.745
 2217SOL    HW2 7551   4.766   0.846   1.663
 2218SOL     OW 7552   0.783   6.669   1.779
 2218SOL    HW1 7553   0.872   6.659   1.824
 2218SOL    HW2 7554   0.740   6.755   1.806
 2219SOL     OW 7555   1.359   2.220   2.615
 2219SOL    HW1 7556   1.265   2.203   2.584
 2219SOL    HW2 7557   1.385   2.314   2.594
 2220SOL     OW 7558   0.612   0.399   1.048
 2220SOL    HW1 7559   0.542   0.384   1.118
 2220SOL    HW2 7560   0.604   0.329   0.977
 2221SOL     OW 7561   0.004   1.580   0.334
 2221SOL    HW1 7562   0.022   1.678   0.345
 2221SOL    HW2 7563   0.091   1.533   0.318
 2222SOL     OW 7564   5.806   6.139   2.757
 2222SOL    HW1 7565   5.750   6.076   2.811
 2222SOL    HW2 7566   5.840   6.092   2.676
 2223SOL     OW 7567   5.600   5.089   1.537
 2223SOL    HW1 7568   5.658   5.045   1.606
 2223SOL    HW2 7569   5.631   5.064   1.446
 2224SOL     OW 7570   0.775   4.559   2.076
 2224SOL    HW1 7571   0.785   4.584   1.980
 2224SOL    HW2 7572   0.687   4.592   2.110
 2225SOL     OW 7573   6.739   4.845   0.818
 2225SOL    HW1 7574   6.733   4.775   0.890
 2225SOL    HW2 7575   6.743   4.800   0.729
 2226SOL     OW 7576   4.375   3.684   1.672
 2226SOL    HW1 7577   4.452   3.632   1.635
 2226SOL    HW2 7578   4.388   3.781   1.652
 2227SOL     OW 7579   0.917   3.347   3.884
 2227SOL    HW1 7580   0.919   3.255   3.923
 2227SOL    HW2 7581   0.954   3.345   3.791
 2228SOL     OW 7582   2.406   5.020   4.873
 2228SOL    HW1 7583   2.373   4.972   4.954
 2228SOL    HW2 7584   2.505   5.033   4.879
 2229SOL     OW 7585   5.348   0.598   3.159
 2229SOL    HW1 7586   5.347   0.582   3.258
 2229SOL    HW2 7587   5.256   0.622   3.129
 2230SOL     OW 7588   2.132   5.447   0.825
 2230SOL    HW1 7589   2.206   5.512   0.808
 2230SOL    HW2 7590   2.130   5.424   0.922
 2231SOL     OW 7591   3.087   5.906   1.237
 2231SOL    HW1 7592   3.169   5.935   1.288
 2231SOL    HW2 7593   3.021   5.980   1.235
 2232SOL     OW 7594   6.461   3.004   3.404
 2232SOL    HW1 7595   6.553   2.966   3.399
 2232SOL    HW2 7596   6.394   2.932   3.390
 2233SOL     OW 7597   2.981   1.747   0.093
 2233SOL    HW1 7598   2.959   1.697   0.177
 2233SOL    HW2 7599   2.896   1.769   0.045
 2234SOL     OW 7600   2.896   2.445   0.803
 2234SOL    HW1 7601   2.987   2.485   0.793
 2234SOL    HW2 7602   2.884   2.412   0.896
 2235SOL     OW 7603   1.872   0.045   1.220
 2235SOL    HW1 7604   1.961   0.030   1.261
 2235SOL    HW2 7605   1.805   0.068   1.291
 2236SOL     OW 7606   6.566   3.886   6.591
 2236SOL    HW1 7607   6.580   3.861   6.687
 2236SOL    HW2 7608   6.654   3.909   6.550
 2237SOL     OW 7609   6.371   2.062   4.061
 2237SOL    HW1 7610   6.409   2.137   4.115
 2237SOL    HW2 7611   6.425   2.052   3.977
 2238SOL     OW 7612   0.328   5.748   2.058
 2238SOL    HW1 7613   0.271   5.699   1.992
 2238SOL    HW2 7614   0.384   5.683   2.109
 2239SOL     OW 7615   5.499   5.168   2.979
 2239SOL    HW1 7616   5.470   5.074   2.994
 2239SOL    HW2 7617   5.435   5.230   3.025
 2240SOL     OW 7618   5.566   4.007   2.565
 2240SOL    HW1 7619   5.499   4.025   2.492
 2240SOL    HW2 7620   5.520   4.010   2.654
 2241SOL     OW 7621   0.853   6.855   2.378
 2241SOL    HW1 7622   0.789   6.883   2.306
 2241SOL    HW2 7623   0.826   6.766   2.414
 2242SOL     OW 7624   4.919   2.996   2.810
 2242SOL    HW1 7625   4.905   2.917   2.870
 2242SOL    HW2 7626   4.841   3.007   2.749
 2243SOL     OW 7627   2.825   6.072   5.510
 2243SOL    HW1 7628   2.754   6.083   5.440
 2243SOL    HW2 7629   2.910   6.113   5.479
 2244SOL     OW 7630   2.657   1.039   5.107
 2244SOL    HW1 7631   2.628   1.115   5.165
 2244SOL    HW2 7632   2.693   0.965   5.163
 2245SOL     OW 7633   0.196   1.733   2.122
 2245SOL    HW1 7634   0.184   1.819   2.072
 2245SOL    HW2 7635   0.162   1.657   2.067
 2246SOL     OW 7636   1.192   4.242   4.266
 2246SOL    HW1 7637   1.210   4.214   4.360
 2246SOL    HW2 7638   1.159   4.163   4.213
 2247SOL     OW 7639   1.840   1.754   5.751
 2247SOL    HW1 7640   1.900   1.801   5.815
 2247SOL    HW2 7641   1.893   1.689   5.696
 2248SOL     OW 7642   4.733   4.343   5.534
 2248SOL    HW1 7643   4.763   4.431   5.570
 2248SOL    HW2 7644   4.760   4.335   5.438
 2249SOL     OW 7645   4.439   5.686   4.585
 2249SOL    HW1 7646   4.404   5.608   4.532
 2249SOL    HW2 7647   4.434   5.768   4.529
 2250SOL     OW 7648   5.196   5.765   0.346
 2250SOL    HW1 7649   5.172   5.794   0.439
 2250SOL    HW2 7650   5.112   5.744   0.296
 2251SOL     OW 7651   0.226   0.816   6.711
 2251SOL    HW1 7652   0.169   0.786   6.634
 2251SOL    HW2 7653   0.318   0.778   6.701
 2252SOL     OW 7654   3.067   1.185   5.710
 2252SOL    HW1 7655   3.091   1.177   5.613
 2252SOL    HW2 7656   2.975   1.223   5.719
 2253SOL     OW 7657   1.575   2.338   5.743
 2253SOL    HW1 7658   1.573   2.400   5.665
 2253SOL    HW2 7659   1.518   2.258   5.723
 2254SOL     OW 7660   1.669   3.668   6.121
 2254SOL    HW1 7661   1.659   3.570   6.136
 2254SOL    HW2 7662   1.751   3.686   6.067
 2255SOL     OW 7663   5.247   1.987   0.840
 2255SOL    HW1 7664   5.247   1.916   0.770
 2255SOL    HW2 7665   5.212   1.949   0.926
 2256SOL     OW 7666   3.545   5.228   1.860
 2256SOL    HW1 7667   3.479   5.167   1.903
 2256SOL    HW2 7668   3.501   5.315   1.839
 2257SOL     OW 7669   1.892   3.669   3.848
 2257SOL    HW1 7670   1.883   3.709   3.757
 2257SOL    HW2 7671   1.925   3.738   3.912
 2258SOL     OW 7672   2.570   5.602   4.864
 2258SOL    HW1 7673   2.644   5.534   4.866
 2258SOL    HW2 7674   2.570   5.647   4.775
 2259SOL     OW 7675   5.621   3.302   6.154
 2259SOL    HW1 7676   5.677   3.222   6.171
 2259SOL    HW2 7677   5.584   3.336   6.241
 2260SOL     OW 7678   4.921   4.223   0.903
 2260SOL    HW1 7679   4.995   4.247   0.964
 2260SOL    HW2 7680   4.923   4.125   0.884
 2261SOL     OW 7681   4.101   6.541   5.678
 2261SOL    HW1 7682   4.186   6.490   5.667
 2261SOL    HW2 7683   4.061   6.521   5.767
 2262SOL     OW 7684   3.659   1.561   3.575
 2262SOL    HW1 7685   3.623   1.477   3.534
 2262SOL    HW2 7686   3.643   1.559   3.674
 2263SOL     OW 7687   6.930   3.878   6.295
 2263SOL    HW1 7688   6.874   3.928   6.228
 2263SOL    HW2 7689   6.986   3.811   6.247
 2264SOL     OW 7690   4.137   3.487   3.885
 2264SOL    HW1 7691   4.220   3.517   3.839
 2264SOL    HW2 7692   4.152   3.397   3.926
 2265SOL     OW 7693   6.964   0.542   2.596
 2265SOL    HW1 7694   6.959   0.448   2.562
 2265SOL    HW2 7695   0.040   0.571   2.600
 2266SOL     OW 7696   6.005   6.981   6.949
 2266SOL    HW1 7697   6.076   6.917   6.980
 2266SOL    HW2 7698   5.957   6.943   6.870
 2267SOL     OW 7699   5.490   1.322   5.733
 2267SOL    HW1 7700   5.460   1.299   5.825
 2267SOL    HW2 7701   5.436   1.399   5.699
 2268SOL     OW 7702   6.276   5.242   0.364
 2268SOL    HW1 7703   6.289   5.337   0.389
 2268SOL    HW2 7704   6.188   5.209   0.399
 2269SOL     OW 7705   0.339   5.612   4.880
 2269SOL    HW1 7706   0.419   5.648   4.927
 2269SOL    HW2 7707   0.355   5.516   4.856
 2270SOL     OW 7708   4.208   3.465   1.870
 2270SOL    HW1 7709   4.288   3.470   1.810
 2270SOL    HW2 7710   4.166   3.556   1.876
 2271SOL     OW 7711   6.933   4.385   3.154
 2271SOL    HW1 7712   6.868   4.341   3.092
 2271SOL    HW2 7713   6.937   4.483   3.135
 2272SOL     OW 7714   4.548   1.961   6.359
 2272SOL    HW1 7715   4.545   1.933   6.263
 2272SOL    HW2 7716   4.643   1.975   6.387
 2273SOL     OW 7717   0.528   1.772   3.968
 2273SOL    HW1 7718   0.607   1.777   4.030
 2273SOL    HW2 7719   0.445   1.795   4.018
 2274SOL     OW 7720   1.179   3.118   3.169
 2274SOL    HW1 7721   1.184   3.034   3.115
 2274SOL    HW2 7722   1.137   3.191   3.113
 2275SOL     OW 7723   4.923   6.703   3.678
 2275SOL    HW1 7724   4.871   6.680   3.596
 2275SOL    HW2 7725   4.924   6.802   3.690
 2276SOL     OW 7726   3.835   5.451   1.585
 2276SOL    HW1 7727   3.846   5.374   1.648
 2276SOL    HW2 7728   3.744   5.448   1.545
 2277SOL     OW 7729   2.862   3.611   0.465
 2277SOL    HW1 7730   2.771   3.569   0.465
 2277SOL    HW2 7731   2.929   3.545   0.432
 2278SOL     OW 7732   5.408   6.760   0.523
 2278SOL    HW1 7733   5.464   6.762   0.606
 2278SOL    HW2 7734   5.466   6.778   0.444
 2279SOL     OW 7735   4.850   4.706   4.727
 2279SOL    HW1 7736   4.771   4.743   4.679
 2279SOL    HW2 7737   4.837   4.609   4.745
 2280SOL     OW 7738   5.108   6.618   6.175
 2280SOL    HW1 7739   5.063   6.698   6.215
 2280SOL    HW2 7740   5.054   6.536   6.194
 2281SOL     OW 7741   2.447   3.059   0.569
 2281SOL    HW1 7742   2.484   3.032   0.480
 2281SOL    HW2 7743   2.521   3.066   0.636
 2282SOL     OW 7744   3.981   5.972   2.227
 2282SOL    HW1 7745   3.964   6.004   2.320
 2282SOL    HW2 7746   3.907   5.911   2.199
 2283SOL     OW 7747   0.200   3.912   2.567
 2283SOL    HW1 7748   0.104   3.915   2.594
 2283SOL    HW2 7749   0.257   3.937   2.646
 2284SOL     OW 7750   2.579   2.398   2.062
 2284SOL    HW1 7751   2.555   2.486   2.020
 2284SOL    HW2 7752   2.678   2.389   2.066
 2285SOL     OW 7753   1.628   4.320   0.027
 2285SOL    HW1 7754   1.613   4.417   0.042
 2285SOL    HW2 7755   1.563   4.267   0.081
 2286SOL     OW 7756   5.670   6.893   4.824
 2286SOL    HW1 7757   5.730   6.967   4.852
 2286SOL    HW2 7758   5.601   6.929   4.760
 2287SOL     OW 7759   2.381   3.090   1.707
 2287SOL    HW1 7760   2.450   3.088   1.634
 2287SOL    HW2 7761   2.325   3.172   1.697
 2288SOL     OW 7762   1.469   6.675   4.221
 2288SOL    HW1 7763   1.453   6.592   4.168
 2288SOL    HW2 7764   1.503   6.651   4.312
 2289SOL     OW 7765   4.526   2.094   0.525
 2289SOL    HW1 7766   4.463   2.162   0.487
 2289SOL    HW2 7767   4.475   2.030   0.582
 2290SOL     OW 7768   3.582   3.332   2.796
 2290SOL    HW1 7769   3.644   3.371   2.864
 2290SOL    HW2 7770   3.568   3.397   2.722
 2291SOL     OW 7771   0.958   2.370   0.120
 2291SOL    HW1 7772   0.905   2.319   0.188
 2291SOL    HW2 7773   0.905   2.446   0.085
 2292SOL     OW 7774   4.814   2.018   2.731
 2292SOL    HW1 7775   4.845   1.955   2.802
 2292SOL    HW2 7776   4.717   2.005   2.715
 2293SOL     OW 7777   0.853   0.589   0.275
 2293SOL    HW1 7778   0.875   0.570   0.179
 2293SOL    HW2 7779   0.768   0.543   0.300
 2294SOL     OW 7780   6.618   1.377   5.611
 2294SOL    HW1 7781   6.559   1.300   5.634
 2294SOL    HW2 7782   6.663   1.359   5.524
 2295SOL     OW 7783   5.587   6.415   1.090
 2295SOL    HW1 7784   5.614   6.511   1.091
 2295SOL    HW2 7785   5.532   6.397   1.008
 2296SOL     OW 7786   3.700   5.454   3.527
 2296SOL    HW1 7787   3.639   5.397   3.472
 2296SOL    HW2 7788   3.772   5.492   3.469
 2297SOL     OW 7789   4.447   3.951   5.335
 2297SOL    HW1 7790   4.532   4.002   5.333
 2297SOL    HW2 7791   4.389   3.984   5.409
 2298SOL     OW 7792   3.495   3.661   4.603
 2298SOL    HW1 7793   3.470   3.743   4.552
 2298SOL    HW2 7794   3.509   3.585   4.539
 2299SOL     OW 7795   6.035   3.254   5.018
 2299SOL    HW1 7796   6.106   3.185   5.033
 2299SOL    HW2 7797   6.017   3.302   5.104
 2300SOL     OW 7798   4.849   6.418   2.034
 2300SOL    HW1 7799   4.835   6.462   2.122
 2300SOL    HW2 7800   4.939   6.442   1.998
 2301SOL     OW 7801   3.597   3.005   4.773
 2301SOL    HW1 7802   3.516   2.947   4.770
 2301SOL    HW2 7803   3.641   3.005   4.683
 2302SOL     OW 7804   5.855   3.287   0.145
 2302SOL    HW1 7805   5.954   3.284   0.137
 2302SOL    HW2 7806   5.830   3.337   0.229
 2303SOL     OW 7807   3.151   1.785   6.828
 2303SOL    HW1 7808   3.089   1.770   6.905
 2303SOL    HW2 7809   3.227   1.843   6.858
 2304SOL     OW 7810   5.812   5.839   2.440
 2304SOL    HW1 7811   5.730   5.799   2.482
 2304SOL    HW2 7812   5.881   5.767   2.430
 2305SOL     OW 7813   2.759   0.291   4.637
 2305SOL    HW1 7814   2.768   0.200   4.596
 2305SOL    HW2 7815   2.849   0.324   4.665
 2306SOL     OW 7816   0.791   4.763   4.416
 2306SOL    HW1 7817   0.772   4.666   4.404
 2306SOL    HW2 7818   0.841   4.777   4.501
 2307SOL     OW 7819   6.674   3.067   6.188
 2307SOL    HW1 7820   6.616   3.137   6.229
 2307SOL    HW2 7821   6.757   3.109   6.152
 2308SOL     OW 7822   1.897   5.148   2.030
 2308SOL    HW1 7823   1.898   5.055   1.992
 2308SOL    HW2 7824   1.921   5.145   2.127
 2309SOL     OW 7825   1.680   0.199   5.336
 2309SOL    HW1 7826   1.581   0.187   5.322
 2309SOL    HW2 7827   1.695   0.272   5.402
 2310SOL     OW 7828   4.790   0.043   1.272
 2310SOL    HW1 7829   4.711   0.069   1.216
 2310SOL    HW2 7830   4.764   0.046   1.369
 2311SOL     OW 7831   3.199   5.270   1.344
 2311SOL    HW1 7832   3.256   5.289   1.264
 2311SOL    HW2 7833   3.194   5.171   1.358
 2312SOL     OW 7834   3.129   5.422   2.052
 2312SOL    HW1 7835   3.196   5.356   2.015
 2312SOL    HW2 7836   3.048   5.373   2.082
 2313SOL     OW 7837   5.379   5.840   1.403
 2313SOL    HW1 7838   5.307   5.908   1.417
 2313SOL    HW2 7839   5.384   5.816   1.306
 2314SOL     OW 7840   1.697   4.849   4.751
 2314SOL    HW1 7841   1.747   4.828   4.835
 2314SOL    HW2 7842   1.600   4.865   4.773
 2315SOL     OW 7843   4.013   2.769   6.843
 2315SOL    HW1 7844   4.048   2.697   6.783
 2315SOL    HW2 7845   4.035   2.858   6.805
 2316SOL     OW 7846   5.455   4.237   2.140
 2316SOL    HW1 7847   5.440   4.170   2.067
 2316SOL    HW2 7848   5.553   4.250   2.153
 2317SOL     OW 7849   0.138   4.925   3.314
 2317SOL    HW1 7850   0.165   4.952   3.406
 2317SOL    HW2 7851   0.204   4.859   3.278
 2318SOL     OW 7852   0.404   0.925   4.226
 2318SOL    HW1 7853   0.477   0.991   4.245
 2318SOL    HW2 7854   0.400   0.909   4.127
 2319SOL     OW 7855   0.719   4.598   3.247
 2319SOL    HW1 7856   0.714   4.541   3.165
 2319SOL    HW2 7857   0.775   4.552   3.316
 2320SOL     OW 7858   6.198   5.163   4.794
 2320SOL    HW1 7859   6.222   5.125   4.705
 2320SOL    HW2 7860   6.189   5.089   4.860
 2321SOL     OW 7861   2.947   5.141   5.041
 2321SOL    HW1 7862   2.944   5.211   4.970
 2321SOL    HW2 7863   2.997   5.062   5.008
 2322SOL     OW 7864   3.065   0.707   5.965
 2322SOL    HW1 7865   3.043   0.630   5.904
 2322SOL    HW2 7866   3.067   0.792   5.911
 2323SOL     OW 7867   5.201   4.295   2.002
 2323SOL    HW1 7868   5.214   4.231   1.926
 2323SOL    HW2 7869   5.275   4.283   2.069
 2324SOL     OW 7870   6.636   4.697   3.671
 2324SOL    HW1 7871   6.654   4.765   3.742
 2324SOL    HW2 7872   6.715   4.636   3.662
 2325SOL     OW 7873   6.867   2.811   0.400
 2325SOL    HW1 7874   6.799   2.744   0.433
 2325SOL    HW2 7875   6.898   2.867   0.476
 2326SOL     OW 7876   1.656   4.709   6.897
 2326SOL    HW1 7877   1.742   4.755   6.916
 2326SOL    HW2 7878   1.580   4.766   6.927
 2327SOL     OW 7879   5.423   1.680   4.331
 2327SOL    HW1 7880   5.344   1.737   4.355
 2327SOL    HW2 7881   5.442   1.689   4.233
 2328SOL     OW 7882   6.416   0.100   3.975
 2328SOL    HW1 7883   6.358   0.168   4.020
 2328SOL    HW2 7884   6.494   0.146   3.932
 2329SOL     OW 7885   6.673   5.997   3.511
 2329SOL    HW1 7886   6.668   6.090   3.475
 2329SOL    HW2 7887   6.753   5.990   3.572
 2330SOL     OW 7888   7.000   3.816   1.700
 2330SOL    HW1 7889   0.079   3.828   1.698
 2330SOL    HW2 7890   6.955   3.906   1.696
 2331SOL     OW 7891   0.578   4.536   5.577
 2331SOL    HW1 7892   0.586   4.437   5.585
 2331SOL    HW2 7893   0.482   4.562   5.583
 2332SOL     OW 7894   6.116   2.504   4.813
 2332SOL    HW1 7895   6.072   2.458   4.736
 2332SOL    HW2 7896   6.049   2.561   4.860
 2333SOL     OW 7897   1.698   4.894   3.953
 2333SOL    HW1 7898   1.768   4.851   4.011
 2333SOL    HW2 7899   1.616   4.910   4.007
 2334SOL     OW 7900   3.293   0.455   1.061
 2334SOL    HW1 7901   3.336   0.493   1.142
 2334SOL    HW2 7902   3.285   0.356   1.070
 2335SOL     OW 7903   4.139   5.485   3.961
 2335SOL    HW1 7904   4.238   5.492   3.970
 2335SOL    HW2 7905   4.115   5.391   3.936
 2336SOL     OW 7906   4.799   2.752   5.746
 2336SOL    HW1 7907   4.805   2.658   5.779
 2336SOL    HW2 7908   4.874   2.770   5.683
 2337SOL     OW 7909   5.644   0.401   3.607
 2337SOL    HW1 7910   5.645   0.466   3.531
 2337SOL    HW2 7911   5.569   0.336   3.594
 2338SOL     OW 7912   1.183   6.827   6.028
 2338SOL    HW1 7913   1.182   6.813   5.929
 2338SOL    HW2 7914   1.155   6.921   6.049
 2339SOL     OW 7915   3.868   4.880   6.345
 2339SOL    HW1 7916   3.773   4.852   6.360
 2339SOL    HW2 7917   3.874   4.933   6.260
 2340SOL     OW 7918   3.617   5.275   3.741
 2340SOL    HW1 7919   3.691   5.316   3.687
 2340SOL    HW2 7920   3.541   5.340   3.747
 2341SOL     OW 7921   6.525   5.236   6.732
 2341SOL    HW1 7922   6.600   5.186   6.688
 2341SOL    HW2 7923   6.541   5.237   6.831
 2342SOL     OW 7924   6.426   6.846   5.187
 2342SOL    HW1 7925   6.389   6.874   5.098
 2342SOL    HW2 7926   6.389   6.905   5.258
 2343SOL     OW 7927   0.882   6.726   0.250
 2343SOL    HW1 7928   0.808   6.776   0.296
 2343SOL    HW2 7929   0.958   6.713   0.314
 2344SOL     OW 7930   2.201   1.818   3.191
 2344SOL    HW1 7931   2.101   1.808   3.196
 2344SOL    HW2 7932   2.243   1.766   3.265
 2345SOL     OW 7933   1.851   1.237   3.704
 2345SOL    HW1 7934   1.875   1.146   3.671
 2345SOL    HW2 7935   1.760   1.234   3.746
 2346SOL     OW 7936   4.935   3.713   5.580
 2346SOL    HW1 7937   5.015   3.730   5.638
 2346SOL    HW2 7938   4.894   3.625   5.604
 2347SOL     OW 7939   1.313   3.199   1.474
 2347SOL    HW1 7940   1.289   3.223   1.568
 2347SOL    HW2 7941   1.279   3.269   1.412
 2348SOL     OW 7942   2.512   5.769   1.518
 2348SOL    HW1 7943   2.542   5.747   1.610
 2348SOL    HW2 7944   2.422   5.728   1.502
 2349SOL     OW 7945   4.831   4.913   6.029
 2349SOL    HW1 7946   4.910   4.974   6.020
 2349SOL    HW2 7947   4.861   4.818   6.020
 2350SOL     OW 7948   2.697   5.851   5.189
 2350SOL    HW1 7949   2.696   5.757   5.223
 2350SOL    HW2 7950   2.758   5.857   5.110
 2351SOL     OW 7951   2.163   5.902   3.551
 2351SOL    HW1 7952   2.091   5.879   3.616
 2351SOL    HW2 7953   2.246   5.928   3.600
 2352SOL     OW 7954   6.251   3.753   2.131
 2352SOL    HW1 7955   6.307   3.732   2.211
 2352SOL    HW2 7956   6.278   3.843   2.096
 2353SOL     OW 7957   2.908   3.559   5.935
 2353SOL    HW1 7958   2.825   3.503   5.933
 2353SOL    HW2 7959   2.981   3.511   5.885
 2354SOL     OW 7960   3.956   2.610   1.719
 2354SOL    HW1 7961   3.882   2.580   1.779
 2354SOL    HW2 7962   3.933   2.698   1.679
 2355SOL     OW 7963   6.413   0.510   1.165
 2355SOL    HW1 7964   6.483   0.473   1.226
 2355SOL    HW2 7965   6.394   0.444   1.092
 2356SOL     OW 7966   2.901   4.726   3.658
 2356SOL    HW1 7967   2.951   4.811   3.677
 2356SOL    HW2 7968   2.959   4.647   3.679
 2357SOL     OW 7969   6.452   4.804   1.094
 2357SOL    HW1 7970   6.539   4.756   1.085
 2357SOL    HW2 7971   6.452   4.885   1.034
 2358SOL     OW 7972   3.697   1.597   5.857
 2358SOL    HW1 7973   3.635   1.547   5.917
 2358SOL    HW2 7974   3.700   1.693   5.885
 2359SOL     OW 7975   1.944   1.428   5.763
 2359SOL    HW1 7976   1.974   1.514   5.724
 2359SOL    HW2 7977   1.940   1.358   5.691
 2360SOL     OW 7978   3.675   4.346   0.352
 2360SOL    HW1 7979   3.748   4.278   0.344
 2360SOL    HW2 7980   3.586   4.302   0.337
 2361SOL     OW 7981   4.508   5.853   1.634
 2361SOL    HW1 7982   4.489   5.883   1.728
 2361SOL    HW2 7983   4.607   5.844   1.622
 2362SOL     OW 7984   4.899   5.274   3.689
 2362SOL    HW1 7985   4.985   5.311   3.654
 2362SOL    HW2 7986   4.826   5.341   3.673
 2363SOL     OW 7987   2.250   3.793   0.693
 2363SOL    HW1 7988   2.172   3.736   0.668
 2363SOL    HW2 7989   2.221   3.888   0.700
 2364SOL     OW 7990   3.332   1.294   2.547
 2364SOL    HW1 7991   3.308   1.254   2.636
 2364SOL    HW2 7992   3.427   1.325   2.550
 2365SOL     OW 7993   5.042   3.757   3.423
 2365SOL    HW1 7994   4.999   3.743   3.512
 2365SOL    HW2 7995   4.974   3.789   3.358
 2366SOL     OW 7996   2.930   4.844   4.848
 2366SOL    HW1 7997   3.019   4.858   4.891
 2366SOL    HW2 7998   2.882   4.770   4.895
 2367SOL     OW 7999   5.364   4.462   6.099
 2367SOL    HW1 8000   5.297   4.389   6.091
 2367SOL    HW2 8001   5.406   4.459   6.190
 2368SOL     OW 8002   5.714   6.627   4.926
 2368SOL    HW1 8003   5.748   6.603   4.835
 2368SOL    HW2 8004   5.689   6.723   4.929
 2369SOL     OW 8005   2.991   1.870   4.361
 2369SOL    HW1 8006   2.939   1.802   4.413
 2369SOL    HW2 8007   3.080   1.884   4.403
 2370SOL     OW 8008   5.917   2.631   1.745
 2370SOL    HW1 8009   5.831   2.593   1.780
 2370SOL    HW2 8010   5.985   2.630   1.818
 2371SOL     OW 8011   0.285   6.048   2.896
 2371SOL    HW1 8012   0.241   6.073   2.982
 2371SOL    HW2 8013   0.308   6.131   2.845
 2372SOL     OW 8014   5.745   6.914   6.123
 2372SOL    HW1 8015   5.788   6.985   6.067
 2372SOL    HW2 8016   5.719   6.953   6.211
 2373SOL     OW 8017   6.300   5.359   6.445
 2373SOL    HW1 8018   6.285   5.401   6.356
 2373SOL    HW2 8019   6.252   5.412   6.515
 2374SOL     OW 8020   6.253   6.402   2.620
 2374SOL    HW1 8021   6.250   6.302   2.607
 2374SOL    HW2 8022   6.347   6.431   2.634
 2375SOL     OW 8023   1.377   0.171   4.108
 2375SOL    HW1 8024   1.333   0.082   4.098
 2375SOL    HW2 8025   1.338   0.219   4.187
 2376SOL     OW 8026   5.321   1.985   3.683
 2376SOL    HW1 8027   5.367   1.914   3.630
 2376SOL    HW2 8028   5.386   2.028   3.745
 2377SOL     OW 8029   4.762   4.553   5.726
 2377SOL    HW1 8030   4.710   4.557   5.812
 2377SOL    HW2 8031   4.724   4.619   5.661
 2378SOL     OW 8032   6.995   1.020   0.645
 2378SOL    HW1 8033   6.945   0.957   0.705
 2378SOL    HW2 8034   6.929   1.079   0.598
 2379SOL     OW 8035   6.657   5.158   1.482
 2379SOL    HW1 8036   6.595   5.089   1.519
 2379SOL    HW2 8037   6.704   5.205   1.557
 2380SOL     OW 8038   5.014   5.545   5.327
 2380SOL    HW1 8039   5.084   5.586   5.385
 2380SOL    HW2 8040   5.003   5.449   5.351
 2381SOL     OW 8041   2.418   4.824   4.461
 2381SOL    HW1 8042   2.358   4.769   4.520
 2381SOL    HW2 8043   2.453   4.767   4.387
 2382SOL     OW 8044   0.168   6.009   2.616
 2382SOL    HW1 8045   0.134   6.094   2.577
 2382SOL    HW2 8046   0.206   6.026   2.706
 2383SOL     OW 8047   5.564   5.267   6.080
 2383SOL    HW1 8048   5.560   5.330   6.157
 2383SOL    HW2 8049   5.572   5.173   6.114
 2384SOL     OW 8050   0.669   1.853   2.635
 2384SOL    HW1 8051   0.719   1.868   2.551
 2384SOL    HW2 8052   0.583   1.805   2.615
 2385SOL     OW 8053   0.685   1.324   0.864
 2385SOL    HW1 8054   0.605   1.272   0.894
 2385SOL    HW2 8055   0.659   1.383   0.788
 2386SOL     OW 8056   5.853   5.588   3.882
 2386SOL    HW1 8057   5.855   5.633   3.971
 2386SOL    HW2 8058   5.883   5.653   3.812
 2387SOL     OW 8059   1.756   1.433   4.093
 2387SOL    HW1 8060   1.753   1.530   4.116
 2387SOL    HW2 8061   1.727   1.421   3.998
 2388SOL     OW 8062   6.559   2.245   4.958
 2388SOL    HW1 8063   6.575   2.166   4.898
 2388SOL    HW2 8064   6.609   2.232   5.043
 2389SOL     OW 8065   4.514   4.461   4.026
 2389SOL    HW1 8066   4.531   4.374   3.980
 2389SOL    HW2 8067   4.576   4.531   3.989
 2390SOL     OW 8068   4.535   3.338   5.754
 2390SOL    HW1 8069   4.471   3.264   5.774
 2390SOL    HW2 8070   4.551   3.392   5.837
 2391SOL     OW 8071   2.949   4.426   5.979
 2391SOL    HW1 8072   2.971   4.396   5.886
 2391SOL    HW2 8073   2.962   4.350   6.042
 2392SOL     OW 8074   4.336   4.512   5.741
 2392SOL    HW1 8075   4.354   4.604   5.708
 2392SOL    HW2 8076   4.270   4.467   5.680
 2393SOL     OW 8077   4.148   4.381   1.110
 2393SOL    HW1 8078   4.119   4.429   1.027
 2393SOL    HW2 8079   4.245   4.358   1.104
 2394SOL     OW 8080   0.329   2.884   3.593
 2394SOL    HW1 8081   0.406   2.869   3.532
 2394SOL    HW2 8082   0.355   2.947   3.666
 2395SOL     OW 8083   0.772   2.869   4.595
 2395SOL    HW1 8084   0.753   2.790   4.652
 2395SOL    HW2 8085   0.687   2.912   4.566
 2396SOL     OW 8086   0.423   0.408   5.247
 2396SOL    HW1 8087   0.360   0.382   5.174
 2396SOL    HW2 8088   0.387   0.375   5.334
 2397SOL     OW 8089   0.397   4.114   5.377
 2397SOL    HW1 8090   0.395   4.090   5.474
 2397SOL    HW2 8091   0.314   4.081   5.333
 2398SOL     OW 8092   3.723   6.482   4.319
 2398SOL    HW1 8093   3.747   6.548   4.248
 2398SOL    HW2 8094   3.745   6.390   4.287
 2399SOL     OW 8095   3.182   2.130   3.530
 2399SOL    HW1 8096   3.150   2.125   3.625
 2399SOL    HW2 8097   3.104   2.133   3.469
 2400SOL     OW 8098   1.502   3.833   0.644
 2400SOL    HW1 8099   1.439   3.768   0.602
 2400SOL    HW2 8100   1.497   3.921   0.595
 2401SOL     OW 8101   2.661   6.983   5.872
 2401SOL    HW1 8102   2.672   0.043   5.813
 2401SOL    HW2 8103   2.616   7.011   5.957
 2402SOL     OW 8104   1.649   4.268   1.689
 2402SOL    HW1 8105   1.557   4.303   1.707
 2402SOL    HW2 8106   1.689   4.318   1.612
 2403SOL     OW 8107   4.068   3.199   3.183
 2403SOL    HW1 8108   4.147   3.144   3.157
 2403SOL    HW2 8109   3.987   3.163   3.137
 2404SOL     OW 8110   5.976   0.991   0.791
 2404SOL    HW1 8111   5.890   0.981   0.840
 2404SOL    HW2 8112   6.047   0.939   0.838
 2405SOL     OW 8113   2.656   3.080   0.721
 2405SOL    HW1 8114   2.704   3.081   0.633
 2405SOL    HW2 8115   2.693   3.009   0.779
 2406SOL     OW 8116   3.208   6.366   4.658
 2406SOL    HW1 8117   3.178   6.287   4.712
 2406SOL    HW2 8118   3.167   6.363   4.567
 2407SOL     OW 8119   2.587   0.759   3.627
 2407SOL    HW1 8120   2.660   0.693   3.644
 2407SOL    HW2 8121   2.567   0.762   3.529
 2408SOL     OW 8122   3.751   6.373   4.816
 2408SOL    HW1 8123   3.774   6.345   4.723
 2408SOL    HW2 8124   3.683   6.310   4.854
 2409SOL     OW 8125   1.597   3.298   1.360
 2409SOL    HW1 8126   1.578   3.311   1.263
 2409SOL    HW2 8127   1.518   3.255   1.404
 2410SOL     OW 8128   0.732   3.273   4.758
 2410SOL    HW1 8129   0.758   3.289   4.853
 2410SOL    HW2 8130   0.743   3.176   4.737
 2411SOL     OW 8131   3.024   3.310   0.045
 2411SOL    HW1 8132   2.971   3.388   0.079
 2411SOL    HW2 8133   2.966   3.229   0.043
 2412SOL     OW 8134   3.524   1.487   6.604
 2412SOL    HW1 8135   3.492   1.484   6.699
 2412SOL    HW2 8136   3.622   1.507   6.602
 2413SOL     OW 8137   0.589   3.307   6.948
 2413SOL    HW1 8138   0.493   3.324   6.972
 2413SOL    HW2 8139   0.638   3.276   0.010
 2414SOL     OW 8140   6.363   1.974   5.117
 2414SOL    HW1 8141   6.448   1.973   5.065
 2414SOL    HW2 8142   6.292   2.021   5.064
 2415SOL     OW 8143   2.540   5.688   0.469
 2415SOL    HW1 8144   2.479   5.626   0.420
 2415SOL    HW2 8145   2.630   5.689   0.426
 2416SOL     OW 8146   0.007   3.455   2.119
 2416SOL    HW1 8147   6.966   3.380   2.094
 2416SOL    HW2 8148   6.985   3.542   2.092
 2417SOL     OW 8149   3.020   2.641   1.720
 2417SOL    HW1 8150   2.971   2.632   1.633
 2417SOL    HW2 8151   2.976   2.584   1.789
 2418SOL     OW 8152   4.492   4.066   6.660
 2418SOL    HW1 8153   4.519   3.987   6.605
 2418SOL    HW2 8154   4.482   4.038   6.756
 2419SOL     OW 8155   2.369   6.899   3.185
 2419SOL    HW1 8156   2.414   6.984   3.157
 2419SOL    HW2 8157   2.328   6.912   3.276
 2420SOL     OW 8158   1.222   3.751   2.878
 2420SOL    HW1 8159   1.201   3.657   2.903
 2420SOL    HW2 8160   1.273   3.795   2.953
 2421SOL     OW 8161   2.855   6.668   4.558
 2421SOL    HW1 8162   2.758   6.643   4.559
 2421SOL    HW2 8163   2.903   6.618   4.629
 2422SOL     OW 8164   4.544   5.873   1.020
 2422SOL    HW1 8165   4.566   5.776   1.033
 2422SOL    HW2 8166   4.592   5.927   1.090
 2423SOL     OW 8167   2.564   5.298   2.906
 2423SOL    HW1 8168   2.633   5.253   2.851
 2423SOL    HW2 8169   2.530   5.379   2.858
 2424SOL     OW 8170   5.402   0.281   6.003
 2424SOL    HW1 8171   5.492   0.308   5.972
 2424SOL    HW2 8172   5.360   0.356   6.055
 2425SOL     OW 8173   5.049   5.428   4.859
 2425SOL    HW1 8174   5.003   5.473   4.936
 2425SOL    HW2 8175   5.092   5.343   4.890
 2426SOL     OW 8176   2.323   3.587   5.591
 2426SOL    HW1 8177   2.275   3.656   5.644
 2426SOL    HW2 8178   2.324   3.500   5.641
 2427SOL     OW 8179   5.336   1.250   6.784
 2427SOL    HW1 8180   5.251   1.204   6.809
 2427SOL    HW2 8181   5.315   1.343   6.753
 2428SOL     OW 8182   1.170   0.505   3.109
 2428SOL    HW1 8183   1.124   0.594   3.116
 2428SOL    HW2 8184   1.118   0.437   3.160
 2429SOL     OW 8185   5.656   5.263   1.761
 2429SOL    HW1 8186   5.730   5.328   1.780
 2429SOL    HW2 8187   5.650   5.247   1.663
 2430SOL     OW 8188   5.902   1.480   6.534
 2430SOL    HW1 8189   5.802   1.476   6.530
 2430SOL    HW2 8190   5.930   1.530   6.616
 2431SOL     OW 8191   6.962   2.974   1.559
 2431SOL    HW1 8192   0.029   2.927   1.576
 2431SOL    HW2 8193   6.916   2.992   1.645
 2432SOL     OW 8194   3.101   5.256   1.774
 2432SOL    HW1 8195   3.100   5.313   1.692
 2432SOL    HW2 8196   3.012   5.211   1.783
 2433SOL     OW 8197   6.401   3.978   5.398
 2433SOL    HW1 8198   6.330   4.046   5.382
 2433SOL    HW2 8199   6.364   3.887   5.377
 2434SOL     OW 8200   4.795   1.085   2.718
 2434SOL    HW1 8201   4.787   0.992   2.756
 2434SOL    HW2 8202   4.749   1.089   2.630
 2435SOL     OW 8203   6.057   6.687   6.787
 2435SOL    HW1 8204   6.070   6.704   6.690
 2435SOL    HW2 8205   5.960   6.668   6.805
 2436SOL     OW 8206   2.012   1.795   1.908
 2436SOL    HW1 8207   2.086   1.811   1.843
 2436SOL    HW2 8208   2.040   1.727   1.976
 2437SOL     OW 8209   6.969   4.398   2.455
 2437SOL    HW1 8210   0.036   4.359   2.424
 2437SOL    HW2 8211   6.980   4.436   2.547
 2438SOL     OW 8212   3.240   1.165   4.537
 2438SOL    HW1 8213   3.260   1.165   4.635
 2438SOL    HW2 8214   3.278   1.082   4.495
 2439SOL     OW 8215   1.178   6.783   1.765
 2439SOL    HW1 8216   1.162   6.780   1.667
 2439SOL    HW2 8217   1.183   6.690   1.802
 2440SOL     OW 8218   5.807   1.359   5.496
 2440SOL    HW1 8219   5.886   1.314   5.456
 2440SOL    HW2 8220   5.804   1.455   5.466
 2441SOL     OW 8221   6.748   0.148   0.076
 2441SOL    HW1 8222   6.714   0.065   0.032
 2441SOL    HW2 8223   6.833   0.177   0.032
 2442SOL     OW 8224   4.889   3.501   1.844
 2442SOL    HW1 8225   4.791   3.501   1.863
 2442SOL    HW2 8226   4.936   3.443   1.910
 2443SOL     OW 8227   0.414   2.544   1.437
 2443SOL    HW1 8228   0.316   2.533   1.453
 2443SOL    HW2 8229   0.441   2.638   1.460
 2444SOL     OW 8230   3.866   5.848   1.983
 2444SOL    HW1 8231   3.959   5.879   1.965
 2444SOL    HW2 8232   3.864   5.749   1.989
 2445SOL     OW 8233   0.061   2.494   0.914
 2445SOL    HW1 8234   0.068   2.503   1.013
 2445SOL    HW2 8235   7.004   2.434   0.892
 2446SOL     OW 8236   1.493   5.105   1.387
 2446SOL    HW1 8237   1.511   5.087   1.290
 2446SOL    HW2 8238   1.564   5.166   1.423
 2447SOL     OW 8239   2.419   6.614   0.083
 2447SOL    HW1 8240   2.392   6.707   0.059
 2447SOL    HW2 8241   2.506   6.592   0.037
 2448SOL     OW 8242   6.707   1.634   4.351
 2448SOL    HW1 8243   6.787   1.594   4.397
 2448SOL    HW2 8244   6.737   1.682   4.268
 2449SOL     OW 8245   1.545   4.039   1.328
 2449SOL    HW1 8246   1.543   3.995   1.418
 2449SOL    HW2 8247   1.548   4.138   1.339
 2450SOL     OW 8248   1.432   6.723   5.770
 2450SOL    HW1 8249   1.438   6.652   5.701
 2450SOL    HW2 8250   1.342   6.767   5.764
 2451SOL     OW 8251   1.023   0.061   4.650
 2451SOL    HW1 8252   1.114   0.065   4.609
 2451SOL    HW2 8253   0.959   0.018   4.588
 2452SOL     OW 8254   2.586   1.634   3.927
 2452SOL    HW1 8255   2.647   1.627   4.006
 2452SOL    HW2 8256   2.537   1.721   3.931
 2453SOL     OW 8257   1.113   1.301   6.421
 2453SOL    HW1 8258   1.125   1.205   6.444
 2453SOL    HW2 8259   1.159   1.359   6.488
 2454SOL     OW 8260   2.908   5.776   1.389
 2454SOL    HW1 8261   2.882   5.681   1.375
 2454SOL    HW2 8262   2.974   5.804   1.319
 2455SOL     OW 8263   3.767   2.779   0.858
 2455SOL    HW1 8264   3.701   2.732   0.916
 2455SOL    HW2 8265   3.739   2.874   0.845
 2456SOL     OW 8266   1.144   4.504   6.334
 2456SOL    HW1 8267   1.073   4.468   6.274
 2456SOL    HW2 8268   1.163   4.599   6.310
 2457SOL     OW 8269   4.895   2.126   4.991
 2457SOL    HW1 8270   4.809   2.159   4.952
 2457SOL    HW2 8271   4.919   2.180   5.071
 2458SOL     OW 8272   1.115   0.489   1.644
 2458SOL    HW1 8273   1.155   0.418   1.702
 2458SOL    HW2 8274   1.042   0.536   1.694
 2459SOL     OW 8275   2.654   6.377   1.093
 2459SOL    HW1 8276   2.708   6.453   1.130
 2459SOL    HW2 8277   2.613   6.405   1.006
 2460SOL     OW 8278   1.533   1.221   5.037
 2460SOL    HW1 8279   1.477   1.275   4.974
 2460SOL    HW2 8280   1.558   1.135   4.993
 2461SOL     OW 8281   4.474   1.067   3.760
 2461SOL    HW1 8282   4.402   1.004   3.789
 2461SOL    HW2 8283   4.507   1.119   3.839
 2462SOL     OW 8284   0.171   3.485   0.928
 2462SOL    HW1 8285   0.184   3.508   0.831
 2462SOL    HW2 8286   0.251   3.514   0.980
 2463SOL     OW 8287   6.649   0.824   6.854
 2463SOL    HW1 8288   6.557   0.839   6.817
 2463SOL    HW2 8289   6.712   0.890   6.813
 2464SOL     OW 8290   0.407   2.430   2.706
 2464SOL    HW1 8291   0.313   2.413   2.736
 2464SOL    HW2 8292   0.466   2.356   2.738
 2465SOL     OW 8293   0.385   5.048   5.370
 2465SOL    HW1 8294   0.416   5.138   5.341
 2465SOL    HW2 8295   0.423   5.027   5.461
 2466SOL     OW 8296   0.864   2.437   1.790
 2466SOL    HW1 8297   0.847   2.511   1.725
 2466SOL    HW2 8298   0.857   2.472   1.883
 2467SOL     OW 8299   5.898   2.080   5.536
 2467SOL    HW1 8300   5.946   2.117   5.456
 2467SOL    HW2 8301   5.800   2.103   5.530
 2468SOL     OW 8302   3.355   6.594   5.591
 2468SOL    HW1 8303   3.382   6.520   5.653
 2468SOL    HW2 8304   3.280   6.563   5.532
 2469SOL     OW 8305   3.375   2.454   6.018
 2469SOL    HW1 8306   3.381   2.364   6.061
 2469SOL    HW2 8307   3.344   2.445   5.924
 2470SOL     OW 8308   2.793   4.690   6.442
 2470SOL    HW1 8309   2.788   4.679   6.541
 2470SOL    HW2 8310   2.877   4.647   6.408
 2471SOL     OW 8311   3.550   5.771   1.642
 2471SOL    HW1 8312   3.500   5.736   1.722
 2471SOL    HW2 8313   3.487   5.817   1.580
 2472SOL     OW 8314   4.734   1.878   4.284
 2472SOL    HW1 8315   4.802   1.885   4.358
 2472SOL    HW2 8316   4.781   1.872   4.196
 2473SOL     OW 8317   0.694   4.258   5.078
 2473SOL    HW1 8318   0.740   4.288   5.161
 2473SOL    HW2 8319   0.636   4.179   5.099
 2474SOL     OW 8320   1.264   5.713   1.506
 2474SOL    HW1 8321   1.174   5.741   1.538
 2474SOL    HW2 8322   1.333   5.779   1.537
 2475SOL     OW 8323   4.958   0.369   0.687
 2475SOL    HW1 8324   4.882   0.359   0.623
 2475SOL    HW2 8325   5.021   0.439   0.653
 2476SOL     OW 8326   5.390   0.692   6.730
 2476SOL    HW1 8327   5.401   0.742   6.816
 2476SOL    HW2 8328   5.348   0.603   6.749
 2477SOL     OW 8329   3.386   0.082   3.664
 2477SOL    HW1 8330   3.391   0.026   3.581
 2477SOL    HW2 8331   3.470   0.136   3.673
 2478SOL     OW 8332   4.767   0.948   3.296
 2478SOL    HW1 8333   4.755   1.013   3.221
 2478SOL    HW2 8334   4.724   0.984   3.379
 2479SOL     OW 8335   0.519   4.324   0.155
 2479SOL    HW1 8336   0.432   4.277   0.173
 2479SOL    HW2 8337   0.568   4.275   0.083
 2480SOL     OW 8338   3.504   2.499   1.260
 2480SOL    HW1 8339   3.599   2.523   1.282
 2480SOL    HW2 8340   3.457   2.467   1.342
 2481SOL     OW 8341   3.045   0.129   0.910
 2481SOL    HW1 8342   3.014   0.080   0.828
 2481SOL    HW2 8343   3.062   0.225   0.887
 2482SOL     OW 8344   5.307   3.142   0.132
 2482SOL    HW1 8345   5.398   3.144   0.174
 2482SOL    HW2 8346   5.260   3.058   0.159
 2483SOL     OW 8347   0.717   2.056   0.996
 2483SOL    HW1 8348   0.662   2.050   1.080
 2483SOL    HW2 8349   0.681   1.991   0.928
 2484SOL     OW 8350   5.275   1.825   1.679
 2484SOL    HW1 8351   5.320   1.808   1.591
 2484SOL    HW2 8352   5.309   1.909   1.719
 2485SOL     OW 8353   5.280   2.616   6.020
 2485SOL    HW1 8354   5.299   2.684   6.091
 2485SOL    HW2 8355   5.355   2.550   6.017
 2486SOL     OW 8356   0.617   3.775   5.237
 2486SOL    HW1 8357   0.599   3.770   5.335
 2486SOL    HW2 8358   0.709   3.739   5.219
 2487SOL     OW 8359   4.538   5.919   0.278
 2487SOL    HW1 8360   4.458   5.872   0.315
 2487SOL    HW2 8361   4.518   6.017   0.269
 2488SOL     OW 8362   6.783   3.988   1.573
 2488SOL    HW1 8363   6.722   3.961   1.647
 2488SOL    HW2 8364   6.803   3.909   1.515
 2489SOL     OW 8365   0.607   5.923   4.313
 2489SOL    HW1 8366   0.597   6.017   4.346
 2489SOL    HW2 8367   0.697   5.888   4.338
 2490SOL     OW 8368   2.959   5.769   2.268
 2490SOL    HW1 8369   2.989   5.845   2.210
 2490SOL    HW2 8370   3.028   5.698   2.267
 2491SOL     OW 8371   3.995   4.345   1.609
 2491SOL    HW1 8372   3.928   4.272   1.611
 2491SOL    HW2 8373   4.085   4.308   1.634
 2492SOL     OW 8374   6.241   3.954   0.630
 2492SOL    HW1 8375   6.220   4.026   0.696
 2492SOL    HW2 8376   6.166   3.887   0.629
 2493SOL     OW 8377   6.774   6.398   1.656
 2493SOL    HW1 8378   6.759   6.482   1.604
 2493SOL    HW2 8379   6.861   6.404   1.704
 2494SOL     OW 8380   6.151   2.336   1.421
 2494SOL    HW1 8381   6.233   2.392   1.433
 2494SOL    HW2 8382   6.124   2.297   1.510
 2495SOL     OW 8383   6.533   5.765   3.781
 2495SOL    HW1 8384   6.483   5.775   3.695
 2495SOL    HW2 8385   6.625   5.730   3.762
 2496SOL     OW 8386   6.415   5.008   6.568
 2496SOL    HW1 8387   6.471   5.060   6.633
 2496SOL    HW2 8388   6.319   5.036   6.577
 2497SOL     OW 8389   0.145   6.458   2.129
 2497SOL    HW1 8390   0.147   6.543   2.181
 2497SOL    HW2 8391   0.163   6.381   2.190
 2498SOL     OW 8392   2.064   2.816   5.448
 2498SOL    HW1 8393   2.143   2.846   5.395
 2498SOL    HW2 8394   2.092   2.793   5.541
 2499SOL     OW 8395   6.377   3.623   1.166
 2499SOL    HW1 8396   6.349   3.607   1.261
 2499SOL    HW2 8397   6.473   3.649   1.164
 2500SOL     OW 8398   3.119   3.794   6.559
 2500SOL    HW1 8399   3.195   3.831   6.506
 2500SOL    HW2 8400   3.038   3.785   6.500
 2501SOL     OW 8401   5.780   5.384   0.567
 2501SOL    HW1 8402   5.866   5.399   0.519
 2501SOL    HW2 8403   5.721   5.464   0.555
 2502SOL     OW 8404   2.665   5.873   4.170
 2502SOL    HW1 8405   2.763   5.874   4.150
 2502SOL    HW2 8406   2.620   5.949   4.123
 2503SOL     OW 8407   2.817   0.135   5.020
 2503SOL    HW1 8408   2.756   0.076   4.967
 2503SOL    HW2 8409   2.909   0.134   4.980
 2504SOL     OW 8410   3.271   5.620   2.699
 2504SOL    HW1 8411   3.310   5.687   2.760
 2504SOL    HW2 8412   3.265   5.531   2.745
 2505SOL     OW 8413   6.846   6.028   2.614
 2505SOL    HW1 8414   6.765   6.000   2.563
 2505SOL    HW2 8415   6.890   5.947   2.653
 2506SOL     OW 8416   5.947   4.494   5.967
 2506SOL    HW1 8417   6.021   4.487   5.900
 2506SOL    HW2 8418   5.874   4.430   5.943
 2507SOL     OW 8419   0.019   3.536   0.516
 2507SOL    HW1 8420   0.027   3.446   0.474
 2507SOL    HW2 8421   0.015   3.606   0.444
 2508SOL     OW 8422   3.426   1.783   4.766
 2508SOL    HW1 8423   3.333   1.814   4.747
 2508SOL    HW2 8424   3.470   1.848   4.829
 2509SOL     OW 8425   6.665   3.512   6.136
 2509SOL    HW1 8426   6.758   3.478   6.121
 2509SOL    HW2 8427   6.628   3.546   6.049
 2510SOL     OW 8428   3.061   4.045   1.720
 2510SOL    HW1 8429   3.159   4.043   1.699
 2510SOL    HW2 8430   3.039   4.132   1.764
 2511SOL     OW 8431   2.538   0.818   4.969
 2511SOL    HW1 8432   2.501   0.756   5.038
 2511SOL    HW2 8433   2.577   0.898   5.014
 2512SOL     OW 8434   3.690   4.731   5.315
 2512SOL    HW1 8435   3.594   4.740   5.288
 2512SOL    HW2 8436   3.710   4.636   5.338
 2513SOL     OW 8437   1.936   6.557   5.918
 2513SOL    HW1 8438   1.947   6.571   6.017
 2513SOL    HW2 8439   1.856   6.608   5.886
 2514SOL     OW 8440   1.105   2.822   3.367
 2514SOL    HW1 8441   1.092   2.817   3.268
 2514SOL    HW2 8442   1.176   2.758   3.394
 2515SOL     OW 8443   1.855   0.854   1.206
 2515SOL    HW1 8444   1.882   0.860   1.302
 2515SOL    HW2 8445   1.794   0.930   1.184
 2516SOL     OW 8446   5.371   1.524   3.602
 2516SOL    HW1 8447   5.424   1.498   3.522
 2516SOL    HW2 8448   5.374   1.450   3.670
 2517SOL     OW 8449   1.170   0.946   4.726
 2517SOL    HW1 8450   1.167   0.887   4.807
 2517SOL    HW2 8451   1.139   1.038   4.750
 2518SOL     OW 8452   2.575   4.800   1.051
 2518SOL    HW1 8453   2.598   4.708   1.084
 2518SOL    HW2 8454   2.654   4.839   1.005
 2519SOL     OW 8455   2.310   1.142   1.541
 2519SOL    HW1 8456   2.244   1.111   1.609
 2519SOL    HW2 8457   2.314   1.242   1.541
 2520SOL     OW 8458   3.260   2.535   0.987
 2520SOL    HW1 8459   3.226   2.548   0.894
 2520SOL    HW2 8460   3.337   2.472   0.986
 2521SOL     OW 8461   4.071   1.631   5.077
 2521SOL    HW1 8462   4.144   1.683   5.121
 2521SOL    HW2 8463   4.058   1.664   4.983
 2522SOL     OW 8464   0.844   1.632   5.370
 2522SOL    HW1 8465   0.776   1.567   5.335
 2522SOL    HW2 8466   0.828   1.647   5.467
 2523SOL     OW 8467   1.654   4.580   0.653
 2523SOL    HW1 8468   1.563   4.566   0.614
 2523SOL    HW2 8469   1.700   4.492   0.663
 2524SOL     OW 8470   1.728   6.695   4.441
 2524SOL    HW1 8471   1.650   6.669   4.498
 2524SOL    HW2 8472   1.730   6.794   4.430
 2525SOL     OW 8473   0.926   3.356   4.257
 2525SOL    HW1 8474   1.017   3.396   4.241
 2525SOL    HW2 8475   0.909   3.285   4.189
 2526SOL     OW 8476   1.023   5.464   6.613
 2526SOL    HW1 8477   1.073   5.480   6.698
 2526SOL    HW2 8478   1.072   5.396   6.559
 2527SOL     OW 8479   5.567   5.789   5.840
 2527SOL    HW1 8480   5.513   5.858   5.889
 2527SOL    HW2 8481   5.612   5.729   5.906
 2528SOL     OW 8482   5.215   4.960   5.953
 2528SOL    HW1 8483   5.138   5.000   6.003
 2528SOL    HW2 8484   5.241   5.021   5.878
 2529SOL     OW 8485   0.353   0.048   6.183
 2529SOL    HW1 8486   0.339   0.014   6.090
 2529SOL    HW2 8487   0.331   6.996   6.248
 2530SOL     OW 8488   2.784   5.400   5.538
 2530SOL    HW1 8489   2.711   5.405   5.605
 2530SOL    HW2 8490   2.763   5.330   5.470
 2531SOL     OW 8491   6.159   5.467   5.547
 2531SOL    HW1 8492   6.075   5.518   5.566
 2531SOL    HW2 8493   6.213   5.461   5.631
 2532SOL     OW 8494   0.883   6.147   1.249
 2532SOL    HW1 8495   0.982   6.158   1.254
 2532SOL    HW2 8496   0.840   6.197   1.324
 2533SOL     OW 8497   5.180   1.212   3.335
 2533SOL    HW1 8498   5.187   1.312   3.338
 2533SOL    HW2 8499   5.147   1.178   3.423
 2534SOL     OW 8500   4.569   1.957   1.931
 2534SOL    HW1 8501   4.482   1.927   1.970
 2534SOL    HW2 8502   4.565   2.055   1.914
 2535SOL     OW 8503   3.581   2.499   6.652
 2535SOL    HW1 8504   3.522   2.456   6.720
 2535SOL    HW2 8505   3.657   2.544   6.698
 2536SOL     OW 8506   1.781   0.362   6.763
 2536SOL    HW1 8507   1.833   0.291   6.715
 2536SOL    HW2 8508   1.688   0.330   6.780
 2537SOL     OW 8509   3.970   0.647   6.664
 2537SOL    HW1 8510   4.028   0.587   6.609
 2537SOL    HW2 8511   3.999   0.644   6.759
 2538SOL     OW 8512   0.186   3.783   3.614
 2538SOL    HW1 8513   0.170   3.875   3.650
 2538SOL    HW2 8514   0.101   3.730   3.620
 2539SOL     OW 8515   6.163   0.954   4.187
 2539SOL    HW1 8516   6.133   0.927   4.279
 2539SOL    HW2 8517   6.258   0.984   4.191
 2540SOL     OW 8518   3.908   1.755   3.092
 2540SOL    HW1 8519   3.930   1.839   3.141
 2540SOL    HW2 8520   3.940   1.676   3.145
 2541SOL     OW 8521   3.025   0.358   4.729
 2541SOL    HW1 8522   3.109   0.394   4.687
 2541SOL    HW2 8523   2.980   0.432   4.779
 2542SOL     OW 8524   1.848   4.358   6.678
 2542SOL    HW1 8525   1.875   4.288   6.745
 2542SOL    HW2 8526   1.766   4.405   6.711
 2543SOL     OW 8527   0.664   1.920   4.272
 2543SOL    HW1 8528   0.698   1.976   4.196
 2543SOL    HW2 8529   0.741   1.874   4.315
 2544SOL     OW 8530   0.759   5.166   1.186
 2544SOL    HW1 8531   0.789   5.125   1.100
 2544SOL    HW2 8532   0.814   5.248   1.205
 2545SOL     OW 8533   1.408   0.032   2.643
 2545SOL    HW1 8534   1.507   0.033   2.627
 2545SOL    HW2 8535   1.388   0.075   2.731
 2546SOL     OW 8536   5.744   1.396   0.525
 2546SOL    HW1 8537   5.773   1.421   0.432
 2546SOL    HW2 8538   5.816   1.344   0.570
 2547SOL     OW 8539   0.253   3.383   6.231
 2547SOL    HW1 8540   0.330   3.440   6.259
 2547SOL    HW2 8541   0.277   3.334   6.147
 2548SOL     OW 8542   1.108   6.143   4.581
 2548SOL    HW1 8543   1.082   6.203   4.657
 2548SOL    HW2 8544   1.040   6.149   4.509
 2549SOL     OW 8545   0.298   0.199   1.420
 2549SOL    HW1 8546   0.213   0.250   1.415
 2549SOL    HW2 8547   0.318   0.175   1.515
 2550SOL     OW 8548   6.129   6.716   0.573
 2550SOL    HW1 8549   6.205   6.660   0.606
 2550SOL    HW2 8550   6.148   6.812   0.591
 2551SOL     OW 8551   2.494   4.230   6.678
 2551SOL    HW1 8552   2.538   4.233   6.768
 2551SOL    HW2 8553   2.560   4.255   6.608
 2552SOL     OW 8554   2.861   4.807   3.993
 2552SOL    HW1 8555   2.833   4.790   3.898
 2552SOL    HW2 8556   2.961   4.804   3.999
 2553SOL     OW 8557   4.119   3.863   6.098
 2553SOL    HW1 8558   4.118   3.930   6.023
 2553SOL    HW2 8559   4.100   3.772   6.061
 2554SOL     OW 8560   2.021   2.013   1.261
 2554SOL    HW1 8561   1.980   2.088   1.208
 2554SOL    HW2 8562   1.970   2.001   1.346
 2555SOL     OW 8563   5.096   3.044   4.532
 2555SOL    HW1 8564   5.036   2.965   4.528
 2555SOL    HW2 8565   5.056   3.114   4.592
 2556SOL     OW 8566   3.896   5.969   0.549
 2556SOL    HW1 8567   3.875   5.994   0.454
 2556SOL    HW2 8568   3.865   6.042   0.610
 2557SOL     OW 8569   1.986   3.964   6.781
 2557SOL    HW1 8570   1.998   3.872   6.817
 2557SOL    HW2 8571   1.921   4.013   6.838
 2558SOL     OW 8572   5.085   1.664   5.987
 2558SOL    HW1 8573   5.097   1.616   5.900
 2558SOL    HW2 8574   5.086   1.763   5.971
 2559SOL     OW 8575   0.360   4.484   5.751
 2559SOL    HW1 8576   0.340   4.461   5.846
 2559SOL    HW2 8577   0.285   4.537   5.712
 2560SOL     OW 8578   6.201   2.112   6.068
 2560SOL    HW1 8579   6.261   2.059   6.127
 2560SOL    HW2 8580   6.108   2.113   6.107
 2561SOL     OW 8581   3.400   4.981   4.964
 2561SOL    HW1 8582   3.481   5.039   4.960
 2561SOL    HW2 8583   3.376   4.951   4.871
 2562SOL     OW 8584   2.190   4.121   0.492
 2562SOL    HW1 8585   2.168   4.099   0.587
 2562SOL    HW2 8586   2.107   4.118   0.436
 2563SOL     OW 8587   2.744   0.729   0.132
 2563SOL    HW1 8588   2.826   0.744   0.077
 2563SOL    HW2 8589   2.679   0.803   0.115
 2564SOL     OW 8590   1.916   5.516   0.625
 2564SOL    HW1 8591   1.845   5.582   0.648
 2564SOL    HW2 8592   1.970   5.495   0.706
 2565SOL     OW 8593   1.066   0.875   1.030
 2565SOL    HW1 8594   1.130   0.846   0.959
 2565SOL    HW2 8595   1.015   0.955   0.999
 2566SOL     OW 8596   2.406   6.802   0.572
 2566SOL    HW1 8597   2.375   6.887   0.614
 2566SOL    HW2 8598   2.328   6.755   0.531
 2567SOL     OW 8599   1.695   6.734   0.806
 2567SOL    HW1 8600   1.757   6.812   0.792
 2567SOL    HW2 8601   1.749   6.652   0.823
 2568SOL     OW 8602   4.064   1.726   6.820
 2568SOL    HW1 8603   4.065   1.630   6.848
 2568SOL    HW2 8604   4.117   1.736   6.736
 2569SOL     OW 8605   3.651   0.527   3.837
 2569SOL    HW1 8606   3.582   0.505   3.768
 2569SOL    HW2 8607   3.606   0.542   3.925
 2570SOL     OW 8608   5.687   1.171   5.636
 2570SOL    HW1 8609   5.727   1.240   5.576
 2570SOL    HW2 8610   5.615   1.213   5.691
 2571SOL     OW 8611   1.293   5.102   3.991
 2571SOL    HW1 8612   1.287   5.057   3.902
 2571SOL    HW2 8613   1.214   5.075   4.047
 2572SOL     OW 8614   2.887   5.145   3.022
 2572SOL    HW1 8615   2.939   5.150   3.107
 2572SOL    HW2 8616   2.949   5.158   2.944
 2573SOL     OW 8617   0.256   1.215   1.338
 2573SOL    HW1 8618   0.342   1.265   1.323
 2573SOL    HW2 8619   0.275   1.133   1.391
 2574SOL     OW 8620   6.481   3.285   0.385
 2574SOL    HW1 8621   6.517   3.323   0.300
 2574SOL    HW2 8622   6.441   3.195   0.367
 2575SOL     OW 8623   6.357   5.883   0.131
 2575SOL    HW1 8624   6.381   5.962   0.075
 2575SOL    HW2 8625   6.424   5.873   0.205
 2576SOL     OW 8626   4.861   6.512   4.126
 2576SOL    HW1 8627   4.777   6.457   4.126
 2576SOL    HW2 8628   4.891   6.527   4.220
 2577SOL     OW 8629   3.016   4.804   2.381
 2577SOL    HW1 8630   3.086   4.732   2.381
 2577SOL    HW2 8631   3.049   4.881   2.436
 2578SOL     OW 8632   3.596   1.510   4.338
 2578SOL    HW1 8633   3.538   1.497   4.419
 2578SOL    HW2 8634   3.680   1.556   4.366
 2579SOL     OW 8635   0.648   6.996   3.873
 2579SOL    HW1 8636   0.731   6.959   3.831
 2579SOL    HW2 8637   0.584   6.921   3.893
 2580SOL     OW 8638   2.597   4.109   0.458
 2580SOL    HW1 8639   2.563   4.138   0.369
 2580SOL    HW2 8640   2.532   4.045   0.500
 2581SOL     OW 8641   2.940   6.845   5.624
 2581SOL    HW1 8642   2.910   6.825   5.718
 2581SOL    HW2 8643   2.946   6.944   5.612
 2582SOL     OW 8644   6.562   3.754   1.526
 2582SOL    HW1 8645   6.562   3.802   1.614
 2582SOL    HW2 8646   6.648   3.705   1.515
 2583SOL     OW 8647   6.175   6.871   0.873
 2583SOL    HW1 8648   6.165   6.774   0.849
 2583SOL    HW2 8649   6.257   6.908   0.829
 2584SOL     OW 8650   4.725   4.918   5.729
 2584SOL    HW1 8651   4.713   4.921   5.828
 2584SOL    HW2 8652   4.807   4.866   5.707
 2585SOL     OW 8653   3.171   5.578   6.904
 2585SOL    HW1 8654   3.231   5.554   6.980
 2585SOL    HW2 8655   3.227   5.605   6.825
 2586SOL     OW 8656   2.281   0.446   5.248
 2586SOL    HW1 8657   2.268   0.445   5.347
 2586SOL    HW2 8658   2.281   0.352   5.214
 2587SOL     OW 8659   0.316   1.458   2.870
 2587SOL    HW1 8660   0.251   1.434   2.943
 2587SOL    HW2 8661   0.410   1.447   2.905
 2588SOL     OW 8662   4.156   1.944   5.018
 2588SOL    HW1 8663   4.163   2.041   4.994
 2588SOL    HW2 8664   4.205   1.890   4.949
 2589SOL     OW 8665   1.171   6.111   6.882
 2589SOL    HW1 8666   1.180   6.179   6.955
 2589SOL    HW2 8667   1.247   6.046   6.888
 2590SOL     OW 8668   2.569   4.846   0.126
 2590SOL    HW1 8669   2.590   4.767   0.185
 2590SOL    HW2 8670   2.501   4.819   0.058
 2591SOL     OW 8671   6.364   5.821   4.296
 2591SOL    HW1 8672   6.462   5.802   4.295
 2591SOL    HW2 8673   6.350   5.920   4.307
 2592SOL     OW 8674   2.594   4.268   6.266
 2592SOL    HW1 8675   2.515   4.208   6.274
 2592SOL    HW2 8676   2.637   4.279   6.355
 2593SOL     OW 8677   2.628   5.701   0.721
 2593SOL    HW1 8678   2.723   5.698   0.692
 2593SOL    HW2 8679   2.569   5.706   0.641
 2594SOL     OW 8680   1.759   4.342   5.024
 2594SOL    HW1 8681   1.801   4.354   4.934
 2594SOL    HW2 8682   1.766   4.246   5.052
 2595SOL     OW 8683   1.747   1.195   4.226
 2595SOL    HW1 8684   1.791   1.251   4.296
 2595SOL    HW2 8685   1.684   1.251   4.172
 2596SOL     OW 8686   1.355   2.273   0.819
 2596SOL    HW1 8687   1.270   2.262   0.767
 2596SOL    HW2 8688   1.338   2.251   0.915
 2597SOL     OW 8689   0.697   6.123   6.382
 2597SOL    HW1 8690   0.687   6.037   6.332
 2597SOL    HW2 8691   0.764   6.181   6.335
 2598SOL     OW 8692   5.803   2.118   1.996
 2598SOL    HW1 8693   5.708   2.144   1.979
 2598SOL    HW2 8694   5.805   2.033   2.049
 2599SOL     OW 8695   3.165   6.942   2.457
 2599SOL    HW1 8696   3.142   6.855   2.414
 2599SOL    HW2 8697   3.246   6.980   2.413
 2600SOL     OW 8698   6.396   4.661   4.539
 2600SOL    HW1 8699   6.446   4.686   4.456
 2600SOL    HW2 8700   6.432   4.575   4.575
 2601SOL     OW 8701   1.372   1.620   2.485
 2601SOL    HW1 8702   1.450   1.676   2.512
 2601SOL    HW2 8703   1.289   1.657   2.526
 2602SOL     OW 8704   1.982   4.883   4.380
 2602SOL    HW1 8705   1.897   4.896   4.432
 2602SOL    HW2 8706   2.047   4.954   4.405
 2603SOL     OW 8707   2.661   1.117   2.852
 2603SOL    HW1 8708   2.662   1.018   2.869
 2603SOL    HW2 8709   2.566   1.150   2.854
 2604SOL     OW 8710   5.550   1.917   2.564
 2604SOL    HW1 8711   5.576   1.968   2.482
 2604SOL    HW2 8712   5.543   1.980   2.642
 2605SOL     OW 8713   1.149   3.420   1.660
 2605SOL    HW1 8714   1.136   3.354   1.734
 2605SOL    HW2 8715   1.096   3.393   1.580
 2606SOL     OW 8716   4.172   4.243   0.748
 2606SOL    HW1 8717   4.125   4.325   0.781
 2606SOL    HW2 8718   4.216   4.197   0.826
 2607SOL     OW 8719   2.270   1.842   0.885
 2607SOL    HW1 8720   2.257   1.768   0.952
 2607SOL    HW2 8721   2.325   1.915   0.927
 2608SOL     OW 8722   3.045   5.920   6.258
 2608SOL    HW1 8723   3.062   6.019   6.257
 2608SOL    HW2 8724   3.098   5.878   6.332
 2609SOL     OW 8725   0.565   0.067   1.141
 2609SOL    HW1 8726   0.535   0.154   1.181
 2609SOL    HW2 8727   0.571   0.077   1.042
 2610SOL     OW 8728   1.445   4.878   4.496
 2610SOL    HW1 8729   1.444   4.828   4.409
 2610SOL    HW2 8730   1.450   4.813   4.572
 2611SOL     OW 8731   5.306   6.511   6.703
 2611SOL    HW1 8732   5.340   6.428   6.747
 2611SOL    HW2 8733   5.303   6.498   6.604
 2612SOL     OW 8734   5.554   0.297   5.393
 2612SOL    HW1 8735   5.613   0.310   5.314
 2612SOL    HW2 8736   5.530   0.200   5.401
 2613SOL     OW 8737   0.629   5.863   6.787
 2613SOL    HW1 8738   0.645   5.820   6.697
 2613SOL    HW2 8739   0.615   5.791   6.855
 2614SOL     OW 8740   6.412   0.631   6.124
 2614SOL    HW1 8741   6.481   0.700   6.146
 2614SOL    HW2 8742   6.431   0.547   6.176
 2615SOL     OW 8743   1.288   3.589   0.602
 2615SOL    HW1 8744   1.346   3.576   0.522
 2615SOL    HW2 8745   1.300   3.512   0.665
 2616SOL     OW 8746   1.646   0.396   5.557
 2616SOL    HW1 8747   1.601   0.446   5.631
 2616SOL    HW2 8748   1.745   0.404   5.566
 2617SOL     OW 8749   5.517   0.175   0.751
 2617SOL    HW1 8750   5.616   0.165   0.759
 2617SOL    HW2 8751   5.479   0.098   0.700
 2618SOL     OW 8752   1.924   6.480   6.199
 2618SOL    HW1 8753   1.912   6.410   6.270
 2618SOL    HW2 8754   2.001   6.540   6.223
 2619SOL     OW 8755   4.966   1.544   2.242
 2619SOL    HW1 8756   4.935   1.583   2.156
 2619SOL    HW2 8757   5.022   1.612   2.290
 2620SOL     OW 8758   7.017   6.365   1.757
 2620SOL    HW1 8759   0.001   6.391   1.854
 2620SOL    HW2 8760   0.089   6.337   1.727
 2621SOL     OW 8761   1.475   6.169   2.896
 2621SOL    HW1 8762   1.474   6.219   2.982
 2621SOL    HW2 8763   1.382   6.168   2.857
 2622SOL     OW 8764   3.273   3.514   6.389
 2622SOL    HW1 8765   3.320   3.435   6.428
 2622SOL    HW2 8766   3.187   3.484   6.347
 2623SOL     OW 8767   1.136   6.742   3.961
 2623SOL    HW1 8768   1.088   6.671   4.013
 2623SOL    HW2 8769   1.196   6.698   3.893
 2624SOL     OW 8770   0.287   2.705   4.289
 2624SOL    HW1 8771   0.385   2.700   4.307
 2624SOL    HW2 8772   0.251   2.791   4.323
 2625SOL     OW 8773   1.707   5.313   5.532
 2625SOL    HW1 8774   1.669   5.405   5.548
 2625SOL    HW2 8775   1.737   5.305   5.437
 2626SOL     OW 8776   6.847   5.536   5.994
 2626SOL    HW1 8777   6.803   5.594   6.062
 2626SOL    HW2 8778   6.797   5.451   5.984
 2627SOL     OW 8779   1.804   6.839   5.724
 2627SOL    HW1 8780   1.781   6.904   5.797
 2627SOL    HW2 8781   1.891   6.865   5.682
 2628SOL     OW 8782   1.636   3.989   2.029
 2628SOL    HW1 8783   1.557   3.954   2.081
 2628SOL    HW2 8784   1.629   4.088   2.020
 2629SOL     OW 8785   3.263   4.026   3.491
 2629SOL    HW1 8786   3.332   4.041   3.420
 2629SOL    HW2 8787   3.175   4.005   3.449
 2630SOL     OW 8788   3.766   0.564   4.263
 2630SOL    HW1 8789   3.700   0.638   4.251
 2630SOL    HW2 8790   3.813   0.575   4.350
 2631SOL     OW 8791   5.830   0.993   0.047
 2631SOL    HW1 8792   5.906   0.981   0.110
 2631SOL    HW2 8793   5.744   0.980   0.096
 2632SOL     OW 8794   5.731   4.697   1.940
 2632SOL    HW1 8795   5.734   4.707   2.040
 2632SOL    HW2 8796   5.636   4.687   1.910
 2633SOL     OW 8797   0.179   2.731   6.012
 2633SOL    HW1 8798   0.106   2.723   6.080
 2633SOL    HW2 8799   0.210   2.825   6.006
 2634SOL     OW 8800   6.315   0.220   5.511
 2634SOL    HW1 8801   6.298   0.220   5.412
 2634SOL    HW2 8802   6.393   0.279   5.532
 2635SOL     OW 8803   5.757   5.533   4.320
 2635SOL    HW1 8804   5.782   5.564   4.228
 2635SOL    HW2 8805   5.724   5.610   4.374
 2636SOL     OW 8806   4.442   6.743   5.886
 2636SOL    HW1 8807   4.516   6.810   5.898
 2636SOL    HW2 8808   4.371   6.760   5.954
 2637SOL     OW 8809   1.577   1.544   3.258
 2637SOL    HW1 8810   1.645   1.586   3.317
 2637SOL    HW2 8811   1.580   1.588   3.168
 2638SOL     OW 8812   1.490   6.573   4.544
 2638SOL    HW1 8813   1.446   6.537   4.462
 2638SOL    HW2 8814   1.445   6.536   4.625
 2639SOL     OW 8815   4.049   4.763   5.208
 2639SOL    HW1 8816   4.019   4.755   5.113
 2639SOL    HW2 8817   3.988   4.824   5.258
 2640SOL     OW 8818   1.584   6.376   4.752
 2640SOL    HW1 8819   1.501   6.412   4.793
 2640SOL    HW2 8820   1.561   6.308   4.683
 2641SOL     OW 8821   5.439   2.470   6.373
 2641SOL    HW1 8822   5.420   2.565   6.349
 2641SOL    HW2 8823   5.386   2.445   6.455
 2642SOL     OW 8824   7.018   1.575   3.885
 2642SOL    HW1 8825   0.015   1.647   3.817
 2642SOL    HW2 8826   6.921   1.552   3.886
 2643SOL     OW 8827   1.707   4.679   3.750
 2643SOL    HW1 8828   1.780   4.610   3.746
 2643SOL    HW2 8829   1.722   4.739   3.828
 2644SOL     OW 8830   5.238   5.151   4.586
 2644SOL    HW1 8831   5.331   5.120   4.608
 2644SOL    HW2 8832   5.172   5.094   4.635
 2645SOL     OW 8833   5.379   5.388   3.366
 2645SOL    HW1 8834   5.473   5.361   3.346
 2645SOL    HW2 8835   5.378   5.479   3.406
 2646SOL     OW 8836   0.488   2.961   5.832
 2646SOL    HW1 8837   0.558   2.896   5.803
 2646SOL    HW2 8838   0.523   3.018   5.906
 2647SOL     OW 8839   4.979   0.251   1.941
 2647SOL    HW1 8840   4.899   0.208   1.982
 2647SOL    HW2 8841   5.059   0.193   1.955
 2648SOL     OW 8842   0.957   0.192   5.582
 2648SOL    HW1 8843   0.891   0.240   5.525
 2648SOL    HW2 8844   0.970   0.099   5.547
 2649SOL     OW 8845   4.936   2.891   1.726
 2649SOL    HW1 8846   4.948   2.983   1.762
 2649SOL    HW2 8847   4.860   2.890   1.662
 2650SOL     OW 8848   3.503   6.746   4.609
 2650SOL    HW1 8849   3.571   6.717   4.541
 2650SOL    HW2 8850   3.417   6.697   4.592
 2651SOL     OW 8851   3.851   2.120   5.022
 2651SOL    HW1 8852   3.814   2.213   5.019
 2651SOL    HW2 8853   3.950   2.124   5.012
 2652SOL     OW 8854   5.171   4.769   5.743
 2652SOL    HW1 8855   5.234   4.692   5.730
 2652SOL    HW2 8856   5.198   4.821   5.824
 2653SOL     OW 8857   2.734   6.200   0.417
 2653SOL    HW1 8858   2.813   6.231   0.470
 2653SOL    HW2 8859   2.732   6.247   0.329
 2654SOL     OW 8860   6.151   0.659   0.699
 2654SOL    HW1 8861   6.141   0.673   0.601
 2654SOL    HW2 8862   6.166   0.747   0.744
 2655SOL     OW 8863   4.564   5.547   2.835
 2655SOL    HW1 8864   4.663   5.539   2.827
 2655SOL    HW2 8865   4.534   5.636   2.800
 2656SOL     OW 8866   3.639   5.869   3.580
 2656SOL    HW1 8867   3.657   5.928   3.501
 2656SOL    HW2 8868   3.722   5.862   3.635
 2657SOL     OW 8869   1.721   3.851   0.348
 2657SOL    HW1 8870   1.692   3.769   0.397
 2657SOL    HW2 8871   1.807   3.833   0.300
 2658SOL     OW 8872   3.777   5.094   6.589
 2658SOL    HW1 8873   3.860   5.110   6.537
 2658SOL    HW2 8874   3.786   5.134   6.681
 2659SOL     OW 8875   6.472   2.411   4.545
 2659SOL    HW1 8876   6.530   2.331   4.530
 2659SOL    HW2 8877   6.491   2.449   4.636
 2660SOL     OW 8878   0.787   2.008   2.037
 2660SOL    HW1 8879   0.868   1.953   2.053
 2660SOL    HW2 8880   0.798   2.098   2.080
 2661SOL     OW 8881   1.864   1.153   0.552
 2661SOL    HW1 8882   1.780   1.102   0.570
 2661SOL    HW2 8883   1.888   1.146   0.455
 2662SOL     OW 8884   2.946   0.870   2.423
 2662SOL    HW1 8885   2.987   0.780   2.404
 2662SOL    HW2 8886   2.998   0.941   2.376
 2663SOL     OW 8887   4.505   6.620   0.299
 2663SOL    HW1 8888   4.562   6.689   0.343
 2663SOL    HW2 8889   4.424   6.604   0.355
 2664SOL     OW 8890   4.396   3.115   6.220
 2664SOL    HW1 8891   4.421   3.040   6.158
 2664SOL    HW2 8892   4.297   3.125   6.221
 2665SOL     OW 8893   1.776   3.611   4.606
 2665SOL    HW1 8894   1.758   3.701   4.566
 2665SOL    HW2 8895   1.858   3.616   4.663
 2666SOL     OW 8896   2.002   3.992   1.962
 2666SOL    HW1 8897   2.072   3.981   1.892
 2666SOL    HW2 8898   1.968   3.902   1.990
 2667SOL     OW 8899   6.327   4.049   4.492
 2667SOL    HW1 8900   6.234   4.020   4.516
 2667SOL    HW2 8901   6.386   3.968   4.486
 2668SOL     OW 8902   6.716   0.990   3.960
 2668SOL    HW1 8903   6.808   1.027   3.979
 2668SOL    HW2 8904   6.655   1.065   3.934
 2669SOL     OW 8905   2.497   0.641   0.199
 2669SOL    HW1 8906   2.596   0.657   0.198
 2669SOL    HW2 8907   2.474   0.581   0.275
 2670SOL     OW 8908   0.221   0.028   6.460
 2670SOL    HW1 8909   0.251   0.086   6.536
 2670SOL    HW2 8910   0.192   0.086   6.384
 2671SOL     OW 8911   4.165   4.687   6.233
 2671SOL    HW1 8912   4.204   4.602   6.199
 2671SOL    HW2 8913   4.210   4.713   6.319
 2672SOL     OW 8914   3.652   0.775   1.791
 2672SOL    HW1 8915   3.694   0.825   1.867
 2672SOL    HW2 8916   3.636   0.680   1.818
 2673SOL     OW 8917   4.458   0.742   2.969
 2673SOL    HW1 8918   4.361   0.736   2.945
 2673SOL    HW2 8919   4.497   0.824   2.928
 2674SOL     OW 8920   0.558   4.757   2.036
 2674SOL    HW1 8921   0.536   4.793   2.126
 2674SOL    HW2 8922   0.624   4.817   1.991
 2675SOL     OW 8923   5.610   0.374   4.972
 2675SOL    HW1 8924   5.648   0.450   5.024
 2675SOL    HW2 8925   5.511   0.383   4.967
 2676SOL     OW 8926   3.572   3.858   2.842
 2676SOL    HW1 8927   3.554   3.957   2.842
 2676SOL    HW2 8928   3.666   3.841   2.813
 2677SOL     OW 8929   2.191   5.051   1.406
 2677SOL    HW1 8930   2.249   5.117   1.357
 2677SOL    HW2 8931   2.097   5.058   1.374
 2678SOL     OW 8932   5.445   2.172   2.670
 2678SOL    HW1 8933   5.490   2.156   2.758
 2678SOL    HW2 8934   5.459   2.267   2.642
 2679SOL     OW 8935   2.045   4.691   3.542
 2679SOL    HW1 8936   2.126   4.727   3.496
 2679SOL    HW2 8937   1.990   4.768   3.576
 2680SOL     OW 8938   0.103   1.849   0.421
 2680SOL    HW1 8939   0.115   1.885   0.329
 2680SOL    HW2 8940   0.055   1.917   0.477
 2681SOL     OW 8941   1.709   2.216   5.485
 2681SOL    HW1 8942   1.625   2.206   5.538
 2681SOL    HW2 8943   1.767   2.287   5.526
 2682SOL     OW 8944   4.148   4.097   1.510
 2682SOL    HW1 8945   4.188   4.172   1.562
 2682SOL    HW2 8946   4.094   4.133   1.434
 2683SOL     OW 8947   2.582   4.580   2.571
 2683SOL    HW1 8948   2.650   4.634   2.521
 2683SOL    HW2 8949   2.527   4.528   2.506
 2684SOL     OW 8950   5.949   6.810   3.140
 2684SOL    HW1 8951   5.873   6.832   3.079
 2684SOL    HW2 8952   5.984   6.893   3.182
 2685SOL     OW 8953   1.390   5.992   5.586
 2685SOL    HW1 8954   1.446   5.964   5.508
 2685SOL    HW2 8955   1.377   5.914   5.647
 2686SOL     OW 8956   1.130   1.493   4.858
 2686SOL    HW1 8957   1.084   1.526   4.941
 2686SOL    HW2 8958   1.144   1.570   4.796
 2687SOL     OW 8959   3.823   1.408   1.706
 2687SOL    HW1 8960   3.898   1.459   1.665
 2687SOL    HW2 8961   3.821   1.425   1.805
 2688SOL     OW 8962   3.698   3.120   6.054
 2688SOL    HW1 8963   3.680   3.021   6.053
 2688SOL    HW2 8964   3.662   3.162   5.971
 2689SOL     OW 8965   1.196   3.347   2.749
 2689SOL    HW1 8966   1.234   3.395   2.669
 2689SOL    HW2 8967   1.270   3.314   2.807
 2690SOL     OW 8968   3.955   1.467   6.007
 2690SOL    HW1 8969   3.979   1.488   6.101
 2690SOL    HW2 8970   3.877   1.524   5.979
 2691SOL     OW 8971   6.977   4.447   4.141
 2691SOL    HW1 8972   6.886   4.463   4.103
 2691SOL    HW2 8973   7.015   4.533   4.174
 2692SOL     OW 8974   3.413   5.857   2.786
 2692SOL    HW1 8975   3.459   5.817   2.865
 2692SOL    HW2 8976   3.366   5.941   2.813
 2693SOL     OW 8977   2.334   5.618   3.252
 2693SOL    HW1 8978   2.375   5.608   3.162
 2693SOL    HW2 8979   2.376   5.552   3.315
 2694SOL     OW 8980   3.404   6.914   3.863
 2694SOL    HW1 8981   3.492   6.927   3.909
 2694SOL    HW2 8982   3.403   6.965   3.777
 2695SOL     OW 8983   0.210   5.588   3.499
 2695SOL    HW1 8984   0.243   5.626   3.413
 2695SOL    HW2 8985   0.131   5.530   3.482
 2696SOL     OW 8986   5.000   4.257   6.732
 2696SOL    HW1 8987   4.912   4.301   6.714
 2696SOL    HW2 8988   4.987   4.158   6.738
 2697SOL     OW 8989   3.848   2.079   0.203
 2697SOL    HW1 8990   3.752   2.053   0.195
 2697SOL    HW2 8991   3.891   2.029   0.278
 2698SOL     OW 8992   1.651   4.380   6.180
 2698SOL    HW1 8993   1.704   4.322   6.242
 2698SOL    HW2 8994   1.556   4.348   6.177
 2699SOL     OW 8995   3.452   6.370   2.045
 2699SOL    HW1 8996   3.402   6.284   2.048
 2699SOL    HW2 8997   3.517   6.368   1.969
 2700SOL     OW 8998   3.826   1.756   1.566
 2700SOL    HW1 8999   3.729   1.761   1.590
 2700SOL    HW2 9000   3.880   1.735   1.647
 2701SOL     OW 9001   5.365   3.039   5.002
 2701SOL    HW1 9002   5.428   3.031   4.925
 2701SOL    HW2 9003   5.275   3.005   4.975
 2702SOL     OW 9004   2.437   1.516   4.991
 2702SOL    HW1 9005   2.439   1.600   4.937
 2702SOL    HW2 9006   2.528   1.496   5.026
 2703SOL     OW 9007   1.103   6.961   2.252
 2703SOL    HW1 9008   1.194   6.940   2.217
 2703SOL    HW2 9009   1.096   6.931   2.347
 2704SOL     OW 9010   5.108   0.215   4.827
 2704SOL    HW1 9011   5.117   0.135   4.767
 2704SOL    HW2 9012   5.062   0.288   4.777
 2705SOL     OW 9013   6.844   0.105   5.208
 2705SOL    HW1 9014   6.882   0.013   5.219
 2705SOL    HW2 9015   6.874   0.162   5.285
 2706SOL     OW 9016   6.983   3.629   3.640
 2706SOL    HW1 9017   7.007   3.553   3.580
 2706SOL    HW2 9018   6.906   3.603   3.698
 2707SOL     OW 9019   3.770   0.568   3.487
 2707SOL    HW1 9020   3.807   0.661   3.485
 2707SOL    HW2 9021   3.685   0.565   3.434
 2708SOL     OW 9022   6.003   3.114   7.000
 2708SOL    HW1 9023   5.909   3.146   7.014
 2708SOL    HW2 9024   6.032   3.062   0.060
 2709SOL     OW 9025   4.422   1.303   4.246
 2709SOL    HW1 9026   4.411   1.235   4.174
 2709SOL    HW2 9027   4.516   1.338   4.244
 2710SOL     OW 9028   1.119   2.740   3.687
 2710SOL    HW1 9029   1.215   2.727   3.712
 2710SOL    HW2 9030   1.067   2.658   3.712
 2711SOL     OW 9031   3.326   1.978   2.258
 2711SOL    HW1 9032   3.261   2.050   2.284
 2711SOL    HW2 9033   3.371   2.003   2.172
 2712SOL     OW 9034   4.039   5.843   1.711
 2712SOL    HW1 9035   3.962   5.793   1.751
 2712SOL    HW2 9036   4.107   5.861   1.781
 2713SOL     OW 9037   3.284   4.680   6.596
 2713SOL    HW1 9038   3.232   4.709   6.677
 2713SOL    HW2 9039   3.291   4.581   6.595
 2714SOL     OW 9040   2.390   4.588   6.778
 2714SOL    HW1 9041   2.484   4.579   6.811
 2714SOL    HW2 9042   2.379   4.534   6.695
 2715SOL     OW 9043   4.393   0.905   1.021
 2715SOL    HW1 9044   4.335   0.877   1.097
 2715SOL    HW2 9045   4.483   0.863   1.031
 2716SOL     OW 9046   4.260   1.797   3.297
 2716SOL    HW1 9047   4.300   1.721   3.245
 2716SOL    HW2 9048   4.161   1.787   3.299
 2717SOL     OW 9049   0.945   0.694   3.027
 2717SOL    HW1 9050   0.985   0.727   2.942
 2717SOL    HW2 9051   0.946   0.768   3.095
 2718SOL     OW 9052   0.559   0.350   5.837
 2718SOL    HW1 9053   0.528   0.445   5.831
 2718SOL    HW2 9054   0.552   0.319   5.932
 2719SOL     OW 9055   2.092   3.561   2.453
 2719SOL    HW1 9056   2.092   3.498   2.375
 2719SOL    HW2 9057   2.042   3.644   2.429
 2720SOL     OW 9058   2.080   6.719   5.720
 2720SOL    HW1 9059   2.036   6.700   5.633
 2720SOL    HW2 9060   2.049   6.653   5.789
 2721SOL     OW 9061   3.424   6.270   1.723
 2721SOL    HW1 9062   3.386   6.308   1.639
 2721SOL    HW2 9063   3.351   6.230   1.778
 2722SOL     OW 9064   4.846   6.088   6.919
 2722SOL    HW1 9065   4.884   5.998   6.940
 2722SOL    HW2 9066   4.913   6.141   6.867
 2723SOL     OW 9067   3.098   6.553   0.308
 2723SOL    HW1 9068   3.021   6.610   0.335
 2723SOL    HW2 9069   3.132   6.502   0.387
 2724SOL     OW 9070   1.098   6.304   0.943
 2724SOL    HW1 9071   1.135   6.356   0.867
 2724SOL    HW2 9072   1.141   6.335   1.028
 2725SOL     OW 9073   5.417   3.716   5.259
 2725SOL    HW1 9074   5.492   3.657   5.228
 2725SOL    HW2 9075   5.447   3.812   5.255
 2726SOL     OW 9076   6.843   1.387   1.728
 2726SOL    HW1 9077   6.923   1.446   1.741
 2726SOL    HW2 9078   6.822   1.339   1.812
 2727SOL     OW 9079   1.230   4.159   4.524
 2727SOL    HW1 9080   1.272   4.073   4.552
 2727SOL    HW2 9081   1.256   4.231   4.588
 2728SOL     OW 9082   5.834   5.971   5.838
 2728SOL    HW1 9083   5.830   5.961   5.739
 2728SOL    HW2 9084   5.858   5.883   5.879
 2729SOL     OW 9085   5.514   6.078   6.172
 2729SOL    HW1 9086   5.535   6.006   6.239
 2729SOL    HW2 9087   5.553   6.165   6.204
 2730SOL     OW 9088   0.715   5.620   1.985
 2730SOL    HW1 9089   0.738   5.522   1.988
 2730SOL    HW2 9090   0.796   5.673   1.961
 2731SOL     OW 9091   3.339   3.625   4.267
 2731SOL    HW1 9092   3.273   3.661   4.332
 2731SOL    HW2 9093   3.310   3.534   4.236
 2732SOL     OW 9094   5.405   1.643   1.961
 2732SOL    HW1 9095   5.310   1.649   1.933
 2732SOL    HW2 9096   5.417   1.683   2.052
 2733SOL     OW 9097   1.035   0.071   6.217
 2733SOL    HW1 9098   1.046   7.005   6.269
 2733SOL    HW2 9099   0.938   0.091   6.205
 2734SOL     OW 9100   3.076   6.272   1.459
 2734SOL    HW1 9101   3.060   6.232   1.369
 2734SOL    HW2 9102   3.063   6.202   1.529
 2735SOL     OW 9103   0.477   1.133   1.786
 2735SOL    HW1 9104   0.456   1.217   1.837
 2735SOL    HW2 9105   0.393   1.080   1.775
 2736SOL     OW 9106   5.235   4.909   3.287
 2736SOL    HW1 9107   5.227   4.813   3.312
 2736SOL    HW2 9108   5.144   4.948   3.274
 2737SOL     OW 9109   2.372   2.172   6.386
 2737SOL    HW1 9110   2.461   2.211   6.365
 2737SOL    HW2 9111   2.372   2.135   6.479
 2738SOL     OW 9112   5.639   6.827   1.901
 2738SOL    HW1 9113   5.607   6.798   1.991
 2738SOL    HW2 9114   5.737   6.809   1.892
 2739SOL     OW 9115   0.523   5.643   1.767
 2739SOL    HW1 9116   0.577   5.604   1.842
 2739SOL    HW2 9117   0.530   5.583   1.687
 2740SOL     OW 9118   6.469   5.728   3.463
 2740SOL    HW1 9119   6.565   5.753   3.473
 2740SOL    HW2 9120   6.461   5.629   3.457
 2741SOL     OW 9121   1.031   1.222   5.169
 2741SOL    HW1 9122   0.938   1.260   5.173
 2741SOL    HW2 9123   1.060   1.215   5.073
 2742SOL     OW 9124   3.315   5.552   1.540
 2742SOL    HW1 9125   3.219   5.548   1.567
 2742SOL    HW2 9126   3.327   5.620   1.468
 2743SOL     OW 9127   5.502   3.983   2.830
 2743SOL    HW1 9128   5.549   3.902   2.864
 2743SOL    HW2 9129   5.499   4.053   2.902
 2744SOL     OW 9130   3.454   4.032   3.270
 2744SOL    HW1 9131   3.535   4.048   3.214
 2744SOL    HW2 9132   3.377   4.007   3.212
 2745SOL     OW 9133   0.120   0.170   6.228
 2745SOL    HW1 9134   0.049   0.169   6.158
 2745SOL    HW2 9135   0.206   0.135   6.190
 2746SOL     OW 9136   1.676   0.793   3.995
 2746SOL    HW1 9137   1.624   0.870   4.031
 2746SOL    HW2 9138   1.684   0.722   4.066
 2747SOL     OW 9139   3.931   5.703   0.868
 2747SOL    HW1 9140   3.857   5.642   0.839
 2747SOL    HW2 9141   3.981   5.662   0.944
 2748SOL     OW 9142   4.485   0.021   1.774
 2748SOL    HW1 9143   4.453   0.071   1.693
 2748SOL    HW2 9144   4.584   0.008   1.768
 2749SOL     OW 9145   2.329   3.090   0.042
 2749SOL    HW1 9146   2.235   3.098   0.076
 2749SOL    HW2 9147   2.354   3.172   7.012
 2750SOL     OW 9148   2.050   5.768   2.121
 2750SOL    HW1 9149   1.963   5.782   2.075
 2750SOL    HW2 9150   2.060   5.835   2.195
 2751SOL     OW 9151   6.630   3.312   0.915
 2751SOL    HW1 9152   6.629   3.379   0.841
 2751SOL    HW2 9153   6.671   3.353   0.997
 2752SOL     OW 9154   3.454   4.816   6.823
 2752SOL    HW1 9155   3.383   4.767   6.873
 2752SOL    HW2 9156   3.446   4.797   6.726
 2753SOL     OW 9157   6.138   6.135   5.490
 2753SOL    HW1 9158   6.223   6.184   5.472
 2753SOL    HW2 9159   6.138   6.049   5.438
 2754SOL     OW 9160   1.393   0.093   6.291
 2754SOL    HW1 9161   1.332   0.161   6.332
 2754SOL    HW2 9162   1.373   0.003   6.331
 2755SOL     OW 9163   2.357   6.955   2.426
 2755SOL    HW1 9164   2.450   6.935   2.394
 2755SOL    HW2 9165   2.360   0.010   2.492
 2756SOL     OW 9166   4.872   6.426   0.210
 2756SOL    HW1 9167   4.803   6.498   0.210
 2756SOL    HW2 9168   4.951   6.456   0.264
 2757SOL     OW 9169   0.661   4.618   1.593
 2757SOL    HW1 9170   0.594   4.561   1.546
 2757SOL    HW2 9171   0.648   4.714   1.567
 2758SOL     OW 9172   5.123   0.694   5.602
 2758SOL    HW1 9173   5.174   0.612   5.577
 2758SOL    HW2 9174   5.165   0.736   5.683
 2759SOL     OW 9175   5.601   5.882   4.784
 2759SOL    HW1 9176   5.503   5.891   4.765
 2759SOL    HW2 9177   5.628   5.787   4.774
 2760SOL     OW 9178   2.520   5.213   2.529
 2760SOL    HW1 9179   2.555   5.134   2.480
 2760SOL    HW2 9180   2.544   5.297   2.481
 2761SOL     OW 9181   2.520   6.288   3.074
 2761SOL    HW1 9182   2.448   6.291   3.142
 2761SOL    HW2 9183   2.545   6.193   3.055
 2762SOL     OW 9184   1.033   7.010   4.909
 2762SOL    HW1 9185   1.128   7.016   4.942
 2762SOL    HW2 9186   1.025   0.041   4.823
 2763SOL     OW 9187   5.435   1.813   3.533
 2763SOL    HW1 9188   5.428   1.724   3.577
 2763SOL    HW2 9189   5.463   1.801   3.438
 2764SOL     OW 9190   6.020   1.191   2.281
 2764SOL    HW1 9191   6.073   1.178   2.365
 2764SOL    HW2 9192   5.949   1.121   2.276
 2765SOL     OW 9193   6.332   1.238   1.765
 2765SOL    HW1 9194   6.286   1.286   1.690
 2765SOL    HW2 9195   6.269   1.227   1.842
 2766SOL     OW 9196   5.877   0.983   2.013
 2766SOL    HW1 9197   5.850   0.927   2.092
 2766SOL    HW2 9198   5.897   0.924   1.936
 2767SOL     OW 9199   5.408   4.142   6.498
 2767SOL    HW1 9200   5.348   4.152   6.419
 2767SOL    HW2 9201   5.371   4.193   6.575
 2768SOL     OW 9202   5.128   1.704   0.209
 2768SOL    HW1 9203   5.168   1.673   0.295
 2768SOL    HW2 9204   5.155   1.799   0.192
 2769SOL     OW 9205   7.018   4.220   1.896
 2769SOL    HW1 9206   6.964   4.198   1.977
 2769SOL    HW2 9207   0.094   4.194   1.911
 2770SOL     OW 9208   0.800   5.048   1.985
 2770SOL    HW1 9209   0.740   5.120   2.020
 2770SOL    HW2 9210   0.753   4.996   1.914
 2771SOL     OW 9211   5.175   1.307   1.299
 2771SOL    HW1 9212   5.184   1.367   1.219
 2771SOL    HW2 9213   5.116   1.230   1.277
 2772SOL     OW 9214   3.098   2.846   0.068
 2772SOL    HW1 9215   3.094   2.833   6.989
 2772SOL    HW2 9216   3.088   2.943   0.089
 2773SOL     OW 9217   3.838   3.845   6.744
 2773SOL    HW1 9218   3.937   3.829   6.734
 2773SOL    HW2 9219   3.797   3.767   6.791
 2774SOL     OW 9220   5.680   3.166   1.841
 2774SOL    HW1 9221   5.585   3.155   1.871
 2774SOL    HW2 9222   5.703   3.094   1.776
 2775SOL     OW 9223   0.300   5.780   1.716
 2775SOL    HW1 9224   0.390   5.749   1.744
 2775SOL    HW2 9225   0.298   5.795   1.617
 2776SOL     OW 9226   3.155   6.181   6.319
 2776SOL    HW1 9227   3.085   6.251   6.333
 2776SOL    HW2 9228   3.223   6.215   6.253
 2777SOL     OW 9229   3.205   1.532   2.485
 2777SOL    HW1 9230   3.253   1.447   2.505
 2777SOL    HW2 9231   3.238   1.605   2.545
 2778SOL     OW 9232   2.310   2.381   5.543
 2778SOL    HW1 9233   2.305   2.438   5.625
 2778SOL    HW2 9234   2.226   2.329   5.533
 2779SOL     OW 9235   5.248   0.436   6.595
 2779SOL    HW1 9236   5.325   0.372   6.602
 2779SOL    HW2 9237   5.217   0.441   6.500
 2780SOL     OW 9238   5.562   5.674   6.510
 2780SOL    HW1 9239   5.604   5.730   6.581
 2780SOL    HW2 9240   5.560   5.578   6.539
 2781SOL     OW 9241   5.755   4.697   1.105
 2781SOL    HW1 9242   5.790   4.757   1.033
 2781SOL    HW2 9243   5.727   4.610   1.065
 2782SOL     OW 9244   2.865   2.878   6.477
 2782SOL    HW1 9245   2.770   2.909   6.475
 2782SOL    HW2 9246   2.870   2.785   6.441
 2783SOL     OW 9247   6.717   4.950   5.420
 2783SOL    HW1 9248   6.780   4.986   5.489
 2783SOL    HW2 9249   6.721   5.008   5.338
 2784SOL     OW 9250   2.406   1.999   1.546
 2784SOL    HW1 9251   2.402   2.068   1.474
 2784SOL    HW2 9252   2.501   1.987   1.576
 2785SOL     OW 9253   6.480   0.703   0.562
 2785SOL    HW1 9254   6.488   0.675   0.466
 2785SOL    HW2 9255   6.435   0.631   0.614
 2786SOL     OW 9256   4.161   6.586   1.444
 2786SOL    HW1 9257   4.129   6.655   1.378
 2786SOL    HW2 9258   4.206   6.511   1.395
 2787SOL     OW 9259   2.376   2.908   5.535
 2787SOL    HW1 9260   2.338   2.896   5.443
 2787SOL    HW2 9261   2.429   2.827   5.560
 2788SOL     OW 9262   1.945   4.505   0.518
 2788SOL    HW1 9263   2.025   4.487   0.575
 2788SOL    HW2 9264   1.924   4.602   0.520
 2789SOL     OW 9265   0.458   2.102   4.267
 2789SOL    HW1 9266   0.547   2.059   4.278
 2789SOL    HW2 9267   0.444   2.127   4.172
 2790SOL     OW 9268   3.827   5.432   2.835
 2790SOL    HW1 9269   3.912   5.468   2.797
 2790SOL    HW2 9270   3.819   5.335   2.812
 2791SOL     OW 9271   1.696   3.243   5.096
 2791SOL    HW1 9272   1.700   3.146   5.069
 2791SOL    HW2 9273   1.696   3.300   5.014
 2792SOL     OW 9274   0.613   1.757   4.917
 2792SOL    HW1 9275   0.518   1.729   4.911
 2792SOL    HW2 9276   0.622   1.853   4.890
 2793SOL     OW 9277   4.754   1.776   2.936
 2793SOL    HW1 9278   4.710   1.687   2.926
 2793SOL    HW2 9279   4.697   1.836   2.993
 2794SOL     OW 9280   0.777   0.307   0.749
 2794SOL    HW1 9281   0.795   0.312   0.651
 2794SOL    HW2 9282   0.813   0.390   0.793
 2795SOL     OW 9283   3.085   3.804   1.546
 2795SOL    HW1 9284   3.090   3.832   1.641
 2795SOL    HW2 9285   2.995   3.826   1.508
 2796SOL     OW 9286   5.620   4.312   2.684
 2796SOL    HW1 9287   5.536   4.258   2.689
 2796SOL    HW2 9288   5.640   4.333   2.588
 2797SOL     OW 9289   5.186   5.242   4.998
 2797SOL    HW1 9290   5.116   5.172   4.993
 2797SOL    HW2 9291   5.252   5.218   5.069
 2798SOL     OW 9292   0.963   3.340   3.609
 2798SOL    HW1 9293   0.865   3.329   3.592
 2798SOL    HW2 9294   1.013   3.333   3.523
 2799SOL     OW 9295   6.452   4.905   6.295
 2799SOL    HW1 9296   6.524   4.836   6.284
 2799SOL    HW2 9297   6.455   4.941   6.389
 2800SOL     OW 9298   2.795   4.717   6.726
 2800SOL    HW1 9299   2.804   4.812   6.758
 2800SOL    HW2 9300   2.715   4.675   6.768
 2801SOL     OW 9301   5.656   5.680   1.551
 2801SOL    HW1 9302   5.558   5.674   1.530
 2801SOL    HW2 9303   5.694   5.589   1.559
 2802SOL     OW 9304   4.202   1.734   6.061
 2802SOL    HW1 9305   4.271   1.806   6.069
 2802SOL    HW2 9306   4.115   1.768   6.095
 2803SOL     OW 9307   2.495   6.751   6.604
 2803SOL    HW1 9308   2.559   6.717   6.535
 2803SOL    HW2 9309   2.406   6.770   6.562
 2804SOL     OW 9310   6.993   4.287   3.497
 2804SOL    HW1 9311   0.023   4.290   3.411
 2804SOL    HW2 9312   0.016   4.347   3.563
 2805SOL     OW 9313   5.013   3.348   0.815
 2805SOL    HW1 9314   4.933   3.385   0.767
 2805SOL    HW2 9315   4.990   3.337   0.912
 2806SOL     OW 9316   6.537   5.411   2.910
 2806SOL    HW1 9317   6.497   5.502   2.913
 2806SOL    HW2 9318   6.629   5.416   2.872
 2807SOL     OW 9319   4.142   4.933   3.189
 2807SOL    HW1 9320   4.226   4.879   3.196
 2807SOL    HW2 9321   4.134   4.993   3.268
 2808SOL     OW 9322   5.550   1.062   3.833
 2808SOL    HW1 9323   5.572   0.966   3.850
 2808SOL    HW2 9324   5.561   1.082   3.736
 2809SOL     OW 9325   4.952   2.588   0.543
 2809SOL    HW1 9326   4.995   2.677   0.532
 2809SOL    HW2 9327   4.994   2.539   0.620
 2810SOL     OW 9328   2.599   6.990   5.169
 2810SOL    HW1 9329   2.666   0.038   5.200
 2810SOL    HW2 9330   2.627   6.955   5.079
 2811SOL     OW 9331   0.458   1.514   3.345
 2811SOL    HW1 9332   0.445   1.463   3.261
 2811SOL    HW2 9333   0.441   1.611   3.328
 2812SOL     OW 9334   4.869   3.784   2.144
 2812SOL    HW1 9335   4.816   3.866   2.120
 2812SOL    HW2 9336   4.917   3.750   2.064
 2813SOL     OW 9337   5.807   0.599   6.217
 2813SOL    HW1 9338   5.836   0.652   6.297
 2813SOL    HW2 9339   5.711   0.575   6.226
 2814SOL     OW 9340   4.356   4.023   5.600
 2814SOL    HW1 9341   4.408   3.946   5.636
 2814SOL    HW2 9342   4.410   4.106   5.606
 2815SOL     OW 9343   0.316   1.017   4.835
 2815SOL    HW1 9344   0.397   1.046   4.783
 2815SOL    HW2 9345   0.240   1.003   4.772
 2816SOL     OW 9346   6.048   0.235   4.476
 2816SOL    HW1 9347   6.029   0.193   4.387
 2816SOL    HW2 9348   5.997   0.321   4.484
 2817SOL     OW 9349   1.584   1.137   1.619
 2817SOL    HW1 9350   1.634   1.195   1.683
 2817SOL    HW2 9351   1.570   1.047   1.660
 2818SOL     OW 9352   6.775   4.632   5.957
 2818SOL    HW1 9353   6.725   4.590   5.881
 2818SOL    HW2 9354   6.871   4.640   5.933
 2819SOL     OW 9355   0.287   3.005   0.385
 2819SOL    HW1 9356   0.375   2.976   0.423
 2819SOL    HW2 9357   0.222   3.022   0.459
 2820SOL     OW 9358   6.957   3.103   2.955
 2820SOL    HW1 9359   6.956   3.186   3.009
 2820SOL    HW2 9360   6.968   3.126   2.858
 2821SOL     OW 9361   1.543   4.493   5.066
 2821SOL    HW1 9362   1.628   4.445   5.042
 2821SOL    HW2 9363   1.465   4.445   5.026
 2822SOL     OW 9364   5.199   2.102   6.964
 2822SOL    HW1 9365   5.222   2.183   7.018
 2822SOL    HW2 9366   5.220   2.121   6.867
 2823SOL     OW 9367   2.038   6.801   2.058
 2823SOL    HW1 9368   2.069   6.828   2.149
 2823SOL    HW2 9369   1.940   6.781   2.061
 2824SOL     OW 9370   2.755   0.993   5.543
 2824SOL    HW1 9371   2.655   0.998   5.554
 2824SOL    HW2 9372   2.789   1.081   5.512
 2825SOL     OW 9373   6.567   6.416   1.301
 2825SOL    HW1 9374   6.494   6.436   1.236
 2825SOL    HW2 9375   6.550   6.463   1.387
 2826SOL     OW 9376   5.074   1.612   4.826
 2826SOL    HW1 9377   5.051   1.532   4.771
 2826SOL    HW2 9378   5.169   1.639   4.809
 2827SOL     OW 9379   5.997   1.210   5.366
 2827SOL    HW1 9380   5.929   1.157   5.314
 2827SOL    HW2 9381   6.088   1.193   5.328
 2828SOL     OW 9382   4.288   0.749   5.802
 2828SOL    HW1 9383   4.214   0.810   5.772
 2828SOL    HW2 9384   4.301   0.677   5.734
 2829SOL     OW 9385   3.625   6.486   6.013
 2829SOL    HW1 9386   3.640   6.570   6.065
 2829SOL    HW2 9387   3.623   6.408   6.075
 2830SOL     OW 9388   4.290   3.283   0.029
 2830SOL    HW1 9389   4.307   3.312   6.955
 2830SOL    HW2 9390   4.323   3.353   0.092
 2831SOL     OW 9391   5.352   6.137   3.932
 2831SOL    HW1 9392   5.304   6.213   3.975
 2831SOL    HW2 9393   5.335   6.053   3.983
 2832SOL     OW 9394   0.231   1.010   1.799
 2832SOL    HW1 9395   0.222   0.912   1.781
 2832SOL    HW2 9396   0.144   1.046   1.831
 2833SOL     OW 9397   5.898   2.740   2.278
 2833SOL    HW1 9398   5.920   2.808   2.209
 2833SOL    HW2 9399   5.818   2.687   2.249
 2834SOL     OW 9400   3.423   1.503   5.202
 2834SOL    HW1 9401   3.512   1.523   5.161
 2834SOL    HW2 9402   3.434   1.427   5.267
 2835SOL     OW 9403   0.375   6.757   2.439
 2835SOL    HW1 9404   0.386   6.856   2.438
 2835SOL    HW2 9405   0.288   6.733   2.482
 2836SOL     OW 9406   6.919   0.047   1.422
 2836SOL    HW1 9407   6.959   6.984   1.459
 2836SOL    HW2 9408   6.870   0.096   1.495
 2837SOL     OW 9409   5.666   3.883   3.686
 2837SOL    HW1 9410   5.581   3.863   3.735
 2837SOL    HW2 9411   5.645   3.938   3.604
 2838SOL     OW 9412   2.907   4.990   2.198
 2838SOL    HW1 9413   2.906   5.074   2.251
 2838SOL    HW2 9414   2.949   4.917   2.253
 2839SOL     OW 9415   5.439   1.677   1.117
 2839SOL    HW1 9416   5.479   1.689   1.026
 2839SOL    HW2 9417   5.506   1.637   1.179
 2840SOL     OW 9418   6.279   1.176   5.395
 2840SOL    HW1 9419   6.348   1.233   5.351
 2840SOL    HW2 9420   6.323   1.115   5.461
 2841SOL     OW 9421   0.863   5.742   1.045
 2841SOL    HW1 9422   0.892   5.801   0.971
 2841SOL    HW2 9423   0.862   5.793   1.131
 2842SOL     OW 9424   6.835   3.109   3.874
 2842SOL    HW1 9425   6.908   3.045   3.854
 2842SOL    HW2 9426   6.786   3.132   3.790
 2843SOL     OW 9427   3.832   0.968   4.664
 2843SOL    HW1 9428   3.873   0.897   4.606
 2843SOL    HW2 9429   3.823   1.053   4.611
 2844SOL     OW 9430   0.528   4.154   6.842
 2844SOL    HW1 9431   0.476   4.071   6.862
 2844SOL    HW2 9432   0.504   4.187   6.750
 2845SOL     OW 9433   0.154   4.423   6.292
 2845SOL    HW1 9434   0.104   4.486   6.233
 2845SOL    HW2 9435   0.187   4.346   6.237
 2846SOL     OW 9436   4.746   1.590   6.349
 2846SOL    HW1 9437   4.681   1.650   6.302
 2846SOL    HW2 9438   4.835   1.595   6.304
 2847SOL     OW 9439   6.479   4.663   4.266
 2847SOL    HW1 9440   6.576   4.677   4.251
 2847SOL    HW2 9441   6.428   4.699   4.187
 2848SOL     OW 9442   0.820   5.140   4.874
 2848SOL    HW1 9443   0.757   5.204   4.918
 2848SOL    HW2 9444   0.787   5.047   4.887
 2849SOL     OW 9445   2.871   1.702   0.960
 2849SOL    HW1 9446   2.880   1.801   0.946
 2849SOL    HW2 9447   2.776   1.674   0.943
 2850SOL     OW 9448   3.759   0.091   0.864
 2850SOL    HW1 9449   3.797   0.137   0.784
 2850SOL    HW2 9450   3.786   7.015   0.863
 2851SOL     OW 9451   1.008   4.456   5.698
 2851SOL    HW1 9452   0.933   4.487   5.755
 2851SOL    HW2 9453   1.095   4.469   5.747
 2852SOL     OW 9454   6.515   3.339   6.287
 2852SOL    HW1 9455   6.566   3.400   6.227
 2852SOL    HW2 9456   6.435   3.304   6.239
 2853SOL     OW 9457   3.647   3.023   0.953
 2853SOL    HW1 9458   3.578   2.993   1.019
 2853SOL    HW2 9459   3.738   3.019   0.996
 2854SOL     OW 9460   2.601   0.498   4.281
 2854SOL    HW1 9461   2.601   0.451   4.193
 2854SOL    HW2 9462   2.507   0.521   4.307
 2855SOL     OW 9463   1.859   1.077   5.160
 2855SOL    HW1 9464   1.824   1.019   5.086
 2855SOL    HW2 9465   1.920   1.147   5.123
 2856SOL     OW 9466   2.547   2.759   5.220
 2856SOL    HW1 9467   2.629   2.712   5.254
 2856SOL    HW2 9468   2.569   2.855   5.201
 2857SOL     OW 9469   3.089   2.426   1.479
 2857SOL    HW1 9470   2.992   2.453   1.473
 2857SOL    HW2 9471   3.123   2.407   1.387
 2858SOL     OW 9472   6.183   3.039   2.864
 2858SOL    HW1 9473   6.274   3.045   2.903
 2858SOL    HW2 9474   6.152   2.944   2.863
 2859SOL     OW 9475   5.212   0.687   0.970
 2859SOL    HW1 9476   5.164   0.611   1.013
 2859SOL    HW2 9477   5.152   0.733   0.905
 2860SOL     OW 9478   4.012   1.725   1.795
 2860SOL    HW1 9479   4.085   1.660   1.819
 2860SOL    HW2 9480   4.027   1.811   1.843
 2861SOL     OW 9481   3.673   5.786   5.481
 2861SOL    HW1 9482   3.621   5.870   5.495
 2861SOL    HW2 9483   3.613   5.707   5.495
 2862SOL     OW 9484   5.512   1.196   4.046
 2862SOL    HW1 9485   5.523   1.158   3.954
 2862SOL    HW2 9486   5.415   1.219   4.060
 2863SOL     OW 9487   6.414   1.541   6.804
 2863SOL    HW1 9488   6.425   1.570   6.708
 2863SOL    HW2 9489   6.470   1.599   6.862
 2864SOL     OW 9490   3.935   0.596   0.921
 2864SOL    HW1 9491   3.902   0.592   1.015
 2864SOL    HW2 9492   3.995   0.675   0.910
 2865SOL     OW 9493   4.533   4.365   5.238
 2865SOL    HW1 9494   4.437   4.353   5.264
 2865SOL    HW2 9495   4.539   4.429   5.162
 2866SOL     OW 9496   0.012   6.138   6.345
 2866SOL    HW1 9497   0.018   6.043   6.378
 2866SOL    HW2 9498   0.039   6.142   6.249
 2867SOL     OW 9499   6.266   4.999   3.112
 2867SOL    HW1 9500   6.276   4.913   3.162
 2867SOL    HW2 9501   6.178   5.041   3.136
 2868SOL     OW 9502   1.099   4.236   5.007
 2868SOL    HW1 9503   1.059   4.327   4.996
 2868SOL    HW2 9504   1.026   4.168   5.013
 2869SOL     OW 9505   5.584   0.656   2.044
 2869SOL    HW1 9506   5.624   0.584   2.101
 2869SOL    HW2 9507   5.485   0.646   2.041
 2870SOL     OW 9508   6.416   2.237   3.185
 2870SOL    HW1 9509   6.439   2.301   3.112
 2870SOL    HW2 9510   6.455   2.147   3.164
 2871SOL     OW 9511   1.799   1.881   6.058
 2871SOL    HW1 9512   1.889   1.925   6.060
 2871SOL    HW2 9513   1.758   1.885   6.149
 2872SOL     OW 9514   2.766   0.484   3.903
 2872SOL    HW1 9515   2.842   0.420   3.905
 2872SOL    HW2 9516   2.799   0.575   3.875
 2873SOL     OW 9517   1.040   5.358   2.173
 2873SOL    HW1 9518   1.124   5.404   2.144
 2873SOL    HW2 9519   0.995   5.411   2.245
 2874SOL     OW 9520   5.733   3.651   2.428
 2874SOL    HW1 9521   5.707   3.561   2.394
 2874SOL    HW2 9522   5.685   3.722   2.376
 2875SOL     OW 9523   4.042   6.035   6.328
 2875SOL    HW1 9524   3.946   6.064   6.324
 2875SOL    HW2 9525   4.056   5.957   6.267
 2876SOL     OW 9526   0.352   1.005   1.492
 2876SOL    HW1 9527   0.332   0.987   1.588
 2876SOL    HW2 9528   0.443   0.968   1.470
 2877SOL     OW 9529   2.779   2.652   5.350
 2877SOL    HW1 9530   2.867   2.678   5.309
 2877SOL    HW2 9531   2.749   2.565   5.311
 2878SOL     OW 9532   2.340   4.851   5.112
 2878SOL    HW1 9533   2.408   4.794   5.066
 2878SOL    HW2 9534   2.361   4.856   5.209
 2879SOL     OW 9535   5.178   4.810   0.528
 2879SOL    HW1 9536   5.198   4.789   0.624
 2879SOL    HW2 9537   5.227   4.893   0.502
 2880SOL     OW 9538   0.660   6.524   1.995
 2880SOL    HW1 9539   0.568   6.487   1.994
 2880SOL    HW2 9540   0.682   6.560   1.904
 2881SOL     OW 9541   6.865   5.976   0.893
 2881SOL    HW1 9542   6.843   6.039   0.819
 2881SOL    HW2 9543   6.820   6.007   0.977
 2882SOL     OW 9544   7.006   3.096   2.204
 2882SOL    HW1 9545   6.915   3.079   2.242
 2882SOL    HW2 9546   0.052   3.034   2.246
 2883SOL     OW 9547   3.703   6.981   2.476
 2883SOL    HW1 9548   3.797   7.002   2.450
 2883SOL    HW2 9549   3.660   0.043   2.515
 2884SOL     OW 9550   0.884   6.252   3.212
 2884SOL    HW1 9551   0.832   6.331   3.244
 2884SOL    HW2 9552   0.866   6.173   3.270
 2885SOL     OW 9553   0.816   1.970   2.439
 2885SOL    HW1 9554   0.906   2.011   2.425
 2885SOL    HW2 9555   0.803   1.896   2.373
 2886SOL     OW 9556   2.304   2.018   6.600
 2886SOL    HW1 9557   2.357   2.025   6.685
 2886SOL    HW2 9558   2.212   2.055   6.614
 2887SOL     OW 9559   1.300   0.064   4.547
 2887SOL    HW1 9560   1.378   0.023   4.596
 2887SOL    HW2 9561   1.296   0.028   4.454
 2888SOL     OW 9562   5.870   4.796   6.877
 2888SOL    HW1 9563   5.861   4.894   6.898
 2888SOL    HW2 9564   5.945   4.783   6.812
 2889SOL     OW 9565   0.429   0.297   1.203
 2889SOL    HW1 9566   0.366   0.373   1.189
 2889SOL    HW2 9567   0.407   0.250   1.289
 2890SOL     OW 9568   4.363   0.350   1.793
 2890SOL    HW1 9569   4.385   0.306   1.706
 2890SOL    HW2 9570   4.335   0.281   1.859
 2891SOL     OW 9571   2.108   4.364   3.938
 2891SOL    HW1 9572   2.157   4.429   3.997
 2891SOL    HW2 9573   2.120   4.272   3.974
 2892SOL     OW 9574   4.335   3.792   0.032
 2892SOL    HW1 9575   4.372   3.865   6.995
 2892SOL    HW2 9576   4.250   3.824   0.076
 2893SOL     OW 9577   2.291   0.204   5.059
 2893SOL    HW1 9578   2.308   0.138   4.986
 2893SOL    HW2 9579   2.242   0.283   5.022
 2894SOL     OW 9580   3.377   3.209   0.399
 2894SOL    HW1 9581   3.317   3.238   0.325
 2894SOL    HW2 9582   3.471   3.198   0.365
 2895SOL     OW 9583   4.039   3.041   6.692
 2895SOL    HW1 9584   4.052   3.065   6.596
 2895SOL    HW2 9585   4.128   3.043   6.739
 2896SOL     OW 9586   1.915   5.279   0.170
 2896SOL    HW1 9587   1.946   5.373   0.178
 2896SOL    HW2 9588   1.977   5.219   0.222
 2897SOL     OW 9589   2.675   5.945   3.286
 2897SOL    HW1 9590   2.589   5.906   3.319
 2897SOL    HW2 9591   2.695   6.029   3.336
 2898SOL     OW 9592   4.038   5.046   1.588
 2898SOL    HW1 9593   4.014   5.037   1.491
 2898SOL    HW2 9594   4.049   5.143   1.610
 2899SOL     OW 9595   0.048   0.039   6.752
 2899SOL    HW1 9596   0.132   0.004   6.712
 2899SOL    HW2 9597   0.005   6.987   6.808
 2900SOL     OW 9598   1.225   5.424   5.907
 2900SOL    HW1 9599   1.202   5.328   5.890
 2900SOL    HW2 9600   1.324   5.435   5.909
 2901SOL     OW 9601   3.049   0.650   2.293
 2901SOL    HW1 9602   3.045   0.700   2.206
 2901SOL    HW2 9603   3.005   0.561   2.283
 2902SOL     OW 9604   5.220   5.949   0.820
 2902SOL    HW1 9605   5.201   6.047   0.813
 2902SOL    HW2 9606   5.170   5.912   0.898
 2903SOL     OW 9607   2.764   1.123   2.184
 2903SOL    HW1 9608   2.706   1.197   2.220
 2903SOL    HW2 9609   2.752   1.041   2.241
 2904SOL     OW 9610   2.080   2.800   5.114
 2904SOL    HW1 9611   2.048   2.706   5.124
 2904SOL    HW2 9612   2.128   2.810   5.027
 2905SOL     OW 9613   1.619   2.096   1.801
 2905SOL    HW1 9614   1.573   2.046   1.728
 2905SOL    HW2 9615   1.662   2.030   1.863
 2906SOL     OW 9616   5.426   5.459   2.067
 2906SOL    HW1 9617   5.417   5.430   2.162
 2906SOL    HW2 9618   5.431   5.378   2.008
 2907SOL     OW 9619   0.042   1.328   5.138
 2907SOL    HW1 9620   0.097   1.311   5.057
 2907SOL    HW2 9621   7.004   1.408   5.123
 2908SOL     OW 9622   3.751   6.207   4.304
 2908SOL    HW1 9623   3.838   6.205   4.256
 2908SOL    HW2 9624   3.711   6.115   4.306
 2909SOL     OW 9625   1.708   5.532   4.435
 2909SOL    HW1 9626   1.733   5.545   4.531
 2909SOL    HW2 9627   1.620   5.485   4.429
 2910SOL     OW 9628   4.302   6.076   5.457
 2910SOL    HW1 9629   4.353   6.072   5.543
 2910SOL    HW2 9630   4.362   6.049   5.382
 2911SOL     OW 9631   1.896   4.584   3.344
 2911SOL    HW1 9632   1.948   4.647   3.402
 2911SOL    HW2 9633   1.801   4.581   3.375
 2912SOL     OW 9634   2.918   6.064   0.138
 2912SOL    HW1 9635   2.877   6.094   0.051
 2912SOL    HW2 9636   2.961   6.142   0.183
 2913SOL     OW 9637   1.560   3.345   2.612
 2913SOL    HW1 9638   1.500   3.404   2.667
 2913SOL    HW2 9639   1.645   3.393   2.592
 2914SOL     OW 9640   5.783   5.038   6.244
 2914SOL    HW1 9641   5.825   4.987   6.169
 2914SOL    HW2 9642   5.684   5.026   6.242
 2915SOL     OW 9643   4.226   1.933   3.943
 2915SOL    HW1 9644   4.187   1.917   3.853
 2915SOL    HW2 9645   4.256   2.028   3.950
 2916SOL     OW 9646   6.239   5.102   5.339
 2916SOL    HW1 9647   6.151   5.133   5.304
 2916SOL    HW2 9648   6.277   5.172   5.399
 2917SOL     OW 9649   4.784   0.346   1.591
 2917SOL    HW1 9650   4.773   0.412   1.517
 2917SOL    HW2 9651   4.729   0.375   1.670
 2918SOL     OW 9652   0.376   4.068   4.050
 2918SOL    HW1 9653   0.281   4.096   4.061
 2918SOL    HW2 9654   0.392   4.038   3.956
 2919SOL     OW 9655   5.788   6.214   0.530
 2919SOL    HW1 9656   5.700   6.179   0.561
 2919SOL    HW2 9657   5.810   6.298   0.580
 2920SOL     OW 9658   3.941   1.882   2.665
 2920SOL    HW1 9659   3.900   1.968   2.694
 2920SOL    HW2 9660   3.993   1.896   2.581
 2921SOL     OW 9661   0.602   1.067   3.036
 2921SOL    HW1 9662   0.602   1.164   3.013
 2921SOL    HW2 9663   0.558   1.015   2.962
 2922SOL     OW 9664   4.781   0.318   5.408
 2922SOL    HW1 9665   4.694   0.300   5.363
 2922SOL    HW2 9666   4.818   0.232   5.444
 2923SOL     OW 9667   6.517   5.267   2.116
 2923SOL    HW1 9668   6.462   5.266   2.200
 2923SOL    HW2 9669   6.512   5.357   2.074
 2924SOL     OW 9670   0.381   1.463   5.363
 2924SOL    HW1 9671   0.459   1.460   5.427
 2924SOL    HW2 9672   0.304   1.413   5.402
 2925SOL     OW 9673   5.573   3.083   1.547
 2925SOL    HW1 9674   5.559   3.106   1.451
 2925SOL    HW2 9675   5.521   3.147   1.604
 2926SOL     OW 9676   6.842   2.071   4.708
 2926SOL    HW1 9677   6.768   2.111   4.654
 2926SOL    HW2 9678   6.928   2.117   4.686
 2927SOL     OW 9679   1.603   2.575   1.956
 2927SOL    HW1 9680   1.543   2.653   1.946
 2927SOL    HW2 9681   1.597   2.517   1.875
 2928SOL     OW 9682   6.202   0.360   0.055
 2928SOL    HW1 9683   6.173   0.385   6.983
 2928SOL    HW2 9684   6.270   0.287   0.050
 2929SOL     OW 9685   0.643   0.270   6.380
 2929SOL    HW1 9686   0.617   0.180   6.414
 2929SOL    HW2 9687   0.714   0.259   6.310
 2930SOL     OW 9688   4.884   0.633   4.909
 2930SOL    HW1 9689   4.805   0.648   4.849
 2930SOL    HW2 9690   4.913   0.720   4.948
 2931SOL     OW 9691   4.689   6.595   6.701
 2931SOL    HW1 9692   4.659   6.501   6.713
 2931SOL    HW2 9693   4.609   6.655   6.697
 2932SOL     OW 9694   1.255   3.696   1.323
 2932SOL    HW1 9695   1.242   3.709   1.225
 2932SOL    HW2 9696   1.224   3.778   1.371
 2933SOL     OW 9697   5.535   2.699   4.023
 2933SOL    HW1 9698   5.500   2.636   4.093
 2933SOL    HW2 9699   5.623   2.667   3.990
 2934SOL     OW 9700   2.890   0.545   0.281
 2934SOL    HW1 9701   2.827   0.595   0.220
 2934SOL    HW2 9702   2.838   0.482   0.338
 2935SOL     OW 9703   6.000   3.013   0.946
 2935SOL    HW1 9704   5.984   3.010   1.045
 2935SOL    HW2 9705   6.064   3.087   0.925
 2936SOL     OW 9706   4.629   5.621   0.022
 2936SOL    HW1 9707   4.554   5.568   0.060
 2936SOL    HW2 9708   4.617   5.718   0.047
 2937SOL     OW 9709   3.516   5.880   0.484
 2937SOL    HW1 9710   3.576   5.825   0.542
 2937SOL    HW2 9711   3.530   5.854   0.388
 2938SOL     OW 9712   5.389   5.455   5.289
 2938SOL    HW1 9713   5.377   5.516   5.210
 2938SOL    HW2 9714   5.375   5.507   5.373
 2939SOL     OW 9715   6.583   6.660   5.552
 2939SOL    HW1 9716   6.666   6.642   5.605
 2939SOL    HW2 9717   6.585   6.608   5.467
 2940SOL     OW 9718   5.508   0.021   5.499
 2940SOL    HW1 9719   5.604   0.012   5.473
 2940SOL    HW2 9720   5.466   6.951   5.506
 2941SOL     OW 9721   0.695   2.257   5.116
 2941SOL    HW1 9722   0.755   2.251   5.196
 2941SOL    HW2 9723   0.620   2.192   5.125
 2942SOL     OW 9724   3.815   0.382   2.549
 2942SOL    HW1 9725   3.895   0.347   2.500
 2942SOL    HW2 9726   3.831   0.476   2.578
 2943SOL     OW 9727   5.859   3.542   3.299
 2943SOL    HW1 9728   5.920   3.615   3.332
 2943SOL    HW2 9729   5.903   3.495   3.223
 2944SOL     OW 9730   3.731   5.445   5.336
 2944SOL    HW1 9731   3.794   5.382   5.380
 2944SOL    HW2 9732   3.647   5.452   5.390
 2945SOL     OW 9733   3.350   3.231   3.430
 2945SOL    HW1 9734   3.370   3.285   3.348
 2945SOL    HW2 9735   3.254   3.241   3.454
 2946SOL     OW 9736   6.888   5.782   5.800
 2946SOL    HW1 9737   6.919   5.745   5.713
 2946SOL    HW2 9738   6.856   5.876   5.787
 2947SOL     OW 9739   6.610   3.885   6.862
 2947SOL    HW1 9740   6.702   3.858   6.890
 2947SOL    HW2 9741   6.544   3.817   6.895
 2948SOL     OW 9742   5.976   4.275   4.494
 2948SOL    HW1 9743   5.983   4.352   4.558
 2948SOL    HW2 9744   5.889   4.228   4.509
 2949SOL     OW 9745   1.337   6.505   0.356
 2949SOL    HW1 9746   1.402   6.483   0.429
 2949SOL    HW2 9747   1.387   6.534   0.275
 2950SOL     OW 9748   5.835   3.587   4.210
 2950SOL    HW1 9749   5.866   3.538   4.291
 2950SOL    HW2 9750   5.901   3.658   4.186
 2951SOL     OW 9751   0.471   1.247   1.013
 2951SOL    HW1 9752   0.420   1.170   0.975
 2951SOL    HW2 9753   0.407   1.316   1.047
 2952SOL     OW 9754   1.619   4.141   2.611
 2952SOL    HW1 9755   1.539   4.168   2.666
 2952SOL    HW2 9756   1.670   4.223   2.585
 2953SOL     OW 9757   4.753   2.849   1.520
 2953SOL    HW1 9758   4.767   2.806   1.431
 2953SOL    HW2 9759   4.687   2.794   1.573
 2954SOL     OW 9760   6.487   6.511   2.743
 2954SOL    HW1 9761   6.434   6.476   2.820
 2954SOL    HW2 9762   6.561   6.447   2.722
 2955SOL     OW 9763   0.755   3.025   0.728
 2955SOL    HW1 9764   0.703   3.046   0.811
 2955SOL    HW2 9765   0.833   3.086   0.721
 2956SOL     OW 9766   0.116   5.109   3.019
 2956SOL    HW1 9767   0.212   5.092   3.042
 2956SOL    HW2 9768   0.095   5.066   2.931
 2957SOL     OW 9769   0.456   3.426   1.546
 2957SOL    HW1 9770   0.385   3.494   1.566
 2957SOL    HW2 9771   0.429   3.372   1.466
 2958SOL     OW 9772   1.572   4.580   5.731
 2958SOL    HW1 9773   1.583   4.503   5.667
 2958SOL    HW2 9774   1.616   4.557   5.818
 2959SOL     OW 9775   4.852   5.537   6.360
 2959SOL    HW1 9776   4.793   5.570   6.433
 2959SOL    HW2 9777   4.932   5.595   6.352
 2960SOL     OW 9778   2.256   2.122   0.018
 2960SOL    HW1 9779   2.293   2.215   0.011
 2960SOL    HW2 9780   2.319   2.058   6.994
 2961SOL     OW 9781   5.783   3.938   4.183
 2961SOL    HW1 9782   5.875   3.930   4.221
 2961SOL    HW2 9783   5.757   4.034   4.178
 2962SOL     OW 9784   4.389   1.228   3.475
 2962SOL    HW1 9785   4.390   1.276   3.388
 2962SOL    HW2 9786   4.482   1.201   3.500
 2963SOL     OW 9787   1.717   1.600   5.286
 2963SOL    HW1 9788   1.627   1.573   5.320
 2963SOL    HW2 9789   1.706   1.673   5.218
 2964SOL     OW 9790   2.219   6.422   1.431
 2964SOL    HW1 9791   2.281   6.397   1.357
 2964SOL    HW2 9792   2.269   6.425   1.518
 2965SOL     OW 9793   0.251   1.431   5.692
 2965SOL    HW1 9794   0.176   1.477   5.644
 2965SOL    HW2 9795   0.325   1.495   5.708
 2966SOL     OW 9796   4.934   4.910   4.087
 2966SOL    HW1 9797   4.844   4.939   4.056
 2966SOL    HW2 9798   4.980   4.986   4.132
 2967SOL     OW 9799   5.692   2.825   3.469
 2967SOL    HW1 9800   5.671   2.801   3.374
 2967SOL    HW2 9801   5.791   2.819   3.484
 2968SOL     OW 9802   0.621   3.969   4.195
 2968SOL    HW1 9803   0.633   4.031   4.274
 2968SOL    HW2 9804   0.556   4.010   4.131
 2969SOL     OW 9805   5.249   2.157   4.718
 2969SOL    HW1 9806   5.169   2.207   4.752
 2969SOL    HW2 9807   5.223   2.061   4.703
 2970SOL     OW 9808   0.464   4.352   6.195
 2970SOL    HW1 9809   0.435   4.405   6.115
 2970SOL    HW2 9810   0.466   4.411   6.275
 2971SOL     OW 9811   5.883   2.714   3.040
 2971SOL    HW1 9812   5.808   2.699   3.104
 2971SOL    HW2 9813   5.887   2.638   2.975
 2972SOL     OW 9814   6.481   3.627   5.950
 2972SOL    HW1 9815   6.418   3.675   6.010
 2972SOL    HW2 9816   6.570   3.673   5.951
 2973SOL     OW 9817   5.059   6.766   4.266
 2973SOL    HW1 9818   5.096   6.788   4.176
 2973SOL    HW2 9819   5.129   6.719   4.321
 2974SOL     OW 9820   6.850   4.648   3.098
 2974SOL    HW1 9821   6.766   4.680   3.141
 2974SOL    HW2 9822   6.843   4.657   2.999
 2975SOL     OW 9823   0.459   0.654   5.390
 2975SOL    HW1 9824   0.384   0.702   5.345
 2975SOL    HW2 9825   0.454   0.557   5.368
 2976SOL     OW 9826   4.359   1.550   2.495
 2976SOL    HW1 9827   4.269   1.537   2.536
 2976SOL    HW2 9828   4.374   1.481   2.425
 2977SOL     OW 9829   3.163   6.836   4.240
 2977SOL    HW1 9830   3.182   6.815   4.144
 2977SOL    HW2 9831   3.198   6.927   4.262
 2978SOL     OW 9832   5.229   5.268   0.302
 2978SOL    HW1 9833   5.326   5.252   0.279
 2978SOL    HW2 9834   5.178   5.284   0.218
 2979SOL     OW 9835   3.553   0.551   2.887
 2979SOL    HW1 9836   3.567   0.610   2.808
 2979SOL    HW2 9837   3.519   0.606   2.964
 2980SOL     OW 9838   0.719   5.921   3.877
 2980SOL    HW1 9839   0.734   5.938   3.780
 2980SOL    HW2 9840   0.776   5.844   3.906
 2981SOL     OW 9841   1.710   0.989   5.707
 2981SOL    HW1 9842   1.674   1.010   5.617
 2981SOL    HW2 9843   1.790   0.930   5.699
 2982SOL     OW 9844   4.531   5.954   2.496
 2982SOL    HW1 9845   4.490   5.864   2.505
 2982SOL    HW2 9846   4.607   5.950   2.431
 2983SOL     OW 9847   0.079   0.974   4.638
 2983SOL    HW1 9848   0.016   1.035   4.591
 2983SOL    HW2 9849   0.145   0.937   4.573
 2984SOL     OW 9850   5.834   5.427   1.874
 2984SOL    HW1 9851   5.928   5.461   1.879
 2984SOL    HW2 9852   5.777   5.475   1.941
 2985SOL     OW 9853   0.322   2.058   3.336
 2985SOL    HW1 9854   0.320   2.045   3.237
 2985SOL    HW2 9855   0.228   2.065   3.370
 2986SOL     OW 9856   1.419   3.857   5.179
 2986SOL    HW1 9857   1.431   3.773   5.127
 2986SOL    HW2 9858   1.376   3.926   5.121
 2987SOL     OW 9859   4.151   1.909   4.666
 2987SOL    HW1 9860   4.250   1.920   4.669
 2987SOL    HW2 9861   4.106   1.996   4.683
 2988SOL     OW 9862   0.738   0.481   1.795
 2988SOL    HW1 9863   0.695   0.516   1.711
 2988SOL    HW2 9864   0.808   0.414   1.771
 2989SOL     OW 9865   6.513   5.442   1.062
 2989SOL    HW1 9866   6.563   5.505   1.002
 2989SOL    HW2 9867   6.567   5.359   1.075
 2990SOL     OW 9868   3.518   1.702   1.545
 2990SOL    HW1 9869   3.515   1.616   1.597
 2990SOL    HW2 9870   3.446   1.701   1.475
 2991SOL     OW 9871   0.362   4.029   0.146
 2991SOL    HW1 9872   0.365   3.991   0.054
 2991SOL    HW2 9873   0.291   3.982   0.199
 2992SOL     OW 9874   3.512   5.451   6.448
 2992SOL    HW1 9875   3.450   5.496   6.384
 2992SOL    HW2 9876   3.467   5.440   6.537
 2993SOL     OW 9877   1.362   5.290   1.081
 2993SOL    HW1 9878   1.290   5.267   1.015
 2993SOL    HW2 9879   1.417   5.365   1.045
 2994SOL     OW 9880   5.001   0.399   0.199
 2994SOL    HW1 9881   5.004   0.461   0.121
 2994SOL    HW2 9882   4.952   0.442   0.275
 2995SOL     OW 9883   1.506   1.980   6.658
 2995SOL    HW1 9884   1.554   1.909   6.708
 2995SOL    HW2 9885   1.419   2.000   6.703
 2996SOL     OW 9886   4.115   5.141   5.935
 2996SOL    HW1 9887   4.073   5.080   6.002
 2996SOL    HW2 9888   4.056   5.150   5.855
 2997SOL     OW 9889   5.513   6.804   0.790
 2997SOL    HW1 9890   5.501   6.723   0.847
 2997SOL    HW2 9891   5.492   6.886   0.843
 2998SOL     OW 9892   5.992   5.760   3.722
 2998SOL    HW1 9893   6.048   5.767   3.805
 2998SOL    HW2 9894   6.051   5.753   3.642
 2999SOL     OW 9895   3.580   6.993   2.789
 2999SOL    HW1 9896   3.658   7.012   2.849
 2999SOL    HW2 9897   3.572   0.046   2.720
 3000SOL     OW 9898   1.479   3.416   6.049
 3000SOL    HW1 9899   1.493   3.397   6.146
 3000SOL    HW2 9900   1.547   3.367   5.995
 3001SOL     OW 9901   4.888   1.025   5.500
 3001SOL    HW1 9902   4.894   1.078   5.416
 3001SOL    HW2 9903   4.972   1.034   5.552
 3002SOL     OW 9904   4.555   0.216   5.285
 3002SOL    HW1 9905   4.595   0.125   5.291
 3002SOL    HW2 9906   4.471   0.219   5.340
 3003SOL     OW 9907   3.154   6.421   5.712
 3003SOL    HW1 9908   3.078   6.458   5.658
 3003SOL    HW2 9909   3.118   6.377   5.794
 3004SOL     OW 9910   6.427   3.587   4.084
 3004SOL    HW1 9911   6.371   3.568   4.164
 3004SOL    HW2 9912   6.402   3.675   4.045
 3005SOL     OW 9913   3.763   3.039   1.245
 3005SOL    HW1 9914   3.699   2.962   1.244
 3005SOL    HW2 9915   3.827   3.030   1.169
 3006SOL     OW 9916   5.006   1.102   1.238
 3006SOL    HW1 9917   4.998   1.077   1.335
 3006SOL    HW2 9918   4.977   1.024   1.182
 3007SOL     OW 9919   6.484   4.655   2.785
 3007SOL    HW1 9920   6.432   4.605   2.854
 3007SOL    HW2 9921   6.507   4.746   2.819
 3008SOL     OW 9922   3.451   6.409   5.790
 3008SOL    HW1 9923   3.353   6.389   5.797
 3008SOL    HW2 9924   3.483   6.449   5.876
 3009SOL     OW 9925   1.130   6.879   2.938
 3009SOL    HW1 9926   1.113   6.966   2.892
 3009SOL    HW2 9927   1.161   6.897   3.032
 3010SOL     OW 9928   3.620   5.828   2.597
 3010SOL    HW1 9929   3.539   5.874   2.631
 3010SOL    HW2 9930   3.604   5.729   2.595
 3011SOL     OW 9931   6.132   0.177   6.789
 3011SOL    HW1 9932   6.158   0.254   6.847
 3011SOL    HW2 9933   6.078   0.112   6.842
 3012SOL     OW 9934   0.417   4.030   3.471
 3012SOL    HW1 9935   0.361   4.046   3.389
 3012SOL    HW2 9936   0.365   4.058   3.552
 3013SOL     OW 9937   5.699   5.586   2.067
 3013SOL    HW1 9938   5.692   5.685   2.056
 3013SOL    HW2 9939   5.608   5.546   2.077
 3014SOL     OW 9940   5.181   1.261   4.070
 3014SOL    HW1 9941   5.226   1.270   4.160
 3014SOL    HW2 9942   5.221   1.328   4.007
 3015SOL     OW 9943   2.563   2.632   0.477
 3015SOL    HW1 9944   2.497   2.645   0.551
 3015SOL    HW2 9945   2.525   2.666   0.392
 3016SOL     OW 9946   3.616   6.304   3.659
 3016SOL    HW1 9947   3.582   6.225   3.608
 3016SOL    HW2 9948   3.542   6.342   3.716
 3017SOL     OW 9949   1.121   6.096   1.406
 3017SOL    HW1 9950   1.191   6.167   1.410
 3017SOL    HW2 9951   1.143   6.031   1.334
 3018SOL     OW 9952   4.215   6.738   6.488
 3018SOL    HW1 9953   4.175   6.811   6.431
 3018SOL    HW2 9954   4.193   6.756   6.584
 3019SOL     OW 9955   3.510   6.490   1.102
 3019SOL    HW1 9956   3.512   6.390   1.098
 3019SOL    HW2 9957   3.533   6.527   1.012
 3020SOL     OW 9958   2.930   3.520   1.608
 3020SOL    HW1 9959   2.930   3.521   1.508
 3020SOL    HW2 9960   3.019   3.490   1.642
 3021SOL     OW 9961   1.897   2.362   6.633
 3021SOL    HW1 9962   1.837   2.436   6.662
 3021SOL    HW2 9963   1.944   2.324   6.713
 3022SOL     OW 9964   4.948   6.287   3.260
 3022SOL    HW1 9965   5.007   6.292   3.340
 3022SOL    HW2 9966   4.883   6.212   3.271
 3023SOL     OW 9967   4.205   5.634   3.034
 3023SOL    HW1 9968   4.302   5.616   3.052
 3023SOL    HW2 9969   4.196   5.676   2.943
 3024SOL     OW 9970   2.812   1.082   0.132
 3024SOL    HW1 9971   2.746   1.157   0.133
 3024SOL    HW2 9972   2.797   1.024   0.052
 3025SOL     OW 9973   2.291   2.752   1.059
 3025SOL    HW1 9974   2.249   2.711   1.139
 3025SOL    HW2 9975   2.299   2.851   1.072
 3026SOL     OW 9976   1.861   2.840   1.012
 3026SOL    HW1 9977   1.789   2.859   0.946
 3026SOL    HW2 9978   1.917   2.922   1.024
 3027SOL     OW 9979   1.945   1.379   3.208
 3027SOL    HW1 9980   1.897   1.340   3.287
 3027SOL    HW2 9981   2.043   1.362   3.217
 3028SOL     OW 9982   1.643   5.764   6.283
 3028SOL    HW1 9983   1.680   5.767   6.190
 3028SOL    HW2 9984   1.597   5.677   6.299
 3029SOL     OW 9985   6.114   5.404   5.106
 3029SOL    HW1 9986   6.108   5.391   5.007
 3029SOL    HW2 9987   6.067   5.488   5.132
 3030SOL     OW 9988   1.497   1.015   5.434
 3030SOL    HW1 9989   1.485   0.946   5.363
 3030SOL    HW2 9990   1.408   1.037   5.475
 3031SOL     OW 9991   0.546   3.818   6.591
 3031SOL    HW1 9992   0.513   3.831   6.497
 3031SOL    HW2 9993   0.467   3.816   6.653
 3032SOL     OW 9994   4.699   0.539   5.992
 3032SOL    HW1 9995   4.768   0.611   5.996
 3032SOL    HW2 9996   4.608   0.579   5.995
 3033SOL     OW 9997   0.362   3.640   6.871
 3033SOL    HW1 9998   0.460   3.620   6.871
 3033SOL    HW2 9999   0.312   3.560   6.906
 3034SOL     OW10000   3.524   6.518   3.973
 3034SOL    HW110001   3.596   6.450   3.990
 3034SOL    HW210002   3.467   6.528   4.054
 3035SOL     OW10003   5.709   1.375   6.923
 3035SOL    HW110004   5.761   1.329   6.851
 3035SOL    HW210005   5.651   1.308   6.970
 3036SOL     OW10006   1.067   4.222   6.717
 3036SOL    HW110007   1.161   4.235   6.748
 3036SOL    HW210008   1.040   4.301   6.661
 3037SOL     OW10009   6.773   6.387   4.952
 3037SOL    HW110010   6.870   6.409   4.942
 3037SOL    HW210011   6.763   6.295   4.990
 3038SOL     OW10012   5.245   6.838   5.997
 3038SOL    HW110013   5.327   6.817   6.049
 3038SOL    HW210014   5.167   6.788   6.036
 3039SOL     OW10015   0.466   3.998   1.963
 3039SOL    HW110016   0.394   4.066   1.978
 3039SOL    HW210017   0.555   4.041   1.971
 3040SOL     OW10018   2.720   3.644   6.582
 3040SOL    HW110019   2.651   3.667   6.650
 3040SOL    HW210020   2.677   3.633   6.492
 3041SOL     OW10021   1.868   2.466   5.561
 3041SOL    HW110022   1.893   2.524   5.639
 3041SOL    HW210023   1.946   2.457   5.499
 3042SOL     OW10024   4.666   0.166   2.216
 3042SOL    HW110025   4.598   0.240   2.216
 3042SOL    HW210026   4.742   0.192   2.276
 3043SOL     OW10027   0.970   5.634   0.079
 3043SOL    HW110028   0.933   5.643   7.007
 3043SOL    HW210029   0.978   5.724   0.121
 3044SOL     OW10030   3.324   4.083   5.801
 3044SOL    HW110031   3.351   4.071   5.706
 3044SOL    HW210032   3.281   3.999   5.834
 3045SOL     OW10033   5.222   1.615   2.414
 3045SOL    HW110034   5.253   1.545   2.479
 3045SOL    HW210035   5.249   1.705   2.448
 3046SOL     OW10036   1.664   2.998   5.562
 3046SOL    HW110037   1.760   3.013   5.539
 3046SOL    HW210038   1.607   3.025   5.485
 3047SOL     OW10039   6.010   5.350   2.336
 3047SOL    HW110040   5.991   5.430   2.279
 3047SOL    HW210041   5.945   5.277   2.313
 3048SOL     OW10042   3.857   3.225   1.426
 3048SOL    HW110043   3.821   3.166   1.354
 3048SOL    HW210044   3.894   3.169   1.500
 3049SOL     OW10045   0.956   0.669   1.835
 3049SOL    HW110046   0.862   0.652   1.866
 3049SOL    HW210047   1.020   0.642   1.907
 3050SOL     OW10048   4.171   5.751   3.765
 3050SOL    HW110049   4.081   5.708   3.776
 3050SOL    HW210050   4.202   5.739   3.671
 3051SOL     OW10051   2.840   5.309   6.642
 3051SOL    HW110052   2.894   5.227   6.625
 3051SOL    HW210053   2.871   5.353   6.726
 3052SOL     OW10054   3.947   0.287   2.769
 3052SOL    HW110055   4.031   0.320   2.726
 3052SOL    HW210056   3.868   0.312   2.713
 3053SOL     OW10057   5.830   6.883   6.561
 3053SOL    HW110058   5.816   6.967   6.509
 3053SOL    HW210059   5.927   6.875   6.586
 3054SOL     OW10060   0.552   3.649   0.174
 3054SOL    HW110061   0.584   3.743   0.184
 3054SOL    HW210062   0.566   3.620   0.079
 3055SOL     OW10063   5.577   6.511   3.566
 3055SOL    HW110064   5.583   6.539   3.662
 3055SOL    HW210065   5.493   6.459   3.551
 3056SOL     OW10066   6.835   0.415   0.394
 3056SOL    HW110067   6.847   0.502   0.442
 3056SOL    HW210068   6.923   0.384   0.359
 3057SOL     OW10069   6.289   4.591   2.560
 3057SOL    HW110070   6.333   4.632   2.641
 3057SOL    HW210071   6.343   4.514   2.528
 3058SOL     OW10072   6.099   5.615   0.558
 3058SOL    HW110073   6.013   5.664   0.545
 3058SOL    HW210074   6.130   5.628   0.652
 3059SOL     OW10075   0.573   3.034   5.052
 3059SOL    HW110076   0.514   2.996   4.981
 3059SOL    HW210077   0.666   2.999   5.042
 3060SOL     OW10078   0.388   6.103   1.617
 3060SOL    HW110079   0.334   6.187   1.615
 3060SOL    HW210080   0.335   6.027   1.579
 3061SOL     OW10081   0.049   0.636   5.202
 3061SOL    HW110082   0.029   0.665   5.108
 3061SOL    HW210083   0.138   0.672   5.230
 3062SOL     OW10084   2.711   6.112   1.137
 3062SOL    HW110085   2.676   6.206   1.134
 3062SOL    HW210086   2.639   6.050   1.168
 3063SOL     OW10087   1.718   5.306   1.467
 3063SOL    HW110088   1.712   5.400   1.499
 3063SOL    HW210089   1.745   5.246   1.543
 3064SOL     OW10090   6.406   3.757   3.213
 3064SOL    HW110091   6.471   3.687   3.182
 3064SOL    HW210092   6.355   3.792   3.135
 3065SOL     OW10093   1.684   0.615   0.108
 3065SOL    HW110094   1.748   0.592   0.181
 3065SOL    HW210095   1.594   0.576   0.129
 3066SOL     OW10096   6.202   4.455   0.813
 3066SOL    HW110097   6.175   4.399   0.735
 3066SOL    HW210098   6.130   4.454   0.882
 3067SOL     OW10099   4.609   0.406   4.339
 3067SOL    HW110100   4.528   0.457   4.367
 3067SOL    HW210101   4.603   0.383   4.242
 3068SOL     OW10102   5.705   5.620   1.184
 3068SOL    HW110103   5.660   5.707   1.206
 3068SOL    HW210104   5.795   5.638   1.146
 3069SOL     OW10105   0.749   5.316   1.793
 3069SOL    HW110106   0.665   5.270   1.766
 3069SOL    HW210107   0.771   5.293   1.888
 3070SOL     OW10108   2.685   1.650   3.287
 3070SOL    HW110109   2.765   1.698   3.252
 3070SOL    HW210110   2.673   1.564   3.238
 3071SOL     OW10111   6.277   0.289   4.117
 3071SOL    HW110112   6.184   0.263   4.142
 3071SOL    HW210113   6.276   0.382   4.079
 3072SOL     OW10114   0.633   6.673   2.262
 3072SOL    HW110115   0.580   6.624   2.330
 3072SOL    HW210116   0.635   6.621   2.176
 3073SOL     OW10117   1.230   3.648   5.560
 3073SOL    HW110118   1.308   3.589   5.541
 3073SOL    HW210119   1.231   3.677   5.656
 3074SOL     OW10120   4.417   2.624   6.748
 3074SOL    HW110121   4.503   2.643   6.700
 3074SOL    HW210122   4.435   2.570   6.830
 3075SOL     OW10123   2.053   6.475   1.131
 3075SOL    HW110124   2.115   6.492   1.208
 3075SOL    HW210125   2.107   6.464   1.047
 3076SOL     OW10126   6.412   0.473   5.270
 3076SOL    HW110127   6.347   0.546   5.249
 3076SOL    HW210128   6.493   0.483   5.211
 3077SOL     OW10129   5.748   4.504   4.663
 3077SOL    HW110130   5.729   4.460   4.751
 3077SOL    HW210131   5.847   4.503   4.646
 3078SOL     OW10132   1.789   3.745   2.165
 3078SOL    HW110133   1.888   3.732   2.171
 3078SOL    HW210134   1.769   3.837   2.133
 3079SOL     OW10135   0.268   2.116   4.958
 3079SOL    HW110136   0.332   2.085   4.888
 3079SOL    HW210137   0.270   2.216   4.964
 3080SOL     OW10138   6.093   5.117   1.266
 3080SOL    HW110139   6.088   5.189   1.197
 3080SOL    HW210140   6.030   5.043   1.241
 3081SOL     OW10141   0.460   4.233   5.812
 3081SOL    HW110142   0.559   4.218   5.804
 3081SOL    HW210143   0.437   4.324   5.777
 3082SOL     OW10144   3.608   0.181   2.606
 3082SOL    HW110145   3.529   0.208   2.552
 3082SOL    HW210146   3.677   0.252   2.602
 3083SOL     OW10147   3.608   0.523   1.565
 3083SOL    HW110148   3.652   0.433   1.557
 3083SOL    HW210149   3.677   0.592   1.588
 3084SOL     OW10150   5.153   5.294   4.354
 3084SOL    HW110151   5.161   5.248   4.443
 3084SOL    HW210152   5.231   5.356   4.343
 3085SOL     OW10153   6.663   5.740   2.438
 3085SOL    HW110154   6.655   5.834   2.473
 3085SOL    HW210155   6.632   5.676   2.507
 3086SOL     OW10156   5.102   1.656   2.890
 3086SOL    HW110157   5.056   1.740   2.862
 3086SOL    HW210158   5.034   1.582   2.897
 3087SOL     OW10159   6.297   4.010   2.977
 3087SOL    HW110160   6.245   4.091   3.003
 3087SOL    HW210161   6.282   3.990   2.880
 3088SOL     OW10162   2.333   4.556   5.328
 3088SOL    HW110163   2.423   4.513   5.321
 3088SOL    HW210164   2.282   4.539   5.243
 3089SOL     OW10165   1.217   2.542   6.740
 3089SOL    HW110166   1.184   2.527   6.647
 3089SOL    HW210167   1.191   2.465   6.797
 3090SOL     OW10168   1.383   1.324   0.997
 3090SOL    HW110169   1.402   1.402   1.056
 3090SOL    HW210170   1.450   1.252   1.014
 3091SOL     OW10171   2.024   6.698   0.893
 3091SOL    HW110172   2.090   6.628   0.920
 3091SOL    HW210173   1.981   6.736   0.975
 3092SOL     OW10174   6.435   6.877   0.696
 3092SOL    HW110175   6.492   6.800   0.668
 3092SOL    HW210176   6.489   6.941   0.749
 3093SOL     OW10177   6.364   5.510   5.210
 3093SOL    HW110178   6.301   5.453   5.158
 3093SOL    HW210179   6.313   5.575   5.266
 3094SOL     OW10180   3.476   5.775   5.029
 3094SOL    HW110181   3.424   5.703   5.074
 3094SOL    HW210182   3.491   5.751   4.934
 3095SOL     OW10183   2.784   4.744   4.233
 3095SOL    HW110184   2.853   4.787   4.292
 3095SOL    HW210185   2.802   4.769   4.138
 3096SOL     OW10186   0.328   6.823   5.266
 3096SOL    HW110187   0.277   6.817   5.181
 3096SOL    HW210188   0.311   6.912   5.309
 3097SOL     OW10189   0.866   2.811   0.484
 3097SOL    HW110190   0.790   2.768   0.533
 3097SOL    HW210191   0.859   2.911   0.493
 3098SOL     OW10192   2.636   3.470   0.494
 3098SOL    HW110193   2.576   3.421   0.432
 3098SOL    HW210194   2.582   3.517   0.564
 3099SOL     OW10195   0.675   6.180   5.676
 3099SOL    HW110196   0.743   6.198   5.605
 3099SOL    HW210197   0.643   6.267   5.714
 3100SOL     OW10198   6.620   6.705   6.505
 3100SOL    HW110199   6.556   6.727   6.578
 3100SOL    HW210200   6.664   6.789   6.473
 3101SOL     OW10201   4.794   6.727   6.434
 3101SOL    HW110202   4.749   6.785   6.367
 3101SOL    HW210203   4.771   6.631   6.416
 3102SOL     OW10204   1.524   4.062   1.061
 3102SOL    HW110205   1.551   4.063   1.158
 3102SOL    HW210206   1.572   4.136   1.013
 3103SOL     OW10207   4.280   2.756   1.162
 3103SOL    HW110208   4.282   2.840   1.109
 3103SOL    HW210209   4.215   2.692   1.122
 3104SOL     OW10210   5.475   5.680   4.229
 3104SOL    HW110211   5.530   5.710   4.307
 3104SOL    HW210212   5.380   5.704   4.245
 3105SOL     OW10213   5.772   6.806   4.300
 3105SOL    HW110214   5.858   6.837   4.258
 3105SOL    HW210215   5.722   6.748   4.236
 3106SOL     OW10216   6.553   2.680   3.079
 3106SOL    HW110217   6.476   2.655   3.021
 3106SOL    HW210218   6.526   2.675   3.175
 3107SOL     OW10219   3.290   0.372   4.064
 3107SOL    HW110220   3.268   0.371   4.161
 3107SOL    HW210221   3.254   0.289   4.021
 3108SOL     OW10222   2.404   0.886   4.319
 3108SOL    HW110223   2.468   0.877   4.242
 3108SOL    HW210224   2.452   0.864   4.404
 3109SOL     OW10225   5.169   6.116   3.352
 3109SOL    HW110226   5.268   6.122   3.364
 3109SOL    HW210227   5.148   6.061   3.271
 3110SOL     OW10228   0.379   2.994   2.267
 3110SOL    HW110229   0.332   3.072   2.227
 3110SOL    HW210230   0.391   2.923   2.198
 3111SOL     OW10231   6.985   5.423   3.469
 3111SOL    HW110232   0.034   5.362   3.429
 3111SOL    HW210233   6.945   5.380   3.550
 3112SOL     OW10234   4.564   3.649   6.724
 3112SOL    HW110235   4.481   3.674   6.674
 3112SOL    HW210236   4.565   3.551   6.739
 3113SOL     OW10237   2.050   6.851   3.426
 3113SOL    HW110238   2.025   6.832   3.331
 3113SOL    HW210239   2.005   6.935   3.456
 3114SOL     OW10240   5.991   4.698   0.681
 3114SOL    HW110241   6.018   4.667   0.590
 3114SOL    HW210242   5.899   4.737   0.677
 3115SOL     OW10243   3.665   3.935   0.094
 3115SOL    HW110244   3.667   3.928   0.194
 3115SOL    HW210245   3.671   3.844   0.054
 3116SOL     OW10246   6.451   2.214   6.565
 3116SOL    HW110247   6.463   2.267   6.481
 3116SOL    HW210248   6.430   2.275   6.641
 3117SOL     OW10249   3.871   3.215   5.120
 3117SOL    HW110250   3.923   3.138   5.157
 3117SOL    HW210251   3.911   3.301   5.152
 3118SOL     OW10252   6.858   4.396   0.644
 3118SOL    HW110253   6.921   4.432   0.575
 3118SOL    HW210254   6.901   4.401   0.734
 3119SOL     OW10255   1.372   4.486   5.276
 3119SOL    HW110256   1.340   4.392   5.259
 3119SOL    HW210257   1.445   4.508   5.212
 3120SOL     OW10258   3.054   5.204   4.705
 3120SOL    HW110259   3.089   5.113   4.685
 3120SOL    HW210260   2.969   5.197   4.756
 3121SOL     OW10261   6.630   0.991   2.283
 3121SOL    HW110262   6.712   0.968   2.336
 3121SOL    HW210263   6.653   1.061   2.215
 3122SOL     OW10264   2.720   5.548   6.510
 3122SOL    HW110265   2.659   5.597   6.572
 3122SOL    HW210266   2.748   5.462   6.552
 3123SOL     OW10267   4.013   6.887   3.880
 3123SOL    HW110268   3.921   6.886   3.843
 3123SOL    HW210269   4.024   6.966   3.941
 3124SOL     OW10270   4.130   1.522   5.606
 3124SOL    HW110271   4.186   1.603   5.587
 3124SOL    HW210272   4.125   1.466   5.524
 3125SOL     OW10273   6.347   1.650   5.842
 3125SOL    HW110274   6.340   1.551   5.845
 3125SOL    HW210275   6.413   1.676   5.771
 3126SOL     OW10276   4.566   5.840   6.836
 3126SOL    HW110277   4.631   5.879   6.902
 3126SOL    HW210278   4.580   5.741   6.830
 3127SOL     OW10279   0.961   2.064   3.898
 3127SOL    HW110280   1.016   2.052   3.816
 3127SOL    HW210281   1.013   2.033   3.978
 3128SOL     OW10282   1.987   1.005   0.766
 3128SOL    HW110283   2.050   1.081   0.786
 3128SOL    HW210284   1.928   1.030   0.689
 3129SOL     OW10285   6.688   4.192   5.504
 3129SOL    HW110286   6.675   4.273   5.446
 3129SOL    HW210287   6.708   4.113   5.447
 3130SOL     OW10288   1.945   4.681   2.059
 3130SOL    HW110289   1.903   4.730   1.983
 3130SOL    HW210290   1.877   4.623   2.103
 3131SOL     OW10291   6.606   3.233   2.305
 3131SOL    HW110292   6.632   3.232   2.208
 3131SOL    HW210293   6.543   3.158   2.323
 3132SOL     OW10294   5.725   6.217   5.554
 3132SOL    HW110295   5.710   6.314   5.573
 3132SOL    HW210296   5.641   6.178   5.517
 3133SOL     OW10297   2.983   2.207   2.955
 3133SOL    HW110298   2.953   2.111   2.961
 3133SOL    HW210299   3.077   2.214   2.988
 3134SOL     OW10300   5.130   3.195   1.300
 3134SOL    HW110301   5.213   3.234   1.261
 3134SOL    HW210302   5.129   3.212   1.399
 3135SOL     OW10303   3.656   2.130   3.539
 3135SOL    HW110304   3.679   2.039   3.576
 3135SOL    HW210305   3.595   2.177   3.602
 3136SOL     OW10306   6.372   6.070   5.756
 3136SOL    HW110307   6.393   6.023   5.842
 3136SOL    HW210308   6.273   6.075   5.744
 3137SOL     OW10309   5.549   2.036   4.393
 3137SOL    HW110310   5.639   2.062   4.359
 3137SOL    HW210311   5.558   1.960   4.457
 3138SOL     OW10312   6.296   1.257   4.661
 3138SOL    HW110313   6.337   1.301   4.582
 3138SOL    HW210314   6.335   1.166   4.673
 3139SOL     OW10315   5.030   6.182   5.079
 3139SOL    HW110316   4.972   6.263   5.090
 3139SOL    HW210317   5.100   6.181   5.150
 3140SOL     OW10318   6.509   6.355   6.689
 3140SOL    HW110319   6.582   6.423   6.695
 3140SOL    HW210320   6.501   6.323   6.595
 3141SOL     OW10321   1.563   5.870   0.002
 3141SOL    HW110322   1.657   5.847   0.028
 3141SOL    HW210323   1.502   5.795   0.028
 3142SOL     OW10324   4.253   6.094   5.842
 3142SOL    HW110325   4.263   5.997   5.862
 3142SOL    HW210326   4.217   6.141   5.922
 3143SOL     OW10327   6.585   1.976   0.530
 3143SOL    HW110328   6.566   2.072   0.509
 3143SOL    HW210329   6.654   1.942   0.465
 3144SOL     OW10330   1.911   3.695   6.559
 3144SOL    HW110331   1.967   3.776   6.545
 3144SOL    HW210332   1.824   3.721   6.600
 3145SOL     OW10333   2.855   5.718   3.024
 3145SOL    HW110334   2.903   5.730   3.111
 3145SOL    HW210335   2.852   5.806   2.976
 3146SOL     OW10336   1.394   0.543   3.353
 3146SOL    HW110337   1.364   0.639   3.352
 3146SOL    HW210338   1.400   0.509   3.259
 3147SOL     OW10339   5.007   3.688   0.398
 3147SOL    HW110340   5.063   3.753   0.346
 3147SOL    HW210341   4.943   3.642   0.336
 3148SOL     OW10342   3.651   5.459   4.681
 3148SOL    HW110343   3.696   5.540   4.720
 3148SOL    HW210344   3.721   5.391   4.656
 3149SOL     OW10345   3.408   0.408   5.654
 3149SOL    HW110346   3.438   0.410   5.750
 3149SOL    HW210347   3.487   0.425   5.595
 3150SOL     OW10348   5.877   6.432   4.409
 3150SOL    HW110349   5.814   6.481   4.348
 3150SOL    HW210350   5.951   6.492   4.436
 3151SOL     OW10351   4.160   1.493   6.207
 3151SOL    HW110352   4.232   1.494   6.277
 3151SOL    HW210353   4.177   1.566   6.141
 3152SOL     OW10354   0.705   5.200   1.496
 3152SOL    HW110355   0.750   5.204   1.407
 3152SOL    HW210356   0.773   5.203   1.569
 3153SOL     OW10357   6.289   4.304   2.363
 3153SOL    HW110358   6.230   4.357   2.302
 3153SOL    HW210359   6.294   4.209   2.330
 3154SOL     OW10360   5.815   2.640   5.759
 3154SOL    HW110361   5.738   2.635   5.697
 3154SOL    HW210362   5.810   2.724   5.813
 3155SOL     OW10363   5.495   5.651   0.804
 3155SOL    HW110364   5.565   5.707   0.849
 3155SOL    HW210365   5.430   5.617   0.872
 3156SOL     OW10366   3.898   4.004   3.706
 3156SOL    HW110367   3.803   3.984   3.684
 3156SOL    HW210368   3.908   4.012   3.805
 3157SOL     OW10369   2.132   3.900   3.985
 3157SOL    HW110370   2.039   3.935   3.968
 3157SOL    HW210371   2.193   3.929   3.912
 3158SOL     OW10372   4.926   6.830   1.253
 3158SOL    HW110373   4.904   6.927   1.255
 3158SOL    HW210374   4.883   6.787   1.174
 3159SOL     OW10375   4.905   5.624   6.851
 3159SOL    HW110376   4.984   5.608   6.792
 3159SOL    HW210377   4.904   5.555   6.923
 3160SOL     OW10378   4.702   4.287   6.836
 3160SOL    HW110379   4.656   4.294   6.747
 3160SOL    HW210380   4.639   4.251   6.904
 3161SOL     OW10381   1.104   1.139   3.166
 3161SOL    HW110382   1.048   1.056   3.177
 3161SOL    HW210383   1.121   1.179   3.256
 3162SOL     OW10384   0.341   5.028   6.104
 3162SOL    HW110385   0.332   5.126   6.083
 3162SOL    HW210386   0.408   5.015   6.176
 3163SOL     OW10387   3.297   3.930   6.394
 3163SOL    HW110388   3.372   3.995   6.385
 3163SOL    HW210389   3.318   3.846   6.345
 3164SOL     OW10390   5.400   4.119   0.321
 3164SOL    HW110391   5.466   4.047   0.340
 3164SOL    HW210392   5.329   4.085   0.260
 3165SOL     OW10393   0.113   1.335   1.977
 3165SOL    HW110394   0.095   1.431   1.958
 3165SOL    HW210395   0.038   1.297   2.031
 3166SOL     OW10396   5.468   3.342   6.390
 3166SOL    HW110397   5.439   3.387   6.475
 3166SOL    HW210398   5.449   3.244   6.396
 3167SOL     OW10399   0.482   5.226   1.708
 3167SOL    HW110400   0.532   5.140   1.703
 3167SOL    HW210401   0.388   5.209   1.735
 3168SOL     OW10402   5.314   3.424   0.981
 3168SOL    HW110403   5.236   3.483   0.998
 3168SOL    HW210404   5.295   3.364   0.903
 3169SOL     OW10405   0.895   3.017   4.781
 3169SOL    HW110406   0.992   3.025   4.758
 3169SOL    HW210407   0.854   2.942   4.729
 3170SOL     OW10408   4.191   0.681   0.278
 3170SOL    HW110409   4.236   0.755   0.228
 3170SOL    HW210410   4.099   0.709   0.304
 3171SOL     OW10411   5.284   6.577   2.970
 3171SOL    HW110412   5.338   6.592   3.052
 3171SOL    HW210413   5.195   6.622   2.980
 3172SOL     OW10414   6.657   0.262   5.056
 3172SOL    HW110415   6.721   0.211   5.114
 3172SOL    HW210416   6.605   0.197   5.000
 3173SOL     OW10417   2.485   0.468   1.769
 3173SOL    HW110418   2.422   0.398   1.735
 3173SOL    HW210419   2.440   0.521   1.841
 3174SOL     OW10420   2.400   3.086   6.117
 3174SOL    HW110421   2.419   2.988   6.122
 3174SOL    HW210422   2.304   3.103   6.136
 3175SOL     OW10423   1.015   6.622   0.809
 3175SOL    HW110424   1.110   6.643   0.832
 3175SOL    HW210425   1.012   6.540   0.752
 3176SOL     OW10426   0.484   4.556   6.621
 3176SOL    HW110427   0.562   4.515   6.573
 3176SOL    HW210428   0.512   4.642   6.661
 3177SOL     OW10429   6.082   5.822   6.216
 3177SOL    HW110430   6.175   5.794   6.192
 3177SOL    HW210431   6.082   5.915   6.251
 3178SOL     OW10432   0.346   3.770   1.366
 3178SOL    HW110433   0.389   3.782   1.277
 3178SOL    HW210434   0.278   3.696   1.361
 3179SOL     OW10435   1.609   1.455   2.439
 3179SOL    HW110436   1.522   1.503   2.435
 3179SOL    HW210437   1.609   1.379   2.373
 3180SOL     OW10438   5.470   0.748   6.181
 3180SOL    HW110439   5.520   0.803   6.247
 3180SOL    HW210440   5.459   0.799   6.096
 3181SOL     OW10441   0.771   1.129   3.397
 3181SOL    HW110442   0.850   1.129   3.457
 3181SOL    HW210443   0.764   1.217   3.351
 3182SOL     OW10444   2.201   5.557   5.393
 3182SOL    HW110445   2.116   5.568   5.445
 3182SOL    HW210446   2.266   5.628   5.420
 3183SOL     OW10447   4.143   3.549   1.300
 3183SOL    HW110448   4.138   3.648   1.289
 3183SOL    HW210449   4.213   3.512   1.239
 3184SOL     OW10450   2.649   1.816   2.060
 3184SOL    HW110451   2.639   1.794   1.963
 3184SOL    HW210452   2.730   1.770   2.097
 3185SOL     OW10453   6.542   7.013   5.946
 3185SOL    HW110454   6.506   6.961   6.023
 3185SOL    HW210455   6.467   0.039   5.898
 3186SOL     OW10456   2.987   0.891   2.715
 3186SOL    HW110457   2.952   0.970   2.766
 3186SOL    HW210458   2.963   0.902   2.618
 3187SOL     OW10459   3.679   4.572   0.223
 3187SOL    HW110460   3.695   4.498   0.289
 3187SOL    HW210461   3.757   4.634   0.223
 3188SOL     OW10462   4.098   6.010   3.329
 3188SOL    HW110463   4.068   6.051   3.243
 3188SOL    HW210464   4.145   6.079   3.384
 3189SOL     OW10465   1.037   5.980   2.800
 3189SOL    HW110466   1.071   6.062   2.847
 3189SOL    HW210467   1.073   5.899   2.846
 3190SOL     OW10468   1.151   6.036   2.571
 3190SOL    HW110469   1.159   6.132   2.546
 3190SOL    HW210470   1.088   6.027   2.648
 3191SOL     OW10471   4.198   0.571   1.231
 3191SOL    HW110472   4.155   0.483   1.249
 3191SOL    HW210473   4.195   0.590   1.133
 3192SOL     OW10474   0.239   3.182   2.108
 3192SOL    HW110475   0.257   3.279   2.092
 3192SOL    HW210476   0.152   3.172   2.157
 3193SOL     OW10477   4.510   2.693   6.279
 3193SOL    HW110478   4.531   2.719   6.373
 3193SOL    HW210479   4.492   2.595   6.275
 3194SOL     OW10480   0.495   3.389   5.830
 3194SOL    HW110481   0.543   3.322   5.774
 3194SOL    HW210482   0.559   3.459   5.862
 3195SOL     OW10483   0.887   3.045   3.230
 3195SOL    HW110484   0.983   3.037   3.255
 3195SOL    HW210485   0.842   2.956   3.241
 3196SOL     OW10486   6.916   0.255   5.400
 3196SOL    HW110487   6.845   0.310   5.444
 3196SOL    HW210488   6.994   0.314   5.378
 3197SOL     OW10489   1.050   4.415   3.820
 3197SOL    HW110490   1.023   4.463   3.904
 3197SOL    HW210491   0.969   4.403   3.762
 3198SOL     OW10492   0.137   1.845   0.082
 3198SOL    HW110493   0.155   1.897   7.018
 3198SOL    HW210494   0.222   1.806   0.117
 3199SOL     OW10495   4.822   2.069   1.919
 3199SOL    HW110496   4.749   2.001   1.915
 3199SOL    HW210497   4.783   2.161   1.916
 3200SOL     OW10498   6.940   1.672   1.345
 3200SOL    HW110499   6.985   1.737   1.283
 3200SOL    HW210500   6.842   1.692   1.348
 3201SOL     OW10501   4.562   4.646   2.957
 3201SOL    HW110502   4.474   4.645   3.005
 3201SOL    HW210503   4.548   4.622   2.861
 3202SOL     OW10504   1.722   5.526   1.617
 3202SOL    HW110505   1.664   5.563   1.690
 3202SOL    HW210506   1.818   5.533   1.645
 3203SOL     OW10507   6.422   6.847   1.734
 3203SOL    HW110508   6.380   6.931   1.699
 3203SOL    HW210509   6.359   6.801   1.797
 3204SOL     OW10510   6.382   5.630   1.728
 3204SOL    HW110511   6.377   5.624   1.828
 3204SOL    HW210512   6.290   5.632   1.690
 3205SOL     OW10513   0.464   3.942   3.815
 3205SOL    HW110514   0.553   3.987   3.809
 3205SOL    HW210515   0.476   3.843   3.816
 3206SOL     OW10516   1.665   0.123   6.614
 3206SOL    HW110517   1.699   0.054   6.551
 3206SOL    HW210518   1.655   0.210   6.566
 3207SOL     OW10519   0.444   1.482   4.352
 3207SOL    HW110520   0.508   1.501   4.426
 3207SOL    HW210521   0.386   1.405   4.377
 3208SOL     OW10522   5.042   6.500   5.425
 3208SOL    HW110523   5.119   6.452   5.465
 3208SOL    HW210524   4.974   6.519   5.496
 3209SOL     OW10525   2.383   0.628   4.058
 3209SOL    HW110526   2.395   0.608   4.156
 3209SOL    HW210527   2.422   0.718   4.038
 3210SOL     OW10528   0.033   4.508   2.745
 3210SOL    HW110529   6.972   4.549   2.787
 3210SOL    HW210530   0.113   4.565   2.764
 3211SOL     OW10531   1.829   4.233   2.308
 3211SOL    HW110532   1.737   4.247   2.271
 3211SOL    HW210533   1.840   4.137   2.334
 3212SOL     OW10534   4.726   2.177   6.037
 3212SOL    HW110535   4.751   2.092   6.084
 3212SOL    HW210536   4.809   2.223   6.006
 3213SOL     OW10537   6.066   6.416   1.717
 3213SOL    HW110538   5.990   6.470   1.679
 3213SOL    HW210539   6.146   6.425   1.658
 3214SOL     OW10540   4.521   5.859   6.001
 3214SOL    HW110541   4.615   5.876   5.971
 3214SOL    HW210542   4.499   5.919   6.077
 3215SOL     OW10543   5.957   1.598   6.783
 3215SOL    HW110544   5.950   1.649   6.869
 3215SOL    HW210545   6.050   1.562   6.773
 3216SOL     OW10546   5.611   6.583   3.822
 3216SOL    HW110547   5.658   6.670   3.812
 3216SOL    HW210548   5.530   6.595   3.880
 3217SOL     OW10549   6.866   3.897   2.034
 3217SOL    HW110550   6.826   3.830   1.971
 3217SOL    HW210551   6.804   3.975   2.045
 3218SOL     OW10552   2.780   0.268   3.131
 3218SOL    HW110553   2.880   0.272   3.140
 3218SOL    HW210554   2.750   0.332   3.061
 3219SOL     OW10555   6.428   0.734   4.025
 3219SOL    HW110556   6.365   0.663   3.993
 3219SOL    HW210557   6.412   0.818   3.972
 3220SOL     OW10558   6.286   3.716   5.634
 3220SOL    HW110559   6.349   3.792   5.644
 3220SOL    HW210560   6.331   3.631   5.662
 3221SOL     OW10561   2.780   7.000   3.069
 3221SOL    HW110562   2.875   6.973   3.052
 3221SOL    HW210563   2.777   0.077   3.093
 3222SOL     OW10564   5.711   2.589   2.482
 3222SOL    HW110565   5.733   2.685   2.462
 3222SOL    HW210566   5.674   2.582   2.575
 3223SOL     OW10567   2.376   5.255   4.711
 3223SOL    HW110568   2.389   5.162   4.746
 3223SOL    HW210569   2.367   5.318   4.787
 3224SOL     OW10570   3.983   5.103   0.214
 3224SOL    HW110571   4.083   5.101   0.214
 3224SOL    HW210572   3.951   5.132   0.305
 3225SOL     OW10573   2.486   3.505   6.687
 3225SOL    HW110574   2.445   3.526   6.599
 3225SOL    HW210575   2.573   3.457   6.674
 3226SOL     OW10576   1.273   0.838   4.043
 3226SOL    HW110577   1.256   0.812   3.947
 3226SOL    HW210578   1.341   0.777   4.082
 3227SOL     OW10579   2.515   1.288   6.495
 3227SOL    HW110580   2.447   1.327   6.433
 3227SOL    HW210581   2.505   1.189   6.498
 3228SOL     OW10582   5.579   3.648   4.949
 3228SOL    HW110583   5.601   3.601   4.864
 3228SOL    HW210584   5.659   3.651   5.008
 3229SOL     OW10585   3.961   2.358   5.315
 3229SOL    HW110586   4.020   2.412   5.255
 3229SOL    HW210587   4.012   2.281   5.352
 3230SOL     OW10588   1.184   0.560   3.646
 3230SOL    HW110589   1.176   0.477   3.701
 3230SOL    HW210590   1.276   0.598   3.657
 3231SOL     OW10591   5.905   5.901   1.316
 3231SOL    HW110592   5.958   5.909   1.232
 3231SOL    HW210593   5.808   5.890   1.293
 3232SOL     OW10594   1.929   4.774   4.127
 3232SOL    HW110595   1.954   4.808   4.217
 3232SOL    HW210596   1.911   4.676   4.133
 3233SOL     OW10597   0.433   4.046   1.168
 3233SOL    HW110598   0.336   4.043   1.141
 3233SOL    HW210599   0.443   4.105   1.248
 3234SOL     OW10600   0.368   1.879   5.533
 3234SOL    HW110601   0.354   1.803   5.597
 3234SOL    HW210602   0.464   1.908   5.537
 3235SOL     OW10603   5.094   6.987   2.623
 3235SOL    HW110604   5.178   6.985   2.677
 3235SOL    HW210605   5.116   6.971   2.527
 3236SOL     OW10606   0.574   2.950   1.762
 3236SOL    HW110607   0.564   3.047   1.737
 3236SOL    HW210608   0.587   2.896   1.679
 3237SOL     OW10609   3.334   0.437   4.604
 3237SOL    HW110610   3.426   0.451   4.639
 3237SOL    HW210611   3.298   0.523   4.569
 3238SOL     OW10612   0.129   6.493   6.953
 3238SOL    HW110613   0.205   6.505   7.016
 3238SOL    HW210614   0.143   6.550   6.872
 3239SOL     OW10615   6.666   6.996   5.406
 3239SOL    HW110616   6.571   6.975   5.432
 3239SOL    HW210617   6.670   0.070   5.371
 3240SOL     OW10618   1.091   1.646   4.460
 3240SOL    HW110619   1.181   1.685   4.477
 3240SOL    HW210620   1.101   1.556   4.418
 3241SOL     OW10621   5.659   0.895   4.625
 3241SOL    HW110622   5.695   0.988   4.626
 3241SOL    HW210623   5.559   0.898   4.632
 3242SOL     OW10624   3.729   6.502   0.478
 3242SOL    HW110625   3.776   6.590   0.476
 3242SOL    HW210626   3.686   6.489   0.567
 3243SOL     OW10627   3.460   5.348   0.497
 3243SOL    HW110628   3.374   5.347   0.548
 3243SOL    HW210629   3.517   5.271   0.525
 3244SOL     OW10630   2.962   6.379   6.366
 3244SOL    HW110631   2.995   6.451   6.427
 3244SOL    HW210632   2.928   6.302   6.421
 3245SOL     OW10633   3.760   2.559   6.366
 3245SOL    HW110634   3.808   2.529   6.284
 3245SOL    HW210635   3.807   2.524   6.447
 3246SOL     OW10636   5.532   6.156   3.712
 3246SOL    HW110637   5.485   6.160   3.800
 3246SOL    HW210638   5.466   6.139   3.639
 3247SOL     OW10639   0.596   2.737   4.307
 3247SOL    HW110640   0.691   2.713   4.326
 3247SOL    HW210641   0.583   2.745   4.208
 3248SOL     OW10642   5.994   3.785   2.072
 3248SOL    HW110643   5.977   3.763   1.976
 3248SOL    HW210644   6.091   3.771   2.093
 3249SOL     OW10645   2.260   4.285   4.680
 3249SOL    HW110646   2.282   4.188   4.685
 3249SOL    HW210647   2.257   4.323   4.773
 3250SOL     OW10648   4.070   6.543   1.860
 3250SOL    HW110649   4.146   6.578   1.805
 3250SOL    HW210650   4.090   6.555   1.957
 3251SOL     OW10651   3.054   0.640   3.234
 3251SOL    HW110652   2.974   0.610   3.183
 3251SOL    HW210653   3.026   0.696   3.312
 3252SOL     OW10654   3.245   2.124   3.061
 3252SOL    HW110655   3.295   2.087   3.139
 3252SOL    HW210656   3.299   2.110   2.978
 3253SOL     OW10657   4.959   3.304   1.116
 3253SOL    HW110658   5.028   3.264   1.176
 3253SOL    HW210659   4.869   3.295   1.158
 3254SOL     OW10660   5.625   4.969   2.563
 3254SOL    HW110661   5.601   4.890   2.508
 3254SOL    HW210662   5.550   5.035   2.562
 3255SOL     OW10663   4.231   4.558   0.293
 3255SOL    HW110664   4.310   4.595   0.244
 3255SOL    HW210665   4.182   4.495   0.233
 3256SOL     OW10666   6.886   6.176   5.182
 3256SOL    HW110667   6.809   6.169   5.246
 3256SOL    HW210668   6.895   6.092   5.129
 3257SOL     OW10669   2.287   2.287   0.684
 3257SOL    HW110670   2.214   2.283   0.616
 3257SOL    HW210671   2.334   2.375   0.677
 3258SOL     OW10672   6.012   0.027   1.824
 3258SOL    HW110673   5.918   0.029   1.788
 3258SOL    HW210674   6.019   0.087   1.903
 3259SOL     OW10675   5.718   6.282   3.294
 3259SOL    HW110676   5.744   6.375   3.266
 3259SOL    HW210677   5.710   6.279   3.394
 3260SOL     OW10678   1.683   2.511   6.758
 3260SOL    HW110679   1.643   2.423   6.784
 3260SOL    HW210680   1.668   2.527   6.661
 3261SOL     OW10681   4.124   0.845   2.967
 3261SOL    HW110682   4.124   0.816   3.063
 3261SOL    HW210683   4.052   0.913   2.952
 3262SOL     OW10684   3.737   1.467   3.184
 3262SOL    HW110685   3.734   1.518   3.098
 3262SOL    HW210686   3.646   1.470   3.227
 3263SOL     OW10687   3.370   5.736   1.893
 3263SOL    HW110688   3.296   5.803   1.898
 3263SOL    HW210689   3.446   5.766   1.951
 3264SOL     OW10690   5.195   5.446   6.660
 3264SOL    HW110691   5.221   5.426   6.565
 3264SOL    HW210692   5.261   5.508   6.700
 3265SOL     OW10693   4.325   0.566   6.949
 3265SOL    HW110694   4.317   0.526   0.020
 3265SOL    HW210695   4.360   0.498   6.885
 3266SOL     OW10696   0.447   1.598   5.750
 3266SOL    HW110697   0.514   1.548   5.695
 3266SOL    HW210698   0.488   1.623   5.838
 3267SOL     OW10699   3.551   2.647   1.029
 3267SOL    HW110700   3.512   2.738   1.040
 3267SOL    HW210701   3.537   2.594   1.113
 3268SOL     OW10702   0.383   4.574   6.356
 3268SOL    HW110703   0.401   4.563   6.454
 3268SOL    HW210704   0.290   4.543   6.336
 3269SOL     OW10705   4.687   3.655   0.696
 3269SOL    HW110706   4.609   3.665   0.634
 3269SOL    HW210707   4.663   3.691   0.786
 3270SOL     OW10708   1.084   6.329   4.752
 3270SOL    HW110709   1.176   6.358   4.777
 3270SOL    HW210710   1.019   6.365   4.819
 3271SOL     OW10711   5.732   1.981   0.943
 3271SOL    HW110712   5.663   1.974   1.015
 3271SOL    HW210713   5.724   2.071   0.899
 3272SOL     OW10714   5.528   0.346   0.103
 3272SOL    HW110715   5.498   0.263   0.056
 3272SOL    HW210716   5.613   0.328   0.151
 3273SOL     OW10717   6.396   6.893   2.486
 3273SOL    HW110718   6.433   6.902   2.393
 3273SOL    HW210719   6.308   6.845   2.482
 3274SOL     OW10720   3.686   2.138   6.211
 3274SOL    HW110721   3.636   2.053   6.229
 3274SOL    HW210722   3.704   2.184   6.298
 3275SOL     OW10723   2.829   1.045   6.802
 3275SOL    HW110724   2.905   1.042   6.737
 3275SOL    HW210725   2.764   1.115   6.774
 3276SOL     OW10726   3.063   6.281   0.234
 3276SOL    HW110727   3.034   6.246   0.324
 3276SOL    HW210728   3.072   6.380   0.238
 3277SOL     OW10729   6.947   6.644   5.196
 3277SOL    HW110730   6.854   6.663   5.228
 3277SOL    HW210731   6.943   6.585   5.115
 3278SOL     OW10732   1.281   1.008   6.865
 3278SOL    HW110733   1.328   0.971   6.945
 3278SOL    HW210734   1.346   1.058   6.808
 3279SOL     OW10735   1.973   6.922   0.766
 3279SOL    HW110736   2.005   6.833   0.800
 3279SOL    HW210737   1.994   6.993   0.833
 3280SOL     OW10738   1.559   4.841   6.292
 3280SOL    HW110739   1.540   4.754   6.338
 3280SOL    HW210740   1.654   4.843   6.263
 3281SOL     OW10741   2.682   5.932   0.268
 3281SOL    HW110742   2.667   5.925   0.367
 3281SOL    HW210743   2.727   6.019   0.248
 3282SOL     OW10744   1.988   5.601   2.805
 3282SOL    HW110745   1.933   5.674   2.764
 3282SOL    HW210746   1.967   5.595   2.903
 3283SOL     OW10747   2.204   0.384   3.672
 3283SOL    HW110748   2.253   0.427   3.596
 3283SOL    HW210749   2.127   0.331   3.637
 3284SOL     OW10750   6.984   3.786   6.838
 3284SOL    HW110751   6.968   3.764   6.934
 3284SOL    HW210752   6.915   3.741   6.781
 3285SOL     OW10753   6.965   2.253   4.133
 3285SOL    HW110754   0.000   2.297   4.061
 3285SOL    HW210755   0.006   2.213   4.201
 3286SOL     OW10756   3.508   4.348   5.279
 3286SOL    HW110757   3.523   4.278   5.349
 3286SOL    HW210758   3.425   4.400   5.302
 3287SOL     OW10759   1.143   4.996   0.971
 3287SOL    HW110760   1.219   4.938   1.002
 3287SOL    HW210761   1.180   5.073   0.919
 3288SOL     OW10762   0.614   6.294   6.976
 3288SOL    HW110763   0.519   6.319   6.958
 3288SOL    HW210764   0.675   6.343   6.914
 3289SOL     OW10765   1.784   5.598   4.172
 3289SOL    HW110766   1.787   5.563   4.266
 3289SOL    HW210767   1.866   5.568   4.123
 3290SOL     OW10768   6.846   5.060   1.321
 3290SOL    HW110769   6.772   5.100   1.375
 3290SOL    HW210770   6.902   5.133   1.281
 3291SOL     OW10771   2.177   6.956   1.012
 3291SOL    HW110772   2.104   6.890   1.029
 3291SOL    HW210773   2.140   0.014   0.962
 3292SOL     OW10774   0.665   6.216   5.999
 3292SOL    HW110775   0.612   6.156   5.940
 3292SOL    HW210776   0.722   6.276   5.943
 3293SOL     OW10777   6.803   0.887   3.103
 3293SOL    HW110778   6.875   0.818   3.100
 3293SOL    HW210779   6.740   0.872   3.027
 3294SOL     OW10780   0.376   0.217   7.017
 3294SOL    HW110781   0.441   0.278   0.044
 3294SOL    HW210782   0.295   0.206   0.054
 3295SOL     OW10783   1.188   2.564   6.401
 3295SOL    HW110784   1.134   2.537   6.321
 3295SOL    HW210785   1.258   2.494   6.419
 3296SOL     OW10786   0.639   6.387   2.460
 3296SOL    HW110787   0.674   6.402   2.367
 3296SOL    HW210788   0.663   6.295   2.490
 3297SOL     OW10789   3.062   2.517   6.163
 3297SOL    HW110790   3.155   2.508   6.198
 3297SOL    HW210791   3.065   2.559   6.072
 3298SOL     OW10792   6.268   3.339   3.205
 3298SOL    HW110793   6.206   3.414   3.229
 3298SOL    HW210794   6.335   3.372   3.138
 3299SOL     OW10795   1.803   6.925   5.063
 3299SOL    HW110796   1.735   6.897   4.995
 3299SOL    HW210797   1.895   6.915   5.025
 3300SOL     OW10798   6.454   6.839   4.763
 3300SOL    HW110799   6.418   6.800   4.678
 3300SOL    HW210800   6.550   6.815   4.772
 3301SOL     OW10801   0.325   3.542   2.393
 3301SOL    HW110802   0.270   3.472   2.439
 3301SOL    HW210803   0.372   3.598   2.462
 3302SOL     OW10804   1.093   4.779   3.746
 3302SOL    HW110805   1.183   4.810   3.776
 3302SOL    HW210806   1.048   4.852   3.695
 3303SOL     OW10807   3.270   3.688   3.127
 3303SOL    HW110808   3.370   3.679   3.132
 3303SOL    HW210809   3.235   3.622   3.060
 3304SOL     OW10810   0.910   6.168   4.413
 3304SOL    HW110811   0.914   6.141   4.317
 3304SOL    HW210812   0.824   6.137   4.453
 3305SOL     OW10813   1.519   0.988   1.877
 3305SOL    HW110814   1.508   1.086   1.895
 3305SOL    HW210815   1.563   0.945   1.956
 3306SOL     OW10816   0.982   3.475   2.814
 3306SOL    HW110817   1.077   3.446   2.812
 3306SOL    HW210818   0.974   3.558   2.869
 3307SOL     OW10819   0.652   5.964   0.281
 3307SOL    HW110820   0.671   5.997   0.189
 3307SOL    HW210821   0.719   6.001   0.345
 3308SOL     OW10822   4.380   6.085   0.508
 3308SOL    HW110823   4.291   6.048   0.533
 3308SOL    HW210824   4.451   6.017   0.524
 3309SOL     OW10825   0.610   5.135   2.852
 3309SOL    HW110826   0.596   5.178   2.763
 3309SOL    HW210827   0.677   5.188   2.904
 3310SOL     OW10828   1.425   6.334   1.791
 3310SOL    HW110829   1.332   6.366   1.775
 3310SOL    HW210830   1.489   6.393   1.743
 3311SOL     OW10831   3.729   6.193   0.611
 3311SOL    HW110832   3.644   6.167   0.565
 3311SOL    HW210833   3.724   6.288   0.640
 3312SOL     OW10834   2.591   3.687   6.883
 3312SOL    HW110835   2.514   3.632   6.852
 3312SOL    HW210836   2.571   3.725   6.973
 3313SOL     OW10837   6.857   5.321   4.420
 3313SOL    HW110838   6.941   5.279   4.386
 3313SOL    HW210839   6.821   5.266   4.496
 3314SOL     OW10840   0.815   3.283   6.008
 3314SOL    HW110841   0.776   3.306   6.097
 3314SOL    HW210842   0.912   3.264   6.017
 3315SOL     OW10843   0.109   2.050   2.633
 3315SOL    HW110844   0.103   2.109   2.714
 3315SOL    HW210845   0.048   2.085   2.561
 3316SOL     OW10846   4.608   0.656   0.641
 3316SOL    HW110847   4.572   0.741   0.600
 3316SOL    HW210848   4.549   0.580   0.615
 3317SOL     OW10849   4.267   2.725   1.619
 3317SOL    HW110850   4.341   2.736   1.552
 3317SOL    HW210851   4.233   2.632   1.615
 3318SOL     OW10852   3.041   5.630   4.657
 3318SOL    HW110853   2.994   5.559   4.709
 3318SOL    HW210854   3.015   5.624   4.561
 3319SOL     OW10855   0.427   5.359   4.798
 3319SOL    HW110856   0.456   5.331   4.706
 3319SOL    HW210857   0.498   5.334   4.864
 3320SOL     OW10858   0.149   1.048   6.246
 3320SOL    HW110859   0.078   1.097   6.296
 3320SOL    HW210860   0.239   1.084   6.271
 3321SOL     OW10861   3.615   3.966   3.673
 3321SOL    HW110862   3.593   4.003   3.763
 3321SOL    HW210863   3.531   3.956   3.620
 3322SOL     OW10864   4.251   1.944   1.657
 3322SOL    HW110865   4.256   2.018   1.725
 3322SOL    HW210866   4.337   1.939   1.607
 3323SOL     OW10867   2.181   5.187   0.163
 3323SOL    HW110868   2.273   5.148   0.163
 3323SOL    HW210869   2.133   5.159   0.246
 3324SOL     OW10870   0.790   2.157   0.483
 3324SOL    HW110871   0.701   2.195   0.460
 3324SOL    HW210872   0.860   2.228   0.472
 3325SOL     OW10873   2.105   3.409   0.710
 3325SOL    HW110874   2.051   3.345   0.765
 3325SOL    HW210875   2.168   3.358   0.652
 3326SOL     OW10876   6.546   0.611   1.794
 3326SOL    HW110877   6.633   0.658   1.812
 3326SOL    HW210878   6.471   0.664   1.833
 3327SOL     OW10879   3.001   6.339   1.925
 3327SOL    HW110880   2.938   6.404   1.883
 3327SOL    HW210881   3.076   6.388   1.969
 3328SOL     OW10882   4.424   1.203   2.514
 3328SOL    HW110883   4.466   1.265   2.448
 3328SOL    HW210884   4.324   1.203   2.501
 3329SOL     OW10885   5.091   0.664   5.154
 3329SOL    HW110886   5.016   0.622   5.207
 3329SOL    HW210887   5.121   0.747   5.201
 3330SOL     OW10888   6.618   5.702   2.810
 3330SOL    HW110889   6.597   5.710   2.907
 3330SOL    HW210890   6.678   5.623   2.796
 3331SOL     OW10891   2.085   3.347   2.613
 3331SOL    HW110892   2.097   3.432   2.562
 3331SOL    HW210893   2.142   3.275   2.572
 3332SOL     OW10894   3.445   5.110   1.316
 3332SOL    HW110895   3.360   5.065   1.343
 3332SOL    HW210896   3.460   5.191   1.373
 3333SOL     OW10897   2.587   3.080   1.543
 3333SOL    HW110898   2.636   2.996   1.566
 3333SOL    HW210899   2.636   3.159   1.579
 3334SOL     OW10900   2.245   2.012   1.997
 3334SOL    HW110901   2.343   2.032   2.002
 3334SOL    HW210902   2.212   2.032   1.905
 3335SOL     OW10903   3.674   4.379   5.668
 3335SOL    HW110904   3.618   4.325   5.731
 3335SOL    HW210905   3.770   4.359   5.683
 3336SOL     OW10906   4.843   5.776   4.075
 3336SOL    HW110907   4.842   5.696   4.135
 3336SOL    HW210908   4.898   5.757   3.994
 3337SOL     OW10909   3.387   3.385   3.215
 3337SOL    HW110910   3.352   3.337   3.134
 3337SOL    HW210911   3.476   3.424   3.195
 3338SOL     OW10912   2.832   2.545   1.491
 3338SOL    HW110913   2.820   2.568   1.395
 3338SOL    HW210914   2.743   2.533   1.534
 3339SOL     OW10915   1.870   0.217   5.726
 3339SOL    HW110916   1.787   0.165   5.743
 3339SOL    HW210917   1.935   0.202   5.800
 3340SOL     OW10918   3.861   0.718   3.856
 3340SOL    HW110919   3.820   0.630   3.836
 3340SOL    HW210920   3.801   0.770   3.918
 3341SOL     OW10921   1.701   3.642   2.881
 3341SOL    HW110922   1.731   3.574   2.947
 3341SOL    HW210923   1.769   3.651   2.808
 3342SOL     OW10924   0.098   0.956   2.354
 3342SOL    HW110925   0.052   0.870   2.332
 3342SOL    HW210926   0.178   0.937   2.411
 3343SOL     OW10927   4.813   5.169   6.608
 3343SOL    HW110928   4.892   5.210   6.654
 3343SOL    HW210929   4.796   5.216   6.522
 3344SOL     OW10930   0.529   3.226   2.116
 3344SOL    HW110931   0.489   3.138   2.142
 3344SOL    HW210932   0.518   3.292   2.191
 3345SOL     OW10933   6.419   5.458   0.023
 3345SOL    HW110934   6.349   5.530   0.024
 3345SOL    HW210935   6.383   5.377   0.069
 3346SOL     OW10936   1.869   0.684   0.334
 3346SOL    HW110937   1.936   0.615   0.362
 3346SOL    HW210938   1.798   0.691   0.403
 3347SOL     OW10939   0.367   3.873   6.076
 3347SOL    HW110940   0.412   3.961   6.060
 3347SOL    HW210941   0.400   3.806   6.009
 3348SOL     OW10942   3.619   3.807   6.279
 3348SOL    HW110943   3.694   3.751   6.245
 3348SOL    HW210944   3.651   3.864   6.355
 3349SOL     OW10945   1.413   4.714   3.672
 3349SOL    HW110946   1.353   4.643   3.708
 3349SOL    HW210947   1.506   4.700   3.707
 3350SOL     OW10948   1.785   4.102   4.688
 3350SOL    HW110949   1.775   4.196   4.722
 3350SOL    HW210950   1.857   4.100   4.618
 3351SOL     OW10951   5.102   0.845   1.742
 3351SOL    HW110952   5.036   0.808   1.807
 3351SOL    HW210953   5.195   0.835   1.779
 3352SOL     OW10954   6.406   1.285   6.898
 3352SOL    HW110955   6.430   1.370   6.853
 3352SOL    HW210956   6.367   1.221   6.831
 3353SOL     OW10957   3.558   0.259   1.315
 3353SOL    HW110958   3.503   0.184   1.279
 3353SOL    HW210959   3.604   0.306   1.240
 3354SOL     OW10960   3.094   4.112   6.427
 3354SOL    HW110961   3.010   4.081   6.384
 3354SOL    HW210962   3.165   4.043   6.416
 3355SOL     OW10963   1.787   0.893   4.972
 3355SOL    HW110964   1.745   0.886   4.881
 3355SOL    HW210965   1.826   0.805   4.998
 3356SOL     OW10966   1.727   0.653   6.343
 3356SOL    HW110967   1.652   0.626   6.403
 3356SOL    HW210968   1.809   0.601   6.367
 3357SOL     OW10969   3.153   3.172   1.593
 3357SOL    HW110970   3.203   3.087   1.572
 3357SOL    HW210971   3.062   3.167   1.552
 3358SOL     OW10972   6.679   0.432   1.252
 3358SOL    HW110973   6.684   0.483   1.338
 3358SOL    HW210974   6.764   0.444   1.201
 3359SOL     OW10975   0.498   6.427   4.634
 3359SOL    HW110976   0.582   6.462   4.593
 3359SOL    HW210977   0.485   6.468   4.724
 3360SOL     OW10978   1.351   3.688   4.384
 3360SOL    HW110979   1.417   3.710   4.312
 3360SOL    HW210980   1.264   3.663   4.343
 3361SOL     OW10981   6.685   6.660   4.729
 3361SOL    HW110982   6.785   6.667   4.729
 3361SOL    HW210983   6.654   6.624   4.817
 3362SOL     OW10984   4.132   0.650   3.738
 3362SOL    HW110985   4.034   0.662   3.752
 3362SOL    HW210986   4.163   0.710   3.664
 3363SOL     OW10987   5.650   3.791   6.843
 3363SOL    HW110988   5.674   3.709   6.790
 3363SOL    HW210989   5.704   3.869   6.810
 3364SOL     OW10990   1.809   3.375   2.944
 3364SOL    HW110991   1.827   3.327   2.858
 3364SOL    HW210992   1.880   3.352   3.011
 3365SOL     OW10993   1.817   3.988   3.170
 3365SOL    HW110994   1.804   4.043   3.253
 3365SOL    HW210995   1.901   3.935   3.179
 3366SOL     OW10996   6.027   3.956   4.334
 3366SOL    HW110997   6.052   3.919   4.424
 3366SOL    HW210998   6.034   4.055   4.335
 3367SOL     OW10999   4.041   3.809   3.520
 3367SOL    HW111000   3.994   3.871   3.582
 3367SOL    HW211001   3.974   3.750   3.474
 3368SOL     OW11002   1.700   0.331   1.854
 3368SOL    HW111003   1.764   0.255   1.869
 3368SOL    HW211004   1.626   0.327   1.921
 3369SOL     OW11005   4.896   1.934   0.922
 3369SOL    HW111006   4.825   1.941   0.993
 3369SOL    HW211007   4.902   2.021   0.872
 3370SOL     OW11008   0.958   5.428   2.426
 3370SOL    HW111009   0.926   5.503   2.483
 3370SOL    HW211010   0.906   5.345   2.448
 3371SOL     OW11011   2.236   2.886   2.256
 3371SOL    HW111012   2.297   2.827   2.310
 3371SOL    HW211013   2.245   2.863   2.159
 3372SOL     OW11014   6.438   3.214   2.809
 3372SOL    HW111015   6.510   3.240   2.745
 3372SOL    HW211016   6.462   3.127   2.853
 3373SOL     OW11017   6.315   2.924   1.435
 3373SOL    HW111018   6.338   2.887   1.345
 3373SOL    HW211019   6.375   2.884   1.504
 3374SOL     OW11020   0.579   6.720   4.384
 3374SOL    HW111021   0.673   6.743   4.356
 3374SOL    HW211022   0.531   6.803   4.410
 3375SOL     OW11023   6.913   5.071   5.569
 3375SOL    HW111024   6.922   5.021   5.655
 3375SOL    HW211025   7.002   5.075   5.523
 3376SOL     OW11026   3.292   3.336   4.146
 3376SOL    HW111027   3.194   3.321   4.160
 3376SOL    HW211028   3.342   3.252   4.169
 3377SOL     OW11029   6.569   5.308   3.659
 3377SOL    HW111030   6.567   5.261   3.571
 3377SOL    HW211031   6.519   5.254   3.727
 3378SOL     OW11032   1.278   6.088   0.383
 3378SOL    HW111033   1.268   6.020   0.311
 3378SOL    HW211034   1.346   6.058   0.449
 3379SOL     OW11035   6.859   4.056   3.660
 3379SOL    HW111036   6.791   4.016   3.600
 3379SOL    HW211037   6.920   4.115   3.607
 3380SOL     OW11038   2.571   4.818   0.680
 3380SOL    HW111039   2.632   4.743   0.655
 3380SOL    HW211040   2.569   4.885   0.606
 3381SOL     OW11041   1.978   3.471   6.005
 3381SOL    HW111042   1.934   3.381   5.995
 3381SOL    HW211043   1.981   3.516   5.915
 3382SOL     OW11044   6.868   3.519   0.725
 3382SOL    HW111045   6.769   3.533   0.729
 3382SOL    HW211046   6.898   3.523   0.630
 3383SOL     OW11047   4.249   5.221   0.678
 3383SOL    HW111048   4.295   5.219   0.767
 3383SOL    HW211049   4.285   5.147   0.621
 3384SOL     OW11050   3.345   4.422   6.609
 3384SOL    HW111051   3.335   4.369   6.525
 3384SOL    HW211052   3.415   4.380   6.666
 3385SOL     OW11053   0.321   2.423   4.056
 3385SOL    HW111054   0.244   2.392   4.001
 3385SOL    HW211055   0.295   2.419   4.153
 3386SOL     OW11056   0.466   4.334   4.864
 3386SOL    HW111057   0.516   4.249   4.879
 3386SOL    HW211058   0.394   4.343   4.933
 3387SOL     OW11059   6.316   1.109   3.253
 3387SOL    HW111060   6.247   1.046   3.286
 3387SOL    HW211061   6.278   1.165   3.179
 3388SOL     OW11062   6.749   3.970   1.102
 3388SOL    HW111063   6.697   4.008   1.026
 3388SOL    HW211064   6.712   4.004   1.189
 3389SOL     OW11065   5.682   6.144   6.860
 3389SOL    HW111066   5.607   6.082   6.837
 3389SOL    HW211067   5.769   6.095   6.853
 3390SOL     OW11068   2.872   5.748   6.127
 3390SOL    HW111069   2.925   5.811   6.184
 3390SOL    HW211070   2.843   5.795   6.044
 3391SOL     OW11071   5.613   3.734   4.154
 3391SOL    HW111072   5.674   3.666   4.195
 3391SOL    HW211073   5.661   3.822   4.149
 3392SOL     OW11074   4.860   0.240   5.790
 3392SOL    HW111075   4.803   0.320   5.778
 3392SOL    HW211076   4.953   0.268   5.815
 3393SOL     OW11077   4.867   6.262   0.528
 3393SOL    HW111078   4.799   6.335   0.513
 3393SOL    HW211079   4.876   6.245   0.626
 3394SOL     OW11080   2.429   5.510   1.144
 3394SOL    HW111081   2.343   5.539   1.103
 3394SOL    HW211082   2.492   5.481   1.072
 3395SOL     OW11083   1.980   0.223   3.598
 3395SOL    HW111084   1.927   0.301   3.564
 3395SOL    HW211085   1.933   0.138   3.575
 3396SOL     OW11086   4.906   1.219   4.414
 3396SOL    HW111087   4.816   1.206   4.456
 3396SOL    HW211088   4.894   1.245   4.318
 3397SOL     OW11089   2.342   5.743   6.886
 3397SOL    HW111090   2.403   5.779   6.956
 3397SOL    HW211091   2.340   5.643   6.891
 3398SOL     OW11092   6.535   2.444   4.788
 3398SOL    HW111093   6.527   2.363   4.846
 3398SOL    HW211094   6.632   2.466   4.775
 3399SOL     OW11095   6.763   6.117   1.732
 3399SOL    HW111096   6.726   6.205   1.702
 3399SOL    HW211097   6.862   6.114   1.717
 3400SOL     OW11098   4.800   2.626   5.996
 3400SOL    HW111099   4.720   2.580   5.959
 3400SOL    HW211100   4.771   2.702   6.053
 3401SOL     OW11101   5.994   3.777   5.695
 3401SOL    HW111102   6.079   3.731   5.720
 3401SOL    HW211103   6.014   3.870   5.665
 3402SOL     OW11104   6.308   3.396   1.413
 3402SOL    HW111105   6.322   3.319   1.474
 3402SOL    HW211106   6.217   3.390   1.372
 3403SOL     OW11107   5.341   6.545   6.361
 3403SOL    HW111108   5.272   6.581   6.299
 3403SOL    HW211109   5.432   6.559   6.322
 3404SOL     OW11110   4.960   4.195   4.937
 3404SOL    HW111111   4.946   4.100   4.964
 3404SOL    HW211112   5.004   4.198   4.847
 3405SOL     OW11113   5.320   6.403   7.005
 3405SOL    HW111114   5.343   6.371   6.913
 3405SOL    HW211115   5.254   6.341   0.027
 3406SOL     OW11116   2.640   5.130   1.753
 3406SOL    HW111117   2.728   5.086   1.738
 3406SOL    HW211118   2.634   5.213   1.698
 3407SOL     OW11119   1.014   4.056   6.927
 3407SOL    HW111120   0.991   3.973   6.876
 3407SOL    HW211121   1.046   4.126   6.863
 3408SOL     OW11122   4.804   0.340   3.652
 3408SOL    HW111123   4.797   0.378   3.744
 3408SOL    HW211124   4.887   0.375   3.608
 3409SOL     OW11125   4.439   0.680   1.391
 3409SOL    HW111126   4.380   0.605   1.362
 3409SOL    HW211127   4.385   0.763   1.401
 3410SOL     OW11128   6.344   0.476   3.691
 3410SOL    HW111129   6.335   0.388   3.646
 3410SOL    HW211130   6.436   0.512   3.677
 3411SOL     OW11131   5.783   3.218   6.475
 3411SOL    HW111132   5.852   3.150   6.450
 3411SOL    HW211133   5.806   3.306   6.434
 3412SOL     OW11134   5.423   3.111   1.997
 3412SOL    HW111135   5.478   3.031   2.019
 3412SOL    HW211136   5.359   3.088   1.923
 3413SOL     OW11137   0.026   1.401   0.042
 3413SOL    HW111138   6.972   1.354   0.090
 3413SOL    HW211139   0.005   1.498   0.036
 3414SOL     OW11140   3.189   4.127   1.119
 3414SOL    HW111141   3.171   4.101   1.024
 3414SOL    HW211142   3.202   4.044   1.174
 3415SOL     OW11143   1.800   1.397   6.442
 3415SOL    HW111144   1.810   1.462   6.367
 3415SOL    HW211145   1.809   1.303   6.407
 3416SOL     OW11146   6.010   6.935   6.347
 3416SOL    HW111147   5.948   7.013   6.348
 3416SOL    HW211148   6.059   6.929   6.434
 3417SOL     OW11149   5.345   6.387   3.447
 3417SOL    HW111150   5.253   6.364   3.415
 3417SOL    HW211151   5.409   6.316   3.418
 3418SOL     OW11152   4.336   5.190   0.927
 3418SOL    HW111153   4.435   5.195   0.918
 3418SOL    HW211154   4.302   5.273   0.971
 3419SOL     OW11155   2.686   5.210   5.356
 3419SOL    HW111156   2.606   5.262   5.325
 3419SOL    HW211157   2.692   5.124   5.305
 3420SOL     OW11158   4.489   2.163   2.408
 3420SOL    HW111159   4.449   2.252   2.427
 3420SOL    HW211160   4.586   2.164   2.434
 3421SOL     OW11161   0.183   2.919   4.410
 3421SOL    HW111162   0.214   3.014   4.400
 3421SOL    HW211163   0.084   2.917   4.420
 3422SOL     OW11164   2.250   6.519   0.922
 3422SOL    HW111165   2.228   6.460   0.845
 3422SOL    HW211166   2.349   6.524   0.933
 3423SOL     OW11167   1.242   4.613   5.606
 3423SOL    HW111168   1.308   4.688   5.607
 3423SOL    HW211169   1.224   4.586   5.511
 3424SOL     OW11170   4.511   1.332   1.895
 3424SOL    HW111171   4.513   1.431   1.913
 3424SOL    HW211172   4.430   1.292   1.937
 3425SOL     OW11173   6.071   3.401   6.657
 3425SOL    HW111174   6.077   3.470   6.585
 3425SOL    HW211175   5.975   3.374   6.669
 3426SOL     OW11176   6.157   2.841   6.273
 3426SOL    HW111177   6.061   2.864   6.259
 3426SOL    HW211178   6.203   2.917   6.319
 3427SOL     OW11179   1.120   2.063   0.498
 3427SOL    HW111180   1.053   1.993   0.521
 3427SOL    HW211181   1.174   2.033   0.420
 3428SOL     OW11182   4.682   6.424   4.996
 3428SOL    HW111183   4.768   6.439   5.045
 3428SOL    HW211184   4.623   6.504   5.008
 3429SOL     OW11185   5.652   0.147   1.083
 3429SOL    HW111186   5.716   0.120   1.011
 3429SOL    HW211187   5.596   0.223   1.051
 3430SOL     OW11188   2.479   4.833   5.404
 3430SOL    HW111189   2.484   4.747   5.353
 3430SOL    HW211190   2.544   4.831   5.479
 3431SOL     OW11191   0.725   4.666   2.707
 3431SOL    HW111192   0.813   4.619   2.711
 3431SOL    HW211193   0.658   4.607   2.662
 3432SOL     OW11194   1.224   4.376   6.913
 3432SOL    HW111195   1.161   4.359   6.989
 3432SOL    HW211196   1.225   4.473   6.891
 3433SOL     OW11197   2.875   1.875   6.767
 3433SOL    HW111198   2.873   1.876   6.667
 3433SOL    HW211199   2.873   1.780   6.799
 3434SOL     OW11200   3.651   2.558   1.705
 3434SOL    HW111201   3.597   2.622   1.760
 3434SOL    HW211202   3.603   2.471   1.699
 3435SOL     OW11203   2.090   1.077   1.096
 3435SOL    HW111204   2.169   1.083   1.036
 3435SOL    HW211205   2.120   1.049   1.188
 3436SOL     OW11206   3.628   6.698   6.203
 3436SOL    HW111207   3.646   6.659   6.294
 3436SOL    HW211208   3.547   6.757   6.208
 3437SOL     OW11209   1.731   6.833   6.352
 3437SOL    HW111210   1.714   6.928   6.323
 3437SOL    HW211211   1.764   6.833   6.446
 3438SOL     OW11212   1.632   3.626   1.055
 3438SOL    HW111213   1.655   3.541   1.007
 3438SOL    HW211214   1.639   3.703   0.992
 3439SOL     OW11215   2.301   5.338   1.693
 3439SOL    HW111216   2.205   5.309   1.703
 3439SOL    HW211217   2.355   5.298   1.767
 3440SOL     OW11218   3.708   4.165   4.811
 3440SOL    HW111219   3.725   4.092   4.745
 3440SOL    HW211220   3.728   4.254   4.769
 3441SOL     OW11221   5.818   4.873   6.028
 3441SOL    HW111222   5.869   4.848   5.946
 3441SOL    HW211223   5.720   4.857   6.013
 3442SOL     OW11224   2.929   3.546   1.291
 3442SOL    HW111225   2.836   3.510   1.279
 3442SOL    HW211226   2.924   3.646   1.298
 3443SOL     OW11227   0.828   5.783   2.231
 3443SOL    HW111228   0.857   5.746   2.143
 3443SOL    HW211229   0.851   5.717   2.303
 3444SOL     OW11230   5.816   3.649   6.383
 3444SOL    HW111231   5.749   3.709   6.340
 3444SOL    HW211232   5.891   3.632   6.319
 3445SOL     OW11233   6.233   4.857   3.830
 3445SOL    HW111234   6.224   4.945   3.783
 3445SOL    HW211235   6.192   4.785   3.775
 3446SOL     OW11236   4.761   0.844   1.479
 3446SOL    HW111237   4.824   0.781   1.434
 3446SOL    HW211238   4.720   0.905   1.411
 3447SOL     OW11239   4.947   1.080   6.440
 3447SOL    HW111240   4.928   1.163   6.388
 3447SOL    HW211241   5.032   1.091   6.491
 3448SOL     OW11242   2.008   4.608   5.277
 3448SOL    HW111243   2.033   4.637   5.185
 3448SOL    HW211244   1.924   4.553   5.273
 3449SOL     OW11245   6.905   4.745   5.555
 3449SOL    HW111246   6.833   4.693   5.602
 3449SOL    HW211247   6.880   4.842   5.553
 3450SOL     OW11248   2.405   6.226   1.901
 3450SOL    HW111249   2.388   6.225   1.999
 3450SOL    HW211250   2.482   6.166   1.879
 3451SOL     OW11251   1.913   1.211   1.554
 3451SOL    HW111252   1.996   1.247   1.511
 3451SOL    HW211253   1.847   1.284   1.568
 3452SOL     OW11254   4.650   1.198   4.490
 3452SOL    HW111255   4.630   1.296   4.501
 3452SOL    HW211256   4.571   1.151   4.452
 3453SOL     OW11257   4.409   6.364   6.402
 3453SOL    HW111258   4.431   6.407   6.490
 3453SOL    HW211259   4.396   6.434   6.333
 3454SOL     OW11260   6.884   2.678   0.759
 3454SOL    HW111261   6.960   2.632   0.805
 3454SOL    HW211262   6.866   2.632   0.671
 3455SOL     OW11263   0.964   2.927   5.383
 3455SOL    HW111264   0.943   2.973   5.296
 3455SOL    HW211265   1.041   2.973   5.427
 3456SOL     OW11266   5.364   5.701   3.904
 3456SOL    HW111267   5.439   5.726   3.843
 3456SOL    HW211268   5.367   5.758   3.986
 3457SOL     OW11269   2.727   4.276   6.517
 3457SOL    HW111270   2.794   4.322   6.459
 3457SOL    HW211271   2.749   4.293   6.613
 3458SOL     OW11272   4.258   1.053   1.840
 3458SOL    HW111273   4.240   0.956   1.828
 3458SOL    HW211274   4.344   1.077   1.793
 3459SOL     OW11275   5.055   6.270   2.280
 3459SOL    HW111276   4.963   6.233   2.295
 3459SOL    HW211277   5.123   6.200   2.302
 3460SOL     OW11278   3.963   1.694   4.775
 3460SOL    HW111279   3.965   1.604   4.730
 3460SOL    HW211280   4.042   1.747   4.746
 3461SOL     OW11281   5.745   4.920   4.576
 3461SOL    HW111282   5.804   4.927   4.656
 3461SOL    HW211283   5.692   4.836   4.580
 3462SOL     OW11284   1.312   3.543   6.338
 3462SOL    HW111285   1.278   3.507   6.252
 3462SOL    HW211286   1.305   3.643   6.338
 3463SOL     OW11287   4.988   4.132   0.422
 3463SOL    HW111288   5.019   4.155   0.330
 3463SOL    HW211289   5.063   4.144   0.487
 3464SOL     OW11290   0.035   4.556   4.967
 3464SOL    HW111291   6.986   4.570   5.038
 3464SOL    HW211292   7.010   4.522   4.884
 3465SOL     OW11293   0.864   1.546   2.169
 3465SOL    HW111294   0.897   1.581   2.257
 3465SOL    HW211295   0.838   1.622   2.110
 3466SOL     OW11296   6.361   3.757   5.260
 3466SOL    HW111297   6.370   3.747   5.161
 3466SOL    HW211298   6.316   3.676   5.298
 3467SOL     OW11299   2.237   3.219   6.501
 3467SOL    HW111300   2.216   3.154   6.429
 3467SOL    HW211301   2.163   3.220   6.568
 3468SOL     OW11302   4.154   6.786   3.118
 3468SOL    HW111303   4.150   6.783   3.018
 3468SOL    HW211304   4.248   6.805   3.146
 3469SOL     OW11305   4.873   3.717   2.577
 3469SOL    HW111306   4.871   3.742   2.674
 3469SOL    HW211307   4.853   3.620   2.568
 3470SOL     OW11308   6.895   5.669   1.250
 3470SOL    HW111309   6.967   5.611   1.287
 3470SOL    HW211310   6.896   5.664   1.150
 3471SOL     OW11311   4.154   0.432   4.636
 3471SOL    HW111312   4.078   0.369   4.617
 3471SOL    HW211313   4.201   0.402   4.719
 3472SOL     OW11314   3.858   1.158   5.213
 3472SOL    HW111315   3.762   1.129   5.212
 3472SOL    HW211316   3.897   1.144   5.304
 3473SOL     OW11317   4.981   0.446   4.730
 3473SOL    HW111318   4.888   0.411   4.721
 3473SOL    HW211319   4.980   0.532   4.782
 3474SOL     OW11320   5.219   4.363   0.397
 3474SOL    HW111321   5.162   4.405   0.326
 3474SOL    HW211322   5.254   4.275   0.364
 3475SOL     OW11323   2.176   6.264   5.052
 3475SOL    HW111324   2.134   6.266   5.142
 3475SOL    HW211325   2.180   6.357   5.015
 3476SOL     OW11326   4.527   1.702   4.206
 3476SOL    HW111327   4.601   1.760   4.240
 3476SOL    HW211328   4.474   1.752   4.137
 3477SOL     OW11329   4.366   5.553   2.132
 3477SOL    HW111330   4.418   5.636   2.114
 3477SOL    HW211331   4.271   5.577   2.151
 3478SOL     OW11332   4.183   4.792   6.704
 3478SOL    HW111333   4.088   4.777   6.678
 3478SOL    HW211334   4.187   4.856   6.780
 3479SOL     OW11335   0.569   0.499   2.003
 3479SOL    HW111336   0.636   0.477   1.932
 3479SOL    HW211337   0.513   0.577   1.974
 3480SOL     OW11338   1.413   1.270   4.254
 3480SOL    HW111339   1.350   1.281   4.177
 3480SOL    HW211340   1.408   1.176   4.287
 3481SOL     OW11341   2.275   6.849   6.508
 3481SOL    HW111342   2.296   6.945   6.492
 3481SOL    HW211343   2.183   6.829   6.475
 3482SOL     OW11344   1.159   1.616   1.199
 3482SOL    HW111345   1.159   1.636   1.101
 3482SOL    HW211346   1.094   1.543   1.217
 3483SOL     OW11347   3.613   1.493   0.759
 3483SOL    HW111348   3.615   1.452   0.851
 3483SOL    HW211349   3.671   1.574   0.758
 3484SOL     OW11350   2.992   3.210   3.511
 3484SOL    HW111351   3.002   3.144   3.586
 3484SOL    HW211352   2.969   3.300   3.548
 3485SOL     OW11353   6.819   1.589   4.687
 3485SOL    HW111354   6.879   1.644   4.629
 3485SOL    HW211355   6.791   1.642   4.766
 3486SOL     OW11356   4.418   1.531   2.864
 3486SOL    HW111357   4.387   1.625   2.849
 3486SOL    HW211358   4.469   1.500   2.784
 3487SOL     OW11359   0.670   0.594   6.723
 3487SOL    HW111360   0.663   0.672   6.785
 3487SOL    HW211361   0.584   0.584   6.672
 3488SOL     OW11362   6.113   3.103   3.638
 3488SOL    HW111363   6.146   3.183   3.588
 3488SOL    HW211364   6.075   3.132   3.726
 3489SOL     OW11365   2.578   6.505   0.859
 3489SOL    HW111366   2.606   6.600   0.869
 3489SOL    HW211367   2.552   6.487   0.764
 3490SOL     OW11368   3.688   3.107   0.703
 3490SOL    HW111369   3.652   3.082   0.793
 3490SOL    HW211370   3.646   3.193   0.673
 3491SOL     OW11371   6.793   2.919   4.995
 3491SOL    HW111372   6.873   2.869   4.961
 3491SOL    HW211373   6.768   2.991   4.930
 3492SOL     OW11374   5.886   5.258   6.399
 3492SOL    HW111375   5.842   5.185   6.348
 3492SOL    HW211376   5.913   5.332   6.337
 3493SOL     OW11377   6.931   5.253   0.525
 3493SOL    HW111378   7.005   5.278   0.589
 3493SOL    HW211379   6.946   5.160   0.492
 3494SOL     OW11380   3.016   6.560   1.214
 3494SOL    HW111381   2.960   6.496   1.161
 3494SOL    HW211382   3.112   6.533   1.208
 3495SOL     OW11383   5.123   4.387   0.648
 3495SOL    HW111384   5.159   4.380   0.555
 3495SOL    HW211385   5.196   4.418   0.710
 3496SOL     OW11386   1.430   4.391   0.524
 3496SOL    HW111387   1.508   4.331   0.537
 3496SOL    HW211388   1.351   4.355   0.575
 3497SOL     OW11389   4.578   6.661   3.915
 3497SOL    HW111390   4.561   6.564   3.932
 3497SOL    HW211391   4.513   6.695   3.848
 3498SOL     OW11392   1.802   1.628   1.738
 3498SOL    HW111393   1.714   1.633   1.784
 3498SOL    HW211394   1.848   1.717   1.744
 3499SOL     OW11395   6.163   3.649   3.845
 3499SOL    HW111396   6.228   3.723   3.827
 3499SOL    HW211397   6.071   3.686   3.853
 3500SOL     OW11398   6.445   2.495   0.782
 3500SOL    HW111399   6.418   2.453   0.696
 3500SOL    HW211400   6.371   2.486   0.848
 3501SOL     OW11401   0.587   4.294   4.129
 3501SOL    HW111402   0.682   4.285   4.098
 3501SOL    HW211403   0.573   4.240   4.212
 3502SOL     OW11404   1.334   3.756   1.772
 3502SOL    HW111405   1.304   3.850   1.757
 3502SOL    HW211406   1.256   3.698   1.794
 3503SOL     OW11407   4.477   6.079   3.724
 3503SOL    HW111408   4.430   6.019   3.788
 3503SOL    HW211409   4.554   6.031   3.684
 3504SOL     OW11410   2.151   3.078   2.489
 3504SOL    HW111411   2.227   3.101   2.429
 3504SOL    HW211412   2.069   3.060   2.434
 3505SOL     OW11413   4.597   5.442   4.931
 3505SOL    HW111414   4.626   5.473   4.840
 3505SOL    HW211415   4.666   5.380   4.968
 3506SOL     OW11416   5.773   4.792   2.233
 3506SOL    HW111417   5.805   4.886   2.221
 3506SOL    HW211418   5.696   4.791   2.296
 3507SOL     OW11419   0.768   0.904   6.244
 3507SOL    HW111420   0.720   0.874   6.162
 3507SOL    HW211421   0.709   0.892   6.324
 3508SOL     OW11422   6.618   3.069   0.038
 3508SOL    HW111423   6.595   3.129   0.116
 3508SOL    HW211424   6.636   3.126   6.978
 3509SOL     OW11425   6.981   0.056   0.909
 3509SOL    HW111426   0.050   0.010   0.915
 3509SOL    HW211427   6.928   0.036   0.992
 3510SOL     OW11428   1.467   2.788   1.523
 3510SOL    HW111429   1.398   2.839   1.472
 3510SOL    HW211430   1.478   2.697   1.482
 3511SOL     OW11431   0.708   0.746   5.230
 3511SOL    HW111432   0.666   0.667   5.275
 3511SOL    HW211433   0.707   0.825   5.291
 3512SOL     OW11434   3.255   3.104   1.220
 3512SOL    HW111435   3.289   3.194   1.250
 3512SOL    HW211436   3.225   3.052   1.300
 3513SOL     OW11437   6.171   4.294   1.437
 3513SOL    HW111438   6.145   4.351   1.515
 3513SOL    HW211439   6.160   4.345   1.352
 3514SOL     OW11440   1.591   6.527   1.684
 3514SOL    HW111441   1.620   6.617   1.716
 3514SOL    HW211442   1.591   6.526   1.584
 3515SOL     OW11443   3.173   6.110   3.355
 3515SOL    HW111444   3.224   6.028   3.329
 3515SOL    HW211445   3.157   6.111   3.453
 3516SOL     OW11446   3.309   1.039   0.597
 3516SOL    HW111447   3.299   1.119   0.538
 3516SOL    HW211448   3.221   0.993   0.606
 3517SOL     OW11449   1.210   0.761   6.795
 3517SOL    HW111450   1.253   0.849   6.813
 3517SOL    HW211451   1.269   0.687   6.828
 3518SOL     OW11452   4.600   3.435   6.107
 3518SOL    HW111453   4.609   3.381   6.191
 3518SOL    HW211454   4.517   3.490   6.111
 3519SOL     OW11455   2.729   6.794   1.180
 3519SOL    HW111456   2.770   6.785   1.089
 3519SOL    HW211457   2.800   6.809   1.248
 3520SOL     OW11458   3.633   5.873   1.295
 3520SOL    HW111459   3.576   5.814   1.239
 3520SOL    HW211460   3.575   5.932   1.351
 3521SOL     OW11461   5.478   2.388   7.001
 3521SOL    HW111462   5.516   2.317   0.040
 3521SOL    HW211463   5.546   2.461   6.990
 3522SOL     OW11464   3.109   5.798   1.565
 3522SOL    HW111465   3.102   5.847   1.652
 3522SOL    HW211466   3.019   5.794   1.522
 3523SOL     OW11467   1.867   5.187   5.717
 3523SOL    HW111468   1.797   5.245   5.675
 3523SOL    HW211469   1.933   5.159   5.648
 3524SOL     OW11470   2.886   6.996   1.689
 3524SOL    HW111471   2.893   6.899   1.665
 3524SOL    HW211472   2.966   0.024   1.654
 3525SOL     OW11473   1.657   3.122   2.520
 3525SOL    HW111474   1.608   3.198   2.564
 3525SOL    HW211475   1.592   3.059   2.479
 3526SOL     OW11476   2.435   0.166   3.294
 3526SOL    HW111477   2.534   0.155   3.285
 3526SOL    HW211478   2.401   0.104   3.366
 3527SOL     OW11479   4.840   3.511   6.016
 3527SOL    HW111480   4.904   3.476   6.084
 3527SOL    HW211481   4.746   3.491   6.045
 3528SOL     OW11482   1.195   6.500   4.428
 3528SOL    HW111483   1.109   6.449   4.431
 3528SOL    HW211484   1.186   6.585   4.480
 3529SOL     OW11485   3.623   5.978   0.142
 3529SOL    HW111486   3.602   5.945   0.050
 3529SOL    HW211487   3.564   5.931   0.208
 3530SOL     OW11488   1.545   5.609   2.926
 3530SOL    HW111489   1.450   5.616   2.957
 3530SOL    HW211490   1.548   5.616   2.826
 3531SOL     OW11491   4.568   3.667   7.000
 3531SOL    HW111492   4.553   3.660   6.901
 3531SOL    HW211493   4.486   3.705   0.023
 3532SOL     OW11494   1.693   6.663   0.325
 3532SOL    HW111495   1.689   6.742   0.264
 3532SOL    HW211496   1.782   6.619   0.316
 3533SOL     OW11497   1.194   1.319   4.061
 3533SOL    HW111498   1.161   1.225   4.073
 3533SOL    HW211499   1.218   1.334   3.965
 3534SOL     OW11500   5.291   0.643   4.799
 3534SOL    HW111501   5.272   0.599   4.887
 3534SOL    HW211502   5.207   0.682   4.762
 3535SOL     OW11503   4.043   6.305   0.055
 3535SOL    HW111504   3.990   6.344   0.130
 3535SOL    HW211505   4.010   6.342   6.988
 3536SOL     OW11506   1.095   4.254   3.197
 3536SOL    HW111507   1.128   4.160   3.196
 3536SOL    HW211508   1.122   4.298   3.283
 3537SOL     OW11509   2.547   5.372   0.559
 3537SOL    HW111510   2.449   5.353   0.555
 3537SOL    HW211511   2.573   5.389   0.654
 3538SOL     OW11512   2.842   0.638   3.605
 3538SOL    HW111513   2.872   0.543   3.609
 3538SOL    HW211514   2.874   0.680   3.520
 3539SOL     OW11515   5.472   6.152   6.533
 3539SOL    HW111516   5.383   6.109   6.518
 3539SOL    HW211517   5.539   6.114   6.470
 3540SOL     OW11518   2.866   4.021   6.241
 3540SOL    HW111519   2.821   3.987   6.157
 3540SOL    HW211520   2.828   3.973   6.320
 3541SOL     OW11521   2.172   3.083   1.424
 3541SOL    HW111522   2.072   3.082   1.428
 3541SOL    HW211523   2.205   2.990   1.406
 3542SOL     OW11524   5.532   1.731   6.552
 3542SOL    HW111525   5.467   1.807   6.561
 3542SOL    HW211526   5.583   1.722   6.637
 3543SOL     OW11527   0.464   2.169   3.722
 3543SOL    HW111528   0.562   2.181   3.714
 3543SOL    HW211529   0.417   2.254   3.696
 3544SOL     OW11530   3.486   3.882   6.870
 3544SOL    HW111531   3.488   3.788   6.902
 3544SOL    HW211532   3.514   3.886   6.774
 3545SOL     OW11533   3.935   0.322   1.502
 3545SOL    HW111534   4.004   0.272   1.554
 3545SOL    HW211535   3.844   0.293   1.531
 3546SOL     OW11536   6.505   4.154   2.743
 3546SOL    HW111537   6.410   4.164   2.773
 3546SOL    HW211538   6.525   4.223   2.674
 3547SOL     OW11539   1.158   3.603   4.782
 3547SOL    HW111540   1.243   3.550   4.779
 3547SOL    HW211541   1.168   3.686   4.728
 3548SOL     OW11542   5.702   0.468   5.571
 3548SOL    HW111543   5.798   0.450   5.551
 3548SOL    HW211544   5.647   0.389   5.546
 3549SOL     OW11545   2.840   6.702   0.338
 3549SOL    HW111546   2.777   6.777   0.318
 3549SOL    HW211547   2.816   6.660   0.425
 3550SOL     OW11548   5.748   1.030   5.355
 3550SOL    HW111549   5.702   0.950   5.315
 3550SOL    HW211550   5.695   1.063   5.433
 3551SOL     OW11551   4.551   2.088   4.263
 3551SOL    HW111552   4.615   2.011   4.266
 3551SOL    HW211553   4.457   2.054   4.275
 3552SOL     OW11554   6.624   6.918   3.657
 3552SOL    HW111555   6.586   6.988   3.597
 3552SOL    HW211556   6.567   6.911   3.740
 3553SOL     OW11557   5.764   5.774   6.962
 3553SOL    HW111558   5.758   5.675   6.948
 3553SOL    HW211559   5.859   5.803   6.955
 3554SOL     OW11560   6.029   4.049   0.160
 3554SOL    HW111561   6.093   4.026   0.233
 3554SOL    HW211562   5.945   4.086   0.199
 3555SOL     OW11563   3.156   2.167   4.728
 3555SOL    HW111564   3.246   2.132   4.755
 3555SOL    HW211565   3.112   2.208   4.808
 3556SOL     OW11566   5.423   1.315   6.324
 3556SOL    HW111567   5.493   1.324   6.253
 3556SOL    HW211568   5.437   1.386   6.393
 3557SOL     OW11569   6.181   0.338   1.242
 3557SOL    HW111570   6.092   0.336   1.287
 3557SOL    HW211571   6.210   0.433   1.231
 3558SOL     OW11572   3.566   5.507   2.296
 3558SOL    HW111573   3.578   5.548   2.205
 3558SOL    HW211574   3.628   5.550   2.361
 3559SOL     OW11575   4.713   0.021   5.950
 3559SOL    HW111576   4.764   0.087   5.895
 3559SOL    HW211577   4.615   0.041   5.944
 3560SOL     OW11578   1.862   5.138   3.781
 3560SOL    HW111579   1.841   5.235   3.769
 3560SOL    HW211580   1.817   5.104   3.864
 3561SOL     OW11581   4.658   3.743   5.332
 3561SOL    HW111582   4.567   3.784   5.322
 3561SOL    HW211583   4.693   3.719   5.242
 3562SOL     OW11584   2.202   1.765   6.084
 3562SOL    HW111585   2.295   1.787   6.058
 3562SOL    HW211586   2.183   1.802   6.175
 3563SOL     OW11587   6.138   2.743   5.624
 3563SOL    HW111588   6.103   2.742   5.718
 3563SOL    HW211589   6.166   2.836   5.600
 3564SOL     OW11590   5.862   3.731   1.810
 3564SOL    HW111591   5.851   3.631   1.817
 3564SOL    HW211592   5.781   3.770   1.767
 3565SOL     OW11593   3.943   6.403   3.955
 3565SOL    HW111594   4.030   6.374   3.995
 3565SOL    HW211595   3.877   6.420   4.028
 3566SOL     OW11596   1.091   6.659   5.031
 3566SOL    HW111597   1.172   6.705   5.066
 3566SOL    HW211598   1.055   6.709   4.952
 3567SOL     OW11599   6.999   2.675   6.235
 3567SOL    HW111600   6.972   2.588   6.275
 3567SOL    HW211601   6.917   2.726   6.207
 3568SOL     OW11602   5.200   4.150   6.311
 3568SOL    HW111603   5.173   4.091   6.235
 3568SOL    HW211604   5.119   4.191   6.352
 3569SOL     OW11605   1.958   1.219   4.553
 3569SOL    HW111606   2.009   1.147   4.599
 3569SOL    HW211607   2.014   1.258   4.479
 3570SOL     OW11608   5.653   2.086   3.987
 3570SOL    HW111609   5.634   2.088   3.888
 3570SOL    HW211610   5.730   2.025   4.005
 3571SOL     OW11611   6.350   6.278   5.406
 3571SOL    HW111612   6.377   6.368   5.440
 3571SOL    HW211613   6.345   6.281   5.307
 3572SOL     OW11614   6.681   6.149   4.310
 3572SOL    HW111615   6.686   6.244   4.280
 3572SOL    HW211616   6.762   6.126   4.363
 3573SOL     OW11617   1.310   1.794   2.106
 3573SOL    HW111618   1.407   1.786   2.081
 3573SOL    HW211619   1.280   1.709   2.150
 3574SOL     OW11620   0.061   3.777   0.706
 3574SOL    HW111621   0.034   3.681   0.714
 3574SOL    HW211622   0.161   3.783   0.708
 3575SOL     OW11623   6.652   5.643   1.650
 3575SOL    HW111624   6.677   5.583   1.726
 3575SOL    HW211625   6.553   5.645   1.641
 3576SOL     OW11626   0.697   2.012   6.182
 3576SOL    HW111627   0.601   1.989   6.197
 3576SOL    HW211628   0.723   1.985   6.089
 3577SOL     OW11629   1.581   3.017   6.986
 3577SOL    HW111630   1.618   3.055   0.051
 3577SOL    HW211631   1.654   2.972   6.935
 3578SOL     OW11632   3.987   5.293   0.767
 3578SOL    HW111633   3.929   5.233   0.711
 3578SOL    HW211634   4.073   5.311   0.719
 3579SOL     OW11635   0.538   4.054   5.165
 3579SOL    HW111636   0.565   3.958   5.170
 3579SOL    HW211637   0.498   4.082   5.252
 3580SOL     OW11638   6.487   1.933   1.944
 3580SOL    HW111639   6.494   1.873   2.024
 3580SOL    HW211640   6.576   1.976   1.926
 3581SOL     OW11641   6.451   0.367   2.752
 3581SOL    HW111642   6.375   0.323   2.705
 3581SOL    HW211643   6.527   0.382   2.688
 3582SOL     OW11644   0.857   0.691   6.066
 3582SOL    HW111645   0.928   0.625   6.089
 3582SOL    HW211646   0.899   0.772   6.023
 3583SOL     OW11647   2.101   5.715   0.447
 3583SOL    HW111648   2.053   5.692   0.531
 3583SOL    HW211649   2.169   5.644   0.427
 3584SOL     OW11650   4.781   6.627   5.944
 3584SOL    HW111651   4.747   6.643   5.852
 3584SOL    HW211652   4.860   6.686   5.962
 3585SOL     OW11653   2.644   4.710   3.580
 3585SOL    HW111654   2.742   4.700   3.601
 3585SOL    HW211655   2.627   4.802   3.545
 3586SOL     OW11656   6.791   1.833   6.530
 3586SOL    HW111657   6.877   1.883   6.527
 3586SOL    HW211658   6.722   1.888   6.576
 3587SOL     OW11659   3.864   6.825   6.348
 3587SOL    HW111660   3.809   6.908   6.351
 3587SOL    HW211661   3.808   6.748   6.319
 3588SOL     OW11662   1.961   1.519   5.375
 3588SOL    HW111663   1.865   1.538   5.358
 3588SOL    HW211664   2.012   1.526   5.289
 3589SOL     OW11665   3.233   0.612   5.594
 3589SOL    HW111666   3.297   0.540   5.622
 3589SOL    HW211667   3.253   0.696   5.644
 3590SOL     OW11668   1.861   4.830   6.332
 3590SOL    HW111669   1.870   4.831   6.432
 3590SOL    HW211670   1.940   4.877   6.291
 3591SOL     OW11671   5.271   2.411   5.625
 3591SOL    HW111672   5.364   2.377   5.641
 3591SOL    HW211673   5.211   2.335   5.601
 3592SOL     OW11674   4.829   2.752   1.956
 3592SOL    HW111675   4.828   2.776   1.858
 3592SOL    HW211676   4.786   2.825   2.008
 3593SOL     OW11677   1.763   5.201   3.235
 3593SOL    HW111678   1.711   5.122   3.202
 3593SOL    HW211679   1.835   5.222   3.169
 3594SOL     OW11680   3.129   0.784   4.079
 3594SOL    HW111681   3.151   0.739   3.993
 3594SOL    HW211682   3.188   0.864   4.091
 3595SOL     OW11683   3.138   6.063   5.156
 3595SOL    HW111684   3.191   6.117   5.221
 3595SOL    HW211685   3.041   6.089   5.162
 3596SOL     OW11686   6.725   2.917   3.232
 3596SOL    HW111687   6.760   2.922   3.138
 3596SOL    HW211688   6.697   2.824   3.252
 3597SOL     OW11689   3.864   5.871   3.710
 3597SOL    HW111690   3.882   5.792   3.767
 3597SOL    HW211691   3.895   5.954   3.757
 3598SOL     OW11692   0.955   6.826   6.686
 3598SOL    HW111693   0.883   6.759   6.666
 3598SOL    HW211694   0.933   6.913   6.642
 3599SOL     OW11695   0.113   2.141   4.358
 3599SOL    HW111696   0.161   2.062   4.396
 3599SOL    HW211697   0.179   2.209   4.328
 3600SOL     OW11698   5.560   0.750   0.442
 3600SOL    HW111699   5.577   0.841   0.479
 3600SOL    HW211700   5.518   0.693   0.513
 3601SOL     OW11701   6.485   3.920   5.689
 3601SOL    HW111702   6.556   3.922   5.759
 3601SOL    HW211703   6.513   3.977   5.611
 3602SOL     OW11704   1.797   1.911   0.344
 3602SOL    HW111705   1.764   1.931   0.252
 3602SOL    HW211706   1.889   1.871   0.339
 3603SOL     OW11707   3.881   4.914   4.964
 3603SOL    HW111708   3.788   4.895   4.995
 3603SOL    HW211709   3.909   5.005   4.994
 3604SOL     OW11710   0.293   3.178   2.652
 3604SOL    HW111711   0.381   3.160   2.607
 3604SOL    HW211712   0.308   3.205   2.746
 3605SOL     OW11713   6.155   3.560   6.446
 3605SOL    HW111714   6.159   3.660   6.451
 3605SOL    HW211715   6.099   3.533   6.368
 3606SOL     OW11716   0.913   4.775   4.665
 3606SOL    HW111717   0.844   4.739   4.727
 3606SOL    HW211718   0.962   4.850   4.709
 3607SOL     OW11719   5.024   0.005   6.919
 3607SOL    HW111720   5.033   0.030   7.016
 3607SOL    HW211721   5.003   0.086   6.866
 3608SOL     OW11722   1.097   2.197   2.556
 3608SOL    HW111723   1.073   2.159   2.466
 3608SOL    HW211724   1.073   2.294   2.559
 3609SOL     OW11725   6.728   0.453   4.804
 3609SOL    HW111726   6.723   0.403   4.890
 3609SOL    HW211727   6.801   0.415   4.747
 3610SOL     OW11728   0.935   6.444   5.029
 3610SOL    HW111729   0.997   6.368   5.047
 3610SOL    HW211730   0.984   6.530   5.042
 3611SOL     OW11731   3.180   5.410   5.471
 3611SOL    HW111732   3.130   5.358   5.402
 3611SOL    HW211733   3.221   5.348   5.537
 3612SOL     OW11734   1.043   0.285   1.392
 3612SOL    HW111735   1.062   0.372   1.438
 3612SOL    HW211736   1.011   0.304   1.299
 3613SOL     OW11737   5.238   6.006   6.538
 3613SOL    HW111738   5.200   5.952   6.614
 3613SOL    HW211739   5.247   5.947   6.457
 3614SOL     OW11740   3.679   2.983   3.206
 3614SOL    HW111741   3.593   2.978   3.255
 3614SOL    HW211742   3.674   2.926   3.124
 3615SOL     OW11743   6.611   6.441   6.376
 3615SOL    HW111744   6.624   6.531   6.419
 3615SOL    HW211745   6.515   6.429   6.352
 3616SOL     OW11746   0.023   1.583   5.640
 3616SOL    HW111747   6.982   1.605   5.565
 3616SOL    HW211748   6.998   1.520   5.703
 3617SOL     OW11749   7.007   1.174   6.422
 3617SOL    HW111750   6.931   1.182   6.487
 3617SOL    HW211751   0.038   1.260   6.419
 3618SOL     OW11752   2.457   1.864   5.949
 3618SOL    HW111753   2.525   1.907   6.008
 3618SOL    HW211754   2.496   1.782   5.907
 3619SOL     OW11755   6.096   2.295   4.181
 3619SOL    HW111756   6.193   2.296   4.207
 3619SOL    HW211757   6.042   2.342   4.251
 3620SOL     OW11758   6.148   6.962   5.183
 3620SOL    HW111759   6.124   6.884   5.126
 3620SOL    HW211760   6.140   0.027   5.130
 3621SOL     OW11761   1.532   3.867   5.730
 3621SOL    HW111762   1.534   3.854   5.631
 3621SOL    HW211763   1.624   3.888   5.763
 3622SOL     OW11764   0.720   2.798   1.408
 3622SOL    HW111765   0.760   2.847   1.486
 3622SOL    HW211766   0.625   2.827   1.396
 3623SOL     OW11767   6.449   5.136   3.840
 3623SOL    HW111768   6.455   5.134   3.940
 3623SOL    HW211769   6.354   5.120   3.812
 3624SOL     OW11770   2.721   0.102   2.304
 3624SOL    HW111771   2.812   0.133   2.274
 3624SOL    HW211772   2.726   0.006   2.330
 3625SOL     OW11773   6.777   3.240   5.175
 3625SOL    HW111774   6.715   3.225   5.098
 3625SOL    HW211775   6.815   3.153   5.206
 3626SOL     OW11776   2.535   3.906   5.324
 3626SOL    HW111777   2.482   3.942   5.248
 3626SOL    HW211778   2.518   3.808   5.333
 3627SOL     OW11779   2.911   3.443   3.672
 3627SOL    HW111780   2.993   3.457   3.728
 3627SOL    HW211781   2.833   3.426   3.732
 3628SOL     OW11782   2.918   5.184   2.376
 3628SOL    HW111783   2.963   5.271   2.357
 3628SOL    HW211784   2.927   5.162   2.474
 3629SOL     OW11785   6.289   2.453   5.005
 3629SOL    HW111786   6.361   2.390   4.974
 3629SOL    HW211787   6.226   2.471   4.929
 3630SOL     OW11788   6.126   1.905   4.476
 3630SOL    HW111789   6.168   1.826   4.431
 3630SOL    HW211790   6.085   1.965   4.407
 3631SOL     OW11791   2.119   1.046   4.697
 3631SOL    HW111792   2.144   0.961   4.743
 3631SOL    HW211793   2.131   1.035   4.598
 3632SOL     OW11794   4.669   0.608   6.981
 3632SOL    HW111795   4.622   0.623   6.894
 3632SOL    HW211796   4.742   0.675   6.991
 3633SOL     OW11797   1.971   2.982   5.764
 3633SOL    HW111798   1.965   3.082   5.759
 3633SOL    HW211799   1.915   2.950   5.840
 3634SOL     OW11800   1.957   6.004   5.144
 3634SOL    HW111801   1.864   5.989   5.111
 3634SOL    HW211802   1.991   5.920   5.187
 3635SOL     OW11803   2.392   1.164   5.445
 3635SOL    HW111804   2.301   1.124   5.437
 3635SOL    HW211805   2.386   1.252   5.491
 3636SOL     OW11806   0.779   5.602   6.155
 3636SOL    HW111807   0.682   5.590   6.136
 3636SOL    HW211808   0.833   5.541   6.096
 3637SOL     OW11809   5.762   1.253   2.059
 3637SOL    HW111810   5.782   1.160   2.030
 3637SOL    HW211811   5.666   1.259   2.088
 3638SOL     OW11812   0.057   4.895   3.796
 3638SOL    HW111813   0.064   4.807   3.747
 3638SOL    HW211814   0.009   4.881   3.883
 3639SOL     OW11815   2.252   5.032   0.792
 3639SOL    HW111816   2.308   5.113   0.807
 3639SOL    HW211817   2.280   4.960   0.856
 3640SOL     OW11818   3.737   6.079   0.875
 3640SOL    HW111819   3.721   6.146   0.803
 3640SOL    HW211820   3.833   6.051   0.873
 3641SOL     OW11821   2.317   1.294   4.700
 3641SOL    HW111822   2.244   1.243   4.747
 3641SOL    HW211823   2.377   1.230   4.653
 3642SOL     OW11824   5.547   0.020   4.587
 3642SOL    HW111825   5.509   6.999   4.504
 3642SOL    HW211826   5.525   0.117   4.589
 3643SOL     OW11827   3.101   4.912   4.633
 3643SOL    HW111828   3.050   4.854   4.697
 3643SOL    HW211829   3.199   4.904   4.652
 3644SOL     OW11830   6.809   0.457   0.697
 3644SOL    HW111831   6.870   0.381   0.673
 3644SOL    HW211832   6.765   0.436   0.784
 3645SOL     OW11833   3.923   0.840   3.379
 3645SOL    HW111834   3.829   0.855   3.407
 3645SOL    HW211835   3.936   0.874   3.286
 3646SOL     OW11836   0.334   4.718   5.439
 3646SOL    HW111837   0.397   4.755   5.371
 3646SOL    HW211838   0.300   4.629   5.408
 3647SOL     OW11839   2.364   3.022   1.064
 3647SOL    HW111840   2.432   3.026   1.137
 3647SOL    HW211841   2.311   3.107   1.063
 3648SOL     OW11842   3.438   6.215   2.347
 3648SOL    HW111843   3.522   6.264   2.324
 3648SOL    HW211844   3.404   6.167   2.266
 3649SOL     OW11845   3.712   3.617   0.644
 3649SOL    HW111846   3.789   3.597   0.583
 3649SOL    HW211847   3.741   3.682   0.714
 3650SOL     OW11848   0.389   6.534   1.591
 3650SOL    HW111849   0.430   6.600   1.654
 3650SOL    HW211850   0.409   6.561   1.497
 3651SOL     OW11851   1.673   5.903   2.933
 3651SOL    HW111852   1.625   5.990   2.917
 3651SOL    HW211853   1.643   5.836   2.866
 3652SOL     OW11854   4.667   5.487   3.298
 3652SOL    HW111855   4.577   5.462   3.335
 3652SOL    HW211856   4.700   5.412   3.240
 3653SOL     OW11857   0.088   1.701   3.104
 3653SOL    HW111858   0.146   1.620   3.091
 3653SOL    HW211859   0.061   1.737   3.015
 3654SOL     OW11860   1.319   6.294   1.402
 3654SOL    HW111861   1.262   6.339   1.472
 3654SOL    HW211862   1.415   6.315   1.419
 3655SOL     OW11863   1.953   0.320   4.915
 3655SOL    HW111864   2.001   0.393   4.963
 3655SOL    HW211865   1.906   0.261   4.981
 3656SOL     OW11866   2.188   2.915   1.651
 3656SOL    HW111867   2.090   2.928   1.667
 3656SOL    HW211868   2.238   2.994   1.688
 3657SOL     OW11869   4.038   5.987   0.875
 3657SOL    HW111870   3.988   5.904   0.850
 3657SOL    HW211871   4.057   5.986   0.973
 3658SOL     OW11872   1.337   5.834   5.809
 3658SOL    HW111873   1.410   5.878   5.861
 3658SOL    HW211874   1.291   5.767   5.867
 3659SOL     OW11875   2.510   4.193   0.187
 3659SOL    HW111876   2.442   4.137   0.141
 3659SOL    HW211877   2.523   4.278   0.137
 3660SOL     OW11878   4.703   5.886   1.420
 3660SOL    HW111879   4.769   5.955   1.391
 3660SOL    HW211880   4.610   5.921   1.405
 3661SOL     OW11881   4.817   0.689   0.467
 3661SOL    HW111882   4.752   0.658   0.397
 3661SOL    HW211883   4.778   0.673   0.557
 3662SOL     OW11884   3.186   0.037   5.145
 3662SOL    HW111885   3.125   6.986   5.108
 3662SOL    HW211886   3.190   0.114   5.082
 3663SOL     OW11887   1.209   2.630   0.040
 3663SOL    HW111888   1.253   2.628   6.970
 3663SOL    HW211889   1.111   2.612   0.029
 3664SOL     OW11890   4.834   0.867   0.852
 3664SOL    HW111891   4.748   0.914   0.833
 3664SOL    HW211892   4.860   0.885   0.947
 3665SOL     OW11893   0.670   6.997   5.523
 3665SOL    HW111894   0.666   0.064   5.572
 3665SOL    HW211895   0.582   6.951   5.530
 3666SOL     OW11896   1.584   4.550   4.121
 3666SOL    HW111897   1.671   4.510   4.148
 3666SOL    HW211898   1.539   4.491   4.054
 3667SOL     OW11899   6.075   1.421   6.060
 3667SOL    HW111900   6.020   1.395   5.981
 3667SOL    HW211901   6.172   1.413   6.038
 3668SOL     OW11902   1.191   6.224   2.371
 3668SOL    HW111903   1.273   6.278   2.384
 3668SOL    HW211904   1.122   6.278   2.323
 3669SOL     OW11905   6.530   2.705   3.368
 3669SOL    HW111906   6.558   2.758   3.448
 3669SOL    HW211907   6.432   2.715   3.355
 3670SOL     OW11908   2.166   6.126   5.801
 3670SOL    HW111909   2.142   6.041   5.754
 3670SOL    HW211910   2.170   6.110   5.900
 3671SOL     OW11911   1.424   0.315   2.838
 3671SOL    HW111912   1.379   0.318   2.749
 3671SOL    HW211913   1.377   0.378   2.901
 3672SOL     OW11914   6.709   0.794   0.122
 3672SOL    HW111915   6.698   0.808   0.023
 3672SOL    HW211916   6.793   0.743   0.139
 3673SOL     OW11917   4.790   0.691   6.595
 3673SOL    HW111918   4.835   0.656   6.513
 3673SOL    HW211919   4.722   0.626   6.627
 3674SOL     OW11920   1.255   6.315   0.646
 3674SOL    HW111921   1.321   6.355   0.583
 3674SOL    HW211922   1.164   6.351   0.625
 3675SOL     OW11923   2.064   2.244   5.534
 3675SOL    HW111924   2.016   2.242   5.446
 3675SOL    HW211925   2.016   2.187   5.600
 3676SOL     OW11926   2.948   5.525   3.389
 3676SOL    HW111927   2.850   5.538   3.379
 3676SOL    HW211928   2.969   5.499   3.483
 3677SOL     OW11929   6.374   6.760   4.506
 3677SOL    HW111930   6.319   6.762   4.423
 3677SOL    HW211931   6.453   6.700   4.494
 3678SOL     OW11932   1.381   1.634   3.667
 3678SOL    HW111933   1.353   1.682   3.750
 3678SOL    HW211934   1.339   1.543   3.665
 3679SOL     OW11935   0.577   1.178   2.087
 3679SOL    HW111936   0.515   1.254   2.065
 3679SOL    HW211937   0.525   1.092   2.088
 3680SOL     OW11938   6.835   3.098   4.389
 3680SOL    HW111939   6.738   3.076   4.381
 3680SOL    HW211940   6.863   3.152   4.310
 3681SOL     OW11941   0.131   6.887   5.696
 3681SOL    HW111942   0.197   6.933   5.756
 3681SOL    HW211943   0.052   6.947   5.681
 3682SOL     OW11944   6.530   1.728   6.028
 3682SOL    HW111945   6.596   1.789   5.985
 3682SOL    HW211946   6.460   1.701   5.961
 3683SOL     OW11947   5.815   6.790   4.586
 3683SOL    HW111948   5.739   6.832   4.635
 3683SOL    HW211949   5.795   6.790   4.488
 3684SOL     OW11950   1.381   3.212   1.735
 3684SOL    HW111951   1.284   3.215   1.761
 3684SOL    HW211952   1.424   3.300   1.756
 3685SOL     OW11953   6.281   6.181   0.034
 3685SOL    HW111954   6.182   6.176   0.025
 3685SOL    HW211955   6.324   6.138   6.975
 3686SOL     OW11956   6.347   4.558   1.421
 3686SOL    HW111957   6.329   4.652   1.452
 3686SOL    HW211958   6.260   4.508   1.415
 3687SOL     OW11959   3.757   0.381   0.039
 3687SOL    HW111960   3.723   0.474   0.025
 3687SOL    HW211961   3.848   0.384   0.080
 3688SOL     OW11962   1.443   3.544   0.360
 3688SOL    HW111963   1.418   3.622   0.302
 3688SOL    HW211964   1.528   3.564   0.408
 3689SOL     OW11965   1.663   0.308   4.370
 3689SOL    HW111966   1.641   0.353   4.284
 3689SOL    HW211967   1.640   0.211   4.364
 3690SOL     OW11968   5.513   0.005   5.892
 3690SOL    HW111969   5.474   0.097   5.881
 3690SOL    HW211970   5.608   0.006   5.862
 3691SOL     OW11971   2.608   3.535   0.151
 3691SOL    HW111972   2.647   3.464   0.093
 3691SOL    HW211973   2.541   3.495   0.213
 3692SOL     OW11974   1.541   6.753   5.337
 3692SOL    HW111975   1.603   6.828   5.360
 3692SOL    HW211976   1.570   6.670   5.384
 3693SOL     OW11977   2.720   2.340   3.011
 3693SOL    HW111978   2.752   2.351   3.105
 3693SOL    HW211979   2.793   2.300   2.956
 3694SOL     OW11980   2.063   6.179   3.287
 3694SOL    HW111981   2.142   6.181   3.226
 3694SOL    HW211982   2.066   6.097   3.344
 3695SOL     OW11983   1.939   2.014   2.081
 3695SOL    HW111984   1.964   1.945   2.012
 3695SOL    HW211985   2.015   2.076   2.096
 3696SOL     OW11986   4.445   0.111   5.928
 3696SOL    HW111987   4.434   0.208   5.906
 3696SOL    HW211988   4.368   0.059   5.890
 3697SOL     OW11989   6.626   0.321   4.221
 3697SOL    HW111990   6.587   0.335   4.313
 3697SOL    HW211991   6.552   0.319   4.154
 3698SOL     OW11992   2.961   7.019   5.936
 3698SOL    HW111993   2.862   7.004   5.933
 3698SOL    HW211994   2.979   0.095   5.957
 3699SOL     OW11995   0.199   3.774   3.350
 3699SOL    HW111996   0.216   3.872   3.341
 3699SOL    HW211997   0.189   3.750   3.446
 3700SOL     OW11998   0.196   0.028   4.378
 3700SOL    HW111999   0.247   0.114   4.372
 3700SOL    HW212000   0.183   0.004   4.475
 3701SOL     OW12001   6.288   0.963   4.514
 3701SOL    HW112002   6.189   0.978   4.509
 3701SOL    HW212003   6.314   0.887   4.454
 3702SOL     OW12004   3.634   1.303   0.514
 3702SOL    HW112005   3.721   1.353   0.510
 3702SOL    HW212006   3.588   1.324   0.601
 3703SOL     OW12007   3.838   4.484   6.622
 3703SOL    HW112008   3.890   4.544   6.562
 3703SOL    HW212009   3.899   4.442   6.689
 3704SOL     OW12010   2.396   0.489   2.901
 3704SOL    HW112011   2.432   0.496   2.808
 3704SOL    HW212012   2.350   0.401   2.912
 3705SOL     OW12013   4.872   0.586   3.897
 3705SOL    HW112014   4.911   0.637   3.973
 3705SOL    HW212015   4.871   0.644   3.815
 3706SOL     OW12016   2.137   2.646   3.964
 3706SOL    HW112017   2.051   2.683   3.929
 3706SOL    HW212018   2.134   2.546   3.959
 3707SOL     OW12019   5.013   2.801   5.541
 3707SOL    HW112020   5.024   2.839   5.449
 3707SOL    HW212021   5.097   2.817   5.593
 3708SOL     OW12022   5.974   1.013   6.561
 3708SOL    HW112023   5.935   1.090   6.509
 3708SOL    HW212024   5.963   1.031   6.659
 3709SOL     OW12025   3.617   0.384   6.417
 3709SOL    HW112026   3.712   0.397   6.389
 3709SOL    HW212027   3.558   0.379   6.336
 3710SOL     OW12028   6.501   4.984   0.917
 3710SOL    HW112029   6.590   4.945   0.894
 3710SOL    HW212030   6.471   5.045   0.844
 3711SOL     OW12031   6.521   5.610   2.245
 3711SOL    HW112032   6.439   5.562   2.276
 3711SOL    HW212033   6.567   5.652   2.324
 3712SOL     OW12034   1.196   6.778   6.875
 3712SOL    HW112035   1.104   6.817   6.866
 3712SOL    HW212036   1.264   6.845   6.845
 3713SOL     OW12037   3.830   5.914   5.806
 3713SOL    HW112038   3.765   5.924   5.731
 3713SOL    HW212039   3.923   5.924   5.771
 3714SOL     OW12040   3.906   0.244   4.647
 3714SOL    HW112041   3.806   0.240   4.647
 3714SOL    HW212042   3.938   0.257   4.741
 3715SOL     OW12043   5.567   4.726   4.575
 3715SOL    HW112044   5.567   4.666   4.494
 3715SOL    HW212045   5.564   4.670   4.658
 3716SOL     OW12046   0.098   0.119   4.667
 3716SOL    HW112047   0.063   0.025   4.660
 3716SOL    HW212048   0.177   0.120   4.729
 3717SOL     OW12049   6.056   6.631   1.068
 3717SOL    HW112050   6.000   6.697   1.018
 3717SOL    HW212051   6.036   6.638   1.166
 3718SOL     OW12052   1.240   5.851   0.229
 3718SOL    HW112053   1.263   5.759   0.196
 3718SOL    HW212054   1.147   5.874   0.200
 3719SOL     OW12055   4.262   5.107   5.608
 3719SOL    HW112056   4.329   5.050   5.655
 3719SOL    HW212057   4.170   5.079   5.634
 3720SOL     OW12058   5.556   1.637   5.907
 3720SOL    HW112059   5.628   1.615   5.840
 3720SOL    HW212060   5.473   1.662   5.859
 3721SOL     OW12061   5.504   4.660   0.724
 3721SOL    HW112062   5.602   4.642   0.725
 3721SOL    HW212063   5.488   4.759   0.723
 3722SOL     OW12064   6.189   6.131   2.592
 3722SOL    HW112065   6.196   6.079   2.507
 3722SOL    HW212066   6.096   6.124   2.628
 3723SOL     OW12067   5.076   0.473   1.082
 3723SOL    HW112068   5.042   0.383   1.111
 3723SOL    HW212069   5.103   0.526   1.163
 3724SOL     OW12070   1.165   5.418   6.869
 3724SOL    HW112071   1.258   5.390   6.846
 3724SOL    HW212072   1.168   5.503   6.923
 3725SOL     OW12073   6.798   6.247   6.489
 3725SOL    HW112074   6.857   6.224   6.412
 3725SOL    HW212075   6.730   6.314   6.460
 3726SOL     OW12076   5.513   4.045   1.383
 3726SOL    HW112077   5.421   4.015   1.358
 3726SOL    HW212078   5.526   4.035   1.481
 3727SOL     OW12079   2.164   3.257   5.073
 3727SOL    HW112080   2.209   3.176   5.035
 3727SOL    HW212081   2.217   3.289   5.152
 3728SOL     OW12082   1.860   3.353   6.881
 3728SOL    HW112083   1.822   3.367   6.789
 3728SOL    HW212084   1.889   3.258   6.891
 3729SOL     OW12085   0.892   2.035   3.312
 3729SOL    HW112086   0.855   1.957   3.363
 3729SOL    HW212087   0.836   2.116   3.329
 3730SOL     OW12088   3.641   0.631   6.999
 3730SOL    HW112089   3.545   0.658   7.006
 3730SOL    HW212090   3.695   0.710   6.969
 3731SOL     OW12091   4.778   0.032   0.238
 3731SOL    HW112092   4.844   0.013   0.165
 3731SOL    HW212093   4.745   0.126   0.228
 3732SOL     OW12094   2.110   3.939   5.185
 3732SOL    HW112095   2.208   3.957   5.175
 3732SOL    HW212096   2.077   3.891   5.103
 3733SOL     OW12097   2.800   3.976   1.655
 3733SOL    HW112098   2.890   4.013   1.677
 3733SOL    HW212099   2.796   3.880   1.684
 3734SOL     OW12100   5.112   1.361   2.435
 3734SOL    HW112101   5.120   1.426   2.359
 3734SOL    HW212102   5.085   1.271   2.399
 3735SOL     OW12103   2.903   2.213   2.277
 3735SOL    HW112104   2.811   2.207   2.315
 3735SOL    HW212105   2.903   2.276   2.199
 3736SOL     OW12106   5.853   2.075   0.604
 3736SOL    HW112107   5.775   2.072   0.542
 3736SOL    HW212108   5.858   1.990   0.656
 3737SOL     OW12109   4.917   7.004   3.753
 3737SOL    HW112110   5.004   0.014   3.792
 3737SOL    HW212111   4.846   7.007   3.823
 3738SOL     OW12112   6.991   6.400   3.583
 3738SOL    HW112113   7.003   6.477   3.520
 3738SOL    HW212114   0.011   6.424   3.672
 3739SOL     OW12115   0.536   4.490   2.612
 3739SOL    HW112116   0.538   4.427   2.535
 3739SOL    HW212117   0.535   4.439   2.698
 3740SOL     OW12118   5.567   1.623   6.819
 3740SOL    HW112119   5.477   1.626   6.861
 3740SOL    HW212120   5.632   1.580   6.882
 3741SOL     OW12121   4.205   2.672   0.081
 3741SOL    HW112122   4.133   2.638   0.021
 3741SOL    HW212123   4.213   2.612   0.161
 3742SOL     OW12124   3.636   2.529   5.774
 3742SOL    HW112125   3.583   2.463   5.720
 3742SOL    HW212126   3.661   2.606   5.717
 3743SOL     OW12127   6.787   4.804   6.804
 3743SOL    HW112128   6.872   4.774   6.760
 3743SOL    HW212129   6.740   4.725   6.843
 3744SOL     OW12130   0.169   5.380   3.915
 3744SOL    HW112131   0.216   5.341   3.836
 3744SOL    HW212132   0.237   5.410   3.982
 3745SOL     OW12133   4.001   5.988   2.507
 3745SOL    HW112134   4.064   6.044   2.561
 3745SOL    HW212135   4.004   5.894   2.538
 3746SOL     OW12136   4.338   1.855   2.050
 3746SOL    HW112137   4.341   1.826   2.145
 3746SOL    HW212138   4.246   1.888   2.028
 3747SOL     OW12139   3.300   0.758   0.160
 3747SOL    HW112140   3.327   0.840   0.210
 3747SOL    HW212141   3.349   0.679   0.197
 3748SOL     OW12142   5.810   0.772   3.062
 3748SOL    HW112143   5.818   0.820   2.975
 3748SOL    HW212144   5.713   0.762   3.086
 3749SOL     OW12145   1.300   6.871   5.062
 3749SOL    HW112146   1.392   6.833   5.070
 3749SOL    HW212147   1.261   6.883   5.153
 3750SOL     OW12148   0.334   3.803   0.693
 3750SOL    HW112149   0.389   3.731   0.734
 3750SOL    HW212150   0.379   3.891   0.706
 3751SOL     OW12151   0.561   4.338   2.837
 3751SOL    HW112152   0.541   4.240   2.834
 3751SOL    HW212153   0.547   4.373   2.930
 3752SOL     OW12154   6.193   0.777   6.045
 3752SOL    HW112155   6.228   0.870   6.056
 3752SOL    HW212156   6.268   0.711   6.056
 3753SOL     OW12157   6.973   0.588   4.393
 3753SOL    HW112158   6.882   0.629   4.386
 3753SOL    HW212159   6.965   0.489   4.398
 3754SOL     OW12160   2.199   1.602   1.030
 3754SOL    HW112161   2.104   1.579   1.007
 3754SOL    HW212162   2.256   1.520   1.022
 3755SOL     OW12163   3.034   4.951   3.720
 3755SOL    HW112164   3.081   4.966   3.633
 3755SOL    HW212165   3.025   5.038   3.769
 3756SOL     OW12166   2.371   6.558   6.765
 3756SOL    HW112167   2.383   6.537   6.862
 3756SOL    HW212168   2.437   6.627   6.736
 3757SOL     OW12169   6.272   5.068   1.443
 3757SOL    HW112170   6.329   5.150   1.440
 3757SOL    HW212171   6.192   5.081   1.383
 3758SOL     OW12172   1.748   0.413   3.919
 3758SOL    HW112173   1.829   0.354   3.920
 3758SOL    HW212174   1.762   0.487   3.854
 3759SOL     OW12175   5.187   0.380   4.583
 3759SOL    HW112176   5.218   0.454   4.524
 3759SOL    HW212177   5.119   0.414   4.648
 3760SOL     OW12178   0.319   0.535   3.323
 3760SOL    HW112179   0.296   0.507   3.415
 3760SOL    HW212180   0.392   0.604   3.326
 3761SOL     OW12181   5.322   0.828   3.683
 3761SOL    HW112182   5.319   0.918   3.640
 3761SOL    HW212183   5.406   0.819   3.736
 3762SOL     OW12184   0.463   2.892   1.988
 3762SOL    HW112185   0.373   2.922   1.956
 3762SOL    HW212186   0.529   2.902   1.913
 3763SOL     OW12187   0.660   4.570   0.830
 3763SOL    HW112188   0.662   4.503   0.904
 3763SOL    HW212189   0.565   4.596   0.811
 3764SOL     OW12190   2.109   0.588   2.712
 3764SOL    HW112191   2.180   0.589   2.782
 3764SOL    HW212192   2.038   0.522   2.738
 3765SOL     OW12193   5.665   2.570   1.832
 3765SOL    HW112194   5.601   2.607   1.765
 3765SOL    HW212195   5.637   2.477   1.858
 3766SOL     OW12196   0.852   3.318   3.253
 3766SOL    HW112197   0.932   3.330   3.194
 3766SOL    HW212198   0.847   3.224   3.284
 3767SOL     OW12199   1.351   4.868   6.104
 3767SOL    HW112200   1.404   4.858   6.188
 3767SOL    HW212201   1.294   4.787   6.090
 3768SOL     OW12202   0.935   0.341   4.270
 3768SOL    HW112203   0.913   0.352   4.367
 3768SOL    HW212204   0.888   0.411   4.217
 3769SOL     OW12205   5.443   5.412   4.660
 3769SOL    HW112206   5.394   5.403   4.747
 3769SOL    HW212207   5.445   5.323   4.614
 3770SOL     OW12208   1.320   0.896   0.865
 3770SOL    HW112209   1.322   0.993   0.844
 3770SOL    HW212210   1.350   0.881   0.959
 3771SOL     OW12211   6.551   4.844   0.433
 3771SOL    HW112212   6.488   4.774   0.469
 3771SOL    HW212213   6.545   4.847   0.334
 3772SOL     OW12214   1.805   5.999   0.645
 3772SOL    HW112215   1.802   6.035   0.551
 3772SOL    HW212216   1.900   5.981   0.671
 3773SOL     OW12217   5.302   4.197   6.008
 3773SOL    HW112218   5.345   4.120   6.054
 3773SOL    HW212219   5.284   4.174   5.913
 3774SOL     OW12220   6.439   5.298   1.452
 3774SOL    HW112221   6.538   5.288   1.447
 3774SOL    HW212222   6.414   5.394   1.440
 3775SOL     OW12223   4.304   4.857   4.214
 3775SOL    HW112224   4.283   4.778   4.158
 3775SOL    HW212225   4.226   4.879   4.273
 3776SOL     OW12226   3.634   2.779   6.472
 3776SOL    HW112227   3.690   2.702   6.440
 3776SOL    HW212228   3.547   2.744   6.507
 3777SOL     OW12229   3.074   6.373   4.427
 3777SOL    HW112230   3.120   6.318   4.357
 3777SOL    HW212231   3.022   6.446   4.383
 3778SOL     OW12232   3.058   5.225   5.720
 3778SOL    HW112233   3.155   5.216   5.696
 3778SOL    HW212234   3.002   5.185   5.647
 3779SOL     OW12235   6.674   4.590   6.970
 3779SOL    HW112236   6.575   4.586   6.957
 3779SOL    HW212237   6.708   4.502   7.003
 3780SOL     OW12238   5.852   4.016   1.335
 3780SOL    HW112239   5.812   3.952   1.401
 3780SOL    HW212240   5.815   4.107   1.350
 3781SOL     OW12241   3.081   5.729   4.894
 3781SOL    HW112242   3.064   5.706   4.798
 3781SOL    HW212243   3.135   5.813   4.899
 3782SOL     OW12244   5.337   6.239   1.754
 3782SOL    HW112245   5.428   6.199   1.762
 3782SOL    HW212246   5.321   6.267   1.659
 3783SOL     OW12247   5.028   4.913   4.672
 3783SOL    HW112248   4.952   4.851   4.689
 3783SOL    HW212249   5.092   4.871   4.609
 3784SOL     OW12250   6.007   1.649   4.264
 3784SOL    HW112251   5.955   1.634   4.348
 3784SOL    HW212252   6.102   1.668   4.287
 3785SOL     OW12253   2.082   3.656   4.459
 3785SOL    HW112254   1.987   3.686   4.450
 3785SOL    HW212255   2.111   3.664   4.555
 3786SOL     OW12256   2.677   2.412   4.508
 3786SOL    HW112257   2.743   2.477   4.470
 3786SOL    HW212258   2.596   2.462   4.539
 3787SOL     OW12259   4.134   0.372   3.258
 3787SOL    HW112260   4.098   0.380   3.165
 3787SOL    HW212261   4.059   0.375   3.324
 3788SOL     OW12262   6.486   3.341   5.380
 3788SOL    HW112263   6.492   3.415   5.446
 3788SOL    HW212264   6.545   3.361   5.302
 3789SOL     OW12265   1.389   2.653   2.760
 3789SOL    HW112266   1.451   2.730   2.775
 3789SOL    HW212267   1.436   2.567   2.779
 3790SOL     OW12268   0.485   6.792   1.766
 3790SOL    HW112269   0.561   6.838   1.813
 3790SOL    HW212270   0.451   6.851   1.693
 3791SOL     OW12271   5.177   1.303   5.776
 3791SOL    HW112272   5.250   1.238   5.796
 3791SOL    HW212273   5.097   1.281   5.832
 3792SOL     OW12274   6.955   0.956   4.192
 3792SOL    HW112275   6.923   0.896   4.265
 3792SOL    HW212276   0.000   0.906   4.135
 3793SOL     OW12277   4.777   5.492   0.281
 3793SOL    HW112278   4.704   5.527   0.340
 3793SOL    HW212279   4.736   5.450   0.199
 3794SOL     OW12280   1.408   3.861   6.707
 3794SOL    HW112281   1.373   3.835   6.617
 3794SOL    HW212282   1.463   3.944   6.699
 3795SOL     OW12283   1.899   5.807   1.851
 3795SOL    HW112284   1.830   5.783   1.920
 3795SOL    HW212285   1.879   5.899   1.816
 3796SOL     OW12286   4.280   1.433   6.765
 3796SOL    HW112287   4.371   1.457   6.732
 3796SOL    HW212288   4.215   1.439   6.689
 3797SOL     OW12289   1.403   4.272   2.725
 3797SOL    HW112290   1.402   4.289   2.824
 3797SOL    HW212291   1.343   4.195   2.704
 3798SOL     OW12292   1.682   6.657   3.188
 3798SOL    HW112293   1.625   6.680   3.267
 3798SOL    HW212294   1.760   6.602   3.219
 3799SOL     OW12295   7.003   1.442   2.867
 3799SOL    HW112296   0.032   1.520   2.827
 3799SOL    HW212297   0.030   1.412   2.949
 3800SOL     OW12298   5.794   2.308   2.692
 3800SOL    HW112299   5.889   2.301   2.723
 3800SOL    HW212300   5.791   2.352   2.602
 3801SOL     OW12301   5.308   0.852   1.946
 3801SOL    HW112302   5.325   0.753   1.949
 3801SOL    HW212303   5.395   0.901   1.943
 3802SOL     OW12304   6.274   2.233   2.358
 3802SOL    HW112305   6.366   2.230   2.396
 3802SOL    HW212306   6.212   2.180   2.415
 3803SOL     OW12307   3.037   3.694   3.899
 3803SOL    HW112308   3.005   3.655   3.985
 3803SOL    HW212309   3.059   3.791   3.913
 3804SOL     OW12310   3.471   6.136   3.478
 3804SOL    HW112311   3.425   6.208   3.425
 3804SOL    HW212312   3.547   6.099   3.425
 3805SOL     OW12313   2.725   3.055   6.902
 3805SOL    HW112314   2.712   3.054   7.001
 3805SOL    HW212315   2.655   2.999   6.859
 3806SOL     OW12316   3.540   4.499   1.209
 3806SOL    HW112317   3.477   4.541   1.273
 3806SOL    HW212318   3.518   4.402   1.198
 3807SOL     OW12319   1.742   4.086   4.186
 3807SOL    HW112320   1.657   4.136   4.202
 3807SOL    HW212321   1.820   4.146   4.208
 3808SOL     OW12322   3.660   6.576   6.460
 3808SOL    HW112323   3.679   6.609   6.552
 3808SOL    HW212324   3.721   6.500   6.439
 3809SOL     OW12325   4.835   2.471   1.540
 3809SOL    HW112326   4.910   2.498   1.480
 3809SOL    HW212327   4.873   2.433   1.625
 3810SOL     OW12328   5.766   2.042   1.665
 3810SOL    HW112329   5.775   2.121   1.605
 3810SOL    HW212330   5.684   2.051   1.721
 3811SOL     OW12331   0.429   5.244   5.127
 3811SOL    HW112332   0.405   5.162   5.076
 3811SOL    HW212333   0.347   5.299   5.143
 3812SOL     OW12334   4.856   6.716   1.013
 3812SOL    HW112335   4.874   6.619   0.993
 3812SOL    HW212336   4.858   6.769   0.929
 3813SOL     OW12337   6.619   4.358   0.799
 3813SOL    HW112338   6.561   4.439   0.812
 3813SOL    HW212339   6.698   4.382   0.743
 3814SOL     OW12340   6.786   0.080   4.652
 3814SOL    HW112341   6.839   0.165   4.659
 3814SOL    HW212342   6.742   0.076   4.563
 3815SOL     OW12343   6.184   3.178   6.497
 3815SOL    HW112344   6.217   3.243   6.566
 3815SOL    HW212345   6.244   3.181   6.417
 3816SOL     OW12346   0.937   5.984   5.865
 3816SOL    HW112347   0.985   5.917   5.922
 3816SOL    HW212348   0.847   5.949   5.841
 3817SOL     OW12349   5.319   3.767   2.016
 3817SOL    HW112350   5.251   3.751   1.944
 3817SOL    HW212351   5.283   3.736   2.103
 3818SOL     OW12352   6.419   0.441   2.350
 3818SOL    HW112353   6.374   0.397   2.428
 3818SOL    HW212354   6.358   0.509   2.310
 3819SOL     OW12355   6.781   4.256   4.460
 3819SOL    HW112356   6.721   4.323   4.415
 3819SOL    HW212357   6.725   4.183   4.500
 3820SOL     OW12358   4.720   0.310   4.750
 3820SOL    HW112359   4.749   0.268   4.836
 3820SOL    HW212360   4.719   0.241   4.678
 3821SOL     OW12361   1.508   7.005   0.501
 3821SOL    HW112362   1.413   6.999   0.471
 3821SOL    HW212363   1.569   7.007   0.422
 3822SOL     OW12364   4.666   1.318   1.571
 3822SOL    HW112365   4.643   1.223   1.549
 3822SOL    HW212366   4.583   1.366   1.599
 3823SOL     OW12367   4.936   5.367   6.164
 3823SOL    HW112368   4.912   5.405   6.074
 3823SOL    HW212369   4.900   5.427   6.236
 3824SOL     OW12370   2.059   3.112   0.081
 3824SOL    HW112371   2.034   3.051   0.156
 3824SOL    HW212372   2.007   3.087   7.019
 3825SOL     OW12373   1.091   4.112   5.497
 3825SOL    HW112374   1.078   4.027   5.446
 3825SOL    HW212375   1.185   4.117   5.531
 3826SOL     OW12376   5.832   4.374   3.371
 3826SOL    HW112377   5.763   4.316   3.413
 3826SOL    HW212378   5.879   4.324   3.298
 3827SOL     OW12379   1.368   0.845   1.684
 3827SOL    HW112380   1.396   0.919   1.745
 3827SOL    HW212381   1.376   0.758   1.731
 3828SOL     OW12382   4.033   3.610   4.148
 3828SOL    HW112383   4.081   3.597   4.062
 3828SOL    HW212384   4.020   3.708   4.165
 3829SOL     OW12385   0.507   3.607   2.600
 3829SOL    HW112386   0.480   3.584   2.693
 3829SOL    HW212387   0.606   3.625   2.598
 3830SOL     OW12388   6.654   1.172   4.300
 3830SOL    HW112389   6.711   1.183   4.219
 3830SOL    HW212390   6.637   1.262   4.340
 3831SOL     OW12391   4.294   1.890   3.569
 3831SOL    HW112392   4.373   1.916   3.623
 3831SOL    HW212393   4.319   1.887   3.472
 3832SOL     OW12394   6.946   1.324   3.202
 3832SOL    HW112395   6.865   1.270   3.181
 3832SOL    HW212396   7.008   1.269   3.259
 3833SOL     OW12397   0.494   1.136   5.258
 3833SOL    HW112398   0.526   1.200   5.187
 3833SOL    HW212399   0.573   1.096   5.304
 3834SOL     OW12400   4.745   4.025   0.530
 3834SOL    HW112401   4.782   3.943   0.574
 3834SOL    HW212402   4.819   4.072   0.481
 3835SOL     OW12403   3.991   5.522   4.686
 3835SOL    HW112404   3.906   5.574   4.687
 3835SOL    HW212405   3.981   5.442   4.745
 3836SOL     OW12406   0.360   5.880   5.413
 3836SOL    HW112407   0.304   5.840   5.341
 3836SOL    HW212408   0.327   5.972   5.434
 3837SOL     OW12409   4.332   4.871   5.069
 3837SOL    HW112410   4.411   4.857   5.008
 3837SOL    HW212411   4.321   4.968   5.087
 3838SOL     OW12412   1.097   1.579   3.723
 3838SOL    HW112413   1.065   1.537   3.639
 3838SOL    HW212414   1.031   1.648   3.753
 3839SOL     OW12415   3.417   0.702   3.106
 3839SOL    HW112416   3.381   0.616   3.142
 3839SOL    HW212417   3.342   0.760   3.075
 3840SOL     OW12418   2.492   0.692   6.933
 3840SOL    HW112419   2.502   0.679   0.012
 3840SOL    HW212420   2.400   0.664   6.905
 3841SOL     OW12421   6.743   4.438   3.394
 3841SOL    HW112422   6.665   4.377   3.405
 3841SOL    HW212423   6.819   4.389   3.352
 3842SOL     OW12424   2.289   2.898   5.285
 3842SOL    HW112425   2.218   2.866   5.222
 3842SOL    HW212426   2.347   2.966   5.239
 3843SOL     OW12427   5.244   2.638   0.458
 3843SOL    HW112428   5.317   2.581   0.495
 3843SOL    HW212429   5.281   2.699   0.389
 3844SOL     OW12430   1.477   5.753   0.435
 3844SOL    HW112431   1.502   5.841   0.475
 3844SOL    HW212432   1.539   5.731   0.360
 3845SOL     OW12433   2.386   6.197   0.959
 3845SOL    HW112434   2.302   6.144   0.947
 3845SOL    HW212435   2.442   6.191   0.877
 3846SOL     OW12436   0.841   2.729   3.483
 3846SOL    HW112437   0.927   2.768   3.448
 3846SOL    HW212438   0.861   2.647   3.536
 3847SOL     OW12439   6.636   0.916   5.923
 3847SOL    HW112440   6.615   0.861   6.004
 3847SOL    HW212441   6.656   0.856   5.846
 3848SOL     OW12442   5.213   3.680   2.247
 3848SOL    HW112443   5.135   3.724   2.292
 3848SOL    HW212444   5.255   3.614   2.309
 3849SOL     OW12445   6.810   5.802   6.770
 3849SOL    HW112446   6.776   5.890   6.736
 3849SOL    HW212447   6.733   5.741   6.787
 3850SOL     OW12448   2.513   2.549   1.099
 3850SOL    HW112449   2.504   2.481   1.172
 3850SOL    HW212450   2.438   2.614   1.104
 3851SOL     OW12451   0.554   5.720   2.839
 3851SOL    HW112452   0.455   5.732   2.845
 3851SOL    HW212453   0.577   5.668   2.758
 3852SOL     OW12454   3.913   6.092   5.383
 3852SOL    HW112455   3.855   6.156   5.432
 3852SOL    HW212456   3.958   6.031   5.448
 3853SOL     OW12457   2.464   0.892   4.016
 3853SOL    HW112458   2.509   0.957   4.077
 3853SOL    HW212459   2.411   0.941   3.947
 3854SOL     OW12460   1.908   3.026   2.363
 3854SOL    HW112461   1.902   2.927   2.352
 3854SOL    HW212462   1.821   3.061   2.398
 3855SOL     OW12463   4.340   6.908   0.778
 3855SOL    HW112464   4.304   6.942   0.865
 3855SOL    HW212465   4.279   6.838   0.742
 3856SOL     OW12466   0.474   1.789   6.479
 3856SOL    HW112467   0.434   1.793   6.571
 3856SOL    HW212468   0.406   1.752   6.415
 3857SOL     OW12469   2.132   1.103   5.577
 3857SOL    HW112470   2.070   1.181   5.569
 3857SOL    HW212471   2.174   1.104   5.668
 3858SOL     OW12472   4.293   1.431   4.848
 3858SOL    HW112473   4.224   1.382   4.795
 3858SOL    HW212474   4.337   1.368   4.913
 3859SOL     OW12475   5.508   0.525   1.241
 3859SOL    HW112476   5.456   0.600   1.200
 3859SOL    HW212477   5.508   0.446   1.179
 3860SOL     OW12478   1.303   0.629   4.330
 3860SOL    HW112479   1.327   0.540   4.369
 3860SOL    HW212480   1.248   0.680   4.396
 3861SOL     OW12481   4.371   5.599   1.488
 3861SOL    HW112482   4.360   5.528   1.557
 3861SOL    HW212483   4.406   5.682   1.530
 3862SOL     OW12484   1.170   6.469   4.072
 3862SOL    HW112485   1.125   6.450   3.984
 3862SOL    HW212486   1.264   6.437   4.068
 3863SOL     OW12487   4.672   0.590   0.911
 3863SOL    HW112488   4.736   0.517   0.933
 3863SOL    HW212489   4.684   0.619   0.816
 3864SOL     OW12490   2.277   0.385   4.578
 3864SOL    HW112491   2.341   0.341   4.515
 3864SOL    HW212492   2.323   0.458   4.627
 3865SOL     OW12493   4.066   0.247   6.978
 3865SOL    HW112494   4.087   0.169   6.919
 3865SOL    HW212495   3.981   0.290   6.948
 3866SOL     OW12496   2.384   2.680   6.544
 3866SOL    HW112497   2.443   2.755   6.512
 3866SOL    HW212498   2.324   2.714   6.617
 3867SOL     OW12499   0.584   4.054   2.726
 3867SOL    HW112500   0.563   4.070   2.629
 3867SOL    HW212501   0.532   3.975   2.759
 3868SOL     OW12502   3.765   1.052   6.986
 3868SOL    HW112503   3.823   0.970   6.976
 3868SOL    HW212504   3.811   1.130   6.943
 3869SOL     OW12505   6.331   3.259   3.516
 3869SOL    HW112506   6.388   3.179   3.497
 3869SOL    HW212507   6.340   3.324   3.441
 3870SOL     OW12508   6.524   0.534   3.269
 3870SOL    HW112509   6.504   0.553   3.173
 3870SOL    HW212510   6.598   0.466   3.275
 3871SOL     OW12511   2.994   5.932   4.083
 3871SOL    HW112512   2.938   5.849   4.087
 3871SOL    HW212513   3.072   5.916   4.021
 3872SOL     OW12514   3.389   3.131   4.312
 3872SOL    HW112515   3.486   3.128   4.290
 3872SOL    HW212516   3.351   3.038   4.308
 3873SOL     OW12517   4.421   2.479   0.491
 3873SOL    HW112518   4.499   2.529   0.529
 3873SOL    HW212519   4.453   2.406   0.432
 3874SOL     OW12520   4.121   0.150   1.030
 3874SOL    HW112521   4.112   0.200   1.116
 3874SOL    HW212522   4.032   0.114   1.002
 3875SOL     OW12523   1.536   2.326   4.982
 3875SOL    HW112524   1.546   2.305   5.079
 3875SOL    HW212525   1.626   2.346   4.944
 3876SOL     OW12526   4.449   6.646   1.373
 3876SOL    HW112527   4.376   6.578   1.385
 3876SOL    HW212528   4.461   6.697   1.458
 3877SOL     OW12529   6.932   2.091   0.498
 3877SOL    HW112530   0.006   2.118   0.476
 3877SOL    HW212531   6.898   2.147   0.574
 3878SOL     OW12532   4.677   0.184   4.494
 3878SOL    HW112533   4.685   0.262   4.432
 3878SOL    HW212534   4.677   0.099   4.440
 3879SOL     OW12535   5.010   4.911   0.005
 3879SOL    HW112536   5.006   4.811   0.001
 3879SOL    HW212537   5.104   4.941   0.017
 3880SOL     OW12538   5.220   4.401   4.432
 3880SOL    HW112539   5.240   4.308   4.462
 3880SOL    HW212540   5.122   4.419   4.442
 3881SOL     OW12541   1.099   4.129   0.304
 3881SOL    HW112542   1.152   4.045   0.299
 3881SOL    HW212543   1.159   4.208   0.287
 3882SOL     OW12544   1.274   1.663   0.362
 3882SOL    HW112545   1.286   1.758   0.335
 3882SOL    HW212546   1.218   1.659   0.444
 3883SOL     OW12547   4.364   0.088   3.189
 3883SOL    HW112548   4.271   0.123   3.189
 3883SOL    HW212549   4.404   0.098   3.280
 3884SOL     OW12550   0.840   6.043   3.615
 3884SOL    HW112551   0.740   6.047   3.614
 3884SOL    HW212552   0.872   6.002   3.530
 3885SOL     OW12553   5.819   0.031   3.437
 3885SOL    HW112554   5.912   7.015   3.443
 3885SOL    HW212555   5.776   0.027   3.527
 3886SOL     OW12556   4.525   6.520   5.750
 3886SOL    HW112557   4.492   6.594   5.810
 3886SOL    HW212558   4.447   6.463   5.722
 3887SOL     OW12559   0.507   6.162   1.242
 3887SOL    HW112560   0.600   6.132   1.221
 3887SOL    HW212561   0.488   6.146   1.339
 3888SOL     OW12562   5.900   6.103   4.105
 3888SOL    HW112563   5.845   6.110   4.022
 3888SOL    HW212564   5.997   6.111   4.081
 3889SOL     OW12565   6.019   2.645   0.007
 3889SOL    HW112566   6.047   2.556   6.991
 3889SOL    HW212567   6.070   2.717   6.980
 3890SOL     OW12568   5.618   4.163   4.154
 3890SOL    HW112569   5.588   4.258   4.152
 3890SOL    HW212570   5.544   4.103   4.123
 3891SOL     OW12571   5.368   4.566   3.831
 3891SOL    HW112572   5.462   4.548   3.804
 3891SOL    HW212573   5.366   4.643   3.896
 3892SOL     OW12574   6.729   2.055   1.113
 3892SOL    HW112575   6.828   2.065   1.114
 3892SOL    HW212576   6.703   1.977   1.057
 3893SOL     OW12577   4.636   3.442   1.435
 3893SOL    HW112578   4.734   3.420   1.428
 3893SOL    HW212579   4.583   3.357   1.430
 3894SOL     OW12580   4.972   0.533   6.455
 3894SOL    HW112581   4.972   0.483   6.542
 3894SOL    HW212582   5.031   0.486   6.390
 3895SOL     OW12583   1.301   6.874   5.332
 3895SOL    HW112584   1.390   6.829   5.324
 3895SOL    HW212585   1.297   6.924   5.419
 3896SOL     OW12586   0.714   1.087   6.921
 3896SOL    HW112587   0.806   1.059   6.893
 3896SOL    HW212588   0.710   1.097   0.000
 3897SOL     OW12589   4.217   5.965   1.484
 3897SOL    HW112590   4.290   5.959   1.553
 3897SOL    HW212591   4.141   5.906   1.512
 3898SOL     OW12592   3.867   2.170   6.786
 3898SOL    HW112593   3.831   2.117   6.709
 3898SOL    HW212594   3.791   2.214   6.834
 3899SOL     OW12595   4.764   0.307   6.142
 3899SOL    HW112596   4.730   0.390   6.097
 3899SOL    HW212597   4.778   0.235   6.074
 3900SOL     OW12598   5.345   3.556   3.767
 3900SOL    HW112599   5.383   3.567   3.675
 3900SOL    HW212600   5.387   3.623   3.828
 3901SOL     OW12601   3.266   0.143   6.178
 3901SOL    HW112602   3.319   0.226   6.164
 3901SOL    HW212603   3.227   0.113   6.091
 3902SOL     OW12604   5.716   3.307   2.543
 3902SOL    HW112605   5.681   3.214   2.536
 3902SOL    HW212606   5.720   3.348   2.452
 3903SOL     OW12607   3.984   6.420   0.613
 3903SOL    HW112608   3.896   6.415   0.565
 3903SOL    HW212609   3.986   6.501   0.671
 3904SOL     OW12610   1.074   0.782   6.557
 3904SOL    HW112611   0.998   0.717   6.551
 3904SOL    HW212612   1.127   0.762   6.640
 3905SOL     OW12613   6.739   6.490   6.732
 3905SOL    HW112614   6.791   6.431   6.795
 3905SOL    HW212615   6.800   6.527   6.662
 3906SOL     OW12616   5.682   6.197   5.937
 3906SOL    HW112617   5.656   6.213   6.033
 3906SOL    HW212618   5.748   6.122   5.932
 3907SOL     OW12619   5.587   1.483   3.784
 3907SOL    HW112620   5.623   1.573   3.759
 3907SOL    HW212621   5.649   1.412   3.752
 3908SOL     OW12622   0.937   2.503   6.705
 3908SOL    HW112623   0.960   2.587   6.655
 3908SOL    HW212624   0.871   2.450   6.652
 3909SOL     OW12625   4.841   5.603   4.507
 3909SOL    HW112626   4.816   5.692   4.545
 3909SOL    HW212627   4.920   5.567   4.556
 3910SOL     OW12628   3.510   4.137   2.402
 3910SOL    HW112629   3.533   4.172   2.492
 3910SOL    HW212630   3.459   4.052   2.411
 3911SOL     OW12631   6.267   1.579   4.722
 3911SOL    HW112632   6.225   1.561   4.633
 3911SOL    HW212633   6.321   1.499   4.750
 3912SOL     OW12634   5.198   2.106   5.252
 3912SOL    HW112635   5.115   2.160   5.235
 3912SOL    HW212636   5.224   2.058   5.168
 3913SOL     OW12637   1.763   0.329   6.410
 3913SOL    HW112638   1.813   0.412   6.435
 3913SOL    HW212639   1.665   0.348   6.409
 3914SOL     OW12640   3.027   6.984   0.232
 3914SOL    HW112641   3.097   7.006   0.300
 3914SOL    HW212642   2.947   0.022   0.246
 3915SOL     OW12643   5.356   5.543   1.043
 3915SOL    HW112644   5.436   5.511   1.094
 3915SOL    HW212645   5.290   5.469   1.034
 3916SOL     OW12646   0.619   0.036   2.606
 3916SOL    HW112647   0.709   0.035   2.649
 3916SOL    HW212648   0.559   0.099   2.656
 3917SOL     OW12649   1.112   6.513   6.849
 3917SOL    HW112650   1.161   6.593   6.882
 3917SOL    HW212651   1.039   6.543   6.786
 3918SOL     OW12652   5.260   4.886   1.427
 3918SOL    HW112653   5.161   4.889   1.420
 3918SOL    HW212654   5.294   4.973   1.461
 3919SOL     OW12655   4.083   0.405   0.740
 3919SOL    HW112656   4.026   0.457   0.804
 3919SOL    HW212657   4.038   0.318   0.719
 3920SOL     OW12658   2.408   3.412   0.326
 3920SOL    HW112659   2.349   3.344   0.369
 3920SOL    HW212660   2.373   3.504   0.344
 3921SOL     OW12661   0.294   4.108   1.549
 3921SOL    HW112662   0.195   4.118   1.543
 3921SOL    HW212663   0.337   4.157   1.474
 3922SOL     OW12664   6.821   3.727   2.390
 3922SOL    HW112665   6.914   3.700   2.366
 3922SOL    HW212666   6.782   3.661   2.454
 3923SOL     OW12667   0.448   0.542   0.856
 3923SOL    HW112668   0.409   0.627   0.892
 3923SOL    HW212669   0.490   0.491   0.931
 3924SOL     OW12670   5.923   4.442   4.256
 3924SOL    HW112671   5.977   4.407   4.179
 3924SOL    HW212672   5.916   4.372   4.326
 3925SOL     OW12673   1.361   4.400   1.518
 3925SOL    HW112674   1.350   4.389   1.617
 3925SOL    HW212675   1.273   4.424   1.477
 3926SOL     OW12676   4.342   5.029   2.399
 3926SOL    HW112677   4.390   4.979   2.471
 3926SOL    HW212678   4.245   5.004   2.401
 3927SOL     OW12679   6.680   2.788   5.585
 3927SOL    HW112680   6.741   2.709   5.582
 3927SOL    HW212681   6.617   2.785   5.508
 3928SOL     OW12682   4.566   6.006   6.614
 3928SOL    HW112683   4.576   5.960   6.702
 3928SOL    HW212684   4.479   5.979   6.572
 3929SOL     OW12685   0.924   0.486   4.917
 3929SOL    HW112686   1.014   0.450   4.943
 3929SOL    HW212687   0.863   0.483   4.996
 3930SOL     OW12688   2.758   2.153   4.273
 3930SOL    HW112689   2.781   2.056   4.268
 3930SOL    HW212690   2.752   2.191   4.181
 3931SOL     OW12691   0.665   1.520   1.691
 3931SOL    HW112692   0.702   1.494   1.780
 3931SOL    HW212693   0.615   1.442   1.652
 3932SOL     OW12694   0.790   3.603   3.803
 3932SOL    HW112695   0.852   3.675   3.833
 3932SOL    HW212696   0.801   3.522   3.862
 3933SOL     OW12697   2.473   0.255   6.085
 3933SOL    HW112698   2.442   0.290   5.997
 3933SOL    HW212699   2.511   0.330   6.139
 3934SOL     OW12700   6.024   0.176   6.159
 3934SOL    HW112701   5.974   0.120   6.092
 3934SOL    HW212702   5.978   0.170   6.248
 3935SOL     OW12703   3.860   0.064   0.402
 3935SOL    HW112704   3.830   6.991   0.421
 3935SOL    HW212705   3.896   0.070   0.309
 3936SOL     OW12706   6.797   5.574   4.566
 3936SOL    HW112707   6.756   5.635   4.499
 3936SOL    HW212708   6.842   5.498   4.519
 3937SOL     OW12709   0.471   2.102   2.335
 3937SOL    HW112710   0.544   2.165   2.361
 3937SOL    HW212711   0.454   2.109   2.237
 3938SOL     OW12712   0.708   1.490   3.539
 3938SOL    HW112713   0.632   1.478   3.475
 3938SOL    HW212714   0.677   1.545   3.617
 3939SOL     OW12715   2.734   1.981   2.826
 3939SOL    HW112716   2.726   2.080   2.828
 3939SOL    HW212717   2.829   1.955   2.845
 3940SOL     OW12718   4.184   3.832   1.381
 3940SOL    HW112719   4.268   3.827   1.327
 3940SOL    HW212720   4.177   3.923   1.423
 3941SOL     OW12721   5.022   5.100   6.078
 3941SOL    HW112722   5.051   5.106   6.173
 3941SOL    HW212723   5.002   5.191   6.043
 3942SOL     OW12724   6.779   5.987   6.996
 3942SOL    HW112725   6.853   6.025   6.940
 3942SOL    HW212726   6.763   5.892   6.970
 3943SOL     OW12727   0.814   3.145   4.427
 3943SOL    HW112728   0.880   3.071   4.423
 3943SOL    HW212729   0.859   3.232   4.405
 3944SOL     OW12730   4.722   2.651   4.974
 3944SOL    HW112731   4.653   2.580   4.982
 3944SOL    HW212732   4.802   2.614   4.927
 3945SOL     OW12733   0.242   1.750   0.642
 3945SOL    HW112734   0.197   1.751   0.553
 3945SOL    HW212735   0.193   1.810   0.706
 3946SOL     OW12736   5.142   4.082   3.695
 3946SOL    HW112737   5.051   4.054   3.726
 3946SOL    HW212738   5.173   4.160   3.750
 3947SOL     OW12739   4.574   6.215   6.940
 3947SOL    HW112740   4.541   6.225   0.014
 3947SOL    HW212741   4.667   6.179   6.940
 3948SOL     OW12742   6.935   4.473   1.859
 3948SOL    HW112743   6.854   4.466   1.918
 3948SOL    HW212744   6.974   4.382   1.845
 3949SOL     OW12745   5.249   5.651   3.155
 3949SOL    HW112746   5.328   5.666   3.095
 3949SOL    HW212747   5.167   5.639   3.100
 3950SOL     OW12748   1.247   5.203   0.826
 3950SOL    HW112749   1.233   5.275   0.758
 3950SOL    HW212750   1.244   5.114   0.782
 3951SOL     OW12751   5.381   0.721   1.585
 3951SOL    HW112752   5.329   0.805   1.571
 3951SOL    HW212753   5.330   0.643   1.548
 3952SOL     OW12754   0.028   2.138   1.064
 3952SOL    HW112755   7.018   2.136   0.969
 3952SOL    HW212756   0.126   2.158   1.068
 3953SOL     OW12757   3.818   4.104   0.967
 3953SOL    HW112758   3.896   4.094   1.028
 3953SOL    HW212759   3.734   4.087   1.017
 3954SOL     OW12760   3.995   5.575   5.722
 3954SOL    HW112761   4.057   5.496   5.712
 3954SOL    HW212762   3.998   5.630   5.639
 3955SOL     OW12763   2.815   1.150   5.890
 3955SOL    HW112764   2.908   1.139   5.925
 3955SOL    HW212765   2.812   1.225   5.824
 3956SOL     OW12766   1.100   0.840   2.356
 3956SOL    HW112767   1.122   0.752   2.397
 3956SOL    HW212768   1.089   0.909   2.428
 3957SOL     OW12769   3.843   0.220   4.374
 3957SOL    HW112770   3.886   0.207   4.463
 3957SOL    HW212771   3.901   0.277   4.316
 3958SOL     OW12772   6.160   1.888   4.070
 3958SOL    HW112773   6.227   1.961   4.058
 3958SOL    HW212774   6.169   1.849   4.161
 3959SOL     OW12775   5.326   5.058   0.477
 3959SOL    HW112776   5.266   5.136   0.493
 3959SOL    HW212777   5.379   5.074   0.393
 3960SOL     OW12778   5.577   1.546   5.396
 3960SOL    HW112779   5.655   1.483   5.396
 3960SOL    HW212780   5.597   1.625   5.339
 3961SOL     OW12781   5.001   0.822   3.320
 3961SOL    HW112782   4.916   0.874   3.311
 3961SOL    HW212783   5.004   0.779   3.411
 3962SOL     OW12784   0.962   4.753   6.198
 3962SOL    HW112785   0.893   4.683   6.216
 3962SOL    HW212786   1.034   4.714   6.141
 3963SOL     OW12787   5.164   6.126   2.030
 3963SOL    HW112788   5.090   6.186   2.060
 3963SOL    HW212789   5.227   6.177   1.972
 3964SOL     OW12790   4.607   4.336   3.564
 3964SOL    HW112791   4.575   4.261   3.506
 3964SOL    HW212792   4.679   4.386   3.516
 3965SOL     OW12793   4.884   3.386   4.178
 3965SOL    HW112794   4.870   3.290   4.152
 3965SOL    HW212795   4.951   3.391   4.253
 3966SOL     OW12796   3.968   5.983   6.916
 3966SOL    HW112797   3.911   6.060   6.888
 3966SOL    HW212798   4.049   5.979   6.858
 3967SOL     OW12799   2.205   4.323   1.451
 3967SOL    HW112800   2.261   4.406   1.439
 3967SOL    HW212801   2.266   4.244   1.458
 3968SOL     OW12802   5.052   0.595   0.580
 3968SOL    HW112803   5.067   0.664   0.651
 3968SOL    HW212804   4.976   0.624   0.522
 3969SOL     OW12805   1.050   5.257   1.901
 3969SOL    HW112806   1.060   5.288   1.995
 3969SOL    HW212807   1.141   5.243   1.861
 3970SOL     OW12808   5.252   6.151   2.470
 3970SOL    HW112809   5.274   6.077   2.407
 3970SOL    HW212810   5.207   6.114   2.551
 3971SOL     OW12811   2.789   6.104   4.387
 3971SOL    HW112812   2.717   6.130   4.322
 3971SOL    HW212813   2.751   6.043   4.457
 3972SOL     OW12814   1.386   4.144   6.929
 3972SOL    HW112815   1.439   4.132   6.845
 3972SOL    HW212816   1.331   4.227   6.923
 3973SOL     OW12817   1.077   5.672   0.731
 3973SOL    HW112818   1.053   5.769   0.735
 3973SOL    HW212819   1.019   5.626   0.664
 3974SOL     OW12820   2.065   0.882   5.935
 3974SOL    HW112821   1.989   0.894   5.998
 3974SOL    HW212822   2.131   0.817   5.973
 3975SOL     OW12823   5.209   2.092   6.148
 3975SOL    HW112824   5.214   2.066   6.245
 3975SOL    HW212825   5.196   2.191   6.142
 3976SOL     OW12826   2.040   6.644   2.324
 3976SOL    HW112827   2.058   6.742   2.328
 3976SOL    HW212828   1.941   6.628   2.332
 3977SOL     OW12829   1.265   3.435   6.569
 3977SOL    HW112830   1.280   3.491   6.488
 3977SOL    HW212831   1.258   3.493   6.649
 3978SOL     OW12832   6.513   5.165   3.148
 3978SOL    HW112833   6.456   5.083   3.146
 3978SOL    HW212834   6.601   5.146   3.105
 3979SOL     OW12835   3.644   0.979   6.020
 3979SOL    HW112836   3.637   1.075   5.995
 3979SOL    HW212837   3.565   0.929   5.984
 3980SOL     OW12838   5.874   6.655   6.336
 3980SOL    HW112839   5.887   6.750   6.366
 3980SOL    HW212840   5.835   6.601   6.410
 3981SOL     OW12841   4.599   6.161   1.092
 3981SOL    HW112842   4.652   6.245   1.109
 3981SOL    HW212843   4.543   6.172   1.010
 3982SOL     OW12844   2.387   0.123   2.611
 3982SOL    HW112845   2.378   0.141   2.709
 3982SOL    HW212846   2.461   0.179   2.574
 3983SOL     OW12847   5.199   5.070   3.908
 3983SOL    HW112848   5.123   5.134   3.910
 3983SOL    HW212849   5.237   5.060   4.001
 3984SOL     OW12850   6.014   1.185   2.849
 3984SOL    HW112851   5.976   1.153   2.761
 3984SOL    HW212852   6.001   1.284   2.857
 3985SOL     OW12853   3.717   5.246   6.862
 3985SOL    HW112854   3.635   5.191   6.874
 3985SOL    HW212855   3.761   5.260   6.951
 3986SOL     OW12856   4.650   1.524   3.000
 3986SOL    HW112857   4.645   1.449   3.066
 3986SOL    HW212858   4.562   1.532   2.953
 3987SOL     OW12859   3.407   4.934   4.114
 3987SOL    HW112860   3.380   4.915   4.209
 3987SOL    HW212861   3.504   4.957   4.111
 3988SOL     OW12862   3.690   5.576   0.053
 3988SOL    HW112863   3.776   5.604   0.010
 3988SOL    HW212864   3.701   5.485   0.094
 3989SOL     OW12865   6.643   2.118   0.182
 3989SOL    HW112866   6.561   2.122   0.125
 3989SOL    HW212867   6.701   2.042   0.152
 3990SOL     OW12868   5.147   2.549   1.800
 3990SOL    HW112869   5.049   2.555   1.819
 3990SOL    HW212870   5.170   2.608   1.722
 3991SOL     OW12871   0.354   1.359   2.413
 3991SOL    HW112872   0.368   1.455   2.388
 3991SOL    HW212873   0.437   1.307   2.395
 3992SOL     OW12874   2.963   2.142   0.756
 3992SOL    HW112875   3.017   2.060   0.733
 3992SOL    HW212876   3.013   2.224   0.727
 3993SOL     OW12877   1.433   2.724   1.793
 3993SOL    HW112878   1.451   2.740   1.696
 3993SOL    HW212879   1.334   2.723   1.809
 3994SOL     OW12880   2.837   0.149   5.297
 3994SOL    HW112881   2.843   0.243   5.332
 3994SOL    HW212882   2.844   0.150   5.198
 3995SOL     OW12883   1.685   3.300   5.513
 3995SOL    HW112884   1.714   3.390   5.482
 3995SOL    HW212885   1.765   3.240   5.517
 3996SOL     OW12886   0.688   6.628   5.543
 3996SOL    HW112887   0.606   6.681   5.523
 3996SOL    HW212888   0.715   6.575   5.462
 3997SOL     OW12889   5.895   1.395   4.767
 3997SOL    HW112890   5.819   1.444   4.811
 3997SOL    HW212891   5.861   1.310   4.728
 3998SOL     OW12892   3.050   1.529   4.142
 3998SOL    HW112893   3.142   1.499   4.117
 3998SOL    HW212894   3.022   1.604   4.082
 3999SOL     OW12895   6.212   2.707   4.163
 3999SOL    HW112896   6.284   2.698   4.231
 3999SOL    HW212897   6.248   2.751   4.081
 4000SOL     OW12898   3.145   6.849   3.966
 4000SOL    HW112899   3.086   6.796   3.906
 4000SOL    HW212900   3.239   6.848   3.931
 4001SOL     OW12901   2.465   1.870   3.945
 4001SOL    HW112902   2.384   1.923   3.917
 4001SOL    HW212903   2.487   1.890   4.040
 4002SOL     OW12904   2.480   3.641   1.696
 4002SOL    HW112905   2.432   3.574   1.754
 4002SOL    HW212906   2.421   3.719   1.678
 4003SOL     OW12907   3.117   6.963   4.569
 4003SOL    HW112908   3.026   6.974   4.608
 4003SOL    HW212909   3.116   6.988   4.472
 4004SOL     OW12910   6.791   2.502   4.678
 4004SOL    HW112911   6.774   2.462   4.588
 4004SOL    HW212912   6.890   2.509   4.693
 4005SOL     OW12913   4.700   6.164   6.434
 4005SOL    HW112914   4.658   6.095   6.492
 4005SOL    HW212915   4.706   6.131   6.340
 4006SOL     OW12916   3.836   5.189   2.194
 4006SOL    HW112917   3.784   5.105   2.178
 4006SOL    HW212918   3.781   5.268   2.165
 4007SOL     OW12919   0.440   2.925   6.783
 4007SOL    HW112920   0.392   2.942   6.869
 4007SOL    HW212921   0.503   3.000   6.764
 4008SOL     OW12922   2.747   2.145   4.561
 4008SOL    HW112923   2.787   2.111   4.476
 4008SOL    HW212924   2.734   2.244   4.555
 4009SOL     OW12925   4.165   3.585   2.265
 4009SOL    HW112926   4.255   3.560   2.229
 4009SOL    HW212927   4.123   3.505   2.309
 4010SOL     OW12928   2.698   3.127   1.204
 4010SOL    HW112929   2.621   3.090   1.257
 4010SOL    HW212930   2.781   3.078   1.228
 4011SOL     OW12931   0.944   2.117   1.334
 4011SOL    HW112932   1.024   2.075   1.292
 4011SOL    HW212933   0.912   2.193   1.277
 4012SOL     OW12934   6.523   4.330   2.507
 4012SOL    HW112935   6.593   4.306   2.439
 4012SOL    HW212936   6.432   4.308   2.470
 4013SOL     OW12937   4.293   2.042   4.233
 4013SOL    HW112938   4.278   1.943   4.221
 4013SOL    HW212939   4.226   2.092   4.179
 4014SOL     OW12940   5.782   6.365   2.938
 4014SOL    HW112941   5.818   6.285   2.890
 4014SOL    HW212942   5.713   6.335   3.005
 4015SOL     OW12943   4.831   4.248   5.774
 4015SOL    HW112944   4.799   4.302   5.696
 4015SOL    HW212945   4.928   4.266   5.789
 4016SOL     OW12946   3.134   5.805   5.787
 4016SOL    HW112947   3.228   5.796   5.821
 4016SOL    HW212948   3.098   5.715   5.763
 4017SOL     OW12949   6.635   5.714   6.972
 4017SOL    HW112950   6.553   5.762   7.004
 4017SOL    HW212951   6.626   5.617   6.996
 4018SOL     OW12952   3.889   5.940   1.328
 4018SOL    HW112953   3.928   5.865   1.381
 4018SOL    HW212954   3.791   5.925   1.316
 4019SOL     OW12955   5.971   4.498   2.889
 4019SOL    HW112956   6.004   4.554   2.814
 4019SOL    HW212957   6.016   4.525   2.974
 4020SOL     OW12958   5.122   2.167   5.502
 4020SOL    HW112959   5.023   2.167   5.493
 4020SOL    HW212960   5.163   2.137   5.416
 4021SOL     OW12961   3.114   4.728   5.602
 4021SOL    HW112962   3.044   4.694   5.540
 4021SOL    HW212963   3.154   4.652   5.654
 4022SOL     OW12964   5.346   1.001   0.358
 4022SOL    HW112965   5.377   0.996   0.452
 4022SOL    HW212966   5.278   0.930   0.341
 4023SOL     OW12967   6.165   1.728   5.178
 4023SOL    HW112968   6.088   1.688   5.129
 4023SOL    HW212969   6.171   1.826   5.158
 4024SOL     OW12970   3.951   4.945   3.974
 4024SOL    HW112971   3.982   4.864   3.924
 4024SOL    HW212972   3.873   4.986   3.927
 4025SOL     OW12973   0.597   4.509   3.614
 4025SOL    HW112974   0.571   4.430   3.670
 4025SOL    HW212975   0.687   4.494   3.575
 4026SOL     OW12976   5.244   6.341   4.126
 4026SOL    HW112977   5.173   6.284   4.168
 4026SOL    HW212978   5.324   6.342   4.186
 4027SOL     OW12979   4.157   4.803   1.645
 4027SOL    HW112980   4.109   4.890   1.656
 4027SOL    HW212981   4.198   4.799   1.553
 4028SOL     OW12982   2.356   1.692   4.253
 4028SOL    HW112983   2.390   1.606   4.290
 4028SOL    HW212984   2.433   1.754   4.236
 4029SOL     OW12985   1.732   4.658   5.161
 4029SOL    HW112986   1.673   4.583   5.131
 4029SOL    HW212987   1.731   4.663   5.261
 4030SOL     OW12988   0.620   2.391   5.401
 4030SOL    HW112989   0.631   2.488   5.421
 4030SOL    HW212990   0.624   2.339   5.486
 4031SOL     OW12991   3.924   5.649   3.873
 4031SOL    HW112992   3.997   5.587   3.901
 4031SOL    HW212993   3.836   5.604   3.883
 4032SOL     OW12994   5.431   0.275   4.656
 4032SOL    HW112995   5.488   0.351   4.627
 4032SOL    HW212996   5.335   0.304   4.660
 4033SOL     OW12997   2.821   3.845   5.577
 4033SOL    HW112998   2.812   3.748   5.558
 4033SOL    HW212999   2.796   3.898   5.496
 4034SOL     OW13000   0.081   2.360   3.914
 4034SOL    HW113001   0.037   2.446   3.936
 4034SOL    HW213002   0.045   2.326   3.826
 4035SOL     OW13003   0.126   4.380   0.229
 4035SOL    HW113004   0.061   4.310   0.200
 4035SOL    HW213005   0.199   4.339   0.283
 4036SOL     OW13006   6.692   0.060   2.431
 4036SOL    HW113007   6.716   7.012   2.500
 4036SOL    HW213008   6.632   0.019   2.363
 4037SOL     OW13009   0.372   3.914   6.908
 4037SOL    HW113010   0.290   3.904   6.851
 4037SOL    HW213011   0.396   3.826   6.950
 4038SOL     OW13012   6.096   4.616   3.736
 4038SOL    HW113013   6.002   4.611   3.770
 4038SOL    HW213014   6.096   4.607   3.636
 4039SOL     OW13015   5.014   6.526   0.421
 4039SOL    HW113016   4.960   6.463   0.478
 4039SOL    HW213017   5.106   6.488   0.409
 4040SOL     OW13018   3.706   6.514   1.510
 4040SOL    HW113019   3.796   6.516   1.554
 4040SOL    HW213020   3.639   6.560   1.568
 4041SOL     OW13021   1.461   6.548   3.860
 4041SOL    HW113022   1.549   6.565   3.817
 4041SOL    HW213023   1.389   6.552   3.792
 4042SOL     OW13024   5.904   5.175   2.042
 4042SOL    HW113025   5.886   5.256   1.987
 4042SOL    HW213026   5.817   5.139   2.078
 4043SOL     OW13027   6.007   1.978   1.233
 4043SOL    HW113028   6.074   2.028   1.289
 4043SOL    HW213029   6.015   2.008   1.138
 4044SOL     OW13030   6.181   6.354   3.769
 4044SOL    HW113031   6.134   6.441   3.787
 4044SOL    HW213032   6.252   6.339   3.837
 4045SOL     OW13033   2.736   5.887   5.903
 4045SOL    HW113034   2.723   5.956   5.831
 4045SOL    HW213035   2.657   5.890   5.965
 4046SOL     OW13036   0.686   3.232   1.147
 4046SOL    HW113037   0.646   3.223   1.055
 4046SOL    HW213038   0.626   3.288   1.204
 4047SOL     OW13039   2.691   3.801   1.419
 4047SOL    HW113040   2.699   3.857   1.502
 4047SOL    HW213041   2.595   3.793   1.394
 4048SOL     OW13042   5.380   1.197   1.012
 4048SOL    HW113043   5.412   1.179   0.919
 4048SOL    HW213044   5.364   1.295   1.023
 4049SOL     OW13045   5.450   0.549   5.363
 4049SOL    HW113046   5.447   0.572   5.265
 4049SOL    HW213047   5.493   0.460   5.375
 4050SOL     OW13048   2.913   0.011   1.115
 4050SOL    HW113049   2.964   0.079   1.062
 4050SOL    HW213050   2.867   6.968   1.052
 4051SOL     OW13051   3.103   3.771   1.083
 4051SOL    HW113052   3.097   3.680   1.044
 4051SOL    HW213053   3.052   3.774   1.169
 4052SOL     OW13054   1.044   6.495   1.379
 4052SOL    HW113055   0.950   6.510   1.408
 4052SOL    HW213056   1.054   6.523   1.283
 4053SOL     OW13057   3.636   4.941   3.254
 4053SOL    HW113058   3.694   4.870   3.293
 4053SOL    HW213059   3.675   5.031   3.276
 4054SOL     OW13060   4.449   1.665   0.593
 4054SOL    HW113061   4.363   1.696   0.552
 4054SOL    HW213062   4.525   1.694   0.535
 4055SOL     OW13063   3.343   1.988   6.896
 4055SOL    HW113064   3.323   1.938   6.980
 4055SOL    HW213065   3.400   2.067   6.917
 4056SOL     OW13066   4.132   3.631   0.734
 4056SOL    HW113067   4.176   3.713   0.771
 4056SOL    HW213068   4.189   3.551   0.751
 4057SOL     OW13069   4.891   2.749   6.612
 4057SOL    HW113070   4.932   2.820   6.670
 4057SOL    HW213071   4.962   2.704   6.559
 4058SOL     OW13072   1.388   0.806   5.046
 4058SOL    HW113073   1.336   0.890   5.030
 4058SOL    HW213074   1.419   0.804   5.141
 4059SOL     OW13075   0.237   2.498   4.528
 4059SOL    HW113076   0.167   2.505   4.599
 4059SOL    HW213077   0.219   2.562   4.455
 4060SOL     OW13078   4.425   4.976   3.934
 4060SOL    HW113079   4.360   4.963   4.010
 4060SOL    HW213080   4.419   4.898   3.872
 4061SOL     OW13081   2.918   3.105   1.485
 4061SOL    HW113082   2.984   3.069   1.419
 4061SOL    HW213083   2.862   3.029   1.519
 4062SOL     OW13084   2.098   0.108   2.996
 4062SOL    HW113085   2.039   0.078   2.920
 4062SOL    HW213086   2.176   0.158   2.959
 4063SOL     OW13087   2.699   5.225   6.380
 4063SOL    HW113088   2.721   5.128   6.368
 4063SOL    HW213089   2.743   5.260   6.463
 4064SOL     OW13090   7.012   6.997   4.218
 4064SOL    HW113091   0.067   0.014   4.273
 4064SOL    HW213092   6.999   6.900   4.239
 4065SOL     OW13093   6.035   5.246   6.870
 4065SOL    HW113094   6.034   5.346   6.877
 4065SOL    HW213095   6.120   5.211   6.909
 4066SOL     OW13096   6.024   4.743   1.945
 4066SOL    HW113097   5.934   4.702   1.929
 4066SOL    HW213098   6.050   4.727   2.040
 4067SOL     OW13099   5.749   0.812   2.189
 4067SOL    HW113100   5.688   0.755   2.134
 4067SOL    HW213101   5.694   0.870   2.249
 4068SOL     OW13102   6.355   0.956   3.826
 4068SOL    HW113103   6.375   0.948   3.729
 4068SOL    HW213104   6.346   1.053   3.851
 4069SOL     OW13105   6.679   5.524   0.875
 4069SOL    HW113106   6.707   5.619   0.861
 4069SOL    HW213107   6.671   5.478   0.786
 4070SOL     OW13108   1.137   3.014   2.718
 4070SOL    HW113109   1.183   3.100   2.698
 4070SOL    HW213110   1.164   2.944   2.652
 4071SOL     OW13111   1.912   6.507   4.392
 4071SOL    HW113112   1.858   6.584   4.426
 4071SOL    HW213113   1.852   6.427   4.381
 4072SOL     OW13114   0.793   0.548   4.178
 4072SOL    HW113115   0.706   0.559   4.130
 4072SOL    HW213116   0.782   0.576   4.273
 4073SOL     OW13117   1.763   5.299   6.978
 4073SOL    HW113118   1.811   5.269   0.041
 4073SOL    HW213119   1.829   5.342   6.916
 4074SOL     OW13120   1.918   2.544   0.327
 4074SOL    HW113121   1.834   2.550   0.272
 4074SOL    HW213122   1.902   2.589   0.416
 4075SOL     OW13123   5.089   1.136   3.576
 4075SOL    HW113124   5.148   1.168   3.650
 4075SOL    HW213125   5.015   1.079   3.614
 4076SOL     OW13126   1.660   2.474   3.970
 4076SOL    HW113127   1.683   2.530   4.049
 4076SOL    HW213128   1.641   2.532   3.891
 4077SOL     OW13129   2.615   1.577   0.907
 4077SOL    HW113130   2.562   1.643   0.961
 4077SOL    HW213131   2.574   1.566   0.817
 4078SOL     OW13132   5.597   3.711   2.147
 4078SOL    HW113133   5.650   3.795   2.141
 4078SOL    HW213134   5.522   3.714   2.081
 4079SOL     OW13135   0.589   1.309   4.145
 4079SOL    HW113136   0.643   1.355   4.074
 4079SOL    HW213137   0.527   1.374   4.188
 4080SOL     OW13138   3.880   2.938   2.304
 4080SOL    HW113139   3.806   2.944   2.237
 4080SOL    HW213140   3.927   2.850   2.294
 4081SOL     OW13141   2.696   2.440   6.245
 4081SOL    HW113142   2.739   2.462   6.158
 4081SOL    HW213143   2.600   2.467   6.242
 4082SOL     OW13144   1.169   2.607   5.283
 4082SOL    HW113145   1.140   2.639   5.193
 4082SOL    HW213146   1.242   2.666   5.318
 4083SOL     OW13147   5.784   4.890   3.287
 4083SOL    HW113148   5.711   4.947   3.324
 4083SOL    HW213149   5.821   4.934   3.205
 4084SOL     OW13150   4.724   0.155   3.250
 4084SOL    HW113151   4.648   0.139   3.314
 4084SOL    HW213152   4.806   0.180   3.302
 4085SOL     OW13153   4.070   5.324   2.254
 4085SOL    HW113154   3.983   5.277   2.238
 4085SOL    HW213155   4.125   5.271   2.319
 4086SOL     OW13156   6.117   4.830   6.448
 4086SOL    HW113157   6.169   4.751   6.414
 4086SOL    HW213158   6.138   4.910   6.392
 4087SOL     OW13159   2.329   0.353   2.024
 4087SOL    HW113160   2.240   0.347   2.070
 4087SOL    HW213161   2.389   0.281   2.059
 4088SOL     OW13162   0.472   2.055   5.119
 4088SOL    HW113163   0.381   2.086   5.091
 4088SOL    HW213164   0.464   2.000   5.202
 4089SOL     OW13165   1.448   0.464   3.098
 4089SOL    HW113166   1.507   0.535   3.059
 4089SOL    HW213167   1.354   0.481   3.071
 4090SOL     OW13168   2.461   1.408   6.009
 4090SOL    HW113169   2.370   1.428   5.971
 4090SOL    HW213170   2.476   1.464   6.090
 4091SOL     OW13171   3.235   5.883   0.982
 4091SOL    HW113172   3.168   5.890   0.907
 4091SOL    HW213173   3.187   5.872   1.069
 4092SOL     OW13174   5.720   2.896   4.200
 4092SOL    HW113175   5.662   2.816   4.214
 4092SOL    HW213176   5.815   2.872   4.218
 4093SOL     OW13177   5.111   4.712   4.022
 4093SOL    HW113178   5.193   4.750   3.977
 4093SOL    HW213179   5.037   4.778   4.016
 4094SOL     OW13180   6.931   5.380   6.998
 4094SOL    HW113181   6.988   5.452   0.018
 4094SOL    HW213182   6.956   5.292   0.020
 4095SOL     OW13183   0.435   5.320   0.208
 4095SOL    HW113184   0.384   5.310   0.123
 4095SOL    HW213185   0.424   5.237   0.264
 4096SOL     OW13186   0.200   1.054   6.828
 4096SOL    HW113187   0.222   1.046   6.925
 4096SOL    HW213188   0.188   0.962   6.789
 4097SOL     OW13189   6.146   4.878   4.883
 4097SOL    HW113190   6.215   4.852   4.815
 4097SOL    HW213191   6.151   4.816   4.960
 4098SOL     OW13192   2.012   4.269   3.297
 4098SOL    HW113193   1.953   4.192   3.320
 4098SOL    HW213194   2.020   4.329   3.377
 4099SOL     OW13195   4.260   4.370   6.393
 4099SOL    HW113196   4.199   4.295   6.418
 4099SOL    HW213197   4.254   4.442   6.463
 4100SOL     OW13198   1.056   6.874   3.717
 4100SOL    HW113199   1.027   6.967   3.741
 4100SOL    HW213200   1.155   6.872   3.706
 4101SOL     OW13201   6.100   5.948   0.357
 4101SOL    HW113202   6.169   5.910   0.419
 4101SOL    HW213203   6.115   5.911   0.265
 4102SOL     OW13204   1.577   0.197   0.097
 4102SOL    HW113205   1.626   0.118   0.134
 4102SOL    HW213206   1.483   0.197   0.131
 4103SOL     OW13207   2.029   6.243   3.589
 4103SOL    HW113208   2.080   6.258   3.673
 4103SOL    HW213209   2.093   6.235   3.512
 4104SOL     OW13210   2.305   5.392   4.229
 4104SOL    HW113211   2.315   5.367   4.326
 4104SOL    HW213212   2.299   5.492   4.221
 4105SOL     OW13213   4.861   0.869   1.154
 4105SOL    HW113214   4.771   0.834   1.179
 4105SOL    HW213215   4.931   0.806   1.188
 4106SOL     OW13216   1.374   1.014   3.207
 4106SOL    HW113217   1.438   1.082   3.245
 4106SOL    HW213218   1.290   1.059   3.178
 4107SOL     OW13219   1.254   6.794   0.171
 4107SOL    HW113220   1.207   6.786   0.083
 4107SOL    HW213221   1.328   6.727   0.175
 4108SOL     OW13222   6.771   5.968   5.491
 4108SOL    HW113223   6.676   5.940   5.480
 4108SOL    HW213224   6.786   5.998   5.586
 4109SOL     OW13225   5.780   5.949   3.729
 4109SOL    HW113226   5.814   6.024   3.786
 4109SOL    HW213227   5.854   5.883   3.714
 4110SOL     OW13228   4.892   2.908   0.667
 4110SOL    HW113229   4.896   2.959   0.753
 4110SOL    HW213230   4.983   2.875   0.644
 4111SOL     OW13231   6.504   3.985   4.028
 4111SOL    HW113232   6.581   4.049   4.028
 4111SOL    HW213233   6.429   4.023   4.081
 4112SOL     OW13234   4.795   6.138   4.760
 4112SOL    HW113235   4.777   6.237   4.766
 4112SOL    HW213236   4.774   6.096   4.848
 4113SOL     OW13237   4.009   5.242   4.804
 4113SOL    HW113238   3.996   5.215   4.900
 4113SOL    HW213239   4.069   5.175   4.759
 4114SOL     OW13240   0.379   1.425   1.612
 4114SOL    HW113241   0.334   1.514   1.612
 4114SOL    HW213242   0.313   1.354   1.638
 4115SOL     OW13243   3.979   5.856   4.211
 4115SOL    HW113244   4.005   5.901   4.125
 4115SOL    HW213245   3.881   5.863   4.224
 4116SOL     OW13246   4.942   4.112   2.412
 4116SOL    HW113247   4.961   4.159   2.326
 4116SOL    HW213248   4.974   4.017   2.407
 4117SOL     OW13249   1.318   1.727   3.924
 4117SOL    HW113250   1.413   1.738   3.952
 4117SOL    HW213251   1.272   1.662   3.985
 4118SOL     OW13252   0.639   6.278   0.629
 4118SOL    HW113253   0.585   6.361   0.640
 4118SOL    HW213254   0.654   6.260   0.532
 4119SOL     OW13255   0.439   0.435   4.253
 4119SOL    HW113256   0.508   0.483   4.307
 4119SOL    HW213257   0.376   0.502   4.214
 4120SOL     OW13258   2.591   0.456   6.211
 4120SOL    HW113259   2.577   0.447   6.310
 4120SOL    HW213260   2.562   0.547   6.181
 4121SOL     OW13261   6.123   0.035   2.529
 4121SOL    HW113262   6.091   0.035   2.624
 4121SOL    HW213263   6.158   6.964   2.506
 4122SOL     OW13264   0.271   4.029   2.870
 4122SOL    HW113265   0.263   4.120   2.830
 4122SOL    HW213266   0.201   4.017   2.940
 4123SOL     OW13267   4.630   4.548   1.478
 4123SOL    HW113268   4.580   4.462   1.483
 4123SOL    HW213269   4.643   4.585   1.570
 4124SOL     OW13270   5.494   5.814   0.078
 4124SOL    HW113271   5.587   5.810   0.042
 4124SOL    HW213272   5.497   5.818   0.178
 4125SOL     OW13273   6.035   1.600   1.304
 4125SOL    HW113274   5.968   1.528   1.289
 4125SOL    HW213275   6.126   1.560   1.313
 4126SOL     OW13276   1.943   2.793   1.984
 4126SOL    HW113277   1.909   2.723   2.047
 4126SOL    HW213278   2.036   2.820   2.011
 4127SOL     OW13279   4.435   1.894   4.657
 4127SOL    HW113280   4.510   1.958   4.640
 4127SOL    HW213281   4.428   1.830   4.581
 4128SOL     OW13282   1.202   3.308   7.002
 4128SOL    HW113283   1.188   3.217   6.964
 4128SOL    HW213284   1.253   3.300   0.068
 4129SOL     OW13285   2.319   2.851   0.411
 4129SOL    HW113286   2.359   2.908   0.483
 4129SOL    HW213287   2.242   2.800   0.448
 4130SOL     OW13288   6.160   3.437   0.666
 4130SOL    HW113289   6.193   3.343   0.668
 4130SOL    HW213290   6.213   3.492   0.730
 4131SOL     OW13291   4.575   6.833   3.634
 4131SOL    HW113292   4.642   6.889   3.586
 4131SOL    HW213293   4.558   6.872   3.725
 4132SOL     OW13294   0.403   5.300   4.329
 4132SOL    HW113295   0.480   5.306   4.265
 4132SOL    HW213296   0.333   5.367   4.303
 4133SOL     OW13297   5.488   0.643   2.707
 4133SOL    HW113298   5.574   0.693   2.718
 4133SOL    HW213299   5.466   0.594   2.791
 4134SOL     OW13300   1.502   3.631   1.593
 4134SOL    HW113301   1.431   3.684   1.640
 4134SOL    HW213302   1.493   3.644   1.494
 4135SOL     OW13303   6.646   0.994   1.625
 4135SOL    HW113304   6.590   1.066   1.582
 4135SOL    HW213305   6.656   1.013   1.722
 4136SOL     OW13306   1.390   4.883   1.525
 4136SOL    HW113307   1.406   4.976   1.492
 4136SOL    HW213308   1.472   4.850   1.572
 4137SOL     OW13309   1.584   2.664   0.454
 4137SOL    HW113310   1.520   2.729   0.414
 4137SOL    HW213311   1.538   2.613   0.528
 4138SOL     OW13312   5.381   0.443   0.480
 4138SOL    HW113313   5.429   0.522   0.515
 4138SOL    HW213314   5.324   0.470   0.402
 4139SOL     OW13315   2.171   3.685   2.692
 4139SOL    HW113316   2.227   3.768   2.685
 4139SOL    HW213317   2.145   3.655   2.601
 4140SOL     OW13318   2.129   0.855   6.439
 4140SOL    HW113319   2.048   0.821   6.487
 4140SOL    HW213320   2.158   0.941   6.481
 4141SOL     OW13321   5.033   0.554   5.822
 4141SOL    HW113322   4.974   0.620   5.869
 4141SOL    HW213323   5.035   0.575   5.724
 4142SOL     OW13324   0.894   4.821   2.275
 4142SOL    HW113325   0.867   4.873   2.194
 4142SOL    HW213326   0.966   4.870   2.324
 4143SOL     OW13327   5.542   3.070   6.810
 4143SOL    HW113328   5.575   3.160   6.841
 4143SOL    HW213329   5.621   3.011   6.791
 4144SOL     OW13330   6.311   0.885   0.384
 4144SOL    HW113331   6.331   0.897   0.481
 4144SOL    HW213332   6.341   0.794   0.355
 4145SOL     OW13333   0.033   6.900   1.588
 4145SOL    HW113334   0.033   6.814   1.638
 4145SOL    HW213335   0.048   6.976   1.651
 4146SOL     OW13336   4.817   5.778   2.859
 4146SOL    HW113337   4.813   5.847   2.788
 4146SOL    HW213338   4.854   5.818   2.943
 4147SOL     OW13339   4.781   4.697   6.325
 4147SOL    HW113340   4.787   4.795   6.303
 4147SOL    HW213341   4.695   4.660   6.289
 4148SOL     OW13342   2.501   1.255   5.789
 4148SOL    HW113343   2.539   1.330   5.843
 4148SOL    HW213344   2.499   1.172   5.844
 4149SOL     OW13345   2.154   3.462   6.398
 4149SOL    HW113346   2.184   3.369   6.422
 4149SOL    HW213347   2.054   3.467   6.404
 4150SOL     OW13348   5.475   2.058   6.421
 4150SOL    HW113349   5.561   2.049   6.472
 4150SOL    HW213350   5.405   2.001   6.464
 4151SOL     OW13351   3.333   6.163   4.024
 4151SOL    HW113352   3.373   6.191   3.937
 4151SOL    HW213353   3.260   6.227   4.050
 4152SOL     OW13354   2.619   4.521   1.085
 4152SOL    HW113355   2.640   4.443   1.026
 4152SOL    HW213356   2.693   4.534   1.151
 4153SOL     OW13357   6.849   5.886   1.389
 4153SOL    HW113358   6.832   5.890   1.488
 4153SOL    HW213359   6.849   5.790   1.359
 4154SOL     OW13360   1.132   6.360   3.816
 4154SOL    HW113361   1.033   6.347   3.827
 4154SOL    HW213362   1.175   6.273   3.790
 4155SOL     OW13363   0.583   0.875   1.451
 4155SOL    HW113364   0.598   0.787   1.497
 4155SOL    HW213365   0.659   0.937   1.470
 4156SOL     OW13366   0.281   5.342   6.041
 4156SOL    HW113367   0.258   5.422   6.097
 4156SOL    HW213368   0.303   5.372   5.948
 4157SOL     OW13369   6.743   6.242   1.411
 4157SOL    HW113370   6.681   6.297   1.355
 4157SOL    HW213371   6.761   6.288   1.497
 4158SOL     OW13372   0.891   2.636   1.275
 4158SOL    HW113373   0.821   2.678   1.333
 4158SOL    HW213374   0.981   2.673   1.299
 4159SOL     OW13375   3.550   0.750   4.217
 4159SOL    HW113376   3.515   0.701   4.138
 4159SOL    HW213377   3.554   0.848   4.197
 4160SOL     OW13378   6.562   6.788   6.783
 4160SOL    HW113379   6.467   6.807   6.808
 4160SOL    HW213380   6.591   6.702   6.824
 4161SOL     OW13381   4.017   3.273   1.913
 4161SOL    HW113382   3.962   3.288   1.831
 4161SOL    HW213383   4.102   3.326   1.907
 4162SOL     OW13384   4.997   5.866   1.862
 4162SOL    HW113385   5.040   5.792   1.914
 4162SOL    HW213386   4.953   5.930   1.926
 4163SOL     OW13387   3.456   6.630   1.681
 4163SOL    HW113388   3.483   6.716   1.725
 4163SOL    HW213389   3.370   6.645   1.631
 4164SOL     OW13390   6.777   0.455   5.544
 4164SOL    HW113391   6.819   0.537   5.505
 4164SOL    HW213392   6.770   0.464   5.643
 4165SOL     OW13393   4.505   0.953   4.645
 4165SOL    HW113394   4.503   0.941   4.745
 4165SOL    HW213395   4.578   1.018   4.621
 4166SOL     OW13396   5.911   1.346   1.355
 4166SOL    HW113397   5.851   1.401   1.413
 4166SOL    HW213398   5.932   1.260   1.401
 4167SOL     OW13399   3.800   5.554   4.214
 4167SOL    HW113400   3.882   5.610   4.224
 4167SOL    HW213401   3.756   5.542   4.303
 4168SOL     OW13402   4.940   3.820   6.495
 4168SOL    HW113403   4.913   3.762   6.572
 4168SOL    HW213404   5.035   3.802   6.471
 4169SOL     OW13405   5.036   3.465   5.424
 4169SOL    HW113406   5.117   3.480   5.481
 4169SOL    HW213407   5.038   3.371   5.388
 4170SOL     OW13408   0.583   3.271   3.945
 4170SOL    HW113409   0.488   3.291   3.923
 4170SOL    HW213410   0.641   3.289   3.866
 4171SOL     OW13411   0.672   2.718   0.662
 4171SOL    HW113412   0.610   2.642   0.642
 4171SOL    HW213413   0.712   2.706   0.753
 4172SOL     OW13414   2.757   4.313   0.913
 4172SOL    HW113415   2.811   4.264   0.981
 4172SOL    HW213416   2.806   4.395   0.884
 4173SOL     OW13417   4.610   2.454   5.898
 4173SOL    HW113418   4.554   2.375   5.924
 4173SOL    HW213419   4.612   2.463   5.799
 4174SOL     OW13420   3.605   0.472   5.010
 4174SOL    HW113421   3.621   0.467   4.911
 4174SOL    HW213422   3.522   0.526   5.027
 4175SOL     OW13423   0.934   4.692   6.588
 4175SOL    HW113424   0.867   4.717   6.518
 4175SOL    HW213425   0.935   4.762   6.660
 4176SOL     OW13426   4.661   0.483   6.358
 4176SOL    HW113427   4.655   0.433   6.271
 4176SOL    HW213428   4.755   0.478   6.392
 4177SOL     OW13429   4.197   4.781   2.673
 4177SOL    HW113430   4.121   4.779   2.608
 4177SOL    HW213431   4.279   4.814   2.628
 4178SOL     OW13432   4.079   5.485   1.245
 4178SOL    HW113433   4.062   5.556   1.314
 4178SOL    HW213434   4.176   5.480   1.225
 4179SOL     OW13435   5.209   2.756   5.236
 4179SOL    HW113436   5.125   2.803   5.207
 4179SOL    HW213437   5.275   2.823   5.270
 4180SOL     OW13438   4.492   4.027   6.955
 4180SOL    HW113439   4.581   4.049   6.995
 4180SOL    HW213440   4.424   4.094   6.987
 4181SOL     OW13441   4.621   6.910   4.843
 4181SOL    HW113442   4.576   6.947   4.762
 4181SOL    HW213443   4.720   6.924   4.836
 4182SOL     OW13444   0.227   6.478   4.234
 4182SOL    HW113445   0.308   6.440   4.189
 4182SOL    HW213446   0.209   6.570   4.199
 4183SOL     OW13447   3.697   2.216   1.310
 4183SOL    HW113448   3.722   2.306   1.346
 4183SOL    HW213449   3.658   2.161   1.384
 4184SOL     OW13450   3.342   5.459   3.764
 4184SOL    HW113451   3.402   5.515   3.706
 4184SOL    HW213452   3.262   5.513   3.791
 4185SOL     OW13453   6.055   3.090   3.198
 4185SOL    HW113454   6.087   3.160   3.134
 4185SOL    HW213455   5.980   3.128   3.253
 4186SOL     OW13456   1.517   6.016   0.527
 4186SOL    HW113457   1.567   6.093   0.486
 4186SOL    HW213458   1.547   6.004   0.622
 4187SOL     OW13459   1.568   3.634   6.514
 4187SOL    HW113460   1.476   3.633   6.476
 4187SOL    HW213461   1.600   3.729   6.521
 4188SOL     OW13462   4.592   6.958   0.679
 4188SOL    HW113463   4.585   0.032   0.645
 4188SOL    HW213464   4.502   6.929   0.711
 4189SOL     OW13465   5.067   4.830   3.727
 4189SOL    HW113466   5.152   4.882   3.739
 4189SOL    HW213467   4.989   4.892   3.726
 4190SOL     OW13468   0.052   6.154   0.858
 4190SOL    HW113469   0.009   6.072   0.896
 4190SOL    HW213470   0.135   6.129   0.809
 4191SOL     OW13471   4.647   4.407   6.358
 4191SOL    HW113472   4.590   4.490   6.362
 4191SOL    HW213473   4.743   4.433   6.365
 4192SOL     OW13474   0.981   3.386   1.469
 4192SOL    HW113475   0.962   3.287   1.465
 4192SOL    HW213476   0.894   3.436   1.468
 4193SOL     OW13477   7.004   0.254   0.718
 4193SOL    HW113478   7.017   0.177   0.781
 4193SOL    HW213479   7.017   0.222   0.624
 4194SOL     OW13480   4.394   1.571   5.093
 4194SOL    HW113481   4.340   1.522   5.024
 4194SOL    HW213482   4.490   1.570   5.066
 4195SOL     OW13483   3.364   6.012   1.249
 4195SOL    HW113484   3.368   6.107   1.279
 4195SOL    HW213485   3.417   6.001   1.165
 4196SOL     OW13486   6.444   2.632   2.113
 4196SOL    HW113487   6.437   2.622   2.014
 4196SOL    HW213488   6.448   2.542   2.156
 4197SOL     OW13489   3.663   0.463   6.700
 4197SOL    HW113490   3.621   0.447   6.611
 4197SOL    HW213491   3.628   0.397   6.766
 4198SOL     OW13492   6.051   1.980   2.449
 4198SOL    HW113493   6.043   1.890   2.407
 4198SOL    HW213494   5.968   2.033   2.430
 4199SOL     OW13495   0.736   4.006   6.103
 4199SOL    HW113496   0.658   4.065   6.082
 4199SOL    HW213497   0.766   3.961   6.019
 4200SOL     OW13498   4.638   1.065   3.536
 4200SOL    HW113499   4.705   1.139   3.539
 4200SOL    HW213500   4.594   1.056   3.626
 4201SOL     OW13501   5.346   6.856   3.791
 4201SOL    HW113502   5.432   6.884   3.749
 4201SOL    HW213503   5.300   6.790   3.732
 4202SOL     OW13504   5.153   4.259   1.331
 4202SOL    HW113505   5.083   4.308   1.382
 4202SOL    HW213506   5.143   4.160   1.345
 4203SOL     OW13507   6.365   5.681   6.395
 4203SOL    HW113508   6.352   5.611   6.324
 4203SOL    HW213509   6.353   5.639   6.485
 4204SOL     OW13510   2.510   3.319   6.215
 4204SOL    HW113511   2.479   3.226   6.195
 4204SOL    HW213512   2.445   3.385   6.177
 4205SOL     OW13513   3.883   6.619   5.251
 4205SOL    HW113514   3.875   6.592   5.347
 4205SOL    HW213515   3.845   6.548   5.193
 4206SOL     OW13516   1.138   2.597   4.619
 4206SOL    HW113517   1.212   2.633   4.677
 4206SOL    HW213518   1.162   2.609   4.523
 4207SOL     OW13519   1.062   2.393   2.169
 4207SOL    HW113520   1.121   2.464   2.129
 4207SOL    HW213521   1.089   2.304   2.133
 4208SOL     OW13522   2.059   3.486   4.960
 4208SOL    HW113523   2.037   3.519   5.052
 4208SOL    HW213524   2.120   3.408   4.966
 4209SOL     OW13525   6.872   6.601   2.533
 4209SOL    HW113526   6.807   6.543   2.483
 4209SOL    HW213527   6.840   6.614   2.626
 4210SOL     OW13528   3.720   3.006   5.023
 4210SOL    HW113529   3.747   3.099   5.045
 4210SOL    HW213530   3.690   3.001   4.928
 4211SOL     OW13531   4.197   2.651   5.549
 4211SOL    HW113532   4.142   2.644   5.633
 4211SOL    HW213533   4.150   2.711   5.484
 4212SOL     OW13534   0.088   2.785   3.289
 4212SOL    HW113535   0.062   2.820   3.380
 4212SOL    HW213536   0.087   2.860   3.223
 4213SOL     OW13537   3.433   0.895   3.627
 4213SOL    HW113538   3.373   0.848   3.562
 4213SOL    HW213539   3.528   0.883   3.598
 4214SOL     OW13540   0.638   5.554   4.103
 4214SOL    HW113541   0.653   5.461   4.135
 4214SOL    HW213542   0.670   5.563   4.008
 4215SOL     OW13543   4.665   6.295   5.233
 4215SOL    HW113544   4.641   6.331   5.143
 4215SOL    HW213545   4.626   6.203   5.242
 4216SOL     OW13546   2.716   5.776   2.411
 4216SOL    HW113547   2.672   5.866   2.408
 4216SOL    HW213548   2.783   5.770   2.337
 4217SOL     OW13549   0.596   0.584   2.685
 4217SOL    HW113550   0.637   0.515   2.745
 4217SOL    HW213551   0.667   0.647   2.655
 4218SOL     OW13552   2.668   1.359   1.788
 4218SOL    HW113553   2.704   1.356   1.694
 4218SOL    HW213554   2.676   1.269   1.830
 4219SOL     OW13555   4.484   6.338   3.779
 4219SOL    HW113556   4.494   6.239   3.767
 4219SOL    HW213557   4.534   6.386   3.707
 4220SOL     OW13558   4.860   2.370   1.840
 4220SOL    HW113559   4.917   2.368   1.922
 4220SOL    HW213560   4.779   2.426   1.858
 4221SOL     OW13561   0.382   5.753   0.095
 4221SOL    HW113562   0.295   5.732   0.049
 4221SOL    HW213563   0.371   5.834   0.152
 4222SOL     OW13564   5.101   2.657   3.839
 4222SOL    HW113565   5.175   2.626   3.779
 4222SOL    HW213566   5.017   2.666   3.786
 4223SOL     OW13567   4.068   3.809   2.143
 4223SOL    HW113568   4.144   3.862   2.105
 4223SOL    HW213569   4.103   3.723   2.182
 4224SOL     OW13570   4.919   3.385   4.740
 4224SOL    HW113571   4.981   3.330   4.797
 4224SOL    HW213572   4.871   3.451   4.798
 4225SOL     OW13573   0.215   2.027   5.385
 4225SOL    HW113574   0.257   1.952   5.435
 4225SOL    HW213575   0.270   2.110   5.395
 4226SOL     OW13576   1.803   5.600   4.676
 4226SOL    HW113577   1.895   5.579   4.709
 4226SOL    HW213578   1.739   5.595   4.752
 4227SOL     OW13579   5.416   5.644   2.333
 4227SOL    HW113580   5.476   5.688   2.400
 4227SOL    HW213581   5.359   5.714   2.288
 4228SOL     OW13582   1.007   5.044   4.005
 4228SOL    HW113583   1.017   4.956   3.959
 4228SOL    HW213584   0.989   5.030   4.102
 4229SOL     OW13585   6.424   4.567   5.647
 4229SOL    HW113586   6.383   4.583   5.557
 4229SOL    HW213587   6.521   4.549   5.636
 4230SOL     OW13588   0.413   0.950   2.071
 4230SOL    HW113589   0.367   0.864   2.092
 4230SOL    HW213590   0.345   1.018   2.045
 4231SOL     OW13591   5.496   1.943   5.675
 4231SOL    HW113592   5.483   1.847   5.699
 4231SOL    HW213593   5.474   1.956   5.579
 4232SOL     OW13594   1.550   5.590   3.659
 4232SOL    HW113595   1.629   5.647   3.681
 4232SOL    HW213596   1.561   5.499   3.701
 4233SOL     OW13597   5.188   5.721   3.676
 4233SOL    HW113598   5.248   5.689   3.602
 4233SOL    HW213599   5.237   5.715   3.763
 4234SOL     OW13600   2.772   5.649   5.784
 4234SOL    HW113601   2.741   5.741   5.808
 4234SOL    HW213602   2.863   5.653   5.744
 4235SOL     OW13603   0.526   5.668   5.519
 4235SOL    HW113604   0.623   5.674   5.494
 4235SOL    HW213605   0.476   5.744   5.477
 4236SOL     OW13606   0.598   5.490   2.640
 4236SOL    HW113607   0.678   5.520   2.587
 4236SOL    HW213608   0.595   5.390   2.641
 4237SOL     OW13609   6.866   4.509   3.647
 4237SOL    HW113610   6.837   4.443   3.717
 4237SOL    HW213611   6.838   4.476   3.557
 4238SOL     OW13612   2.337   6.962   3.470
 4238SOL    HW113613   2.377   6.877   3.504
 4238SOL    HW213614   2.238   6.959   3.480
 4239SOL     OW13615   4.015   1.198   3.717
 4239SOL    HW113616   4.025   1.227   3.622
 4239SOL    HW213617   4.099   1.219   3.767
 4240SOL     OW13618   0.198   6.367   1.324
 4240SOL    HW113619   0.103   6.351   1.298
 4240SOL    HW213620   0.241   6.427   1.256
 4241SOL     OW13621   6.333   2.858   0.477
 4241SOL    HW113622   6.296   2.911   0.553
 4241SOL    HW213623   6.301   2.763   0.484
 4242SOL     OW13624   1.983   1.908   3.662
 4242SOL    HW113625   2.009   1.981   3.598
 4242SOL    HW213626   1.998   1.819   3.618
 4243SOL     OW13627   5.313   0.594   3.453
 4243SOL    HW113628   5.397   0.542   3.466
 4243SOL    HW213629   5.305   0.664   3.524
 4244SOL     OW13630   3.487   3.582   2.460
 4244SOL    HW113631   3.538   3.648   2.404
 4244SOL    HW213632   3.467   3.501   2.406
 4245SOL     OW13633   6.238   2.575   6.292
 4245SOL    HW113634   6.175   2.540   6.361
 4245SOL    HW213635   6.226   2.674   6.282
 4246SOL     OW13636   0.770   3.661   1.857
 4246SOL    HW113637   0.713   3.593   1.811
 4246SOL    HW213638   0.711   3.723   1.909
 4247SOL     OW13639   0.172   5.916   5.009
 4247SOL    HW113640   0.257   5.902   4.960
 4247SOL    HW213641   0.114   5.979   4.957
 4248SOL     OW13642   1.391   2.874   5.293
 4248SOL    HW113643   1.346   2.922   5.369
 4248SOL    HW213644   1.473   2.924   5.267
 4249SOL     OW13645   5.420   3.676   5.887
 4249SOL    HW113646   5.321   3.667   5.879
 4249SOL    HW213647   5.459   3.592   5.926
 4250SOL     OW13648   6.900   4.910   3.261
 4250SOL    HW113649   6.994   4.921   3.290
 4250SOL    HW213650   6.884   4.814   3.237
 4251SOL     OW13651   5.857   4.418   0.243
 4251SOL    HW113652   5.795   4.387   0.316
 4251SOL    HW213653   5.944   4.447   0.283
 4252SOL     OW13654   0.909   5.178   5.784
 4252SOL    HW113655   0.891   5.093   5.833
 4252SOL    HW213656   0.974   5.233   5.836
 4253SOL     OW13657   4.500   0.502   2.541
 4253SOL    HW113658   4.506   0.601   2.530
 4253SOL    HW213659   4.510   0.457   2.452
 4254SOL     OW13660   2.340   4.109   1.377
 4254SOL    HW113661   2.296   4.083   1.291
 4254SOL    HW213662   2.438   4.092   1.371
 4255SOL     OW13663   6.945   2.942   4.594
 4255SOL    HW113664   6.933   3.022   4.534
 4255SOL    HW213665   6.855   2.902   4.612
 4256SOL     OW13666   1.986   7.000   1.641
 4256SOL    HW113667   2.033   6.997   1.729
 4256SOL    HW213668   2.047   0.020   1.572
 4257SOL     OW13669   3.659   1.810   4.594
 4257SOL    HW113670   3.563   1.834   4.578
 4257SOL    HW213671   3.664   1.722   4.640
 4258SOL     OW13672   5.564   6.776   2.645
 4258SOL    HW113673   5.556   6.869   2.682
 4258SOL    HW213674   5.578   6.712   2.720
 4259SOL     OW13675   2.259   2.371   6.891
 4259SOL    HW113676   2.278   2.358   6.793
 4259SOL    HW213677   2.255   2.469   6.911
 4260SOL     OW13678   4.946   5.557   3.275
 4260SOL    HW113679   4.848   5.539   3.267
 4260SOL    HW213680   4.961   5.638   3.331
 4261SOL     OW13681   1.632   6.298   2.009
 4261SOL    HW113682   1.647   6.387   2.051
 4261SOL    HW213683   1.545   6.298   1.960
 4262SOL     OW13684   0.814   5.161   6.742
 4262SOL    HW113685   0.792   5.154   6.840
 4262SOL    HW213686   0.886   5.095   6.720
 4263SOL     OW13687   2.737   4.466   5.700
 4263SOL    HW113688   2.748   4.545   5.639
 4263SOL    HW213689   2.819   4.409   5.697
 4264SOL     OW13690   0.200   0.889   0.589
 4264SOL    HW113691   0.125   0.947   0.619
 4264SOL    HW213692   0.284   0.915   0.636
 4265SOL     OW13693   6.614   1.639   0.601
 4265SOL    HW113694   6.608   1.714   0.666
 4265SOL    HW213695   6.702   1.592   0.612
 4266SOL     OW13696   2.684   5.429   0.057
 4266SOL    HW113697   2.707   5.446   0.153
 4266SOL    HW213698   2.765   5.446   0.000
 4267SOL     OW13699   1.786   3.529   5.438
 4267SOL    HW113700   1.830   3.606   5.486
 4267SOL    HW213701   1.793   3.544   5.340
 4268SOL     OW13702   2.269   1.026   0.594
 4268SOL    HW113703   2.183   0.991   0.556
 4268SOL    HW213704   2.290   0.978   0.679
 4269SOL     OW13705   3.520   3.402   0.152
 4269SOL    HW113706   3.580   3.341   0.203
 4269SOL    HW213707   3.433   3.356   0.134
 4270SOL     OW13708   2.968   3.164   4.729
 4270SOL    HW113709   3.028   3.086   4.749
 4270SOL    HW213710   2.877   3.131   4.705
 4271SOL     OW13711   0.818   7.001   5.887
 4271SOL    HW113712   0.796   0.037   5.808
 4271SOL    HW213713   0.914   7.017   5.913
 4272SOL     OW13714   6.462   4.901   4.944
 4272SOL    HW113715   6.444   4.906   4.845
 4272SOL    HW213716   6.441   4.989   4.986
 4273SOL     OW13717   4.956   6.854   5.465
 4273SOL    HW113718   5.022   6.829   5.394
 4273SOL    HW213719   4.984   6.816   5.553
 4274SOL     OW13720   1.502   6.641   3.384
 4274SOL    HW113721   1.496   6.695   3.468
 4274SOL    HW213722   1.414   6.641   3.337
 4275SOL     OW13723   0.974   0.425   6.019
 4275SOL    HW113724   1.025   0.400   5.937
 4275SOL    HW213725   0.921   0.346   6.050
 4276SOL     OW13726   2.085   4.558   2.878
 4276SOL    HW113727   2.052   4.479   2.828
 4276SOL    HW213728   2.115   4.629   2.813
 4277SOL     OW13729   6.954   5.547   3.902
 4277SOL    HW113730   0.014   5.491   3.881
 4277SOL    HW213731   6.885   5.492   3.949
 4278SOL     OW13732   6.838   6.512   4.546
 4278SOL    HW113733   6.823   6.413   4.536
 4278SOL    HW213734   6.773   6.549   4.612
 4279SOL     OW13735   3.544   6.338   5.237
 4279SOL    HW113736   3.607   6.345   5.159
 4279SOL    HW213737   3.492   6.423   5.246
 4280SOL     OW13738   5.964   1.842   4.689
 4280SOL    HW113739   6.030   1.817   4.760
 4280SOL    HW213740   6.012   1.875   4.608
 4281SOL     OW13741   2.300   4.337   5.102
 4281SOL    HW113742   2.300   4.257   5.043
 4281SOL    HW213743   2.336   4.312   5.192
 4282SOL     OW13744   1.941   2.307   0.805
 4282SOL    HW113745   1.959   2.386   0.863
 4282SOL    HW213746   1.892   2.336   0.722
 4283SOL     OW13747   1.836   0.530   4.414
 4283SOL    HW113748   1.783   0.447   4.394
 4283SOL    HW213749   1.847   0.538   4.513
 4284SOL     OW13750   5.464   1.821   2.175
 4284SOL    HW113751   5.522   1.785   2.248
 4284SOL    HW213752   5.516   1.887   2.121
 4285SOL     OW13753   0.993   0.120   5.291
 4285SOL    HW113754   0.905   0.107   5.245
 4285SOL    HW213755   1.063   0.142   5.223
 4286SOL     OW13756   4.696   5.908   0.069
 4286SOL    HW113757   4.659   5.918   0.161
 4286SOL    HW213758   4.769   5.974   0.055
 4287SOL     OW13759   5.779   0.142   4.953
 4287SOL    HW113760   5.720   0.221   4.969
 4287SOL    HW213761   5.834   0.158   4.871
 4288SOL     OW13762   1.579   6.601   2.759
 4288SOL    HW113763   1.656   6.594   2.823
 4288SOL    HW213764   1.516   6.672   2.791
 4289SOL     OW13765   5.634   2.703   1.339
 4289SOL    HW113766   5.647   2.760   1.257
 4289SOL    HW213767   5.702   2.728   1.408
 4290SOL     OW13768   2.145   1.046   2.045
 4290SOL    HW113769   2.239   1.039   2.011
 4290SOL    HW213770   2.145   1.097   2.130
 4291SOL     OW13771   5.857   3.359   0.439
 4291SOL    HW113772   5.781   3.421   0.460
 4291SOL    HW213773   5.844   3.273   0.489
 4292SOL     OW13774   5.801   4.362   6.322
 4292SOL    HW113775   5.809   4.413   6.236
 4292SOL    HW213776   5.860   4.403   6.391
 4293SOL     OW13777   0.002   3.082   6.580
 4293SOL    HW113778   7.008   3.176   6.611
 4293SOL    HW213779   6.959   3.062   6.505
 4294SOL     OW13780   4.185   2.353   6.206
 4294SOL    HW113781   4.201   2.260   6.236
 4294SOL    HW213782   4.260   2.382   6.147
 4295SOL     OW13783   3.451   0.002   4.503
 4295SOL    HW113784   3.522   6.957   4.477
 4295SOL    HW213785   3.408   6.993   4.588
 4296SOL     OW13786   2.549   1.517   1.222
 4296SOL    HW113787   2.508   1.436   1.181
 4296SOL    HW213788   2.518   1.598   1.172
 4297SOL     OW13789   5.570   0.700   5.716
 4297SOL    HW113790   5.651   0.650   5.685
 4297SOL    HW213791   5.496   0.636   5.734
 4298SOL     OW13792   2.815   5.943   1.564
 4298SOL    HW113793   2.800   5.882   1.642
 4298SOL    HW213794   2.822   5.889   1.481
 4299SOL     OW13795   1.070   3.686   6.184
 4299SOL    HW113796   1.082   3.628   6.103
 4299SOL    HW213797   0.973   3.711   6.192
 4300SOL     OW13798   3.866   1.315   6.900
 4300SOL    HW113799   3.827   1.291   6.811
 4300SOL    HW213800   3.940   1.381   6.887
 4301SOL     OW13801   2.592   1.983   0.675
 4301SOL    HW113802   2.627   2.060   0.730
 4301SOL    HW213803   2.666   1.919   0.656
 4302SOL     OW13804   0.936   6.359   6.986
 4302SOL    HW113805   0.972   6.377   6.894
 4302SOL    HW213806   0.873   6.282   6.983
 4303SOL     OW13807   6.671   3.498   2.390
 4303SOL    HW113808   6.684   3.530   2.296
 4303SOL    HW213809   6.598   3.430   2.392
 4304SOL     OW13810   3.342   3.323   3.828
 4304SOL    HW113811   3.336   3.314   3.927
 4304SOL    HW213812   3.283   3.398   3.797
 4305SOL     OW13813   6.288   1.236   3.894
 4305SOL    HW113814   6.191   1.227   3.871
 4305SOL    HW213815   6.325   1.317   3.849
 4306SOL     OW13816   6.541   4.239   5.871
 4306SOL    HW113817   6.635   4.210   5.889
 4306SOL    HW213818   6.477   4.168   5.901
 4307SOL     OW13819   4.735   3.767   5.897
 4307SOL    HW113820   4.720   3.672   5.924
 4307SOL    HW213821   4.677   3.788   5.818
 4308SOL     OW13822   5.052   5.773   4.659
 4308SOL    HW113823   5.021   5.766   4.753
 4308SOL    HW213824   5.072   5.682   4.622
 4309SOL     OW13825   1.536   1.158   0.444
 4309SOL    HW113826   1.566   1.241   0.491
 4309SOL    HW213827   1.572   1.159   0.350
 4310SOL     OW13828   1.836   2.065   3.072
 4310SOL    HW113829   1.807   2.013   2.991
 4310SOL    HW213830   1.890   2.143   3.043
 4311SOL     OW13831   1.692   6.091   3.307
 4311SOL    HW113832   1.780   6.125   3.339
 4311SOL    HW213833   1.626   6.167   3.304
 4312SOL     OW13834   2.055   5.944   2.302
 4312SOL    HW113835   1.979   5.911   2.358
 4312SOL    HW213836   2.070   6.041   2.320
 4313SOL     OW13837   4.720   1.678   1.814
 4313SOL    HW113838   4.632   1.656   1.856
 4313SOL    HW213839   4.706   1.710   1.720
 4314SOL     OW13840   4.902   3.488   2.779
 4314SOL    HW113841   4.928   3.475   2.684
 4314SOL    HW213842   4.951   3.423   2.837
 4315SOL     OW13843   2.799   0.709   2.121
 4315SOL    HW113844   2.821   0.642   2.192
 4315SOL    HW213845   2.704   0.738   2.132
 4316SOL     OW13846   5.618   0.665   1.761
 4316SOL    HW113847   5.620   0.664   1.861
 4316SOL    HW213848   5.552   0.733   1.730
 4317SOL     OW13849   3.255   1.152   4.181
 4317SOL    HW113850   3.266   1.118   4.088
 4317SOL    HW213851   3.158   1.149   4.206
 4318SOL     OW13852   0.664   3.323   3.622
 4318SOL    HW113853   0.685   3.233   3.583
 4318SOL    HW213854   0.568   3.345   3.604
 4319SOL     OW13855   3.345   3.634   6.651
 4319SOL    HW113856   3.309   3.596   6.566
 4319SOL    HW213857   3.283   3.705   6.685
 4320SOL     OW13858   0.389   6.601   2.966
 4320SOL    HW113859   0.483   6.569   2.955
 4320SOL    HW213860   0.391   6.698   2.993
 4321SOL     OW13861   6.658   0.521   5.142
 4321SOL    HW113862   6.646   0.425   5.117
 4321SOL    HW213863   6.722   0.528   5.219
 4322SOL     OW13864   6.267   1.121   0.075
 4322SOL    HW113865   6.312   1.169   7.020
 4322SOL    HW213866   6.303   1.154   0.162
 4323SOL     OW13867   5.928   2.622   2.785
 4323SOL    HW113868   5.919   2.711   2.831
 4323SOL    HW213869   5.952   2.636   2.689
 4324SOL     OW13870   6.173   4.112   6.210
 4324SOL    HW113871   6.169   4.044   6.137
 4324SOL    HW213872   6.267   4.144   6.221
 4325SOL     OW13873   2.095   1.648   6.524
 4325SOL    HW113874   2.129   1.615   6.436
 4325SOL    HW213875   2.172   1.658   6.587
 4326SOL     OW13876   6.258   2.994   5.609
 4326SOL    HW113877   6.259   3.075   5.666
 4326SOL    HW213878   6.284   3.018   5.515
 4327SOL     OW13879   6.036   6.201   1.886
 4327SOL    HW113880   6.118   6.149   1.862
 4327SOL    HW213881   6.036   6.288   1.838
 4328SOL     OW13882   4.997   5.299   6.777
 4328SOL    HW113883   5.059   5.363   6.734
 4328SOL    HW213884   4.955   5.341   6.858
 4329SOL     OW13885   4.103   2.246   5.624
 4329SOL    HW113886   4.097   2.345   5.629
 4329SOL    HW213887   4.065   2.206   5.708
 4330SOL     OW13888   1.508   0.286   6.086
 4330SOL    HW113889   1.494   0.228   6.166
 4330SOL    HW213890   1.469   0.241   6.005
 4331SOL     OW13891   5.689   2.533   6.517
 4331SOL    HW113892   5.712   2.444   6.557
 4331SOL    HW213893   5.609   2.523   6.458
 4332SOL     OW13894   4.900   3.122   2.125
 4332SOL    HW113895   4.983   3.092   2.078
 4332SOL    HW213896   4.827   3.057   2.107
 4333SOL     OW13897   5.890   1.471   5.139
 4333SOL    HW113898   5.916   1.374   5.138
 4333SOL    HW213899   5.941   1.520   5.068
 4334SOL     OW13900   3.948   2.137   2.001
 4334SOL    HW113901   3.859   2.160   2.041
 4334SOL    HW213902   3.953   2.172   1.908
 4335SOL     OW13903   3.133   4.008   4.789
 4335SOL    HW113904   3.085   4.073   4.847
 4335SOL    HW213905   3.232   4.020   4.800
 4336SOL     OW13906   1.351   6.487   4.820
 4336SOL    HW113907   1.294   6.568   4.804
 4336SOL    HW213908   1.357   6.470   4.919
 4337SOL     OW13909   6.906   4.980   0.460
 4337SOL    HW113910   6.881   4.926   0.379
 4337SOL    HW213911   6.829   4.981   0.524
 4338SOL     OW13912   6.168   6.078   4.054
 4338SOL    HW113913   6.223   6.099   4.135
 4338SOL    HW213914   6.216   6.010   3.998
 4339SOL     OW13915   6.151   2.071   5.360
 4339SOL    HW113916   6.121   1.979   5.384
 4339SOL    HW213917   6.117   2.095   5.269
 4340SOL     OW13918   5.676   3.977   1.115
 4340SOL    HW113919   5.756   4.014   1.161
 4340SOL    HW213920   5.595   3.992   1.172
 4341SOL     OW13921   1.777   4.028   1.769
 4341SOL    HW113922   1.715   4.101   1.743
 4341SOL    HW213923   1.762   4.002   1.864
 4342SOL     OW13924   0.856   2.703   2.811
 4342SOL    HW113925   0.956   2.698   2.803
 4342SOL    HW213926   0.819   2.755   2.734
 4343SOL     OW13927   2.948   1.063   0.695
 4343SOL    HW113928   2.998   1.003   0.632
 4343SOL    HW213929   2.855   1.076   0.663
 4344SOL     OW13930   1.948   5.019   3.403
 4344SOL    HW113931   1.941   4.979   3.494
 4344SOL    HW213932   1.886   4.971   3.341
 4345SOL     OW13933   1.463   2.601   5.276
 4345SOL    HW113934   1.508   2.583   5.363
 4345SOL    HW213935   1.431   2.696   5.273
 4346SOL     OW13936   1.906   3.413   1.891
 4346SOL    HW113937   1.994   3.459   1.885
 4346SOL    HW213938   1.915   3.319   1.857
 4347SOL     OW13939   6.064   7.009   2.797
 4347SOL    HW113940   6.107   0.040   2.872
 4347SOL    HW213941   6.082   6.911   2.809
 4348SOL     OW13942   1.674   3.594   0.484
 4348SOL    HW113943   1.736   3.527   0.443
 4348SOL    HW213944   1.695   3.602   0.582
 4349SOL     OW13945   0.354   1.403   3.667
 4349SOL    HW113946   0.379   1.307   3.675
 4349SOL    HW213947   0.361   1.432   3.571
 4350SOL     OW13948   5.474   2.532   4.236
 4350SOL    HW113949   5.375   2.521   4.225
 4350SOL    HW213950   5.493   2.594   4.312
 4351SOL     OW13951   3.173   5.599   2.256
 4351SOL    HW113952   3.151   5.549   2.172
 4351SOL    HW213953   3.179   5.535   2.332
 4352SOL     OW13954   0.213   1.628   2.398
 4352SOL    HW113955   0.183   1.634   2.303
 4352SOL    HW213956   0.161   1.693   2.453
 4353SOL     OW13957   3.076   5.895   6.564
 4353SOL    HW113958   3.164   5.936   6.541
 4353SOL    HW213959   3.042   5.935   6.649
 4354SOL     OW13960   2.669   6.850   0.088
 4354SOL    HW113961   2.656   6.772   0.026
 4354SOL    HW213962   2.767   6.866   0.101
 4355SOL     OW13963   4.274   1.105   0.564
 4355SOL    HW113964   4.257   1.091   0.662
 4355SOL    HW213965   4.311   1.196   0.549
 4356SOL     OW13966   4.118   4.178   0.499
 4356SOL    HW113967   4.144   4.242   0.571
 4356SOL    HW213968   4.086   4.093   0.540
 4357SOL     OW13969   6.495   0.060   0.189
 4357SOL    HW113970   6.537   0.125   0.252
 4357SOL    HW213971   6.452   0.109   0.113
 4358SOL     OW13972   0.496   6.967   1.545
 4358SOL    HW113973   0.589   6.973   1.582
 4358SOL    HW213974   0.488   0.006   1.465
 4359SOL     OW13975   0.655   2.330   3.938
 4359SOL    HW113976   0.651   2.312   4.036
 4359SOL    HW213977   0.598   2.410   3.917
 4360SOL     OW13978   1.060   2.969   1.079
 4360SOL    HW113979   1.145   2.960   1.131
 4360SOL    HW213980   1.025   2.878   1.057
 4361SOL     OW13981   4.994   2.644   2.138
 4361SOL    HW113982   4.954   2.672   2.050
 4361SOL    HW213983   5.077   2.698   2.155
 4362SOL     OW13984   6.329   4.429   5.072
 4362SOL    HW113985   6.319   4.348   5.130
 4362SOL    HW213986   6.301   4.406   4.979
 4363SOL     OW13987   5.248   3.086   5.474
 4363SOL    HW113988   5.325   3.149   5.482
 4363SOL    HW213989   5.163   3.138   5.463
 4364SOL     OW13990   3.126   3.966   4.492
 4364SOL    HW113991   3.134   3.995   4.588
 4364SOL    HW213992   3.044   3.910   4.481
 4365SOL     OW13993   4.187   2.276   2.659
 4365SOL    HW113994   4.199   2.305   2.564
 4365SOL    HW213995   4.269   2.298   2.712
 4366SOL     OW13996   5.467   6.074   1.068
 4366SOL    HW113997   5.560   6.067   1.032
 4366SOL    HW213998   5.418   5.989   1.053
 4367SOL     OW13999   1.548   5.979   5.939
 4367SOL    HW114000   1.633   6.031   5.930
 4367SOL    HW214001   1.484   6.028   5.999
 4368SOL     OW14002   5.550   4.062   1.643
 4368SOL    HW114003   5.581   4.024   1.730
 4368SOL    HW214004   5.553   4.161   1.647
 4369SOL     OW14005   4.090   5.591   2.202
 4369SOL    HW114006   4.091   5.492   2.207
 4369SOL    HW214007   3.996   5.625   2.215
 4370SOL     OW14008   5.845   4.574   3.843
 4370SOL    HW114009   5.810   4.617   3.926
 4370SOL    HW214010   5.779   4.507   3.809
 4371SOL     OW14011   5.608   0.928   2.381
 4371SOL    HW114012   5.602   1.027   2.391
 4371SOL    HW214013   5.525   0.886   2.417
 4372SOL     OW14014   4.346   1.575   3.575
 4372SOL    HW114015   4.296   1.643   3.522
 4372SOL    HW214016   4.420   1.537   3.520
 4373SOL     OW14017   6.343   1.838   6.699
 4373SOL    HW114018   6.366   1.754   6.650
 4373SOL    HW214019   6.277   1.891   6.645
 4374SOL     OW14020   1.757   2.333   1.851
 4374SOL    HW114021   1.715   2.244   1.834
 4374SOL    HW214022   1.740   2.393   1.772
 4375SOL     OW14023   2.462   6.546   4.932
 4375SOL    HW114024   2.410   6.554   5.017
 4375SOL    HW214025   2.551   6.591   4.942
 4376SOL     OW14026   6.175   0.442   3.207
 4376SOL    HW114027   6.264   0.457   3.250
 4376SOL    HW214028   6.125   0.529   3.204
 4377SOL     OW14029   5.834   3.984   6.772
 4377SOL    HW114030   5.823   4.074   6.814
 4377SOL    HW214031   5.889   3.992   6.689
 4378SOL     OW14032   1.886   0.083   4.102
 4378SOL    HW114033   1.883   0.126   4.012
 4378SOL    HW214034   1.976   0.042   4.116
 4379SOL     OW14035   2.682   1.892   4.813
 4379SOL    HW114036   2.739   1.823   4.859
 4379SOL    HW214037   2.741   1.959   4.767
 4380SOL     OW14038   0.376   1.342   1.949
 4380SOL    HW114039   0.392   1.440   1.960
 4380SOL    HW214040   0.281   1.321   1.972
 4381SOL     OW14041   2.365   6.226   5.526
 4381SOL    HW114042   2.407   6.154   5.471
 4381SOL    HW214043   2.362   6.197   5.622
 4382SOL     OW14044   6.797   3.379   5.664
 4382SOL    HW114045   6.825   3.342   5.576
 4382SOL    HW214046   6.865   3.356   5.733
 4383SOL     OW14047   5.296   2.952   6.779
 4383SOL    HW114048   5.377   3.010   6.786
 4383SOL    HW214049   5.315   2.864   6.824
 4384SOL     OW14050   6.372   6.718   3.593
 4384SOL    HW114051   6.395   6.629   3.633
 4384SOL    HW214052   6.369   6.787   3.665
 4385SOL     OW14053   5.567   1.666   4.605
 4385SOL    HW114054   5.592   1.759   4.581
 4385SOL    HW214055   5.575   1.607   4.525
 4386SOL     OW14056   0.755   3.281   5.046
 4386SOL    HW114057   0.796   3.190   5.033
 4386SOL    HW214058   0.827   3.351   5.044
 4387SOL     OW14059   6.531   2.226   0.455
 4387SOL    HW114060   6.462   2.299   0.457
 4387SOL    HW214061   6.515   2.168   0.375
 4388SOL     OW14062   4.759   1.601   6.627
 4388SOL    HW114063   4.851   1.626   6.658
 4388SOL    HW214064   4.756   1.605   6.527
 4389SOL     OW14065   6.855   3.711   1.390
 4389SOL    HW114066   6.931   3.774   1.377
 4389SOL    HW214067   6.889   3.618   1.402
 4390SOL     OW14068   6.018   0.863   1.477
 4390SOL    HW114069   6.030   0.785   1.539
 4390SOL    HW214070   5.946   0.843   1.412
 4391SOL     OW14071   2.243   5.849   6.060
 4391SOL    HW114072   2.210   5.799   5.980
 4391SOL    HW214073   2.217   5.801   6.143
 4392SOL     OW14074   1.816   2.678   4.901
 4392SOL    HW114075   1.800   2.624   4.818
 4392SOL    HW214076   1.899   2.646   4.946
 4393SOL     OW14077   4.981   6.779   1.839
 4393SOL    HW114078   5.035   6.805   1.919
 4393SOL    HW214079   5.006   6.687   1.810
 4394SOL     OW14080   1.378   0.436   1.413
 4394SOL    HW114081   1.367   0.450   1.511
 4394SOL    HW214082   1.469   0.468   1.385
 4395SOL     OW14083   2.683   5.718   1.104
 4395SOL    HW114084   2.680   5.626   1.064
 4395SOL    HW214085   2.755   5.721   1.174
 4396SOL     OW14086   2.060   0.621   3.593
 4396SOL    HW114087   2.100   0.565   3.665
 4396SOL    HW214088   2.108   0.709   3.588
 4397SOL     OW14089   3.187   1.831   3.987
 4397SOL    HW114090   3.184   1.930   3.973
 4397SOL    HW214091   3.242   1.811   4.068
 4398SOL     OW14092   2.154   2.732   5.688
 4398SOL    HW114093   2.226   2.667   5.713
 4398SOL    HW214094   2.160   2.813   5.746
 4399SOL     OW14095   3.099   6.696   2.339
 4399SOL    HW114096   3.027   6.650   2.391
 4399SOL    HW214097   3.058   6.746   2.263
 4400SOL     OW14098   2.334   5.799   5.001
 4400SOL    HW114099   2.326   5.894   5.032
 4400SOL    HW214100   2.430   5.771   5.003
 4401SOL     OW14101   3.685   6.912   5.981
 4401SOL    HW114102   3.658   6.892   6.075
 4401SOL    HW214103   3.614   6.967   5.937
 4402SOL     OW14104   1.056   0.231   3.252
 4402SOL    HW114105   1.107   0.246   3.338
 4402SOL    HW214106   1.101   0.159   3.200
 4403SOL     OW14107   1.360   4.699   1.317
 4403SOL    HW114108   1.281   4.641   1.338
 4403SOL    HW214109   1.381   4.756   1.396
 4404SOL     OW14110   0.430   6.032   6.516
 4404SOL    HW114111   0.508   6.089   6.490
 4404SOL    HW214112   0.427   5.951   6.458
 4405SOL     OW14113   1.866   4.877   3.656
 4405SOL    HW114114   1.846   4.972   3.678
 4405SOL    HW214115   1.785   4.821   3.672
 4406SOL     OW14116   5.947   3.551   2.240
 4406SOL    HW114117   5.954   3.590   2.331
 4406SOL    HW214118   5.947   3.625   2.172
 4407SOL     OW14119   6.269   6.190   2.126
 4407SOL    HW114120   6.339   6.190   2.054
 4407SOL    HW214121   6.180   6.211   2.086
 4408SOL     OW14122   4.115   0.300   1.276
 4408SOL    HW114123   4.179   0.233   1.314
 4408SOL    HW214124   4.044   0.320   1.343
 4409SOL     OW14125   3.954   0.968   2.339
 4409SOL    HW114126   4.023   0.979   2.268
 4409SOL    HW214127   3.873   1.023   2.315
 4410SOL     OW14128   0.884   5.865   1.297
 4410SOL    HW114129   0.877   5.964   1.304
 4410SOL    HW214130   0.924   5.828   1.381
 4411SOL     OW14131   3.287   4.515   5.380
 4411SOL    HW114132   3.196   4.474   5.369
 4411SOL    HW214133   3.320   4.496   5.472
 4412SOL     OW14134   4.763   6.223   2.292
 4412SOL    HW114135   4.766   6.216   2.392
 4412SOL    HW214136   4.759   6.319   2.265
 4413SOL     OW14137   4.125   6.578   3.640
 4413SOL    HW114138   4.028   6.590   3.662
 4413SOL    HW214139   4.174   6.545   3.721
 4414SOL     OW14140   4.768   4.152   1.384
 4414SOL    HW114141   4.820   4.235   1.404
 4414SOL    HW214142   4.676   4.176   1.352
 4415SOL     OW14143   3.287   3.592   1.493
 4415SOL    HW114144   3.272   3.511   1.550
 4415SOL    HW214145   3.213   3.658   1.508
 4416SOL     OW14146   4.651   2.645   3.295
 4416SOL    HW114147   4.682   2.644   3.390
 4416SOL    HW214148   4.630   2.739   3.268
 4417SOL     OW14149   0.830   3.863   3.502
 4417SOL    HW114150   0.742   3.875   3.457
 4417SOL    HW214151   0.841   3.767   3.529
 4418SOL     OW14152   6.307   6.884   0.300
 4418SOL    HW114153   6.258   6.949   0.357
 4418SOL    HW214154   6.386   6.929   0.257
 4419SOL     OW14155   6.700   6.018   6.645
 4419SOL    HW114156   6.664   5.989   6.557
 4419SOL    HW214157   6.708   6.118   6.647
 4420SOL     OW14158   3.713   2.414   0.939
 4420SOL    HW114159   3.794   2.459   0.900
 4420SOL    HW214160   3.646   2.483   0.965
 4421SOL     OW14161   1.369   2.705   4.762
 4421SOL    HW114162   1.417   2.694   4.849
 4421SOL    HW214163   1.371   2.801   4.735
 4422SOL     OW14164   0.123   4.539   7.018
 4422SOL    HW114165   0.128   4.486   0.083
 4422SOL    HW214166   0.211   4.584   7.002
 4423SOL     OW14167   5.284   3.922   4.940
 4423SOL    HW114168   5.335   3.876   4.867
 4423SOL    HW214169   5.239   3.853   4.998
 4424SOL     OW14170   4.750   5.747   3.630
 4424SOL    HW114171   4.740   5.797   3.716
 4424SOL    HW214172   4.845   5.752   3.599
 4425SOL     OW14173   1.448   5.915   1.523
 4425SOL    HW114174   1.402   5.967   1.451
 4425SOL    HW214175   1.517   5.855   1.482
 4426SOL     OW14176   0.982   6.951   3.996
 4426SOL    HW114177   1.044   6.880   3.961
 4426SOL    HW214178   0.979   0.007   3.931
 4427SOL     OW14179   3.279   6.073   2.956
 4427SOL    HW114180   3.309   6.163   2.988
 4427SOL    HW214181   3.196   6.047   3.004
 4428SOL     OW14182   6.046   0.647   4.193
 4428SOL    HW114183   6.008   0.628   4.284
 4428SOL    HW214184   6.146   0.646   4.198
 4429SOL     OW14185   2.304   6.379   3.617
 4429SOL    HW114186   2.249   6.454   3.580
 4429SOL    HW214187   2.373   6.352   3.550
 4430SOL     OW14188   5.137   4.380   5.052
 4430SOL    HW114189   5.074   4.310   5.019
 4430SOL    HW214190   5.135   4.458   4.990
 4431SOL     OW14191   3.332   0.338   4.335
 4431SOL    HW114192   3.313   0.370   4.428
 4431SOL    HW214193   3.418   0.378   4.303
 4432SOL     OW14194   1.285   3.827   6.358
 4432SOL    HW114195   1.224   3.803   6.282
 4432SOL    HW214196   1.258   3.917   6.395
 4433SOL     OW14197   1.048   0.819   4.978
 4433SOL    HW114198   1.120   0.761   5.018
 4433SOL    HW214199   1.016   0.778   4.893
 4434SOL     OW14200   6.795   0.731   1.860
 4434SOL    HW114201   6.765   0.718   1.955
 4434SOL    HW214202   6.784   0.827   1.835
 4435SOL     OW14203   2.463   3.871   0.502
 4435SOL    HW114204   2.483   3.858   0.405
 4435SOL    HW214205   2.402   3.798   0.533
 4436SOL     OW14206   4.442   1.514   1.541
 4436SOL    HW114207   4.474   1.532   1.448
 4436SOL    HW214208   4.364   1.573   1.562
 4437SOL     OW14209   0.032   3.940   1.353
 4437SOL    HW114210   0.053   3.915   1.258
 4437SOL    HW214211   0.118   3.947   1.405
 4438SOL     OW14212   3.782   0.259   5.907
 4438SOL    HW114213   3.867   0.312   5.912
 4438SOL    HW214214   3.783   0.202   5.825
 4439SOL     OW14215   2.125   6.390   1.916
 4439SOL    HW114216   2.069   6.431   1.844
 4439SOL    HW214217   2.210   6.442   1.927
 4440SOL     OW14218   1.474   4.897   0.004
 4440SOL    HW114219   1.476   4.928   0.099
 4440SOL    HW214220   1.513   4.967   6.965
 4441SOL     OW14221   0.176   1.052   0.380
 4441SOL    HW114222   0.084   1.024   0.354
 4441SOL    HW214223   0.213   0.989   0.447
 4442SOL     OW14224   2.337   4.464   6.512
 4442SOL    HW114225   2.239   4.483   6.523
 4442SOL    HW214226   2.350   4.395   6.440
 4443SOL     OW14227   0.012   5.307   5.973
 4443SOL    HW114228   0.108   5.298   5.998
 4443SOL    HW214229   7.019   5.389   5.917
 4444SOL     OW14230   5.224   4.023   0.083
 4444SOL    HW114231   5.290   3.973   0.028
 4444SOL    HW214232   5.157   4.068   0.024
 4445SOL     OW14233   0.146   5.918   0.542
 4445SOL    HW114234   0.142   5.933   0.443
 4445SOL    HW214235   0.055   5.899   0.577
 4446SOL     OW14236   5.330   1.033   1.219
 4446SOL    HW114237   5.377   1.081   1.145
 4446SOL    HW214238   5.244   1.079   1.240
 4447SOL     OW14239   5.166   5.170   5.809
 4447SOL    HW114240   5.075   5.203   5.832
 4447SOL    HW214241   5.233   5.244   5.823
 4448SOL     OW14242   3.642   6.620   2.146
 4448SOL    HW114243   3.565   6.556   2.144
 4448SOL    HW214244   3.726   6.571   2.122
 4449SOL     OW14245   3.427   1.141   5.714
 4449SOL    HW114246   3.384   1.216   5.664
 4449SOL    HW214247   3.503   1.176   5.768
 4450SOL     OW14248   3.718   6.873   0.164
 4450SOL    HW114249   3.767   6.955   0.133
 4450SOL    HW214250   3.635   6.862   0.110
 4451SOL     OW14251   4.695   4.233   3.026
 4451SOL    HW114252   4.639   4.188   2.956
 4451SOL    HW214253   4.770   4.172   3.053
 4452SOL     OW14254   4.791   5.873   4.617
 4452SOL    HW114255   4.731   5.892   4.694
 4452SOL    HW214256   4.886   5.891   4.643
 4453SOL     OW14257   6.996   3.564   1.089
 4453SOL    HW114258   0.023   3.541   1.003
 4453SOL    HW214259   6.967   3.659   1.087
 4454SOL     OW14260   0.885   2.631   0.026
 4454SOL    HW114261   0.897   2.679   0.113
 4454SOL    HW214262   0.864   2.697   6.974
 4455SOL     OW14263   0.440   6.415   5.193
 4455SOL    HW114264   0.513   6.349   5.171
 4455SOL    HW214265   0.404   6.396   5.284
 4456SOL     OW14266   2.067   6.809   4.891
 4456SOL    HW114267   2.008   6.816   4.810
 4456SOL    HW214268   2.157   6.845   4.869
 4457SOL     OW14269   0.601   2.286   4.830
 4457SOL    HW114270   0.647   2.296   4.918
 4457SOL    HW214271   0.534   2.359   4.818
 4458SOL     OW14272   1.867   3.330   0.455
 4458SOL    HW114273   1.931   3.386   0.404
 4458SOL    HW214274   1.913   3.246   0.486
 4459SOL     OW14275   1.082   2.440   3.385
 4459SOL    HW114276   1.090   2.416   3.288
 4459SOL    HW214277   1.152   2.507   3.408
 4460SOL     OW14278   6.811   3.530   4.129
 4460SOL    HW114279   6.738   3.485   4.077
 4460SOL    HW214280   6.772   3.601   4.187
 4461SOL     OW14281   2.545   0.843   1.365
 4461SOL    HW114282   2.600   0.779   1.311
 4461SOL    HW214283   2.537   0.809   1.459
 4462SOL     OW14284   6.379   4.550   3.028
 4462SOL    HW114285   6.439   4.479   3.064
 4462SOL    HW214286   6.315   4.579   3.100
 4463SOL     OW14287   5.813   1.797   0.652
 4463SOL    HW114288   5.881   1.749   0.596
 4463SOL    HW214289   5.808   1.755   0.742
 4464SOL     OW14290   0.556   5.775   0.444
 4464SOL    HW114291   0.599   5.843   0.384
 4464SOL    HW214292   0.537   5.692   0.392
 4465SOL     OW14293   2.520   5.949   1.261
 4465SOL    HW114294   2.423   5.942   1.237
 4465SOL    HW214295   2.534   5.914   1.353
 4466SOL     OW14296   1.735   1.740   3.426
 4466SOL    HW114297   1.661   1.792   3.468
 4466SOL    HW214298   1.815   1.739   3.487
 4467SOL     OW14299   4.184   6.031   2.795
 4467SOL    HW114300   4.268   6.036   2.849
 4467SOL    HW214301   4.115   5.977   2.844
 4468SOL     OW14302   1.308   2.973   1.294
 4468SOL    HW114303   1.368   2.986   1.215
 4468SOL    HW214304   1.312   3.054   1.353
 4469SOL     OW14305   3.239   6.265   0.801
 4469SOL    HW114306   3.158   6.209   0.818
 4469SOL    HW214307   3.319   6.207   0.788
 4470SOL     OW14308   1.220   0.601   2.457
 4470SOL    HW114309   1.282   0.579   2.381
 4470SOL    HW214310   1.131   0.560   2.440
 4471SOL     OW14311   1.310   1.376   6.069
 4471SOL    HW114312   1.382   1.426   6.117
 4471SOL    HW214313   1.343   1.346   5.980
 4472SOL     OW14314   1.473   2.528   0.661
 4472SOL    HW114315   1.448   2.435   0.688
 4472SOL    HW214316   1.522   2.572   0.737
 4473SOL     OW14317   0.081   3.346   4.564
 4473SOL    HW114318   0.156   3.371   4.503
 4473SOL    HW214319   0.009   3.300   4.511
 4474SOL     OW14320   3.026   6.184   1.200
 4474SOL    HW114321   3.071   6.252   1.142
 4474SOL    HW214322   2.931   6.174   1.173
 4475SOL     OW14323   1.197   3.435   1.307
 4475SOL    HW114324   1.219   3.531   1.292
 4475SOL    HW214325   1.116   3.428   1.366
 4476SOL     OW14326   4.808   1.234   3.850
 4476SOL    HW114327   4.812   1.146   3.803
 4476SOL    HW214328   4.712   1.264   3.856
 4477SOL     OW14329   1.666   0.744   5.528
 4477SOL    HW114330   1.729   0.681   5.573
 4477SOL    HW214331   1.584   0.754   5.584
 4478SOL     OW14332   1.571   0.236   0.623
 4478SOL    HW114333   1.568   0.137   0.608
 4478SOL    HW214334   1.517   0.282   0.553
 4479SOL     OW14335   1.820   3.007   0.510
 4479SOL    HW114336   1.734   3.020   0.560
 4479SOL    HW214337   1.886   2.961   0.569
 4480SOL     OW14338   0.806   5.635   4.348
 4480SOL    HW114339   0.731   5.626   4.283
 4480SOL    HW214340   0.893   5.617   4.302
 4481SOL     OW14341   2.596   3.762   6.206
 4481SOL    HW114342   2.500   3.732   6.207
 4481SOL    HW214343   2.616   3.807   6.119
 4482SOL     OW14344   2.929   5.727   6.859
 4482SOL    HW114345   2.994   5.652   6.851
 4482SOL    HW214346   2.977   5.814   6.853
 4483SOL     OW14347   0.596   3.155   1.517
 4483SOL    HW114348   0.689   3.151   1.480
 4483SOL    HW214349   0.592   3.223   1.590
 4484SOL     OW14350   2.327   2.632   6.979
 4484SOL    HW114351   2.423   2.640   7.006
 4484SOL    HW214352   2.270   2.625   0.041
 4485SOL     OW14353   5.400   2.642   5.095
 4485SOL    HW114354   5.323   2.681   5.146
 4485SOL    HW214355   5.371   2.623   5.001
 4486SOL     OW14356   4.699   5.119   5.535
 4486SOL    HW114357   4.701   5.049   5.607
 4486SOL    HW214358   4.790   5.159   5.525
 4487SOL     OW14359   1.332   2.990   0.096
 4487SOL    HW114360   1.259   3.019   0.035
 4487SOL    HW214361   1.417   2.980   0.044
 4488SOL     OW14362   6.933   3.818   4.352
 4488SOL    HW114363   6.918   3.896   4.291
 4488SOL    HW214364   6.966   3.851   4.440
 4489SOL     OW14365   4.535   5.384   5.856
 4489SOL    HW114366   4.571   5.313   5.917
 4489SOL    HW214367   4.550   5.357   5.761
 4490SOL     OW14368   4.854   1.535   1.085
 4490SOL    HW114369   4.878   1.604   1.153
 4490SOL    HW214370   4.883   1.564   0.994
 4491SOL     OW14371   0.999   2.716   3.072
 4491SOL    HW114372   0.905   2.743   3.093
 4491SOL    HW214373   0.999   2.624   3.033
 4492SOL     OW14374   5.907   0.791   1.792
 4492SOL    HW114375   5.988   0.759   1.842
 4492SOL    HW214376   5.839   0.717   1.789
 4493SOL     OW14377   4.851   1.622   4.488
 4493SOL    HW114378   4.906   1.555   4.538
 4493SOL    HW214379   4.762   1.582   4.465
 4494SOL     OW14380   1.000   0.097   0.906
 4494SOL    HW114381   1.021   0.195   0.913
 4494SOL    HW214382   1.086   0.046   0.898
 4495SOL     OW14383   4.660   5.410   1.692
 4495SOL    HW114384   4.567   5.428   1.662
 4495SOL    HW214385   4.711   5.364   1.619
 4496SOL     OW14386   3.515   6.243   6.530
 4496SOL    HW114387   3.430   6.193   6.519
 4496SOL    HW214388   3.536   6.293   6.446
 4497SOL     OW14389   3.960   1.694   6.440
 4497SOL    HW114390   3.960   1.794   6.448
 4497SOL    HW214391   4.004   1.668   6.354
 4498SOL     OW14392   1.447   5.652   5.475
 4498SOL    HW114393   1.369   5.615   5.525
 4498SOL    HW214394   1.464   5.598   5.393
 4499SOL     OW14395   6.029   2.245   2.025
 4499SOL    HW114396   5.941   2.209   1.994
 4499SOL    HW214397   6.098   2.173   2.021
 4500SOL     OW14398   3.610   5.991   6.862
 4500SOL    HW114399   3.512   5.990   6.878
 4500SOL    HW214400   3.647   6.081   6.885
 4501SOL     OW14401   5.048   0.928   2.919
 4501SOL    HW114402   4.952   0.903   2.910
 4501SOL    HW214403   5.059   0.988   2.999
 4502SOL     OW14404   0.720   3.931   6.763
 4502SOL    HW114405   0.651   3.955   6.831
 4502SOL    HW214406   0.676   3.882   6.688
 4503SOL     OW14407   2.501   0.497   2.636
 4503SOL    HW114408   2.491   0.581   2.582
 4503SOL    HW214409   2.546   0.427   2.581
 4504SOL     OW14410   0.574   2.350   2.985
 4504SOL    HW114411   0.525   2.289   2.923
 4504SOL    HW214412   0.540   2.337   3.078
 4505SOL     OW14413   6.330   4.402   4.045
 4505SOL    HW114414   6.240   4.359   4.037
 4505SOL    HW214415   6.319   4.497   4.075
 4506SOL     OW14416   4.688   2.832   4.748
 4506SOL    HW114417   4.706   2.756   4.811
 4506SOL    HW214418   4.601   2.875   4.771
 4507SOL     OW14419   6.263   2.474   3.215
 4507SOL    HW114420   6.282   2.378   3.192
 4507SOL    HW214421   6.240   2.481   3.312
 4508SOL     OW14422   0.464   5.146   0.858
 4508SOL    HW114423   0.477   5.122   0.955
 4508SOL    HW214424   0.525   5.221   0.834
 4509SOL     OW14425   4.765   2.861   2.314
 4509SOL    HW114426   4.861   2.835   2.306
 4509SOL    HW214427   4.730   2.888   2.224
 4510SOL     OW14428   4.027   1.812   4.425
 4510SOL    HW114429   4.085   1.835   4.347
 4510SOL    HW214430   4.070   1.844   4.509
 4511SOL     OW14431   0.646   4.185   0.729
 4511SOL    HW114432   0.729   4.224   0.769
 4511SOL    HW214433   0.613   4.244   0.655
 4512SOL     OW14434   3.185   2.753   5.967
 4512SOL    HW114435   3.237   2.758   5.881
 4512SOL    HW214436   3.249   2.748   6.044
 4513SOL     OW14437   1.139   6.314   0.280
 4513SOL    HW114438   1.194   6.393   0.305
 4513SOL    HW214439   1.183   6.231   0.314
 4514SOL     OW14440   3.158   4.501   6.971
 4514SOL    HW114441   3.151   4.428   6.902
 4514SOL    HW214442   3.239   4.486   0.007
 4515SOL     OW14443   4.470   0.659   6.032
 4515SOL    HW114444   4.438   0.737   5.978
 4515SOL    HW214445   4.463   0.681   6.129
 4516SOL     OW14446   3.552   2.040   4.839
 4516SOL    HW114447   3.625   2.037   4.907
 4516SOL    HW214448   3.465   2.059   4.885
 4517SOL     OW14449   3.574   0.757   5.435
 4517SOL    HW114450   3.620   0.744   5.347
 4517SOL    HW214451   3.573   0.854   5.458
 4518SOL     OW14452   1.708   0.112   1.035
 4518SOL    HW114453   1.726   0.206   1.005
 4518SOL    HW214454   1.779   0.082   1.098
 4519SOL     OW14455   5.071   6.610   6.834
 4519SOL    HW114456   5.160   6.581   6.799
 4519SOL    HW214457   5.023   6.532   6.875
 4520SOL     OW14458   4.532   5.989   4.962
 4520SOL    HW114459   4.585   5.922   4.909
 4520SOL    HW214460   4.437   5.959   4.969
 4521SOL     OW14461   4.154   2.219   4.403
 4521SOL    HW114462   4.139   2.244   4.308
 4521SOL    HW214463   4.218   2.142   4.408
 4522SOL     OW14464   5.098   4.377   3.217
 4522SOL    HW114465   5.119   4.279   3.208
 4522SOL    HW214466   5.062   4.411   3.131
 4523SOL     OW14467   0.236   3.384   5.722
 4523SOL    HW114468   0.318   3.378   5.778
 4523SOL    HW214469   0.218   3.479   5.699
 4524SOL     OW14470   0.914   3.204   2.708
 4524SOL    HW114471   0.930   3.289   2.758
 4524SOL    HW214472   0.992   3.143   2.720
 4525SOL     OW14473   2.871   1.716   4.943
 4525SOL    HW114474   2.933   1.765   5.004
 4525SOL    HW214475   2.811   1.657   4.996
 4526SOL     OW14476   0.416   0.122   5.711
 4526SOL    HW114477   0.406   0.039   5.766
 4526SOL    HW214478   0.503   0.166   5.734
 4527SOL     OW14479   6.643   0.808   2.870
 4527SOL    HW114480   6.561   0.756   2.844
 4527SOL    HW214481   6.722   0.771   2.820
 4528SOL     OW14482   4.292   1.028   5.026
 4528SOL    HW114483   4.208   1.058   4.981
 4528SOL    HW214484   4.270   0.968   5.102
 4529SOL     OW14485   2.218   1.048   4.437
 4529SOL    HW114486   2.240   1.145   4.430
 4529SOL    HW214487   2.283   0.995   4.382
 4530SOL     OW14488   3.393   5.473   5.881
 4530SOL    HW114489   3.421   5.475   5.977
 4530SOL    HW214490   3.293   5.476   5.876
 4531SOL     OW14491   0.941   5.502   5.958
 4531SOL    HW114492   1.031   5.477   5.994
 4531SOL    HW214493   0.950   5.535   5.864
 4532SOL     OW14494   5.954   0.877   2.635
 4532SOL    HW114495   6.012   0.830   2.701
 4532SOL    HW214496   5.970   0.838   2.544
 4533SOL     OW14497   2.902   0.422   2.258
 4533SOL    HW114498   2.938   0.363   2.186
 4533SOL    HW214499   2.816   0.384   2.292
 4534SOL     OW14500   4.430   1.564   3.843
 4534SOL    HW114501   4.462   1.656   3.865
 4534SOL    HW214502   4.388   1.565   3.752
 4535SOL     OW14503   2.668   1.126   1.127
 4535SOL    HW114504   2.759   1.088   1.140
 4535SOL    HW214505   2.672   1.202   1.061
 4536SOL     OW14506   2.775   0.771   5.702
 4536SOL    HW114507   2.680   0.754   5.728
 4536SOL    HW214508   2.781   0.855   5.647
 4537SOL     OW14509   3.587   2.910   3.659
 4537SOL    HW114510   3.556   2.852   3.584
 4537SOL    HW214511   3.669   2.960   3.631
 4538SOL     OW14512   0.126   1.937   0.786
 4538SOL    HW114513   0.199   2.004   0.795
 4538SOL    HW214514   0.039   1.985   0.770
 4539SOL     OW14515   1.821   6.278   5.306
 4539SOL    HW114516   1.892   6.335   5.264
 4539SOL    HW214517   1.768   6.233   5.235
 4540SOL     OW14518   0.487   0.676   7.015
 4540SOL    HW114519   0.484   0.702   0.092
 4540SOL    HW214520   0.571   0.711   6.974
 4541SOL     OW14521   4.544   2.872   6.088
 4541SOL    HW114522   4.558   2.823   6.174
 4541SOL    HW214523   4.513   2.808   6.018
 4542SOL     OW14524   6.228   2.246   1.130
 4542SOL    HW114525   6.256   2.150   1.127
 4542SOL    HW214526   6.294   2.298   1.184
 4543SOL     OW14527   3.062   2.207   0.134
 4543SOL    HW114528   3.008   2.277   0.089
 4543SOL    HW214529   3.003   2.151   0.192
 4544SOL     OW14530   5.692   6.350   0.263
 4544SOL    HW114531   5.662   6.345   0.168
 4544SOL    HW214532   5.687   6.259   0.304
 4545SOL     OW14533   2.204   2.851   4.884
 4545SOL    HW114534   2.243   2.924   4.940
 4545SOL    HW214535   2.274   2.816   4.821
 4546SOL     OW14536   3.155   1.489   6.410
 4546SOL    HW114537   3.064   1.447   6.420
 4546SOL    HW214538   3.156   1.576   6.460
 4547SOL     OW14539   6.446   0.434   6.933
 4547SOL    HW114540   6.385   0.510   6.959
 4547SOL    HW214541   6.540   0.467   6.929
 4548SOL     OW14542   2.474   2.394   2.313
 4548SOL    HW114543   2.375   2.390   2.299
 4548SOL    HW214544   2.521   2.394   2.225
 4549SOL     OW14545   6.123   4.002   3.903
 4549SOL    HW114546   6.187   3.941   3.856
 4549SOL    HW214547   6.034   3.997   3.858
 4550SOL     OW14548   1.516   4.542   3.148
 4550SOL    HW114549   1.577   4.608   3.106
 4550SOL    HW214550   1.476   4.483   3.078
 4551SOL     OW14551   1.228   3.104   4.427
 4551SOL    HW114552   1.248   3.141   4.517
 4551SOL    HW214553   1.154   3.037   4.434
 4552SOL     OW14554   5.767   1.194   0.947
 4552SOL    HW114555   5.810   1.151   1.027
 4552SOL    HW214556   5.712   1.126   0.899
 4553SOL     OW14557   6.820   5.314   6.467
 4553SOL    HW114558   6.737   5.271   6.432
 4553SOL    HW214559   6.897   5.291   6.407
 4554SOL     OW14560   6.581   6.209   3.003
 4554SOL    HW114561   6.578   6.121   2.957
 4554SOL    HW214562   6.604   6.196   3.100
 4555SOL     OW14563   1.648   1.002   6.753
 4555SOL    HW114564   1.622   0.912   6.789
 4555SOL    HW214565   1.566   1.049   6.720
 4556SOL     OW14566   5.876   4.549   5.524
 4556SOL    HW114567   5.787   4.504   5.523
 4556SOL    HW214568   5.876   4.623   5.457
 4557SOL     OW14569   6.767   4.501   2.833
 4557SOL    HW114570   6.738   4.494   2.738
 4557SOL    HW214571   6.734   4.421   2.884
 4558SOL     OW14572   0.753   3.070   5.544
 4558SOL    HW114573   0.676   3.111   5.496
 4558SOL    HW214574   0.827   3.050   5.480
 4559SOL     OW14575   0.151   2.377   2.387
 4559SOL    HW114576   0.201   2.320   2.323
 4559SOL    HW214577   0.203   2.462   2.402
 4560SOL     OW14578   6.262   4.359   2.861
 4560SOL    HW114579   6.213   4.308   2.931
 4560SOL    HW214580   6.337   4.411   2.903
 4561SOL     OW14581   3.910   2.197   3.960
 4561SOL    HW114582   3.907   2.244   3.872
 4561SOL    HW214583   3.850   2.117   3.958
 4562SOL     OW14584   2.897   1.006   1.212
 4562SOL    HW114585   2.879   0.986   1.309
 4562SOL    HW214586   2.955   0.934   1.174
 4563SOL     OW14587   1.111   3.910   1.740
 4563SOL    HW114588   1.022   3.953   1.754
 4563SOL    HW214589   1.105   3.813   1.761
 4564SOL     OW14590   1.082   3.671   2.372
 4564SOL    HW114591   1.099   3.697   2.278
 4564SOL    HW214592   1.032   3.585   2.375
 4565SOL     OW14593   2.391   5.818   6.437
 4565SOL    HW114594   2.483   5.823   6.399
 4565SOL    HW214595   2.364   5.908   6.471
 4566SOL     OW14596   6.034   4.692   2.220
 4566SOL    HW114597   6.074   4.730   2.303
 4566SOL    HW214598   5.940   4.724   2.211
 4567SOL     OW14599   0.425   0.671   6.629
 4567SOL    HW114600   0.458   0.742   6.567
 4567SOL    HW214601   0.370   0.605   6.577
 4568SOL     OW14602   1.139   5.677   3.579
 4568SOL    HW114603   1.124   5.764   3.627
 4568SOL    HW214604   1.234   5.672   3.550
 4569SOL     OW14605   2.255   0.837   3.488
 4569SOL    HW114606   2.199   0.829   3.406
 4569SOL    HW214607   2.308   0.922   3.484
 4570SOL     OW14608   5.369   5.741   2.084
 4570SOL    HW114609   5.357   5.788   1.996
 4570SOL    HW214610   5.398   5.647   2.067
 4571SOL     OW14611   2.910   3.255   6.418
 4571SOL    HW114612   2.936   3.325   6.352
 4571SOL    HW214613   2.975   3.178   6.413
 4572SOL     OW14614   2.828   3.161   1.810
 4572SOL    HW114615   2.795   3.225   1.740
 4572SOL    HW214616   2.851   3.074   1.766
 4573SOL     OW14617   1.997   5.606   1.672
 4573SOL    HW114618   1.998   5.677   1.742
 4573SOL    HW214619   2.077   5.547   1.684
 4574SOL     OW14620   5.275   1.462   1.103
 4574SOL    HW114621   5.218   1.465   1.021
 4574SOL    HW214622   5.337   1.541   1.104
 4575SOL     OW14623   0.089   6.287   4.755
 4575SOL    HW114624   0.099   6.360   4.687
 4575SOL    HW214625   0.170   6.285   4.813
 4576SOL     OW14626   2.665   4.910   4.923
 4576SOL    HW114627   2.750   4.885   4.876
 4576SOL    HW214628   2.633   4.831   4.975
 4577SOL     OW14629   1.874   1.699   2.200
 4577SOL    HW114630   1.910   1.789   2.222
 4577SOL    HW214631   1.932   1.657   2.130
 4578SOL     OW14632   1.322   1.197   2.285
 4578SOL    HW114633   1.290   1.118   2.233
 4578SOL    HW214634   1.244   1.247   2.323
 4579SOL     OW14635   3.950   1.671   2.283
 4579SOL    HW114636   3.851   1.685   2.287
 4579SOL    HW214637   3.996   1.759   2.289
 4580SOL     OW14638   0.067   2.575   0.273
 4580SOL    HW114639   6.992   2.594   0.249
 4580SOL    HW214640   0.128   2.630   0.215
 4581SOL     OW14641   3.442   0.523   1.287
 4581SOL    HW114642   3.491   0.607   1.310
 4581SOL    HW214643   3.493   0.444   1.321
 4582SOL     OW14644   5.967   1.294   3.857
 4582SOL    HW114645   6.007   1.373   3.811
 4582SOL    HW214646   5.874   1.280   3.825
 4583SOL     OW14647   1.383   0.169   6.657
 4583SOL    HW114648   1.318   0.197   6.587
 4583SOL    HW214649   1.471   0.149   6.616
 4584SOL     OW14650   1.629   0.540   5.298
 4584SOL    HW114651   1.597   0.473   5.364
 4584SOL    HW214652   1.656   0.624   5.345
 4585SOL     OW14653   1.734   3.650   3.300
 4585SOL    HW114654   1.717   3.729   3.241
 4585SOL    HW214655   1.704   3.566   3.254
 4586SOL     OW14656   5.325   4.542   6.620
 4586SOL    HW114657   5.290   4.612   6.557
 4586SOL    HW214658   5.424   4.553   6.629
 4587SOL     OW14659   2.947   3.742   4.521
 4587SOL    HW114660   2.917   3.695   4.438
 4587SOL    HW214661   2.887   3.717   4.597
 4588SOL     OW14662   3.240   3.836   5.846
 4588SOL    HW114663   3.201   3.810   5.758
 4588SOL    HW214664   3.228   3.761   5.911
 4589SOL     OW14665   5.672   0.482   2.555
 4589SOL    HW114666   5.614   0.531   2.620
 4589SOL    HW214667   5.731   0.418   2.604
 4590SOL     OW14668   3.471   5.764   1.071
 4590SOL    HW114669   3.539   5.768   0.997
 4590SOL    HW214670   3.385   5.804   1.040
 4591SOL     OW14671   1.887   0.603   5.630
 4591SOL    HW114672   1.928   0.694   5.636
 4591SOL    HW214673   1.948   0.542   5.580
 4592SOL     OW14674   2.040   1.413   3.825
 4592SOL    HW114675   1.972   1.348   3.792
 4592SOL    HW214676   1.996   1.499   3.848
 4593SOL     OW14677   1.972   5.999   4.441
 4593SOL    HW114678   1.893   5.941   4.459
 4593SOL    HW214679   1.968   6.081   4.498
 4594SOL     OW14680   1.927   0.415   2.802
 4594SOL    HW114681   1.991   0.348   2.764
 4594SOL    HW214682   1.865   0.369   2.866
 4595SOL     OW14683   4.962   2.178   6.459
 4595SOL    HW114684   5.052   2.217   6.439
 4595SOL    HW214685   4.920   2.230   6.533
 4596SOL     OW14686   0.404   0.966   2.753
 4596SOL    HW114687   0.394   1.063   2.731
 4596SOL    HW214688   0.350   0.911   2.690
 4597SOL     OW14689   2.928   6.426   6.861
 4597SOL    HW114690   2.871   6.481   6.799
 4597SOL    HW214691   2.946   6.478   6.945
 4598SOL     OW14692   2.043   5.085   0.392
 4598SOL    HW114693   2.032   5.049   0.484
 4598SOL    HW214694   2.005   5.020   0.326
 4599SOL     OW14695   2.481   5.506   2.707
 4599SOL    HW114696   2.383   5.514   2.689
 4599SOL    HW214697   2.529   5.494   2.620
 4600SOL     OW14698   0.103   6.938   6.007
 4600SOL    HW114699   0.023   6.988   6.042
 4600SOL    HW214700   0.113   6.852   6.058
 4601SOL     OW14701   1.726   1.327   4.643
 4601SOL    HW114702   1.816   1.310   4.604
 4601SOL    HW214703   1.736   1.353   4.739
 4602SOL     OW14704   2.826   2.151   6.550
 4602SOL    HW114705   2.828   2.249   6.569
 4602SOL    HW214706   2.909   2.109   6.584
 4603SOL     OW14707   5.153   6.858   0.837
 4603SOL    HW114708   5.091   6.933   0.859
 4603SOL    HW214709   5.126   6.817   0.750
 4604SOL     OW14710   5.734   0.094   5.727
 4604SOL    HW114711   5.669   0.169   5.712
 4604SOL    HW214712   5.751   0.048   5.641
 4605SOL     OW14713   3.591   0.494   1.870
 4605SOL    HW114714   3.650   0.413   1.880
 4605SOL    HW214715   3.506   0.468   1.825
 4606SOL     OW14716   0.046   6.651   4.472
 4606SOL    HW114717   6.982   6.613   4.512
 4606SOL    HW214718   0.126   6.606   4.511
 4607SOL     OW14719   2.165   2.615   1.260
 4607SOL    HW114720   2.189   2.533   1.310
 4607SOL    HW214721   2.078   2.651   1.292
 4608SOL     OW14722   6.597   3.246   4.269
 4608SOL    HW114723   6.565   3.310   4.339
 4608SOL    HW214724   6.614   3.295   4.183
 4609SOL     OW14725   4.327   6.337   6.861
 4609SOL    HW114726   4.321   6.384   6.950
 4609SOL    HW214727   4.413   6.287   6.856
 4610SOL     OW14728   5.087   3.289   0.263
 4610SOL    HW114729   5.143   3.314   0.343
 4610SOL    HW214730   5.143   3.237   0.199
 4611SOL     OW14731   1.196   0.729   6.329
 4611SOL    HW114732   1.153   0.640   6.311
 4611SOL    HW214733   1.150   0.773   6.406
 4612SOL     OW14734   2.275   0.274   1.360
 4612SOL    HW114735   2.209   0.302   1.430
 4612SOL    HW214736   2.347   0.343   1.352
 4613SOL     OW14737   1.632   4.771   1.638
 4613SOL    HW114738   1.631   4.717   1.722
 4613SOL    HW214739   1.656   4.712   1.560
 4614SOL     OW14740   6.167   4.190   4.319
 4614SOL    HW114741   6.110   4.244   4.381
 4614SOL    HW214742   6.244   4.151   4.370
 4615SOL     OW14743   1.021   2.367   0.411
 4615SOL    HW114744   1.091   2.296   0.410
 4615SOL    HW214745   1.059   2.452   0.372
 4616SOL     OW14746   6.439   2.826   5.749
 4616SOL    HW114747   6.525   2.818   5.698
 4616SOL    HW214748   6.386   2.903   5.714
 4617SOL     OW14749   0.132   3.013   3.143
 4617SOL    HW114750   0.074   3.043   3.068
 4617SOL    HW214751   0.227   3.011   3.113
 4618SOL     OW14752   1.984   4.818   5.469
 4618SOL    HW114753   2.020   4.753   5.402
 4618SOL    HW214754   1.974   4.772   5.557
 4619SOL     OW14755   4.155   6.327   5.437
 4619SOL    HW114756   4.213   6.261   5.390
 4619SOL    HW214757   4.138   6.405   5.378
 4620SOL     OW14758   0.228   5.033   2.214
 4620SOL    HW114759   0.142   5.032   2.265
 4620SOL    HW214760   0.210   5.058   2.119
 4621SOL     OW14761   4.167   0.658   3.265
 4621SOL    HW114762   4.257   0.701   3.261
 4621SOL    HW214763   4.177   0.558   3.262
 4622SOL     OW14764   5.059   5.823   1.559
 4622SOL    HW114765   5.042   5.848   1.654
 4622SOL    HW214766   5.099   5.901   1.511
 4623SOL     OW14767   2.839   4.884   1.285
 4623SOL    HW114768   2.877   4.867   1.376
 4623SOL    HW214769   2.811   4.980   1.279
 4624SOL     OW14770   4.456   1.020   2.095
 4624SOL    HW114771   4.403   0.936   2.105
 4624SOL    HW214772   4.409   1.095   2.141
 4625SOL     OW14773   1.462   5.859   1.185
 4625SOL    HW114774   1.365   5.861   1.210
 4625SOL    HW214775   1.471   5.872   1.086
 4626SOL     OW14776   4.124   3.740   1.803
 4626SOL    HW114777   4.215   3.731   1.763
 4626SOL    HW214778   4.073   3.812   1.755
 4627SOL     OW14779   5.919   6.643   5.118
 4627SOL    HW114780   5.839   6.633   5.058
 4627SOL    HW214781   5.970   6.557   5.120
 4628SOL     OW14782   5.488   4.963   4.342
 4628SOL    HW114783   5.507   4.973   4.439
 4628SOL    HW214784   5.432   4.881   4.327
 4629SOL     OW14785   2.063   6.047   6.554
 4629SOL    HW114786   2.080   5.965   6.609
 4629SOL    HW214787   1.976   6.037   6.506
 4630SOL     OW14788   1.597   3.298   2.180
 4630SOL    HW114789   1.581   3.336   2.089
 4630SOL    HW214790   1.678   3.341   2.220
 4631SOL     OW14791   6.996   0.941   3.544
 4631SOL    HW114792   6.898   0.930   3.560
 4631SOL    HW214793   0.023   0.954   3.631
 4632SOL     OW14794   3.180   4.986   2.515
 4632SOL    HW114795   3.111   5.006   2.584
 4632SOL    HW214796   3.268   4.971   2.559
 4633SOL     OW14797   5.313   0.996   4.345
 4633SOL    HW114798   5.411   1.015   4.352
 4633SOL    HW214799   5.261   1.074   4.382
 4634SOL     OW14800   2.927   3.596   4.806
 4634SOL    HW114801   2.951   3.690   4.827
 4634SOL    HW214802   2.890   3.551   4.887
 4635SOL     OW14803   5.103   6.521   1.077
 4635SOL    HW114804   5.180   6.571   1.117
 4635SOL    HW214805   5.049   6.480   1.150
 4636SOL     OW14806   2.301   5.541   0.433
 4636SOL    HW114807   2.256   5.471   0.489
 4636SOL    HW214808   2.372   5.499   0.378
 4637SOL     OW14809   2.379   1.175   2.842
 4637SOL    HW114810   2.323   1.184   2.760
 4637SOL    HW214811   2.368   1.257   2.899
 4638SOL     OW14812   3.228   4.848   0.192
 4638SOL    HW114813   3.312   4.826   0.143
 4638SOL    HW214814   3.164   4.893   0.130
 4639SOL     OW14815   2.640   2.173   1.117
 4639SOL    HW114816   2.573   2.232   1.165
 4639SOL    HW214817   2.731   2.212   1.127
 4640SOL     OW14818   6.586   2.662   6.745
 4640SOL    HW114819   6.628   2.750   6.769
 4640SOL    HW214820   6.570   2.609   6.829
 4641SOL     OW14821   1.018   5.531   4.172
 4641SOL    HW114822   1.070   5.463   4.224
 4641SOL    HW214823   1.062   5.544   4.083
 4642SOL     OW14824   0.096   1.365   3.741
 4642SOL    HW114825   0.055   1.435   3.799
 4642SOL    HW214826   0.195   1.376   3.739
 4643SOL     OW14827   0.394   1.789   0.180
 4643SOL    HW114828   0.433   1.772   0.270
 4643SOL    HW214829   0.425   1.718   0.117
 4644SOL     OW14830   1.332   0.986   0.399
 4644SOL    HW114831   1.421   1.031   0.393
 4644SOL    HW214832   1.259   1.053   0.389
 4645SOL     OW14833   0.891   1.724   3.825
 4645SOL    HW114834   0.938   1.770   3.901
 4645SOL    HW214835   0.831   1.788   3.779
 4646SOL     OW14836   2.114   4.707   3.918
 4646SOL    HW114837   2.051   4.716   3.995
 4646SOL    HW214838   2.085   4.767   3.844
 4647SOL     OW14839   1.476   6.284   2.254
 4647SOL    HW114840   1.488   6.192   2.290
 4647SOL    HW214841   1.559   6.338   2.271
 4648SOL     OW14842   2.850   1.631   4.479
 4648SOL    HW114843   2.793   1.599   4.555
 4648SOL    HW214844   2.936   1.580   4.477
 4649SOL     OW14845   5.742   0.547   0.017
 4649SOL    HW114846   5.666   0.582   0.072
 4649SOL    HW214847   5.706   0.495   6.960
 4650SOL     OW14848   5.371   6.238   1.245
 4650SOL    HW114849   5.395   6.175   1.171
 4650SOL    HW214850   5.445   6.303   1.259
 4651SOL     OW14851   6.404   3.450   6.528
 4651SOL    HW114852   6.344   3.529   6.530
 4651SOL    HW214853   6.414   3.418   6.433
 4652SOL     OW14854   0.244   6.459   4.532
 4652SOL    HW114855   0.327   6.431   4.581
 4652SOL    HW214856   0.239   6.412   4.444
 4653SOL     OW14857   5.569   5.577   0.545
 4653SOL    HW114858   5.503   5.540   0.480
 4653SOL    HW214859   5.520   5.618   0.622
 4654SOL     OW14860   0.129   6.755   5.082
 4654SOL    HW114861   0.041   6.732   5.124
 4654SOL    HW214862   0.148   6.691   5.008
 4655SOL     OW14863   4.439   2.357   1.364
 4655SOL    HW114864   4.359   2.402   1.404
 4655SOL    HW214865   4.416   2.322   1.273
 4656SOL     OW14866   0.805   1.103   1.946
 4656SOL    HW114867   0.785   1.133   1.853
 4656SOL    HW214868   0.732   1.133   2.007
 4657SOL     OW14869   5.205   0.070   1.952
 4657SOL    HW114870   5.188   7.001   1.995
 4657SOL    HW214871   5.301   0.094   1.963
 4658SOL     OW14872   1.656   2.657   5.880
 4658SOL    HW114873   1.640   2.566   5.918
 4658SOL    HW214874   1.605   2.667   5.794
 4659SOL     OW14875   2.987   4.715   0.712
 4659SOL    HW114876   2.980   4.657   0.793
 4659SOL    HW214877   2.908   4.698   0.652
 4660SOL     OW14878   1.497   6.177   4.550
 4660SOL    HW114879   1.422   6.212   4.494
 4660SOL    HW214880   1.472   6.087   4.587
 4661SOL     OW14881   0.903   2.751   5.588
 4661SOL    HW114882   0.937   2.795   5.505
 4661SOL    HW214883   0.974   2.753   5.658
 4662SOL     OW14884   2.954   6.519   5.125
 4662SOL    HW114885   2.886   6.489   5.192
 4662SOL    HW214886   2.968   6.446   5.058
 4663SOL     OW14887   1.434   6.588   0.107
 4663SOL    HW114888   1.405   6.503   0.064
 4663SOL    HW214889   1.509   6.629   0.055
 4664SOL     OW14890   6.803   6.393   0.110
 4664SOL    HW114891   6.759   6.454   0.176
 4664SOL    HW214892   6.797   6.299   0.142
 4665SOL     OW14893   2.108   0.220   4.701
 4665SOL    HW114894   2.160   0.286   4.647
 4665SOL    HW214895   2.057   0.268   4.773
 4666SOL     OW14896   2.237   2.175   5.146
 4666SOL    HW114897   2.247   2.268   5.184
 4666SOL    HW214898   2.144   2.163   5.113
 4667SOL     OW14899   6.404   3.908   1.351
 4667SOL    HW114900   6.451   3.836   1.404
 4667SOL    HW214901   6.421   3.997   1.394
 4668SOL     OW14902   4.332   2.173   3.939
 4668SOL    HW114903   4.416   2.192   3.990
 4668SOL    HW214904   4.337   2.215   3.849
 4669SOL     OW14905   5.486   6.890   6.255
 4669SOL    HW114906   5.571   6.857   6.213
 4669SOL    HW214907   5.453   6.970   6.205
 4670SOL     OW14908   0.791   2.572   0.919
 4670SOL    HW114909   0.757   2.663   0.942
 4670SOL    HW214910   0.726   2.503   0.951
 4671SOL     OW14911   0.710   3.915   0.781
 4671SOL    HW114912   0.704   4.014   0.772
 4671SOL    HW214913   0.666   3.886   0.866
 4672SOL     OW14914   2.704   3.511   6.264
 4672SOL    HW114915   2.677   3.605   6.247
 4672SOL    HW214916   2.631   3.449   6.235
 4673SOL     OW14917   5.961   0.669   6.918
 4673SOL    HW114918   5.976   0.768   6.918
 4673SOL    HW214919   5.891   0.646   6.985
 4674SOL     OW14920   1.639   1.936   1.066
 4674SOL    HW114921   1.614   2.032   1.056
 4674SOL    HW214922   1.557   1.881   1.076
 4675SOL     OW14923   2.064   6.313   6.682
 4675SOL    HW114924   2.043   6.230   6.631
 4675SOL    HW214925   2.125   6.371   6.627
 4676SOL     OW14926   0.520   5.986   4.061
 4676SOL    HW114927   0.595   5.967   3.998
 4676SOL    HW214928   0.548   5.960   4.154
 4677SOL     OW14929   4.427   0.351   6.765
 4677SOL    HW114930   4.459   0.301   6.685
 4677SOL    HW214931   4.396   0.286   6.835
 4678SOL     OW14932   1.941   4.518   0.036
 4678SOL    HW114933   1.966   4.456   6.982
 4678SOL    HW214934   1.939   4.468   0.123
 4679SOL     OW14935   3.229   0.892   6.172
 4679SOL    HW114936   3.144   0.897   6.120
 4679SOL    HW214937   3.306   0.919   6.113
 4680SOL     OW14938   1.769   4.821   0.665
 4680SOL    HW114939   1.736   4.726   0.664
 4680SOL    HW214940   1.812   4.841   0.577
 4681SOL     OW14941   0.503   5.605   5.125
 4681SOL    HW114942   0.580   5.625   5.186
 4681SOL    HW214943   0.531   5.536   5.059
 4682SOL     OW14944   4.314   6.578   0.954
 4682SOL    HW114945   4.331   6.550   0.860
 4682SOL    HW214946   4.399   6.608   0.996
 4683SOL     OW14947   6.259   4.423   3.288
 4683SOL    HW114948   6.349   4.381   3.290
 4683SOL    HW214949   6.203   4.384   3.362
 4684SOL     OW14950   1.363   1.186   4.635
 4684SOL    HW114951   1.407   1.118   4.576
 4684SOL    HW214952   1.382   1.277   4.600
 4685SOL     OW14953   5.353   4.996   4.910
 4685SOL    HW114954   5.368   4.970   4.814
 4685SOL    HW214955   5.299   5.079   4.913
 4686SOL     OW14956   4.218   6.108   0.066
 4686SOL    HW114957   4.166   6.188   0.035
 4686SOL    HW214958   4.156   6.037   0.098
 4687SOL     OW14959   6.291   6.166   4.771
 4687SOL    HW114960   6.271   6.141   4.866
 4687SOL    HW214961   6.375   6.121   4.742
 4688SOL     OW14962   0.777   2.333   6.536
 4688SOL    HW114963   0.809   2.240   6.554
 4688SOL    HW214964   0.686   2.329   6.494
 4689SOL     OW14965   1.331   6.138   4.925
 4689SOL    HW114966   1.373   6.221   4.962
 4689SOL    HW214967   1.403   6.074   4.898
 4690SOL     OW14968   1.274   2.112   6.763
 4690SOL    HW114969   1.229   2.105   6.674
 4690SOL    HW214970   1.210   2.150   6.830
 4691SOL     OW14971   2.331   5.635   0.768
 4691SOL    HW114972   2.316   5.688   0.684
 4691SOL    HW214973   2.385   5.689   0.832
 4692SOL     OW14974   0.149   5.225   3.337
 4692SOL    HW114975   0.236   5.247   3.381
 4692SOL    HW214976   0.158   5.139   3.287
 4693SOL     OW14977   0.447   1.158   3.699
 4693SOL    HW114978   0.546   1.156   3.683
 4693SOL    HW214979   0.426   1.106   3.782
 4694SOL     OW14980   1.584   2.325   6.303
 4694SOL    HW114981   1.488   2.349   6.292
 4694SOL    HW214982   1.591   2.234   6.344
 4695SOL     OW14983   3.662   3.144   1.991
 4695SOL    HW114984   3.625   3.212   1.928
 4695SOL    HW214985   3.710   3.191   2.066
 4696SOL     OW14986   0.321   2.878   6.277
 4696SOL    HW114987   0.255   2.845   6.344
 4696SOL    HW214988   0.275   2.938   6.211
 4697SOL     OW14989   0.854   5.244   0.246
 4697SOL    HW114990   0.829   5.337   0.271
 4697SOL    HW214991   0.871   5.238   0.148
 4698SOL     OW14992   5.949   3.425   0.846
 4698SOL    HW114993   5.998   3.428   0.933
 4698SOL    HW214994   6.014   3.418   0.771
 4699SOL     OW14995   6.920   0.066   2.732
 4699SOL    HW114996   6.847   0.005   2.701
 4699SOL    HW214997   6.916   0.075   2.831
 4700SOL     OW14998   4.855   1.291   0.967
 4700SOL    HW114999   4.868   1.379   1.013
 4700SOL    HW215000   4.788   1.236   1.017
 4701SOL     OW15001   0.609   0.999   0.962
 4701SOL    HW115002   0.671   0.939   1.012
 4701SOL    HW215003   0.519   0.998   1.005
 4702SOL     OW15004   3.237   3.913   0.454
 4702SOL    HW115005   3.329   3.929   0.490
 4702SOL    HW215006   3.191   4.000   0.438
 4703SOL     OW15007   2.120   0.680   1.804
 4703SOL    HW115008   2.094   0.775   1.791
 4703SOL    HW215009   2.083   0.624   1.729
 4704SOL     OW15010   5.429   6.436   0.864
 4704SOL    HW115011   5.416   6.536   0.863
 4704SOL    HW215012   5.438   6.404   0.770
 4705SOL     OW15013   3.005   3.891   4.189
 4705SOL    HW115014   3.057   3.939   4.119
 4705SOL    HW215015   3.028   3.927   4.280
 4706SOL     OW15016   3.904   5.729   0.262
 4706SOL    HW115017   3.969   5.782   0.208
 4706SOL    HW215018   3.821   5.784   0.277
 4707SOL     OW15019   2.279   5.655   1.472
 4707SOL    HW115020   2.222   5.573   1.471
 4707SOL    HW215021   2.223   5.735   1.452
 4708SOL     OW15022   2.258   2.473   1.902
 4708SOL    HW115023   2.160   2.461   1.915
 4708SOL    HW215024   2.291   2.407   1.835
 4709SOL     OW15025   4.119   4.743   5.961
 4709SOL    HW115026   4.027   4.775   5.939
 4709SOL    HW215027   4.129   4.736   6.061
 4710SOL     OW15028   4.720   1.368   0.414
 4710SOL    HW115029   4.715   1.395   0.510
 4710SOL    HW215030   4.629   1.369   0.374
 4711SOL     OW15031   3.007   0.481   2.810
 4711SOL    HW115032   3.011   0.506   2.714
 4711SOL    HW215033   3.016   0.563   2.867
 4712SOL     OW15034   1.975   5.080   0.710
 4712SOL    HW115035   2.070   5.070   0.739
 4712SOL    HW215036   1.932   5.152   0.765
 4713SOL     OW15037   1.803   5.547   0.903
 4713SOL    HW115038   1.710   5.557   0.866
 4713SOL    HW215039   1.836   5.455   0.884
 4714SOL     OW15040   2.949   2.068   1.257
 4714SOL    HW115041   2.977   2.084   1.352
 4714SOL    HW215042   3.025   2.030   1.206
 4715SOL     OW15043   0.100   3.106   3.766
 4715SOL    HW115044   0.060   3.197   3.783
 4715SOL    HW215045   0.104   3.056   3.853
 4716SOL     OW15046   3.365   6.013   0.813
 4716SOL    HW115047   3.459   5.980   0.799
 4716SOL    HW215048   3.328   5.974   0.897
 4717SOL     OW15049   1.859   6.020   3.697
 4717SOL    HW115050   1.779   6.025   3.637
 4717SOL    HW215051   1.920   6.097   3.677
 4718SOL     OW15052   6.015   1.326   5.800
 4718SOL    HW115053   6.062   1.345   5.715
 4718SOL    HW215054   6.003   1.227   5.811
 4719SOL     OW15055   4.297   3.035   1.012
 4719SOL    HW115056   4.387   3.036   0.969
 4719SOL    HW215057   4.240   2.964   0.971
 4720SOL     OW15058   2.697   0.610   4.938
 4720SOL    HW115059   2.643   0.693   4.954
 4720SOL    HW215060   2.674   0.542   5.008
 4721SOL     OW15061   1.870   2.193   1.089
 4721SOL    HW115062   1.891   2.113   1.032
 4721SOL    HW215063   1.935   2.266   1.069
 4722SOL     OW15064   2.522   0.450   0.781
 4722SOL    HW115065   2.593   0.390   0.743
 4722SOL    HW215066   2.536   0.543   0.749
 4723SOL     OW15067   2.050   6.668   6.687
 4723SOL    HW115068   1.995   6.586   6.672
 4723SOL    HW215069   2.131   6.643   6.741
 4724SOL     OW15070   4.034   6.273   1.950
 4724SOL    HW115071   3.998   6.225   1.870
 4724SOL    HW215072   4.094   6.347   1.920
 4725SOL     OW15073   5.047   6.384   3.572
 4725SOL    HW115074   5.054   6.483   3.586
 4725SOL    HW215075   4.975   6.347   3.630
 4726SOL     OW15076   0.365   5.273   6.580
 4726SOL    HW115077   0.332   5.357   6.538
 4726SOL    HW215078   0.457   5.252   6.547
 4727SOL     OW15079   0.378   5.988   0.235
 4727SOL    HW115080   0.472   5.957   0.249
 4727SOL    HW215081   0.370   6.083   0.266
 4728SOL     OW15082   6.904   0.983   7.005
 4728SOL    HW115083   7.002   0.970   6.995
 4728SOL    HW215084   6.864   1.002   6.915
 4729SOL     OW15085   3.438   0.961   1.697
 4729SOL    HW115086   3.504   0.889   1.678
 4729SOL    HW215087   3.408   1.003   1.612
 4730SOL     OW15088   2.057   0.391   5.532
 4730SOL    HW115089   2.153   0.419   5.535
 4730SOL    HW215090   2.039   0.327   5.607
 4731SOL     OW15091   5.395   1.411   5.066
 4731SOL    HW115092   5.413   1.313   5.072
 4731SOL    HW215093   5.480   1.462   5.079
 4732SOL     OW15094   0.180   2.139   0.407
 4732SOL    HW115095   0.206   2.201   0.333
 4732SOL    HW215096   0.232   2.161   0.489
 4733SOL     OW15097   0.201   3.201   3.311
 4733SOL    HW115098   0.272   3.184   3.380
 4733SOL    HW215099   0.188   3.119   3.255
 4734SOL     OW15100   4.234   4.132   6.783
 4734SOL    HW115101   4.254   4.186   6.864
 4734SOL    HW215102   4.307   4.146   6.715
 4735SOL     OW15103   1.315   5.131   3.515
 4735SOL    HW115104   1.298   5.229   3.510
 4735SOL    HW215105   1.374   5.103   3.439
 4736SOL     OW15106   1.009   0.515   0.507
 4736SOL    HW115107   0.928   0.519   0.448
 4736SOL    HW215108   0.998   0.581   0.582
 4737SOL     OW15109   2.389   5.045   1.665
 4737SOL    HW115110   2.346   5.104   1.597
 4737SOL    HW215111   2.476   5.086   1.694
 4738SOL     OW15112   6.566   5.976   2.529
 4738SOL    HW115113   6.556   6.062   2.479
 4738SOL    HW215114   6.485   5.919   2.516
 4739SOL     OW15115   4.622   0.755   1.162
 4739SOL    HW115116   4.577   0.691   1.224
 4739SOL    HW215117   4.665   0.703   1.087
 4740SOL     OW15118   0.807   1.662   3.320
 4740SOL    HW115119   0.781   1.699   3.409
 4740SOL    HW215120   0.898   1.695   3.295
 4741SOL     OW15121   4.152   3.495   1.561
 4741SOL    HW115122   4.202   3.575   1.593
 4741SOL    HW215123   4.126   3.509   1.465
 4742SOL     OW15124   3.792   6.828   0.813
 4742SOL    HW115125   3.836   6.774   0.741
 4742SOL    HW215126   3.805   6.783   0.902
 4743SOL     OW15127   2.558   5.052   1.401
 4743SOL    HW115128   2.493   5.043   1.326
 4743SOL    HW215129   2.559   4.967   1.454
 4744SOL     OW15130   2.072   5.956   0.709
 4744SOL    HW115131   2.168   5.970   0.687
 4744SOL    HW215132   2.063   5.933   0.806
 4745SOL     OW15133   1.060   4.548   0.206
 4745SOL    HW115134   1.100   4.607   0.136
 4745SOL    HW215135   1.039   4.458   0.167
 4746SOL     OW15136   4.386   5.461   4.427
 4746SOL    HW115137   4.449   5.461   4.349
 4746SOL    HW215138   4.296   5.429   4.398
 4747SOL     OW15139   1.450   1.988   0.559
 4747SOL    HW115140   1.417   2.078   0.587
 4747SOL    HW215141   1.546   1.978   0.585
 4748SOL     OW15142   1.528   6.881   3.110
 4748SOL    HW115143   1.567   6.791   3.129
 4748SOL    HW215144   1.601   6.948   3.100
 4749SOL     OW15145   1.890   0.754   6.588
 4749SOL    HW115146   1.815   0.722   6.647
 4749SOL    HW215147   1.869   0.845   6.553
 4750SOL     OW15148   4.728   3.222   5.340
 4750SOL    HW115149   4.745   3.236   5.242
 4750SOL    HW215150   4.807   3.176   5.381
 4751SOL     OW15151   4.411   0.756   3.247
 4751SOL    HW115152   4.449   0.746   3.155
 4751SOL    HW215153   4.477   0.723   3.314
 4752SOL     OW15154   4.460   1.759   0.266
 4752SOL    HW115155   4.390   1.694   0.293
 4752SOL    HW215156   4.542   1.710   0.237
 4753SOL     OW15157   3.262   5.943   4.911
 4753SOL    HW115158   3.240   5.977   5.002
 4753SOL    HW215159   3.358   5.914   4.909
 4754SOL     OW15160   4.966   4.878   6.531
 4754SOL    HW115161   5.012   4.949   6.584
 4754SOL    HW215162   4.905   4.920   6.464
 4755SOL     OW15163   1.330   0.945   1.431
 4755SOL    HW115164   1.334   0.918   1.527
 4755SOL    HW215165   1.267   0.884   1.382
 4756SOL     OW15166   5.908   3.954   6.515
 4756SOL    HW115167   5.813   3.922   6.512
 4756SOL    HW215168   5.912   4.051   6.492
 4757SOL     OW15169   1.945   3.908   1.557
 4757SOL    HW115170   1.978   3.974   1.489
 4757SOL    HW215171   1.902   3.957   1.633
 4758SOL     OW15172   3.221   6.413   3.279
 4758SOL    HW115173   3.203   6.338   3.342
 4758SOL    HW215174   3.145   6.478   3.282
 4759SOL     OW15175   0.945   4.846   1.338
 4759SOL    HW115176   0.968   4.791   1.258
 4759SOL    HW215177   1.006   4.925   1.342
 4760SOL     OW15178   1.865   5.978   1.150
 4760SOL    HW115179   1.794   5.908   1.147
 4760SOL    HW215180   1.824   6.069   1.144
 4761SOL     OW15181   6.777   6.591   1.188
 4761SOL    HW115182   6.701   6.530   1.210
 4761SOL    HW215183   6.855   6.571   1.246
 4762SOL     OW15184   1.547   6.982   1.736
 4762SOL    HW115185   1.561   7.013   1.642
 4762SOL    HW215186   1.452   6.953   1.747
 4763SOL     OW15187   5.831   4.527   1.750
 4763SOL    HW115188   5.822   4.538   1.651
 4763SOL    HW215189   5.751   4.567   1.795
 4764SOL     OW15190   4.038   3.566   6.661
 4764SOL    HW115191   3.944   3.567   6.695
 4764SOL    HW215192   4.039   3.531   6.567
 4765SOL     OW15193   3.264   1.869   4.501
 4765SOL    HW115194   3.214   1.844   4.584
 4765SOL    HW215195   3.359   1.892   4.525
 4766SOL     OW15196   0.546   0.140   4.236
 4766SOL    HW115197   0.565   0.069   4.303
 4766SOL    HW215198   0.497   0.215   4.280
 4767SOL     OW15199   1.536   4.367   3.677
 4767SOL    HW115200   1.606   4.434   3.650
 4767SOL    HW215201   1.450   4.415   3.695
 4768SOL     OW15202   3.556   2.431   0.079
 4768SOL    HW115203   3.574   2.529   0.069
 4768SOL    HW215204   3.457   2.416   0.078
 4769SOL     OW15205   2.409   5.244   1.004
 4769SOL    HW115206   2.431   5.175   1.073
 4769SOL    HW215207   2.334   5.301   1.038
 4770SOL     OW15208   0.594   1.501   5.528
 4770SOL    HW115209   0.651   1.438   5.475
 4770SOL    HW215210   0.643   1.588   5.539
 4771SOL     OW15211   2.120   6.567   5.028
 4771SOL    HW115212   2.181   6.615   5.091
 4771SOL    HW215213   2.078   6.634   4.966
 4772SOL     OW15214   3.087   5.574   1.788
 4772SOL    HW115215   3.180   5.589   1.754
 4772SOL    HW215216   3.091   5.527   1.876
 4773SOL     OW15217   2.112   5.039   4.789
 4773SOL    HW115218   2.069   4.980   4.856
 4773SOL    HW215219   2.166   4.984   4.725
 4774SOL     OW15220   1.595   4.059   0.166
 4774SOL    HW115221   1.513   4.044   0.111
 4774SOL    HW215222   1.638   3.971   0.187
 4775SOL     OW15223   6.564   6.095   5.149
 4775SOL    HW115224   6.512   6.163   5.096
 4775SOL    HW215225   6.608   6.031   5.086
 4776SOL     OW15226   0.617   1.372   6.853
 4776SOL    HW115227   0.669   1.288   6.844
 4776SOL    HW215228   0.519   1.352   6.846
 4777SOL     OW15229   0.632   6.955   2.174
 4777SOL    HW115230   0.601   6.868   2.211
 4777SOL    HW215231   0.564   0.006   2.192
 4778SOL     OW15232   0.776   1.766   6.060
 4778SOL    HW115233   0.834   1.727   6.131
 4778SOL    HW215234   0.832   1.796   5.983
 4779SOL     OW15235   5.662   0.463   4.094
 4779SOL    HW115236   5.623   0.533   4.154
 4779SOL    HW215237   5.679   0.379   4.146
 4780SOL     OW15238   6.206   2.912   4.796
 4780SOL    HW115239   6.276   2.982   4.788
 4780SOL    HW215240   6.247   2.822   4.783
 4781SOL     OW15241   2.365   6.168   2.460
 4781SOL    HW115242   2.364   6.200   2.555
 4781SOL    HW215243   2.272   6.153   2.428
 4782SOL     OW15244   7.000   6.629   4.000
 4782SOL    HW115245   6.925   6.692   4.017
 4782SOL    HW215246   0.063   6.662   4.044
 4783SOL     OW15247   6.754   3.352   0.469
 4783SOL    HW115248   6.761   3.452   0.475
 4783SOL    HW215249   6.673   3.327   0.416
 4784SOL     OW15250   5.013   2.963   6.719
 4784SOL    HW115251   4.988   2.974   6.815
 4784SOL    HW215252   5.112   2.949   6.711
 4785SOL     OW15253   0.482   6.443   4.128
 4785SOL    HW115254   0.504   6.400   4.040
 4785SOL    HW215255   0.492   6.542   4.121
 4786SOL     OW15256   1.739   6.075   0.355
 4786SOL    HW115257   1.695   6.128   0.282
 4786SOL    HW215258   1.759   5.983   0.321
 4787SOL     OW15259   3.534   1.254   4.297
 4787SOL    HW115260   3.564   1.349   4.312
 4787SOL    HW215261   3.436   1.254   4.278
 4788SOL     OW15262   5.840   6.474   0.002
 4788SOL    HW115263   5.836   6.549   6.956
 4788SOL    HW215264   5.751   6.428   0.005
 4789SOL     OW15265   5.490   1.437   3.394
 4789SOL    HW115266   5.589   1.432   3.381
 4789SOL    HW215267   5.444   1.417   3.307
 4790SOL     OW15268   6.889   2.099   4.992
 4790SOL    HW115269   6.804   2.102   5.043
 4790SOL    HW215270   6.869   2.091   4.894
 4791SOL     OW15271   6.881   0.641   0.530
 4791SOL    HW115272   6.834   0.729   0.523
 4791SOL    HW215273   6.839   0.587   0.604
 4792SOL     OW15274   2.196   2.896   2.711
 4792SOL    HW115275   2.160   2.957   2.641
 4792SOL    HW215276   2.189   2.801   2.680
 4793SOL     OW15277   0.852   3.911   5.885
 4793SOL    HW115278   0.922   3.983   5.889
 4793SOL    HW215279   0.867   3.854   5.804
 4794SOL     OW15280   4.198   1.502   4.339
 4794SOL    HW115281   4.122   1.440   4.320
 4794SOL    HW215282   4.277   1.475   4.285
 4795SOL     OW15283   0.287   0.492   6.020
 4795SOL    HW115284   0.201   0.466   5.975
 4795SOL    HW215285   0.347   0.537   5.954
 4796SOL     OW15286   3.948   1.415   4.667
 4796SOL    HW115287   4.028   1.358   4.689
 4796SOL    HW215288   3.870   1.383   4.720
 4797SOL     OW15289   1.886   5.378   4.968
 4797SOL    HW115290   1.885   5.298   4.908
 4797SOL    HW215291   1.909   5.460   4.915
 4798SOL     OW15292   3.977   4.644   6.444
 4798SOL    HW115293   4.061   4.622   6.394
 4798SOL    HW215294   3.937   4.727   6.406
 4799SOL     OW15295   3.545   3.361   6.473
 4799SOL    HW115296   3.537   3.366   6.572
 4799SOL    HW215297   3.585   3.273   6.447
 4800SOL     OW15298   0.813   4.702   0.659
 4800SOL    HW115299   0.775   4.641   0.728
 4800SOL    HW215300   0.911   4.713   0.675
 4801SOL     OW15301   5.143   2.748   1.609
 4801SOL    HW115302   5.078   2.794   1.669
 4801SOL    HW215303   5.204   2.815   1.567
 4802SOL     OW15304   6.827   6.865   3.980
 4802SOL    HW115305   6.848   6.953   4.022
 4802SOL    HW215306   6.757   6.877   3.909
 4803SOL     OW15307   4.941   4.104   6.125
 4803SOL    HW115308   4.934   4.143   6.217
 4803SOL    HW215309   4.878   4.153   6.064
 4804SOL     OW15310   4.591   1.510   0.918
 4804SOL    HW115311   4.497   1.538   0.901
 4804SOL    HW215312   4.620   1.541   1.009
 4805SOL     OW15313   6.820   1.350   0.175
 4805SOL    HW115314   6.776   1.412   0.241
 4805SOL    HW215315   6.752   1.286   0.139
 4806SOL     OW15316   1.282   0.868   2.751
 4806SOL    HW115317   1.343   0.853   2.673
 4806SOL    HW215318   1.329   0.925   2.818
 4807SOL     OW15319   0.894   3.600   5.682
 4807SOL    HW115320   0.979   3.549   5.698
 4807SOL    HW215321   0.915   3.696   5.667
 4808SOL     OW15322   4.080   5.309   1.051
 4808SOL    HW115323   4.103   5.370   0.975
 4808SOL    HW215324   4.051   5.363   1.130
 4809SOL     OW15325   3.407   4.577   1.436
 4809SOL    HW115326   3.421   4.676   1.448
 4809SOL    HW215327   3.414   4.532   1.524
 4810SOL     OW15328   0.557   4.592   4.068
 4810SOL    HW115329   0.545   4.493   4.077
 4810SOL    HW215330   0.481   4.639   4.111
 4811SOL     OW15331   3.147   4.066   4.016
 4811SOL    HW115332   3.246   4.078   4.022
 4811SOL    HW215333   3.119   4.072   3.920
 4812SOL     OW15334   0.423   0.104   2.209
 4812SOL    HW115335   0.435   0.202   2.228
 4812SOL    HW215336   0.396   0.057   2.294
 4813SOL     OW15337   5.869   1.969   5.931
 4813SOL    HW115338   5.779   2.010   5.919
 4813SOL    HW215339   5.860   1.869   5.932
 4814SOL     OW15340   6.367   4.116   1.526
 4814SOL    HW115341   6.430   4.175   1.576
 4814SOL    HW215342   6.300   4.172   1.478
 4815SOL     OW15343   5.674   5.292   2.388
 4815SOL    HW115344   5.649   5.358   2.318
 4815SOL    HW215345   5.594   5.237   2.413
 4816SOL     OW15346   1.710   1.224   2.609
 4816SOL    HW115347   1.633   1.162   2.589
 4816SOL    HW215348   1.706   1.303   2.548
 4817SOL     OW15349   3.766   1.881   0.697
 4817SOL    HW115350   3.811   1.804   0.742
 4817SOL    HW215351   3.693   1.916   0.755
 4818SOL     OW15352   3.817   0.221   5.595
 4818SOL    HW115353   3.876   0.142   5.608
 4818SOL    HW215354   3.735   0.194   5.543
 4819SOL     OW15355   2.868   0.681   1.184
 4819SOL    HW115356   2.776   0.699   1.149
 4819SOL    HW215357   2.893   0.586   1.167
 4820SOL     OW15358   6.277   4.279   1.995
 4820SOL    HW115359   6.354   4.329   2.033
 4820SOL    HW215360   6.193   4.307   2.042
 4821SOL     OW15361   0.102   4.379   1.485
 4821SOL    HW115362   0.065   4.335   1.403
 4821SOL    HW215363   0.073   4.329   1.566
 4822SOL     OW15364   1.967   4.333   2.748
 4822SOL    HW115365   1.933   4.291   2.833
 4822SOL    HW215366   1.893   4.337   2.681
 4823SOL     OW15367   1.027   1.201   4.601
 4823SOL    HW115368   1.126   1.207   4.588
 4823SOL    HW215369   0.983   1.277   4.554
 4824SOL     OW15370   5.274   3.102   2.369
 4824SOL    HW115371   5.227   3.080   2.284
 4824SOL    HW215372   5.218   3.164   2.424
 4825SOL     OW15373   0.663   3.281   2.636
 4825SOL    HW115374   0.627   3.193   2.607
 4825SOL    HW215375   0.761   3.274   2.652
 4826SOL     OW15376   6.546   6.342   0.492
 4826SOL    HW115377   6.466   6.337   0.550
 4826SOL    HW215378   6.618   6.395   0.538
 4827SOL     OW15379   5.421   0.754   1.137
 4827SOL    HW115380   5.355   0.762   1.062
 4827SOL    HW215381   5.416   0.835   1.195
 4828SOL     OW15382   5.930   3.842   0.409
 4828SOL    HW115383   5.928   3.805   0.316
 4828SOL    HW215384   5.917   3.941   0.405
 4829SOL     OW15385   2.937   0.405   6.149
 4829SOL    HW115386   2.912   0.385   6.243
 4829SOL    HW215387   2.986   0.492   6.145
 4830SOL     OW15388   4.298   0.024   4.497
 4830SOL    HW115389   4.347   0.049   4.581
 4830SOL    HW215390   4.261   6.952   4.506
 4831SOL     OW15391   6.190   3.469   6.035
 4831SOL    HW115392   6.143   3.432   5.954
 4831SOL    HW215393   6.255   3.539   6.006
 4832SOL     OW15394   2.406   3.561   6.443
 4832SOL    HW115395   2.321   3.513   6.420
 4832SOL    HW215396   2.392   3.659   6.435
 4833SOL     OW15397   4.867   1.496   2.601
 4833SOL    HW115398   4.878   1.590   2.567
 4833SOL    HW215399   4.944   1.440   2.571
 4834SOL     OW15400   5.302   1.256   2.599
 4834SOL    HW115401   5.229   1.309   2.556
 4834SOL    HW215402   5.274   1.160   2.605
 4835SOL     OW15403   2.370   0.330   6.620
 4835SOL    HW115404   2.282   0.318   6.666
 4835SOL    HW215405   2.444   0.301   6.681
 4836SOL     OW15406   5.413   2.271   3.796
 4836SOL    HW115407   5.443   2.268   3.701
 4836SOL    HW215408   5.483   2.315   3.852
 4837SOL     OW15409   1.809   3.540   0.722
 4837SOL    HW115410   1.837   3.462   0.666
 4837SOL    HW215411   1.889   3.581   0.766
 4838SOL     OW15412   3.225   5.915   2.512
 4838SOL    HW115413   3.292   5.968   2.562
 4838SOL    HW215414   3.199   5.834   2.565
 4839SOL     OW15415   0.395   6.003   6.891
 4839SOL    HW115416   0.483   5.991   6.936
 4839SOL    HW215417   0.377   5.924   6.832
 4840SOL     OW15418   0.119   6.883   0.198
 4840SOL    HW115419   0.089   6.802   0.148
 4840SOL    HW215420   0.040   6.935   0.228
 4841SOL     OW15421   3.088   5.491   2.499
 4841SOL    HW115422   3.141   5.550   2.559
 4841SOL    HW215423   2.995   5.526   2.489
 4842SOL     OW15424   4.319   5.891   1.244
 4842SOL    HW115425   4.268   5.940   1.173
 4842SOL    HW215426   4.299   5.931   1.333
 4843SOL     OW15427   0.307   3.301   6.933
 4843SOL    HW115428   0.316   3.202   6.922
 4843SOL    HW215429   0.244   3.320   7.008
 4844SOL     OW15430   5.777   2.123   6.364
 4844SOL    HW115431   5.699   2.177   6.333
 4844SOL    HW215432   5.748   2.058   6.434
 4845SOL     OW15433   6.125   5.786   3.954
 4845SOL    HW115434   6.098   5.806   4.048
 4845SOL    HW215435   6.219   5.819   3.939
 4846SOL     OW15436   1.271   3.909   0.402
 4846SOL    HW115437   1.221   3.847   0.462
 4846SOL    HW215438   1.324   3.855   0.336
 4847SOL     OW15439   3.641   2.128   4.365
 4847SOL    HW115440   3.706   2.190   4.410
 4847SOL    HW215441   3.687   2.042   4.343
 4848SOL     OW15442   2.652   2.197   2.421
 4848SOL    HW115443   2.619   2.118   2.369
 4848SOL    HW215444   2.598   2.278   2.398
 4849SOL     OW15445   1.548   6.505   0.510
 4849SOL    HW115446   1.521   6.578   0.573
 4849SOL    HW215447   1.590   6.546   0.428
 4850SOL     OW15448   4.407   0.785   2.393
 4850SOL    HW115449   4.409   0.779   2.293
 4850SOL    HW215450   4.480   0.846   2.424
 4851SOL     OW15451   5.363   6.198   4.973
 4851SOL    HW115452   5.352   6.242   4.884
 4851SOL    HW215453   5.293   6.232   5.036
 4852SOL     OW15454   1.830   0.928   0.223
 4852SOL    HW115455   1.852   0.843   0.271
 4852SOL    HW215456   1.849   0.916   0.125
 4853SOL     OW15457   2.947   1.917   2.382
 4853SOL    HW115458   3.041   1.945   2.397
 4853SOL    HW215459   2.896   1.991   2.338
 4854SOL     OW15460   5.361   6.901   1.407
 4854SOL    HW115461   5.365   6.905   1.507
 4854SOL    HW215462   5.299   6.973   1.374
 4855SOL     OW15463   6.807   1.922   2.371
 4855SOL    HW115464   6.811   1.887   2.465
 4855SOL    HW215465   6.859   2.007   2.365
 4856SOL     OW15466   3.003   4.800   3.330
 4856SOL    HW115467   2.906   4.794   3.355
 4856SOL    HW215468   3.058   4.814   3.412
 4857SOL     OW15469   6.714   1.693   5.704
 4857SOL    HW115470   6.775   1.681   5.625
 4857SOL    HW215471   6.619   1.688   5.672
 4858SOL     OW15472   1.275   1.867   4.307
 4858SOL    HW115473   1.361   1.817   4.312
 4858SOL    HW215474   1.244   1.871   4.212
 4859SOL     OW15475   2.649   5.934   4.597
 4859SOL    HW115476   2.567   5.991   4.591
 4859SOL    HW215477   2.709   5.968   4.669
 4860SOL     OW15478   4.608   5.180   0.912
 4860SOL    HW115479   4.651   5.155   0.825
 4860SOL    HW215480   4.626   5.109   0.980
 4861SOL     OW15481   4.847   3.943   4.992
 4861SOL    HW115482   4.755   3.945   4.953
 4861SOL    HW215483   4.905   3.884   4.936
 4862SOL     OW15484   1.381   6.910   2.221
 4862SOL    HW115485   1.418   6.857   2.297
 4862SOL    HW215486   1.399   6.862   2.135
 4863SOL     OW15487   5.971   3.826   6.986
 4863SOL    HW115488   5.915   3.855   6.908
 4863SOL    HW215489   5.982   3.902   0.029
 4864SOL     OW15490   2.985   1.211   3.320
 4864SOL    HW115491   3.002   1.222   3.222
 4864SOL    HW215492   3.037   1.279   3.370
 4865SOL     OW15493   2.762   6.326   4.684
 4865SOL    HW115494   2.743   6.386   4.605
 4865SOL    HW215495   2.678   6.315   4.738
 4866SOL     OW15496   6.951   3.808   1.026
 4866SOL    HW115497   6.887   3.879   1.057
 4866SOL    HW215498   6.953   3.806   0.926
 4867SOL     OW15499   4.705   6.952   3.043
 4867SOL    HW115500   4.707   0.009   3.107
 4867SOL    HW215501   4.653   6.977   2.962
 4868SOL     OW15502   6.667   5.189   1.094
 4868SOL    HW115503   6.583   5.140   1.072
 4868SOL    HW215504   6.734   5.124   1.132
 4869SOL     OW15505   0.431   1.573   0.003
 4869SOL    HW115506   0.423   1.474   7.013
 4869SOL    HW215507   0.367   1.618   6.961
 4870SOL     OW15508   0.682   6.328   2.189
 4870SOL    HW115509   0.684   6.378   2.103
 4870SOL    HW215510   0.742   6.248   2.183
 4871SOL     OW15511   0.909   1.559   4.666
 4871SOL    HW115512   0.996   1.600   4.637
 4871SOL    HW215513   0.871   1.505   4.590
 4872SOL     OW15514   6.041   0.158   4.204
 4872SOL    HW115515   6.031   0.059   4.201
 4872SOL    HW215516   5.987   0.199   4.131
 4873SOL     OW15517   6.711   6.325   5.450
 4873SOL    HW115518   6.685   6.260   5.522
 4873SOL    HW215519   6.778   6.389   5.487
 4874SOL     OW15520   4.743   2.915   3.205
 4874SOL    HW115521   4.820   2.879   3.258
 4874SOL    HW215522   4.715   3.004   3.243
 4875SOL     OW15523   5.464   6.198   5.778
 4875SOL    HW115524   5.452   6.291   5.745
 4875SOL    HW215525   5.549   6.191   5.830
 4876SOL     OW15526   1.735   1.058   2.831
 4876SOL    HW115527   1.773   0.971   2.800
 4876SOL    HW215528   1.751   1.128   2.761
 4877SOL     OW15529   0.350   2.123   4.680
 4877SOL    HW115530   0.385   2.214   4.704
 4877SOL    HW215531   0.415   2.077   4.619
 4878SOL     OW15532   0.482   2.651   2.520
 4878SOL    HW115533   0.480   2.738   2.570
 4878SOL    HW215534   0.463   2.576   2.584
 4879SOL     OW15535   4.887   1.630   3.181
 4879SOL    HW115536   4.844   1.651   3.093
 4879SOL    HW215537   4.825   1.654   3.255
 4880SOL     OW15538   6.217   2.459   6.017
 4880SOL    HW115539   6.136   2.401   6.016
 4880SOL    HW215540   6.245   2.474   6.112
 4881SOL     OW15541   1.364   3.104   2.029
 4881SOL    HW115542   1.404   3.168   1.964
 4881SOL    HW215543   1.372   3.141   2.122
 4882SOL     OW15544   4.460   2.490   4.948
 4882SOL    HW115545   4.369   2.485   4.988
 4882SOL    HW215546   4.465   2.430   4.869
 4883SOL     OW15547   6.430   4.413   1.752
 4883SOL    HW115548   6.362   4.475   1.793
 4883SOL    HW215549   6.485   4.371   1.824
 4884SOL     OW15550   1.979   6.300   1.494
 4884SOL    HW115551   2.027   6.261   1.572
 4884SOL    HW215552   2.039   6.364   1.446
 4885SOL     OW15553   1.309   4.609   0.804
 4885SOL    HW115554   1.261   4.558   0.876
 4885SOL    HW215555   1.403   4.626   0.832
 4886SOL     OW15556   2.928   1.224   2.568
 4886SOL    HW115557   2.845   1.279   2.555
 4886SOL    HW215558   2.972   1.210   2.479
 4887SOL     OW15559   0.320   0.013   1.237
 4887SOL    HW115560   0.418   0.014   1.217
 4887SOL    HW215561   0.293   0.098   1.283
 4888SOL     OW15562   3.493   6.620   2.961
 4888SOL    HW115563   3.549   6.671   2.896
 4888SOL    HW215564   3.408   6.592   2.917
 4889SOL     OW15565   6.912   2.709   3.566
 4889SOL    HW115566   6.971   2.627   3.569
 4889SOL    HW215567   6.968   2.788   3.543
 4890SOL     OW15568   0.205   1.377   4.648
 4890SOL    HW115569   0.224   1.330   4.561
 4890SOL    HW215570   0.218   1.313   4.724
 4891SOL     OW15571   2.510   5.584   5.980
 4891SOL    HW115572   2.550   5.568   6.071
 4891SOL    HW215573   2.556   5.525   5.913
 4892SOL     OW15574   5.358   5.988   3.007
 4892SOL    HW115575   5.321   5.914   2.952
 4892SOL    HW215576   5.454   6.004   2.981
 4893SOL     OW15577   0.457   3.536   1.932
 4893SOL    HW115578   0.395   3.549   2.010
 4893SOL    HW215579   0.415   3.474   1.867
 4894SOL     OW15580   4.500   6.691   2.131
 4894SOL    HW115581   4.578   6.651   2.180
 4894SOL    HW215582   4.439   6.618   2.100
 4895SOL     OW15583   0.069   4.631   3.733
 4895SOL    HW115584   7.000   4.598   3.701
 4895SOL    HW215585   0.142   4.596   3.674
 4896SOL     OW15586   2.074   5.045   4.114
 4896SOL    HW115587   2.125   5.021   4.196
 4896SOL    HW215588   2.035   4.963   4.073
 4897SOL     OW15589   1.983   6.608   5.474
 4897SOL    HW115590   2.061   6.547   5.465
 4897SOL    HW215591   1.997   6.690   5.418
 4898SOL     OW15592   3.828   1.957   3.837
 4898SOL    HW115593   3.858   1.899   3.762
 4898SOL    HW215594   3.811   1.901   3.918
 4899SOL     OW15595   0.086   4.864   1.493
 4899SOL    HW115596   0.095   4.772   1.455
 4899SOL    HW215597   7.015   4.900   1.472
 4900SOL     OW15598   4.064   5.989   5.601
 4900SOL    HW115599   4.142   6.027   5.552
 4900SOL    HW215600   4.067   5.889   5.595
 4901SOL     OW15601   0.414   1.473   6.209
 4901SOL    HW115602   0.326   1.433   6.182
 4901SOL    HW215603   0.462   1.505   6.127
 4902SOL     OW15604   2.042   0.238   6.168
 4902SOL    HW115605   2.081   0.327   6.192
 4902SOL    HW215606   1.952   0.251   6.126
 4903SOL     OW15607   5.700   4.922   1.744
 4903SOL    HW115608   5.704   4.838   1.798
 4903SOL    HW215609   5.785   4.974   1.757
 4904SOL     OW15610   1.479   0.470   0.449
 4904SOL    HW115611   1.438   0.487   0.538
 4904SOL    HW215612   1.573   0.504   0.448
 4905SOL     OW15613   3.178   6.511   2.595
 4905SOL    HW115614   3.255   6.534   2.535
 4905SOL    HW215615   3.192   6.554   2.684
 4906SOL     OW15616   5.520   3.045   4.776
 4906SOL    HW115617   5.601   3.009   4.730
 4906SOL    HW215618   5.459   3.088   4.709
 4907SOL     OW15619   4.402   1.637   6.332
 4907SOL    HW115620   4.385   1.680   6.421
 4907SOL    HW215621   4.479   1.684   6.288
 4908SOL     OW15622   4.376   6.905   0.049
 4908SOL    HW115623   4.475   6.889   0.050
 4908SOL    HW215624   4.350   6.953   0.133
 4909SOL     OW15625   5.755   4.609   4.138
 4909SOL    HW115626   5.679   4.566   4.089
 4909SOL    HW215627   5.793   4.544   4.204
 4910SOL     OW15628   4.811   1.334   5.820
 4910SOL    HW115629   4.752   1.299   5.747
 4910SOL    HW215630   4.847   1.258   5.874
 4911SOL     OW15631   0.326   2.398   1.772
 4911SOL    HW115632   0.426   2.400   1.771
 4911SOL    HW215633   0.293   2.430   1.860
 4912SOL     OW15634   6.008   2.035   4.272
 4912SOL    HW115635   5.915   2.048   4.240
 4912SOL    HW215636   6.067   2.105   4.232
 4913SOL     OW15637   6.521   2.727   5.381
 4913SOL    HW115638   6.424   2.720   5.402
 4913SOL    HW215639   6.543   2.665   5.305
 4914SOL     OW15640   4.503   0.758   4.108
 4914SOL    HW115641   4.513   0.717   4.017
 4914SOL    HW215642   4.556   0.843   4.113
 4915SOL     OW15643   3.764   5.438   5.789
 4915SOL    HW115644   3.771   5.419   5.887
 4915SOL    HW215645   3.846   5.485   5.757
 4916SOL     OW15646   6.255   1.659   3.954
 4916SOL    HW115647   6.200   1.578   3.974
 4916SOL    HW215648   6.214   1.739   3.998
 4917SOL     OW15649   4.655   0.159   1.072
 4917SOL    HW115650   4.559   0.173   1.046
 4917SOL    HW215651   4.714   0.202   1.004
 4918SOL     OW15652   6.282   5.369   1.987
 4918SOL    HW115653   6.215   5.443   1.980
 4918SOL    HW215654   6.375   5.407   1.985
 4919SOL     OW15655   3.851   4.008   1.906
 4919SOL    HW115656   3.908   4.025   1.986
 4919SOL    HW215657   3.898   3.945   1.844
 4920SOL     OW15658   5.924   0.719   5.237
 4920SOL    HW115659   5.990   0.724   5.312
 4920SOL    HW215660   5.833   0.741   5.272
 4921SOL     OW15661   0.023   6.959   2.208
 4921SOL    HW115662   6.968   6.995   2.264
 4921SOL    HW215663   0.100   0.003   2.211
 4922SOL     OW15664   3.912   2.359   6.165
 4922SOL    HW115665   4.001   2.404   6.167
 4922SOL    HW215666   3.880   2.353   6.071
 4923SOL     OW15667   3.538   1.465   2.574
 4923SOL    HW115668   3.627   1.477   2.531
 4923SOL    HW215669   3.548   1.467   2.673
 4924SOL     OW15670   2.430   0.766   5.803
 4924SOL    HW115671   2.394   0.673   5.800
 4924SOL    HW215672   2.431   0.805   5.711
 4925SOL     OW15673   5.474   6.161   3.366
 4925SOL    HW115674   5.570   6.177   3.343
 4925SOL    HW215675   5.466   6.078   3.421
 4926SOL     OW15676   5.448   2.488   0.583
 4926SOL    HW115677   5.410   2.417   0.523
 4926SOL    HW215678   5.382   2.510   0.654
 4927SOL     OW15679   3.567   1.502   6.328
 4927SOL    HW115680   3.472   1.498   6.298
 4927SOL    HW215681   3.571   1.486   6.427
 4928SOL     OW15682   0.534   2.334   0.769
 4928SOL    HW115683   0.529   2.403   0.697
 4928SOL    HW215684   0.558   2.378   0.856
 4929SOL     OW15685   0.348   6.272   4.911
 4929SOL    HW115686   0.448   6.272   4.914
 4929SOL    HW215687   0.312   6.319   4.992
 4930SOL     OW15688   5.338   6.722   2.492
 4930SOL    HW115689   5.275   6.650   2.522
 4930SOL    HW215690   5.426   6.710   2.538
 4931SOL     OW15691   6.062   6.215   0.764
 4931SOL    HW115692   6.023   6.124   0.772
 4931SOL    HW215693   6.020   6.262   0.686
 4932SOL     OW15694   3.066   3.210   1.944
 4932SOL    HW115695   2.975   3.198   1.904
 4932SOL    HW215696   3.098   3.304   1.927
 4933SOL     OW15697   3.198   5.783   5.300
 4933SOL    HW115698   3.231   5.691   5.277
 4933SOL    HW215699   3.212   5.843   5.221
 4934SOL     OW15700   3.903   5.022   3.039
 4934SOL    HW115701   3.966   4.968   3.095
 4934SOL    HW215702   3.881   5.107   3.086
 4935SOL     OW15703   1.401   1.312   5.814
 4935SOL    HW115704   1.495   1.288   5.793
 4935SOL    HW215705   1.341   1.234   5.797
 4936SOL     OW15706   2.925   3.142   0.952
 4936SOL    HW115707   2.918   3.058   1.005
 4936SOL    HW215708   2.862   3.210   0.988
 4937SOL     OW15709   4.728   2.805   5.193
 4937SOL    HW115710   4.652   2.870   5.196
 4937SOL    HW215711   4.728   2.757   5.105
 4938SOL     OW15712   3.962   5.612   5.984
 4938SOL    HW115713   3.999   5.519   5.994
 4938SOL    HW215714   3.971   5.641   5.889
 4939SOL     OW15715   4.388   3.115   5.824
 4939SOL    HW115716   4.332   3.078   5.750
 4939SOL    HW215717   4.350   3.087   5.912
 4940SOL     OW15718   2.599   6.527   4.537
 4940SOL    HW115719   2.537   6.575   4.598
 4940SOL    HW215720   2.551   6.503   4.452
 4941SOL     OW15721   5.467   0.699   0.690
 4941SOL    HW115722   5.522   0.656   0.762
 4941SOL    HW215723   5.371   0.701   0.718
 4942SOL     OW15724   4.947   3.672   5.290
 4942SOL    HW115725   5.000   3.599   5.332
 4942SOL    HW215726   4.874   3.632   5.235
 4943SOL     OW15727   4.395   2.339   1.083
 4943SOL    HW115728   4.423   2.255   1.038
 4943SOL    HW215729   4.394   2.414   1.017
 4944SOL     OW15730   2.397   4.485   2.377
 4944SOL    HW115731   2.413   4.553   2.305
 4944SOL    HW215732   2.326   4.421   2.347
 4945SOL     OW15733   0.495   6.969   4.442
 4945SOL    HW115734   0.400   6.976   4.410
 4945SOL    HW215735   0.501   6.998   4.537
 4946SOL     OW15736   1.275   3.578   2.582
 4946SOL    HW115737   1.281   3.592   2.483
 4946SOL    HW215738   1.198   3.630   2.619
 4947SOL     OW15739   0.535   6.701   0.544
 4947SOL    HW115740   0.616   6.758   0.560
 4947SOL    HW215741   0.540   6.620   0.602
 4948SOL     OW15742   2.392   1.406   1.912
 4948SOL    HW115743   2.477   1.421   1.861
 4948SOL    HW215744   2.390   1.467   1.991
 4949SOL     OW15745   5.614   1.495   4.352
 4949SOL    HW115746   5.548   1.568   4.332
 4949SOL    HW215747   5.658   1.465   4.267
 4950SOL     OW15748   3.295   5.663   4.504
 4950SOL    HW115749   3.312   5.580   4.451
 4950SOL    HW215750   3.207   5.656   4.551
 4951SOL     OW15751   4.315   2.322   3.709
 4951SOL    HW115752   4.262   2.343   3.627
 4951SOL    HW215753   4.410   2.305   3.683
 4952SOL     OW15754   0.762   5.931   5.256
 4952SOL    HW115755   0.728   6.003   5.316
 4952SOL    HW215756   0.695   5.913   5.184
 4953SOL     OW15757   2.008   5.260   1.683
 4953SOL    HW115758   1.956   5.174   1.676
 4953SOL    HW215759   1.981   5.309   1.765
 4954SOL     OW15760   5.626   5.854   6.701
 4954SOL    HW115761   5.705   5.810   6.744
 4954SOL    HW215762   5.559   5.880   6.770
 4955SOL     OW15763   1.269   6.245   1.151
 4955SOL    HW115764   1.344   6.296   1.110
 4955SOL    HW215765   1.276   6.250   1.251
 4956SOL     OW15766   4.373   6.413   4.235
 4956SOL    HW115767   4.385   6.314   4.238
 4956SOL    HW215768   4.444   6.454   4.178
 4957SOL     OW15769   0.960   0.742   4.075
 4957SOL    HW115770   1.012   0.767   4.156
 4957SOL    HW215771   0.885   0.682   4.100
 4958SOL     OW15772   0.109   5.920   0.245
 4958SOL    HW115773   0.202   5.954   0.239
 4958SOL    HW215774   0.072   5.905   0.153
 4959SOL     OW15775   0.783   0.914   1.168
 4959SOL    HW115776   0.880   0.891   1.160
 4959SOL    HW215777   0.761   0.938   1.262
 4960SOL     OW15778   4.197   0.019   4.808
 4960SOL    HW115779   4.288   0.043   4.774
 4960SOL    HW215780   4.205   6.982   4.889
 4961SOL     OW15781   4.760   0.851   5.130
 4961SOL    HW115782   4.820   0.785   5.175
 4961SOL    HW215783   4.675   0.859   5.182
 4962SOL     OW15784   0.014   1.304   0.675
 4962SOL    HW115785   0.031   1.207   0.687
 4962SOL    HW215786   0.092   1.356   0.709
 4963SOL     OW15787   0.362   4.809   1.538
 4963SOL    HW115788   0.385   4.777   1.630
 4963SOL    HW215789   0.269   4.846   1.537
 4964SOL     OW15790   3.639   6.648   3.187
 4964SOL    HW115791   3.737   6.642   3.170
 4964SOL    HW215792   3.590   6.653   3.100
 4965SOL     OW15793   6.940   0.318   4.381
 4965SOL    HW115794   6.846   0.323   4.347
 4965SOL    HW215795   6.970   0.223   4.381
 4966SOL     OW15796   3.702   4.921   3.637
 4966SOL    HW115797   3.617   4.962   3.605
 4966SOL    HW215798   3.751   4.883   3.559
 4967SOL     OW15799   3.998   2.500   5.743
 4967SOL    HW115800   3.927   2.543   5.687
 4967SOL    HW215801   4.028   2.563   5.814
 4968SOL     OW15802   5.914   2.836   5.461
 4968SOL    HW115803   5.975   2.810   5.536
 4968SOL    HW215804   5.966   2.885   5.391
 4969SOL     OW15805   1.344   1.625   1.749
 4969SOL    HW115806   1.344   1.533   1.712
 4969SOL    HW215807   1.407   1.683   1.697
 4970SOL     OW15808   0.822   2.534   5.930
 4970SOL    HW115809   0.833   2.531   5.830
 4970SOL    HW215810   0.745   2.476   5.957
 4971SOL     OW15811   5.541   5.832   3.734
 4971SOL    HW115812   5.630   5.878   3.741
 4971SOL    HW215813   5.474   5.894   3.694
 4972SOL     OW15814   1.537   2.781   6.251
 4972SOL    HW115815   1.512   2.719   6.177
 4972SOL    HW215816   1.488   2.755   6.335
 4973SOL     OW15817   5.140   6.517   2.537
 4973SOL    HW115818   5.139   6.419   2.522
 4973SOL    HW215819   5.112   6.537   2.631
 4974SOL     OW15820   5.246   6.978   2.419
 4974SOL    HW115821   5.304   0.031   2.453
 4974SOL    HW215822   5.283   6.890   2.449
 4975SOL     OW15823   5.475   5.845   0.382
 4975SOL    HW115824   5.377   5.826   0.379
 4975SOL    HW215825   5.522   5.768   0.426
 4976SOL     OW15826   4.091   0.826   4.913
 4976SOL    HW115827   4.004   0.778   4.901
 4976SOL    HW215828   4.128   0.850   4.823
 4977SOL     OW15829   3.679   3.935   0.408
 4977SOL    HW115830   3.729   4.020   0.427
 4977SOL    HW215831   3.617   3.916   0.484
 4978SOL     OW15832   5.644   2.863   6.475
 4978SOL    HW115833   5.545   2.866   6.483
 4978SOL    HW215834   5.686   2.865   6.566
 4979SOL     OW15835   1.358   0.906   5.881
 4979SOL    HW115836   1.284   0.908   5.948
 4979SOL    HW215837   1.434   0.962   5.914
 4980SOL     OW15838   2.368   5.441   2.169
 4980SOL    HW115839   2.404   5.351   2.143
 4980SOL    HW215840   2.296   5.469   2.105
 4981SOL     OW15841   4.484   6.505   5.403
 4981SOL    HW115842   4.579   6.478   5.388
 4981SOL    HW215843   4.459   6.486   5.499
 4982SOL     OW15844   2.259   3.265   0.532
 4982SOL    HW115845   2.203   3.204   0.476
 4982SOL    HW215846   2.347   3.223   0.551
 4983SOL     OW15847   5.385   3.377   4.065
 4983SOL    HW115848   5.357   3.283   4.047
 4983SOL    HW215849   5.305   3.437   4.059
 4984SOL     OW15850   4.899   4.254   2.625
 4984SOL    HW115851   4.825   4.316   2.599
 4984SOL    HW215852   4.922   4.195   2.547
 4985SOL     OW15853   5.688   4.793   2.802
 4985SOL    HW115854   5.781   4.768   2.829
 4985SOL    HW215855   5.691   4.853   2.722
 4986SOL     OW15856   4.461   4.818   2.006
 4986SOL    HW115857   4.378   4.860   1.970
 4986SOL    HW215858   4.452   4.718   2.005
 4987SOL     OW15859   6.854   3.402   1.717
 4987SOL    HW115860   6.894   3.419   1.626
 4987SOL    HW215861   6.776   3.340   1.708
 4988SOL     OW15862   0.549   1.966   4.561
 4988SOL    HW115863   0.594   1.982   4.648
 4988SOL    HW215864   0.618   1.961   4.488
 4989SOL     OW15865   0.759   0.842   0.320
 4989SOL    HW115866   0.815   0.877   0.396
 4989SOL    HW215867   0.790   0.750   0.296
 4990SOL     OW15868   0.913   2.203   5.300
 4990SOL    HW115869   0.984   2.174   5.235
 4990SOL    HW215870   0.944   2.286   5.347
 4991SOL     OW15871   1.334   2.935   4.167
 4991SOL    HW115872   1.318   2.946   4.069
 4991SOL    HW215873   1.291   3.010   4.217
 4992SOL     OW15874   3.430   0.387   6.174
 4992SOL    HW115875   3.370   0.457   6.212
 4992SOL    HW215876   3.447   0.406   6.077
 4993SOL     OW15877   2.935   6.115   3.904
 4993SOL    HW115878   3.027   6.116   3.865
 4993SOL    HW215879   2.938   6.078   3.997
 4994SOL     OW15880   0.121   6.671   2.550
 4994SOL    HW115881   0.026   6.643   2.532
 4994SOL    HW215882   0.124   6.770   2.565
 4995SOL     OW15883   5.837   2.740   6.311
 4995SOL    HW115884   5.806   2.646   6.297
 4995SOL    HW215885   5.770   2.789   6.367
 4996SOL     OW15886   1.205   1.352   3.802
 4996SOL    HW115887   1.152   1.433   3.776
 4996SOL    HW215888   1.256   1.319   3.723
 4997SOL     OW15889   0.599   2.513   3.679
 4997SOL    HW115890   0.697   2.528   3.686
 4997SOL    HW215891   0.554   2.548   3.761
 4998SOL     OW15892   2.030   5.548   4.781
 4998SOL    HW115893   2.109   5.487   4.783
 4998SOL    HW215894   2.060   5.643   4.787
 4999SOL     OW15895   5.953   4.818   1.288
 4999SOL    HW115896   5.870   4.791   1.240
 4999SOL    HW215897   6.029   4.820   1.223
 5000SOL     OW15898   0.398   6.145   4.617
 5000SOL    HW115899   0.345   6.150   4.701
 5000SOL    HW215900   0.478   6.205   4.624
 5001SOL     OW15901   4.473   4.377   5.947
 5001SOL    HW115902   4.421   4.406   5.867
 5001SOL    HW215903   4.522   4.292   5.926
 5002SOL     OW15904   2.089   1.321   1.911
 5002SOL    HW115905   2.187   1.329   1.929
 5002SOL    HW215906   2.056   1.233   1.946
 5003SOL     OW15907   6.585   5.707   3.087
 5003SOL    HW115908   6.605   5.785   3.146
 5003SOL    HW215909   6.623   5.624   3.128
 5004SOL     OW15910   3.273   5.804   0.191
 5004SOL    HW115911   3.189   5.844   0.229
 5004SOL    HW215912   3.278   5.826   0.094
 5005SOL     OW15913   4.521   2.017   6.758
 5005SOL    HW115914   4.575   2.067   6.826
 5005SOL    HW215915   4.438   2.068   6.737
 5006SOL     OW15916   5.448   5.924   4.431
 5006SOL    HW115917   5.396   6.006   4.454
 5006SOL    HW215918   5.543   5.936   4.459
 5007SOL     OW15919   3.742   1.477   5.424
 5007SOL    HW115920   3.774   1.461   5.331
 5007SOL    HW215921   3.752   1.574   5.447
 5008SOL     OW15922   6.090   1.508   3.734
 5008SOL    HW115923   6.120   1.517   3.639
 5008SOL    HW215924   6.149   1.563   3.793
 5009SOL     OW15925   1.548   6.380   3.325
 5009SOL    HW115926   1.471   6.328   3.364
 5009SOL    HW215927   1.544   6.474   3.358
 5010SOL     OW15928   3.658   3.319   4.505
 5010SOL    HW115929   3.671   3.221   4.491
 5010SOL    HW215930   3.576   3.349   4.457
 5011SOL     OW15931   1.302   2.843   2.555
 5011SOL    HW115932   1.326   2.793   2.639
 5011SOL    HW215933   1.384   2.857   2.500
 5012SOL     OW15934   6.146   2.230   6.640
 5012SOL    HW115935   6.192   2.142   6.641
 5012SOL    HW215936   6.210   2.302   6.666
 5013SOL     OW15937   3.877   1.028   6.715
 5013SOL    HW115938   3.811   1.099   6.694
 5013SOL    HW215939   3.829   0.945   6.743
 5014SOL     OW15940   6.080   6.569   0.088
 5014SOL    HW115941   5.986   6.551   0.059
 5014SOL    HW215942   6.143   6.514   0.034
 5015SOL     OW15943   4.905   2.473   3.516
 5015SOL    HW115944   4.881   2.419   3.436
 5015SOL    HW215945   4.833   2.541   3.533
 5016SOL     OW15946   1.665   6.955   2.801
 5016SOL    HW115947   1.575   6.911   2.803
 5016SOL    HW215948   1.675   7.013   2.881
 5017SOL     OW15949   2.491   2.971   1.303
 5017SOL    HW115950   2.418   2.905   1.321
 5017SOL    HW215951   2.504   3.029   1.383
 5018SOL     OW15952   6.861   5.919   4.138
 5018SOL    HW115953   6.846   5.825   4.169
 5018SOL    HW215954   6.809   5.982   4.195
 5019SOL     OW15955   2.221   4.820   6.409
 5019SOL    HW115956   2.319   4.801   6.403
 5019SOL    HW215957   2.185   4.838   6.317
 5020SOL     OW15958   5.053   5.756   6.438
 5020SOL    HW115959   5.027   5.853   6.433
 5020SOL    HW215960   5.151   5.747   6.423
 5021SOL     OW15961   1.589   4.555   6.392
 5021SOL    HW115962   1.653   4.598   6.455
 5021SOL    HW215963   1.639   4.512   6.317
 5022SOL     OW15964   1.208   5.566   0.425
 5022SOL    HW115965   1.193   5.663   0.447
 5022SOL    HW215966   1.218   5.514   0.510
 5023SOL     OW15967   6.075   3.068   2.586
 5023SOL    HW115968   6.112   3.070   2.679
 5023SOL    HW215969   6.033   3.156   2.565
 5024SOL     OW15970   6.237   3.640   4.623
 5024SOL    HW115971   6.198   3.576   4.688
 5024SOL    HW215972   6.309   3.694   4.668
 5025SOL     OW15973   5.941   1.201   3.527
 5025SOL    HW115974   5.996   1.125   3.560
 5025SOL    HW215975   5.978   1.234   3.440
 5026SOL     OW15976   0.944   6.563   4.185
 5026SOL    HW115977   1.036   6.541   4.153
 5026SOL    HW215978   0.937   6.543   4.283
 5027SOL     OW15979   0.855   6.681   3.696
 5027SOL    HW115980   0.872   6.627   3.778
 5027SOL    HW215981   0.925   6.752   3.687
 5028SOL     OW15982   0.250   0.323   2.622
 5028SOL    HW115983   0.336   0.281   2.650
 5028SOL    HW215984   0.177   0.254   2.621
 5029SOL     OW15985   6.938   1.070   1.569
 5029SOL    HW115986   7.010   1.004   1.591
 5029SOL    HW215987   6.868   1.067   1.641
 5030SOL     OW15988   1.417   5.888   6.773
 5030SOL    HW115989   1.424   5.986   6.752
 5030SOL    HW215990   1.474   5.866   6.852
 5031SOL     OW15991   5.321   0.248   5.023
 5031SOL    HW115992   5.389   0.177   5.042
 5031SOL    HW215993   5.269   0.223   4.942
 5032SOL     OW15994   1.746   5.727   1.107
 5032SOL    HW115995   1.647   5.722   1.118
 5032SOL    HW215996   1.777   5.651   1.050
 5033SOL     OW15997   1.841   4.322   5.652
 5033SOL    HW115998   1.903   4.391   5.689
 5033SOL    HW215999   1.882   4.281   5.570
 5034SOL     OW16000   6.756   3.411   1.146
 5034SOL    HW116001   6.835   3.467   1.120
 5034SOL    HW216002   6.767   3.379   1.241
 5035SOL     OW16003   5.813   4.168   0.667
 5035SOL    HW116004   5.903   4.127   0.670
 5035SOL    HW216005   5.751   4.120   0.729
 5036SOL     OW16006   1.495   0.338   2.022
 5036SOL    HW116007   1.470   0.242   2.037
 5036SOL    HW216008   1.447   0.396   2.088
 5037SOL     OW16009   4.544   2.274   3.560
 5037SOL    HW116010   4.561   2.331   3.480
 5037SOL    HW216011   4.605   2.301   3.634
 5038SOL     OW16012   2.797   6.429   5.826
 5038SOL    HW116013   2.836   6.446   5.917
 5038SOL    HW216014   2.705   6.469   5.822
 5039SOL     OW16015   1.622   1.765   4.675
 5039SOL    HW116016   1.573   1.678   4.667
 5039SOL    HW216017   1.603   1.806   4.764
 5040SOL     OW16018   2.650   3.444   5.910
 5040SOL    HW116019   2.564   3.493   5.895
 5040SOL    HW216020   2.631   3.346   5.919
 5041SOL     OW16021   1.281   4.660   0.540
 5041SOL    HW116022   1.287   4.635   0.637
 5041SOL    HW216023   1.185   4.664   0.513
 5042SOL     OW16024   5.798   2.486   6.206
 5042SOL    HW116025   5.737   2.412   6.234
 5042SOL    HW216026   5.876   2.448   6.155
 5043SOL     OW16027   4.382   0.439   3.397
 5043SOL    HW116028   4.293   0.412   3.359
 5043SOL    HW216029   4.408   0.375   3.470
 5044SOL     OW16030   6.649   4.683   3.280
 5044SOL    HW116031   6.681   4.603   3.331
 5044SOL    HW216032   6.550   4.677   3.268
 5045SOL     OW16033   6.226   2.707   6.629
 5045SOL    HW116034   6.199   2.720   6.725
 5045SOL    HW216035   6.145   2.686   6.574
 5046SOL     OW16036   3.181   3.027   4.790
 5046SOL    HW116037   3.226   3.090   4.728
 5046SOL    HW216038   3.244   2.954   4.815
 5047SOL     OW16039   0.889   0.984   2.932
 5047SOL    HW116040   0.935   1.072   2.925
 5047SOL    HW216041   0.825   0.973   2.856
 5048SOL     OW16042   5.501   2.853   1.711
 5048SOL    HW116043   5.469   2.772   1.661
 5048SOL    HW216044   5.556   2.910   1.650
 5049SOL     OW16045   1.437   2.463   2.542
 5049SOL    HW116046   1.374   2.539   2.529
 5049SOL    HW216047   1.486   2.474   2.628
 5050SOL     OW16048   0.606   3.493   1.264
 5050SOL    HW116049   0.559   3.493   1.353
 5050SOL    HW216050   0.694   3.538   1.273
 5051SOL     OW16051   2.865   5.143   0.251
 5051SOL    HW116052   2.940   5.208   0.239
 5051SOL    HW216053   2.846   5.097   0.165
 5052SOL     OW16054   5.603   4.490   1.011
 5052SOL    HW116055   5.561   4.401   1.025
 5052SOL    HW216056   5.623   4.503   0.914
 5053SOL     OW16057   2.352   4.612   0.373
 5053SOL    HW116058   2.356   4.517   0.404
 5053SOL    HW216059   2.311   4.615   0.282
 5054SOL     OW16060   3.772   5.707   4.718
 5054SOL    HW116061   3.802   5.732   4.810
 5054SOL    HW216062   3.721   5.782   4.677
 5055SOL     OW16063   1.550   2.084   4.604
 5055SOL    HW116064   1.455   2.053   4.613
 5055SOL    HW216065   1.571   2.097   4.507
 5056SOL     OW16066   1.874   3.025   5.391
 5056SOL    HW116067   1.951   2.962   5.392
 5056SOL    HW216068   1.905   3.116   5.366
 5057SOL     OW16069   0.518   4.782   2.850
 5057SOL    HW116070   0.589   4.749   2.788
 5057SOL    HW216071   0.456   4.843   2.801
 5058SOL     OW16072   3.544   4.259   6.711
 5058SOL    HW116073   3.626   4.244   6.655
 5058SOL    HW216074   3.548   4.200   6.792
 5059SOL     OW16075   3.298   1.659   3.422
 5059SOL    HW116076   3.276   1.735   3.484
 5059SOL    HW216077   3.252   1.576   3.453
 5060SOL     OW16078   0.361   3.234   6.018
 5060SOL    HW116079   0.387   3.306   5.954
 5060SOL    HW216080   0.444   3.196   6.060
 5061SOL     OW16081   3.758   2.916   5.757
 5061SOL    HW116082   3.721   2.877   5.841
 5061SOL    HW216083   3.839   2.970   5.778
 5062SOL     OW16084   5.043   1.462   3.318
 5062SOL    HW116085   5.081   1.524   3.387
 5062SOL    HW216086   5.011   1.515   3.240
 5063SOL     OW16087   0.815   0.718   2.616
 5063SOL    HW116088   0.819   0.713   2.516
 5063SOL    HW216089   0.908   0.719   2.653
 5064SOL     OW16090   4.893   5.745   1.107
 5064SOL    HW116091   4.840   5.708   1.183
 5064SOL    HW216092   4.864   5.700   1.022
 5065SOL     OW16093   2.319   0.456   2.304
 5065SOL    HW116094   2.233   0.446   2.255
 5065SOL    HW216095   2.307   0.519   2.381
 5066SOL     OW16096   2.605   4.834   1.825
 5066SOL    HW116097   2.571   4.928   1.836
 5066SOL    HW216098   2.634   4.799   1.914
 5067SOL     OW16099   4.772   2.978   0.420
 5067SOL    HW116100   4.806   2.932   0.502
 5067SOL    HW216101   4.841   2.973   0.348
 5068SOL     OW16102   2.777   6.285   0.802
 5068SOL    HW116103   2.722   6.201   0.801
 5068SOL    HW216104   2.720   6.362   0.828
 5069SOL     OW16105   3.244   4.944   5.519
 5069SOL    HW116106   3.319   4.906   5.466
 5069SOL    HW216107   3.185   4.870   5.551
 5070SOL     OW16108   6.082   3.428   3.662
 5070SOL    HW116109   6.087   3.503   3.727
 5070SOL    HW216110   6.174   3.408   3.628
 5071SOL     OW16111   2.801   0.653   4.390
 5071SOL    HW116112   2.737   0.586   4.354
 5071SOL    HW216113   2.792   0.659   4.489
 5072SOL     OW16114   0.617   1.539   0.198
 5072SOL    HW116115   0.617   1.450   0.244
 5072SOL    HW216116   0.578   1.529   0.106
 5073SOL     OW16117   2.331   0.845   2.775
 5073SOL    HW116118   2.250   0.900   2.794
 5073SOL    HW216119   2.325   0.807   2.683
 5074SOL     OW16120   3.440   2.263   1.705
 5074SOL    HW116121   3.375   2.214   1.763
 5074SOL    HW216122   3.524   2.281   1.757
 5075SOL     OW16123   1.101   3.559   0.180
 5075SOL    HW116124   1.028   3.551   0.248
 5075SOL    HW216125   1.154   3.642   0.198
 5076SOL     OW16126   5.563   0.213   6.265
 5076SOL    HW116127   5.561   0.312   6.251
 5076SOL    HW216128   5.473   0.175   6.244
 5077SOL     OW16129   0.808   4.538   3.966
 5077SOL    HW116130   0.866   4.547   4.046
 5077SOL    HW216131   0.713   4.557   3.991
 5078SOL     OW16132   0.905   1.618   4.191
 5078SOL    HW116133   0.903   1.578   4.099
 5078SOL    HW216134   0.811   1.629   4.225
 5079SOL     OW16135   1.236   2.949   5.516
 5079SOL    HW116136   1.203   3.032   5.560
 5079SOL    HW216137   1.254   2.879   5.586
 5080SOL     OW16138   5.849   5.644   6.664
 5080SOL    HW116139   5.909   5.593   6.725
 5080SOL    HW216140   5.902   5.712   6.614
 5081SOL     OW16141   3.300   5.185   5.616
 5081SOL    HW116142   3.283   5.095   5.574
 5081SOL    HW216143   3.397   5.207   5.610
 5082SOL     OW16144   5.200   5.958   2.222
 5082SOL    HW116145   5.180   6.024   2.150
 5082SOL    HW216146   5.272   5.896   2.192
 5083SOL     OW16147   1.482   0.174   3.367
 5083SOL    HW116148   1.471   0.261   3.319
 5083SOL    HW216149   1.452   0.185   3.462
 5084SOL     OW16150   2.099   5.074   5.539
 5084SOL    HW116151   2.192   5.067   5.504
 5084SOL    HW216152   2.046   4.995   5.511
 5085SOL     OW16153   0.491   4.124   6.056
 5085SOL    HW116154   0.478   4.202   6.118
 5085SOL    HW216155   0.481   4.155   5.961
 5086SOL     OW16156   2.099   5.462   2.348
 5086SOL    HW116157   2.142   5.475   2.258
 5086SOL    HW216158   2.013   5.412   2.337
 5087SOL     OW16159   6.699   4.905   1.826
 5087SOL    HW116160   6.785   4.855   1.822
 5087SOL    HW216161   6.658   4.909   1.735
 5088SOL     OW16162   5.105   6.374   1.822
 5088SOL    HW116163   5.150   6.451   1.867
 5088SOL    HW216164   5.174   6.316   1.779
 5089SOL     OW16165   5.840   4.937   5.478
 5089SOL    HW116166   5.847   4.840   5.456
 5089SOL    HW216167   5.932   4.975   5.490
 5090SOL     OW16168   3.053   0.112   4.871
 5090SOL    HW116169   3.137   0.060   4.854
 5090SOL    HW216170   3.052   0.193   4.813
 5091SOL     OW16171   6.323   6.892   6.818
 5091SOL    HW116172   6.349   6.988   6.826
 5091SOL    HW216173   6.259   6.868   6.890
 5092SOL     OW16174   2.901   3.403   3.956
 5092SOL    HW116175   2.887   3.492   3.999
 5092SOL    HW216176   2.917   3.334   4.026
 5093SOL     OW16177   2.006   2.241   2.991
 5093SOL    HW116178   2.027   2.211   2.899
 5093SOL    HW216179   2.088   2.280   3.033
 5094SOL     OW16180   2.424   5.264   5.756
 5094SOL    HW116181   2.343   5.311   5.719
 5094SOL    HW216182   2.499   5.329   5.767
 5095SOL     OW16183   6.454   1.544   3.323
 5095SOL    HW116184   6.526   1.582   3.266
 5095SOL    HW216185   6.454   1.445   3.317
 5096SOL     OW16186   5.622   3.230   5.587
 5096SOL    HW116187   5.677   3.149   5.567
 5096SOL    HW216188   5.562   3.211   5.665
 5097SOL     OW16189   1.221   0.333   6.412
 5097SOL    HW116190   1.193   0.398   6.342
 5097SOL    HW216191   1.149   0.324   6.481
 5098SOL     OW16192   3.802   2.456   1.384
 5098SOL    HW116193   3.864   2.442   1.307
 5098SOL    HW216194   3.852   2.500   1.459
 5099SOL     OW16195   0.994   0.263   1.988
 5099SOL    HW116196   0.902   0.248   2.024
 5099SOL    HW216197   1.025   0.181   1.941
 5100SOL     OW16198   5.931   4.526   2.600
 5100SOL    HW116199   5.855   4.482   2.648
 5100SOL    HW216200   6.013   4.469   2.609
 5101SOL     OW16201   3.768   0.102   6.393
 5101SOL    HW116202   3.864   0.131   6.388
 5101SOL    HW216203   3.714   0.152   6.325
 5102SOL     OW16204   4.874   4.431   4.709
 5102SOL    HW116205   4.959   4.413   4.759
 5102SOL    HW216206   4.819   4.349   4.706
 5103SOL     OW16207   1.168   1.027   6.498
 5103SOL    HW116208   1.253   1.000   6.451
 5103SOL    HW216209   1.109   0.947   6.508
 5104SOL     OW16210   3.551   3.500   1.598
 5104SOL    HW116211   3.459   3.520   1.563
 5104SOL    HW216212   3.611   3.476   1.522
 5105SOL     OW16213   4.169   3.911   6.349
 5105SOL    HW116214   4.152   3.907   6.250
 5105SOL    HW216215   4.086   3.887   6.398
 5106SOL     OW16216   4.291   2.373   0.721
 5106SOL    HW116217   4.311   2.419   0.808
 5106SOL    HW216218   4.330   2.426   0.646
 5107SOL     OW16219   4.640   3.391   0.244
 5107SOL    HW116220   4.635   3.322   0.171
 5107SOL    HW216221   4.547   3.419   0.269
 5108SOL     OW16222   4.086   4.941   6.913
 5108SOL    HW116223   4.119   4.992   6.993
 5108SOL    HW216224   4.041   4.857   6.943
 5109SOL     OW16225   1.134   2.734   1.371
 5109SOL    HW116226   1.214   2.676   1.352
 5109SOL    HW216227   1.162   2.830   1.372
 5110SOL     OW16228   4.873   0.753   5.942
 5110SOL    HW116229   4.872   0.826   6.010
 5110SOL    HW216230   4.848   0.790   5.853
 5111SOL     OW16231   0.710   6.600   4.990
 5111SOL    HW116232   0.781   6.529   5.000
 5111SOL    HW216233   0.754   6.687   4.967
 5112SOL     OW16234   0.162   6.955   2.639
 5112SOL    HW116235   0.065   6.970   2.624
 5112SOL    HW216236   0.176   6.909   2.727
 5113SOL     OW16237   1.925   3.774   0.208
 5113SOL    HW116238   1.882   3.798   0.121
 5113SOL    HW216239   2.003   3.833   0.224
 5114SOL     OW16240   4.779   5.390   1.015
 5114SOL    HW116241   4.709   5.452   1.051
 5114SOL    HW216242   4.734   5.313   0.969
 5115SOL     OW16243   2.315   3.612   1.230
 5115SOL    HW116244   2.344   3.525   1.270
 5115SOL    HW216245   2.267   3.595   1.143
 5116SOL     OW16246   1.808   6.857   6.619
 5116SOL    HW116247   1.801   6.899   6.710
 5116SOL    HW216248   1.881   6.789   6.620
 5117SOL     OW16249   1.149   2.310   3.996
 5117SOL    HW116250   1.115   2.279   3.907
 5117SOL    HW216251   1.141   2.236   4.063
 5118SOL     OW16252   5.164   6.280   6.395
 5118SOL    HW116253   5.257   6.316   6.390
 5118SOL    HW216254   5.161   6.205   6.461
 5119SOL     OW16255   5.276   1.465   0.600
 5119SOL    HW116256   5.276   1.554   0.555
 5119SOL    HW216257   5.182   1.432   0.607
 5120SOL     OW16258   5.449   6.767   5.655
 5120SOL    HW116259   5.415   6.777   5.562
 5120SOL    HW216260   5.407   6.836   5.713
 5121SOL     OW16261   1.607   4.079   6.711
 5121SOL    HW116262   1.642   4.038   6.627
 5121SOL    HW216263   1.681   4.090   6.777
 5122SOL     OW16264   4.953   5.130   4.264
 5122SOL    HW116265   5.024   5.198   4.284
 5122SOL    HW216266   4.863   5.171   4.278
 5123SOL     OW16267   5.292   3.013   1.758
 5123SOL    HW116268   5.360   2.940   1.760
 5123SOL    HW216269   5.248   3.016   1.668
 5124SOL     OW16270   2.295   6.036   3.818
 5124SOL    HW116271   2.226   5.974   3.855
 5124SOL    HW216272   2.267   6.131   3.835
 5125SOL     OW16273   0.109   1.806   3.618
 5125SOL    HW116274   0.109   1.766   3.527
 5125SOL    HW216275   0.202   1.806   3.655
 5126SOL     OW16276   2.278   0.046   0.285
 5126SOL    HW116277   2.210   0.028   0.214
 5126SOL    HW216278   2.279   6.990   0.350
 5127SOL     OW16279   1.589   5.094   6.882
 5127SOL    HW116280   1.645   5.164   6.927
 5127SOL    HW216281   1.636   5.060   6.801
 5128SOL     OW16282   6.395   6.536   1.493
 5128SOL    HW116283   6.381   6.598   1.416
 5128SOL    HW216284   6.318   6.471   1.498
 5129SOL     OW16285   5.655   6.665   1.160
 5129SOL    HW116286   5.731   6.700   1.105
 5129SOL    HW216287   5.640   6.726   1.237
 5130SOL     OW16288   6.777   5.081   3.085
 5130SOL    HW116289   6.826   5.017   3.145
 5130SOL    HW216290   6.835   5.103   3.006
 5131SOL     OW16291   2.509   2.539   3.068
 5131SOL    HW116292   2.482   2.611   3.004
 5131SOL    HW216293   2.593   2.496   3.037
 5132SOL     OW16294   2.797   5.399   5.171
 5132SOL    HW116295   2.766   5.475   5.229
 5132SOL    HW216296   2.842   5.330   5.228
 5133SOL     OW16297   3.835   6.359   6.392
 5133SOL    HW116298   3.934   6.360   6.388
 5133SOL    HW216299   3.803   6.267   6.415
 5134SOL     OW16300   0.277   3.761   0.403
 5134SOL    HW116301   0.293   3.765   0.501
 5134SOL    HW216302   0.308   3.673   0.367
 5135SOL     OW16303   6.493   1.800   4.444
 5135SOL    HW116304   6.564   1.745   4.401
 5135SOL    HW216305   6.446   1.854   4.375
 5136SOL     OW16306   4.188   1.577   3.942
 5136SOL    HW116307   4.127   1.581   3.863
 5136SOL    HW216308   4.283   1.568   3.910
 5137SOL     OW16309   3.469   4.455   6.267
 5137SOL    HW116310   3.515   4.480   6.353
 5137SOL    HW216311   3.537   4.420   6.203
 5138SOL     OW16312   2.490   3.650   5.811
 5138SOL    HW116313   2.510   3.747   5.818
 5138SOL    HW216314   2.454   3.629   5.721
 5139SOL     OW16315   0.619   0.144   3.489
 5139SOL    HW116316   0.573   0.113   3.572
 5139SOL    HW216317   0.709   0.180   3.511
 5140SOL     OW16318   3.146   2.745   1.154
 5140SOL    HW116319   3.194   2.681   1.094
 5140SOL    HW216320   3.206   2.770   1.230
 5141SOL     OW16321   6.190   3.278   6.860
 5141SOL    HW116322   6.120   3.215   6.895
 5141SOL    HW216323   6.150   3.335   6.789
 5142SOL     OW16324   5.570   3.429   4.388
 5142SOL    HW116325   5.642   3.498   4.380
 5142SOL    HW216326   5.610   3.341   4.414
 5143SOL     OW16327   6.674   5.453   4.278
 5143SOL    HW116328   6.682   5.400   4.194
 5143SOL    HW216329   6.738   5.418   4.346
 5144SOL     OW16330   1.495   1.327   5.303
 5144SOL    HW116331   1.552   1.279   5.370
 5144SOL    HW216332   1.496   1.277   5.217
 5145SOL     OW16333   2.843   5.228   5.907
 5145SOL    HW116334   2.856   5.246   6.004
 5145SOL    HW216335   2.933   5.220   5.862
 5146SOL     OW16336   2.792   4.991   0.046
 5146SOL    HW116337   2.724   4.938   0.096
 5146SOL    HW216338   2.746   5.049   6.998
 5147SOL     OW16339   5.896   4.519   6.544
 5147SOL    HW116340   5.834   4.583   6.499
 5147SOL    HW216341   5.965   4.570   6.596
 5148SOL     OW16342   0.740   5.823   1.562
 5148SOL    HW116343   0.727   5.839   1.465
 5148SOL    HW216344   0.672   5.758   1.596
 5149SOL     OW16345   6.923   1.361   4.733
 5149SOL    HW116346   7.013   1.400   4.750
 5149SOL    HW216347   6.865   1.429   4.688
 5150SOL     OW16348   1.769   5.030   4.551
 5150SOL    HW116349   1.808   5.092   4.619
 5150SOL    HW216350   1.720   4.956   4.598
 5151SOL     OW16351   4.248   0.898   6.561
 5151SOL    HW116352   4.184   0.897   6.639
 5151SOL    HW216353   4.212   0.956   6.489
 5152SOL     OW16354   0.596   5.072   7.012
 5152SOL    HW116355   0.601   4.982   6.969
 5152SOL    HW216356   0.601   5.062   0.091
 5153SOL     OW16357   1.706   1.957   0.595
 5153SOL    HW116358   1.769   1.915   0.661
 5153SOL    HW216359   1.716   1.914   0.506
 5154SOL     OW16360   1.971   2.875   4.754
 5154SOL    HW116361   1.909   2.820   4.810
 5154SOL    HW216362   2.061   2.881   4.799
 5155SOL     OW16363   3.076   0.524   2.526
 5155SOL    HW116364   3.048   0.559   2.436
 5155SOL    HW216365   3.175   0.530   2.534
 5156SOL     OW16366   5.947   2.622   4.997
 5156SOL    HW116367   5.848   2.633   4.988
 5156SOL    HW216368   5.968   2.586   5.088
 5157SOL     OW16369   5.285   3.095   3.534
 5157SOL    HW116370   5.341   3.135   3.607
 5157SOL    HW216371   5.330   3.107   3.446
 5158SOL     OW16372   4.209   1.697   1.526
 5158SOL    HW116373   4.128   1.643   1.504
 5158SOL    HW216374   4.189   1.755   1.605
 5159SOL     OW16375   1.737   3.355   3.954
 5159SOL    HW116376   1.821   3.308   3.925
 5159SOL    HW216377   1.678   3.290   4.001
 5160SOL     OW16378   1.919   3.066   4.212
 5160SOL    HW116379   1.847   3.132   4.232
 5160SOL    HW216380   1.987   3.067   4.285
 5161SOL     OW16381   1.327   3.109   5.900
 5161SOL    HW116382   1.407   3.147   5.946
 5161SOL    HW216383   1.322   3.144   5.806
 5162SOL     OW16384   6.781   6.376   4.152
 5162SOL    HW116385   6.812   6.326   4.071
 5162SOL    HW216386   6.848   6.366   4.225
 5163SOL     OW16387   5.718   3.825   0.689
 5163SOL    HW116388   5.687   3.897   0.627
 5163SOL    HW216389   5.815   3.806   0.672
 5164SOL     OW16390   5.577   4.125   5.889
 5164SOL    HW116391   5.573   4.148   5.986
 5164SOL    HW216392   5.615   4.033   5.877
 5165SOL     OW16393   6.501   4.390   4.344
 5165SOL    HW116394   6.490   4.321   4.273
 5165SOL    HW216395   6.474   4.480   4.309
 5166SOL     OW16396   1.199   6.516   1.872
 5166SOL    HW116397   1.261   6.480   1.942
 5166SOL    HW216398   1.145   6.442   1.833
 5167SOL     OW16399   0.271   6.582   5.986
 5167SOL    HW116400   0.199   6.553   5.923
 5167SOL    HW216401   0.357   6.590   5.936
 5168SOL     OW16402   4.077   2.205   2.937
 5168SOL    HW116403   4.124   2.250   2.862
 5168SOL    HW216404   4.083   2.261   3.020
 5169SOL     OW16405   3.534   4.273   5.868
 5169SOL    HW116406   3.449   4.221   5.856
 5169SOL    HW216407   3.553   4.284   5.965
 5170SOL     OW16408   5.509   3.868   4.768
 5170SOL    HW116409   5.491   3.810   4.689
 5170SOL    HW216410   5.548   3.813   4.842
 5171SOL     OW16411   2.600   4.591   4.420
 5171SOL    HW116412   2.637   4.573   4.511
 5171SOL    HW216413   2.671   4.630   4.362
 5172SOL     OW16414   0.945   5.156   1.636
 5172SOL    HW116415   1.031   5.106   1.634
 5172SOL    HW216416   0.934   5.200   1.726
 5173SOL     OW16417   5.552   3.433   5.937
 5173SOL    HW116418   5.578   3.366   6.006
 5173SOL    HW216419   5.494   3.389   5.869
 5174SOL     OW16420   1.147   4.660   6.026
 5174SOL    HW116421   1.100   4.701   5.948
 5174SOL    HW216422   1.203   4.583   5.994
 5175SOL     OW16423   0.159   4.762   6.510
 5175SOL    HW116424   0.154   4.790   6.414
 5175SOL    HW216425   0.176   4.663   6.515
 5176SOL     OW16426   5.711   3.616   0.440
 5176SOL    HW116427   5.800   3.628   0.395
 5176SOL    HW216428   5.698   3.689   0.507
 5177SOL     OW16429   5.119   0.086   6.351
 5177SOL    HW116430   5.112   7.010   6.324
 5177SOL    HW216431   5.055   0.104   6.425
 5178SOL     OW16432   2.473   2.643   1.960
 5178SOL    HW116433   2.387   2.592   1.948
 5178SOL    HW216434   2.465   2.732   1.915
 5179SOL     OW16435   2.998   6.054   5.790
 5179SOL    HW116436   2.942   6.055   5.707
 5179SOL    HW216437   3.017   5.960   5.816
 5180SOL     OW16438   2.849   1.845   1.412
 5180SOL    HW116439   2.886   1.918   1.355
 5180SOL    HW216440   2.886   1.852   1.504
 5181SOL     OW16441   4.243   6.575   2.656
 5181SOL    HW116442   4.234   6.485   2.699
 5181SOL    HW216443   4.224   6.646   2.724
 5182SOL     OW16444   5.029   4.615   1.848
 5182SOL    HW116445   4.966   4.572   1.912
 5182SOL    HW216446   5.120   4.624   1.890
 5183SOL     OW16447   4.471   0.326   2.337
 5183SOL    HW116448   4.416   0.275   2.404
 5183SOL    HW216449   4.411   0.365   2.267
 5184SOL     OW16450   0.877   0.920   3.215
 5184SOL    HW116451   0.845   0.964   3.131
 5184SOL    HW216452   0.845   0.972   3.294
 5185SOL     OW16453   3.924   0.703   2.461
 5185SOL    HW116454   3.904   0.701   2.559
 5185SOL    HW216455   3.921   0.798   2.429
 5186SOL     OW16456   6.413   4.615   0.567
 5186SOL    HW116457   6.476   4.557   0.516
 5186SOL    HW216458   6.398   4.577   0.658
 5187SOL     OW16459   5.121   1.988   3.859
 5187SOL    HW116460   5.032   2.014   3.820
 5187SOL    HW216461   5.190   1.985   3.787
 5188SOL     OW16462   1.055   4.107   5.855
 5188SOL    HW116463   1.079   4.195   5.815
 5188SOL    HW216464   1.108   4.094   5.939
 5189SOL     OW16465   4.706   5.648   6.540
 5189SOL    HW116466   4.621   5.678   6.496
 5189SOL    HW216467   4.688   5.623   6.635
 5190SOL     OW16468   1.663   2.378   3.649
 5190SOL    HW116469   1.686   2.317   3.725
 5190SOL    HW216470   1.736   2.378   3.582
 5191SOL     OW16471   3.866   0.152   1.757
 5191SOL    HW116472   3.920   0.234   1.737
 5191SOL    HW216473   3.927   0.079   1.788
 5192SOL     OW16474   6.132   5.250   2.573
 5192SOL    HW116475   6.081   5.168   2.598
 5192SOL    HW216476   6.090   5.292   2.493
 5193SOL     OW16477   4.822   3.973   2.706
 5193SOL    HW116478   4.791   3.898   2.647
 5193SOL    HW216479   4.859   4.047   2.650
 5194SOL     OW16480   6.031   0.697   5.499
 5194SOL    HW116481   5.964   0.767   5.521
 5194SOL    HW216482   6.119   0.720   5.541
 5195SOL     OW16483   6.853   5.871   6.067
 5195SOL    HW116484   6.825   5.818   5.986
 5195SOL    HW216485   6.779   5.932   6.093
 5196SOL     OW16486   0.098   3.854   2.120
 5196SOL    HW116487   0.004   3.853   2.086
 5196SOL    HW216488   0.160   3.867   2.042
 5197SOL     OW16489   3.145   6.118   4.735
 5197SOL    HW116490   3.088   6.099   4.655
 5197SOL    HW216491   3.121   6.057   4.809
 5198SOL     OW16492   4.499   6.727   5.253
 5198SOL    HW116493   4.493   6.647   5.313
 5198SOL    HW216494   4.551   6.703   5.171
 5199SOL     OW16495   1.232   4.781   1.860
 5199SOL    HW116496   1.199   4.851   1.796
 5199SOL    HW216497   1.195   4.799   1.951
 5200SOL     OW16498   6.838   0.625   5.334
 5200SOL    HW116499   6.789   0.709   5.316
 5200SOL    HW216500   6.914   0.615   5.269
 5201SOL     OW16501   6.472   5.161   4.242
 5201SOL    HW116502   6.420   5.077   4.261
 5201SOL    HW216503   6.418   5.220   4.183
 5202SOL     OW16504   3.834   2.948   6.255
 5202SOL    HW116505   3.759   2.997   6.300
 5202SOL    HW216506   3.896   2.910   6.323
 5203SOL     OW16507   1.851   0.274   0.121
 5203SOL    HW116508   1.846   0.255   0.219
 5203SOL    HW216509   1.759   0.289   0.085
 5204SOL     OW16510   3.126   0.645   0.401
 5204SOL    HW116511   3.211   0.663   0.351
 5204SOL    HW216512   3.050   0.640   0.336
 5205SOL     OW16513   0.586   5.750   1.115
 5205SOL    HW116514   0.686   5.749   1.115
 5205SOL    HW216515   0.553   5.826   1.060
 5206SOL     OW16516   1.058   4.652   4.198
 5206SOL    HW116517   1.013   4.741   4.200
 5206SOL    HW216518   1.130   4.650   4.267
 5207SOL     OW16519   0.079   0.235   3.441
 5207SOL    HW116520   0.033   0.236   3.529
 5207SOL    HW216521   0.144   0.160   3.438
 5208SOL     OW16522   4.864   2.163   0.514
 5208SOL    HW116523   4.886   2.240   0.455
 5208SOL    HW216524   4.799   2.103   0.468
 5209SOL     OW16525   5.904   6.070   2.516
 5209SOL    HW116526   5.866   5.987   2.477
 5209SOL    HW216527   5.917   6.138   2.444
 5210SOL     OW16528   5.468   4.233   6.920
 5210SOL    HW116529   5.434   4.274   6.836
 5210SOL    HW216530   5.424   4.276   6.999
 5211SOL     OW16531   4.871   3.026   4.706
 5211SOL    HW116532   4.814   3.103   4.734
 5211SOL    HW216533   4.828   2.940   4.735
 5212SOL     OW16534   0.987   3.622   0.660
 5212SOL    HW116535   1.085   3.617   0.677
 5212SOL    HW216536   0.963   3.713   0.626
 5213SOL     OW16537   4.141   3.638   2.609
 5213SOL    HW116538   4.188   3.558   2.572
 5213SOL    HW216539   4.048   3.613   2.634
 5214SOL     OW16540   5.277   3.638   5.460
 5214SOL    HW116541   5.326   3.665   5.377
 5214SOL    HW216542   5.339   3.643   5.538
 5215SOL     OW16543   0.411   3.680   5.053
 5215SOL    HW116544   0.443   3.616   4.983
 5215SOL    HW216545   0.484   3.696   5.119
 5216SOL     OW16546   5.148   5.210   1.132
 5216SOL    HW116547   5.090   5.291   1.125
 5216SOL    HW216548   5.215   5.210   1.058
 5217SOL     OW16549   4.255   6.181   3.484
 5217SOL    HW116550   4.225   6.234   3.564
 5217SOL    HW216551   4.321   6.112   3.513
 5218SOL     OW16552   0.944   6.850   1.132
 5218SOL    HW116553   0.888   6.838   1.214
 5218SOL    HW216554   0.968   6.947   1.123
 5219SOL     OW16555   3.400   1.531   4.904
 5219SOL    HW116556   3.416   1.628   4.883
 5219SOL    HW216557   3.431   1.512   4.997
 5220SOL     OW16558   2.409   4.615   3.915
 5220SOL    HW116559   2.420   4.517   3.898
 5220SOL    HW216560   2.313   4.640   3.904
 5221SOL     OW16561   6.317   5.836   1.010
 5221SOL    HW116562   6.379   5.837   1.088
 5221SOL    HW216563   6.334   5.917   0.953
 5222SOL     OW16564   6.047   3.904   0.968
 5222SOL    HW116565   6.053   3.860   0.879
 5222SOL    HW216566   6.125   3.876   1.025
 5223SOL     OW16567   0.292   3.176   0.799
 5223SOL    HW116568   0.276   3.271   0.772
 5223SOL    HW216569   0.271   3.116   0.722
 5224SOL     OW16570   0.376   2.421   4.762
 5224SOL    HW116571   0.291   2.418   4.814
 5224SOL    HW216572   0.358   2.456   4.671
 5225SOL     OW16573   0.064   1.887   4.712
 5225SOL    HW116574   0.089   1.892   4.808
 5225SOL    HW216575   6.998   1.937   4.697
 5226SOL     OW16576   0.878   6.522   3.916
 5226SOL    HW116577   0.871   6.532   4.015
 5226SOL    HW216578   0.832   6.438   3.888
 5227SOL     OW16579   0.058   2.935   5.249
 5227SOL    HW116580   0.109   2.970   5.328
 5227SOL    HW216581   6.982   2.963   5.257
 5228SOL     OW16582   1.041   1.487   5.923
 5228SOL    HW116583   1.050   1.470   6.021
 5228SOL    HW216584   0.944   1.503   5.901
 5229SOL     OW16585   3.234   1.233   5.973
 5229SOL    HW116586   3.157   1.206   6.029
 5229SOL    HW216587   3.211   1.222   5.876
 5230SOL     OW16588   6.713   6.671   1.897
 5230SOL    HW116589   6.812   6.669   1.892
 5230SOL    HW216590   6.675   6.630   1.814
 5231SOL     OW16591   6.868   2.133   1.695
 5231SOL    HW116592   6.807   2.072   1.644
 5231SOL    HW216593   6.854   2.227   1.663
 5232SOL     OW16594   1.536   2.750   5.651
 5232SOL    HW116595   1.588   2.833   5.630
 5232SOL    HW216596   1.448   2.775   5.692
 5233SOL     OW16597   2.596   0.180   2.853
 5233SOL    HW116598   2.615   0.086   2.828
 5233SOL    HW216599   2.645   0.242   2.792
 5234SOL     OW16600   1.721   2.301   0.229
 5234SOL    HW116601   1.710   2.263   0.137
 5234SOL    HW216602   1.803   2.263   0.271
 5235SOL     OW16603   2.279   2.814   1.406
 5235SOL    HW116604   2.263   2.822   1.504
 5235SOL    HW216605   2.215   2.748   1.367
 5236SOL     OW16606   3.407   5.466   1.822
 5236SOL    HW116607   3.400   5.551   1.874
 5236SOL    HW216608   3.378   5.483   1.728
 5237SOL     OW16609   1.729   1.965   2.821
 5237SOL    HW116610   1.718   2.013   2.734
 5237SOL    HW216611   1.792   1.888   2.809
 5238SOL     OW16612   0.741   6.319   2.791
 5238SOL    HW116613   0.710   6.363   2.706
 5238SOL    HW216614   0.661   6.291   2.845
 5239SOL     OW16615   2.507   3.789   1.196
 5239SOL    HW116616   2.568   3.752   1.126
 5239SOL    HW216617   2.426   3.731   1.204
 5240SOL     OW16618   2.025   3.546   5.721
 5240SOL    HW116619   2.069   3.635   5.727
 5240SOL    HW216620   2.090   3.479   5.685
 5241SOL     OW16621   0.515   5.626   2.204
 5241SOL    HW116622   0.598   5.626   2.149
 5241SOL    HW216623   0.507   5.539   2.253
 5242SOL     OW16624   4.699   0.294   6.991
 5242SOL    HW116625   4.700   0.388   6.957
 5242SOL    HW216626   4.629   0.241   6.942
 5243SOL     OW16627   2.565   6.596   2.363
 5243SOL    HW116628   2.564   6.627   2.268
 5243SOL    HW216629   2.629   6.519   2.372
 5244SOL     OW16630   4.589   2.269   6.945
 5244SOL    HW116631   4.629   2.250   0.015
 5244SOL    HW216632   4.503   2.320   6.957
 5245SOL     OW16633   3.902   3.395   1.662
 5245SOL    HW116634   3.996   3.428   1.649
 5245SOL    HW216635   3.867   3.361   1.575
 5246SOL     OW16636   6.076   3.532   0.421
 5246SOL    HW116637   6.145   3.499   0.485
 5246SOL    HW216638   5.999   3.468   0.419
 5247SOL     OW16639   4.248   2.094   6.305
 5247SOL    HW116640   4.344   2.097   6.331
 5247SOL    HW216641   4.193   2.065   6.383
 5248SOL     OW16642   6.721   1.048   3.559
 5248SOL    HW116643   6.770   1.095   3.633
 5248SOL    HW216644   6.633   1.017   3.594
 5249SOL     OW16645   0.339   4.882   6.865
 5249SOL    HW116646   0.396   4.889   6.783
 5249SOL    HW216647   0.254   4.932   6.851
 5250SOL     OW16648   1.900   5.474   1.256
 5250SOL    HW116649   1.857   5.387   1.230
 5250SOL    HW216650   1.834   5.548   1.243
 5251SOL     OW16651   0.729   4.641   0.392
 5251SOL    HW116652   0.784   4.587   0.328
 5251SOL    HW216653   0.778   4.653   0.477
 5252SOL     OW16654   4.290   6.610   2.382
 5252SOL    HW116655   4.270   6.602   2.480
 5252SOL    HW216656   4.314   6.520   2.346
 5253SOL     OW16657   6.812   6.067   4.601
 5253SOL    HW116658   6.902   6.023   4.605
 5253SOL    HW216659   6.816   6.156   4.647
 5254SOL     OW16660   5.647   6.847   3.975
 5254SOL    HW116661   5.571   6.906   4.000
 5254SOL    HW216662   5.725   6.903   3.947
 5255SOL     OW16663   6.210   1.647   5.458
 5255SOL    HW116664   6.160   1.716   5.510
 5255SOL    HW216665   6.212   1.674   5.362
 5256SOL     OW16666   0.172   1.589   2.688
 5256SOL    HW116667   0.216   1.615   2.602
 5256SOL    HW216668   0.240   1.549   2.750
 5257SOL     OW16669   3.879   0.778   6.403
 5257SOL    HW116670   3.943   0.850   6.376
 5257SOL    HW216671   3.897   0.753   6.499
 5258SOL     OW16672   3.954   1.336   2.974
 5258SOL    HW116673   3.926   1.349   3.069
 5258SOL    HW216674   4.054   1.340   2.968
 5259SOL     OW16675   6.483   5.458   3.405
 5259SOL    HW116676   6.502   5.362   3.428
 5259SOL    HW216677   6.411   5.462   3.336
 5260SOL     OW16678   2.676   1.073   0.627
 5260SOL    HW116679   2.703   1.156   0.578
 5260SOL    HW216680   2.603   1.095   0.692
 5261SOL     OW16681   5.425   3.954   6.928
 5261SOL    HW116682   5.430   4.051   6.905
 5261SOL    HW216683   5.517   3.914   6.926
 5262SOL     OW16684   1.984   0.803   2.593
 5262SOL    HW116685   1.885   0.815   2.602
 5262SOL    HW216686   2.011   0.717   2.635
 5263SOL     OW16687   1.274   6.384   2.102
 5263SOL    HW116688   1.194   6.410   2.155
 5263SOL    HW216689   1.340   6.338   2.161
 5264SOL     OW16690   6.147   1.614   1.792
 5264SOL    HW116691   6.222   1.616   1.726
 5264SOL    HW216692   6.065   1.575   1.749
 5265SOL     OW16693   6.288   5.102   4.523
 5265SOL    HW116694   6.377   5.147   4.517
 5265SOL    HW216695   6.245   5.102   4.433
 5266SOL     OW16696   2.107   0.541   6.924
 5266SOL    HW116697   2.010   0.566   6.923
 5266SOL    HW216698   2.115   0.442   6.930
 5267SOL     OW16699   5.454   3.011   4.311
 5267SOL    HW116700   5.532   3.067   4.282
 5267SOL    HW216701   5.423   3.042   4.401
 5268SOL     OW16702   5.186   0.472   6.062
 5268SOL    HW116703   5.200   0.557   6.112
 5268SOL    HW216704   5.168   0.493   5.965
 5269SOL     OW16705   0.586   0.236   3.940
 5269SOL    HW116706   0.570   0.225   4.038
 5269SOL    HW216707   0.619   0.150   3.901
 5270SOL     OW16708   6.916   2.068   5.659
 5270SOL    HW116709   6.966   2.127   5.596
 5270SOL    HW216710   6.979   2.003   5.702
 5271SOL     OW16711   0.579   4.786   3.115
 5271SOL    HW116712   0.651   4.723   3.144
 5271SOL    HW216713   0.570   4.784   3.015
 5272SOL     OW16714   4.678   0.606   0.242
 5272SOL    HW116715   4.683   0.609   0.142
 5272SOL    HW216716   4.594   0.560   0.270
 5273SOL     OW16717   1.542   2.141   2.914
 5273SOL    HW116718   1.622   2.097   2.873
 5273SOL    HW216719   1.509   2.085   2.991
 5274SOL     OW16720   4.805   5.138   1.886
 5274SOL    HW116721   4.755   5.224   1.874
 5274SOL    HW216722   4.878   5.132   1.818
 5275SOL     OW16723   4.436   1.775   6.555
 5275SOL    HW116724   4.357   1.823   6.592
 5275SOL    HW216725   4.493   1.839   6.504
 5276SOL     OW16726   4.603   6.275   1.992
 5276SOL    HW116727   4.691   6.320   2.005
 5276SOL    HW216728   4.611   6.178   2.015
 5277SOL     OW16729   2.495   2.847   1.804
 5277SOL    HW116730   2.505   2.945   1.788
 5277SOL    HW216731   2.483   2.800   1.716
 5278SOL     OW16732   4.624   3.954   1.524
 5278SOL    HW116733   4.711   3.999   1.506
 5278SOL    HW216734   4.568   4.013   1.582
 5279SOL     OW16735   2.748   5.578   2.814
 5279SOL    HW116736   2.782   5.632   2.891
 5279SOL    HW216737   2.653   5.604   2.795
 5280SOL     OW16738   5.280   6.153   4.563
 5280SOL    HW116739   5.212   6.178   4.633
 5280SOL    HW216740   5.349   6.225   4.558
 5281SOL     OW16741   0.084   2.152   1.549
 5281SOL    HW116742   0.018   2.152   1.625
 5281SOL    HW216743   0.136   2.067   1.551
 5282SOL     OW16744   4.849   1.745   2.491
 5282SOL    HW116745   4.866   1.839   2.462
 5282SOL    HW216746   4.751   1.731   2.503
 5283SOL     OW16747   5.145   5.053   6.679
 5283SOL    HW116748   5.086   5.112   6.734
 5283SOL    HW216749   5.234   5.044   6.723
 5284SOL     OW16750   5.754   2.960   3.797
 5284SOL    HW116751   5.763   3.009   3.883
 5284SOL    HW216752   5.805   2.874   3.801
 5285SOL     OW16753   3.324   5.882   3.291
 5285SOL    HW116754   3.365   5.792   3.307
 5285SOL    HW216755   3.394   5.945   3.259
 5286SOL     OW16756   2.203   4.726   1.951
 5286SOL    HW116757   2.120   4.707   2.004
 5286SOL    HW216758   2.225   4.823   1.956
 5287SOL     OW16759   0.961   1.434   1.369
 5287SOL    HW116760   0.933   1.522   1.408
 5287SOL    HW216761   0.919   1.360   1.422
 5288SOL     OW16762   3.974   0.530   0.471
 5288SOL    HW116763   3.933   0.525   0.562
 5288SOL    HW216764   3.965   0.623   0.435
 5289SOL     OW16765   2.364   5.281   1.345
 5289SOL    HW116766   2.385   5.348   1.274
 5289SOL    HW216767   2.293   5.318   1.405
 5290SOL     OW16768   5.015   5.951   0.555
 5290SOL    HW116769   5.010   6.010   0.636
 5290SOL    HW216770   5.008   6.006   0.472
 5291SOL     OW16771   1.554   5.093   5.993
 5291SOL    HW116772   1.543   5.088   5.894
 5291SOL    HW216773   1.486   5.035   6.037
 5292SOL     OW16774   4.997   2.956   6.019
 5292SOL    HW116775   4.973   2.918   6.108
 5292SOL    HW216776   4.914   2.971   5.965
 5293SOL     OW16777   0.796   0.823   4.636
 5293SOL    HW116778   0.706   0.790   4.666
 5293SOL    HW216779   0.868   0.776   4.687
 5294SOL     OW16780   5.424   2.031   5.430
 5294SOL    HW116781   5.385   2.104   5.374
 5294SOL    HW216782   5.364   1.951   5.428
 5295SOL     OW16783   5.965   0.869   2.358
 5295SOL    HW116784   5.883   0.850   2.305
 5295SOL    HW216785   6.035   0.800   2.338
 5296SOL     OW16786   0.794   4.356   0.488
 5296SOL    HW116787   0.864   4.393   0.548
 5296SOL    HW216788   0.704   4.384   0.521
 5297SOL     OW16789   1.899   3.080   1.410
 5297SOL    HW116790   1.883   3.172   1.446
 5297SOL    HW216791   1.830   3.017   1.448
 5298SOL     OW16792   0.934   4.851   1.711
 5298SOL    HW116793   0.893   4.942   1.696
 5298SOL    HW216794   1.032   4.856   1.695
 5299SOL     OW16795   3.351   0.448   1.684
 5299SOL    HW116796   3.261   0.488   1.670
 5299SOL    HW216797   3.414   0.483   1.615
 5300SOL     OW16798   6.990   5.339   3.095
 5300SOL    HW116799   0.015   5.253   3.074
 5300SOL    HW216800   6.969   5.344   3.193
 5301SOL     OW16801   4.946   0.881   0.198
 5301SOL    HW116802   5.008   0.823   0.251
 5301SOL    HW216803   4.863   0.900   0.251
 5302SOL     OW16804   6.380   4.687   3.295
 5302SOL    HW116805   6.318   4.609   3.305
 5302SOL    HW216806   6.330   4.771   3.314
 5303SOL     OW16807   0.439   4.899   3.634
 5303SOL    HW116808   0.468   4.831   3.701
 5303SOL    HW216809   0.519   4.942   3.594
 5304SOL     OW16810   5.274   1.800   5.465
 5304SOL    HW116811   5.185   1.794   5.510
 5304SOL    HW216812   5.315   1.709   5.459
 5305SOL     OW16813   2.694   0.891   3.185
 5305SOL    HW116814   2.605   0.846   3.181
 5305SOL    HW216815   2.681   0.989   3.195
 5306SOL     OW16816   2.635   0.405   5.113
 5306SOL    HW116817   2.650   0.319   5.064
 5306SOL    HW216818   2.678   0.400   5.203
 5307SOL     OW16819   4.494   6.801   6.518
 5307SOL    HW116820   4.418   6.736   6.508
 5307SOL    HW216821   4.526   6.829   6.427
 5308SOL     OW16822   6.596   0.806   3.323
 5308SOL    HW116823   6.672   0.838   3.265
 5308SOL    HW216824   6.572   0.713   3.297
 5309SOL     OW16825   3.590   3.609   3.924
 5309SOL    HW116826   3.682   3.647   3.925
 5309SOL    HW216827   3.582   3.544   3.848
 5310SOL     OW16828   5.509   1.846   0.547
 5310SOL    HW116829   5.525   1.750   0.569
 5310SOL    HW216830   5.591   1.899   0.568
 5311SOL     OW16831   1.863   5.871   6.851
 5311SOL    HW116832   1.944   5.925   6.875
 5311SOL    HW216833   1.853   5.796   6.917
 5312SOL     OW16834   0.442   2.622   2.068
 5312SOL    HW116835   0.512   2.629   2.139
 5312SOL    HW216836   0.428   2.712   2.026
 5313SOL     OW16837   1.427   5.569   6.799
 5313SOL    HW116838   1.394   5.615   6.881
 5313SOL    HW216839   1.389   5.613   6.718
 5314SOL     OW16840   3.076   5.229   0.878
 5314SOL    HW116841   3.089   5.165   0.803
 5314SOL    HW216842   2.980   5.227   0.907
 5315SOL     OW16843   5.193   3.305   2.535
 5315SOL    HW116844   5.200   3.289   2.633
 5315SOL    HW216845   5.102   3.340   2.513
 5316SOL     OW16846   6.408   5.319   4.972
 5316SOL    HW116847   6.322   5.288   4.930
 5316SOL    HW216848   6.469   5.352   4.900
 5317SOL     OW16849   5.622   5.944   2.890
 5317SOL    HW116850   5.574   5.877   2.834
 5317SOL    HW216851   5.680   5.896   2.957
 5318SOL     OW16852   0.183   2.408   4.996
 5318SOL    HW116853   0.147   2.499   5.018
 5318SOL    HW216854   0.279   2.403   5.022
 5319SOL     OW16855   3.906   6.864   1.560
 5319SOL    HW116856   4.006   6.868   1.567
 5319SOL    HW216857   3.875   6.773   1.586
 5320SOL     OW16858   5.745   3.631   6.067
 5320SOL    HW116859   5.686   3.661   6.142
 5320SOL    HW216860   5.698   3.560   6.014
 5321SOL     OW16861   1.676   5.108   6.400
 5321SOL    HW116862   1.771   5.112   6.433
 5321SOL    HW216863   1.658   5.019   6.360
 5322SOL     OW16864   3.371   6.237   0.267
 5322SOL    HW116865   3.303   6.172   0.232
 5322SOL    HW216866   3.390   6.306   0.197
 5323SOL     OW16867   6.302   3.060   0.156
 5323SOL    HW116868   6.211   3.020   0.169
 5323SOL    HW216869   6.293   3.159   0.150
 5324SOL     OW16870   3.743   2.928   1.783
 5324SOL    HW116871   3.672   2.858   1.781
 5324SOL    HW216872   3.728   2.989   1.861
 5325SOL     OW16873   4.993   6.008   4.050
 5325SOL    HW116874   4.939   5.926   4.067
 5325SOL    HW216875   5.018   6.014   3.954
 5326SOL     OW16876   6.782   0.359   2.304
 5326SOL    HW116877   6.717   0.283   2.302
 5326SOL    HW216878   6.821   0.371   2.213
 5327SOL     OW16879   6.719   0.761   4.831
 5327SOL    HW116880   6.730   0.679   4.776
 5327SOL    HW216881   6.808   0.790   4.866
 5328SOL     OW16882   3.603   5.015   0.775
 5328SOL    HW116883   3.520   5.046   0.728
 5328SOL    HW216884   3.607   5.056   0.866
 5329SOL     OW16885   6.725   5.325   0.337
 5329SOL    HW116886   6.814   5.304   0.378
 5329SOL    HW216887   6.669   5.242   0.338
 5330SOL     OW16888   3.811   4.929   0.385
 5330SOL    HW116889   3.851   4.959   0.298
 5330SOL    HW216890   3.715   4.904   0.370
 5331SOL     OW16891   4.171   2.677   6.641
 5331SOL    HW116892   4.185   2.605   6.574
 5331SOL    HW216893   4.251   2.684   6.700
 5332SOL     OW16894   6.494   3.009   0.329
 5332SOL    HW116895   6.438   3.016   0.246
 5332SOL    HW216896   6.449   2.947   0.394
 5333SOL     OW16897   1.269   1.997   4.043
 5333SOL    HW116898   1.256   1.934   3.966
 5333SOL    HW216899   1.321   2.077   4.013
 5334SOL     OW16900   3.169   5.918   1.875
 5334SOL    HW116901   3.085   5.920   1.929
 5334SOL    HW216902   3.188   6.010   1.841
 5335SOL     OW16903   0.388   4.264   1.326
 5335SOL    HW116904   0.428   4.345   1.369
 5335SOL    HW216905   0.338   4.290   1.244
 5336SOL     OW16906   1.348   2.987   4.749
 5336SOL    HW116907   1.385   3.077   4.725
 5336SOL    HW216908   1.322   2.986   4.845
 5337SOL     OW16909   6.029   5.229   0.659
 5337SOL    HW116910   6.127   5.209   0.667
 5337SOL    HW216911   5.998   5.276   0.741
 5338SOL     OW16912   6.038   3.395   1.111
 5338SOL    HW116913   6.052   3.328   1.184
 5338SOL    HW216914   6.001   3.480   1.149
 5339SOL     OW16915   5.639   3.728   2.745
 5339SOL    HW116916   5.691   3.811   2.729
 5339SOL    HW216917   5.575   3.713   2.669
 5340SOL     OW16918   5.014   3.844   2.375
 5340SOL    HW116919   4.954   3.842   2.295
 5340SOL    HW216920   4.972   3.792   2.449
 5341SOL     OW16921   4.088   4.796   3.796
 5341SOL    HW116922   4.187   4.799   3.811
 5341SOL    HW216923   4.060   4.702   3.780
 5342SOL     OW16924   6.618   5.999   4.905
 5342SOL    HW116925   6.653   5.909   4.931
 5342SOL    HW216926   6.646   6.021   4.812
 5343SOL     OW16927   3.386   2.686   6.560
 5343SOL    HW116928   3.422   2.599   6.591
 5343SOL    HW216929   3.337   2.731   6.635
 5344SOL     OW16930   0.992   1.422   6.166
 5344SOL    HW116931   1.070   1.408   6.228
 5344SOL    HW216932   0.941   1.337   6.158
 5345SOL     OW16933   4.353   1.175   6.859
 5345SOL    HW116934   4.396   1.119   6.788
 5345SOL    HW216935   4.342   1.268   6.827
 5346SOL     OW16936   3.129   6.404   3.605
 5346SOL    HW116937   3.184   6.484   3.628
 5346SOL    HW216938   3.034   6.432   3.591
 5347SOL     OW16939   5.449   1.736   4.067
 5347SOL    HW116940   5.402   1.759   3.982
 5347SOL    HW216941   5.548   1.739   4.052
 5348SOL     OW16942   5.246   2.690   4.433
 5348SOL    HW116943   5.335   2.735   4.421
 5348SOL    HW216944   5.212   2.660   4.344
 5349SOL     OW16945   0.692   3.474   1.678
 5349SOL    HW116946   0.592   3.465   1.677
 5349SOL    HW216947   0.723   3.515   1.592
 5350SOL     OW16948   0.921   5.983   6.862
 5350SOL    HW116949   0.895   6.038   6.782
 5350SOL    HW216950   1.015   6.006   6.888
 5351SOL     OW16951   6.452   6.305   3.386
 5351SOL    HW116952   6.407   6.240   3.448
 5351SOL    HW216953   6.386   6.341   3.321
 5352SOL     OW16954   1.074   3.169   6.009
 5352SOL    HW116955   1.167   3.150   5.977
 5352SOL    HW216956   1.014   3.094   5.984
 5353SOL     OW16957   4.008   5.024   3.661
 5353SOL    HW116958   4.044   4.947   3.714
 5353SOL    HW216959   3.984   5.099   3.722
 5354SOL     OW16960   4.164   6.065   1.098
 5354SOL    HW116961   4.107   6.111   1.167
 5354SOL    HW216962   4.246   6.120   1.082
 5355SOL     OW16963   5.461   4.422   5.129
 5355SOL    HW116964   5.374   4.385   5.095
 5355SOL    HW216965   5.505   4.354   5.187
 5356SOL     OW16966   0.120   5.487   0.867
 5356SOL    HW116967   0.132   5.576   0.825
 5356SOL    HW216968   0.185   5.477   0.943
 5357SOL     OW16969   6.541   3.564   2.933
 5357SOL    HW116970   6.448   3.573   2.897
 5357SOL    HW216971   6.536   3.548   3.032
 5358SOL     OW16972   4.063   1.480   6.934
 5358SOL    HW116973   4.069   1.438   0.005
 5358SOL    HW216974   4.151   1.472   6.888
 5359SOL     OW16975   3.264   2.095   6.643
 5359SOL    HW116976   3.251   2.008   6.596
 5359SOL    HW216977   3.272   2.079   6.741
 5360SOL     OW16978   5.725   4.883   4.176
 5360SOL    HW116979   5.759   4.789   4.172
 5360SOL    HW216980   5.645   4.887   4.236
 5361SOL     OW16981   1.718   5.596   2.313
 5361SOL    HW116982   1.651   5.549   2.371
 5361SOL    HW216983   1.704   5.695   2.320
 5362SOL     OW16984   6.080   1.600   2.365
 5362SOL    HW116985   6.042   1.567   2.278
 5362SOL    HW216986   6.088   1.523   2.429
 5363SOL     OW16987   5.848   5.177   3.736
 5363SOL    HW116988   5.810   5.266   3.713
 5363SOL    HW216989   5.886   5.180   3.828
 5364SOL     OW16990   4.237   1.331   2.845
 5364SOL    HW116991   4.304   1.405   2.843
 5364SOL    HW216992   4.276   1.249   2.805
 5365SOL     OW16993   2.996   3.255   4.173
 5365SOL    HW116994   3.025   3.171   4.218
 5365SOL    HW216995   2.974   3.324   4.243
 5366SOL     OW16996   6.224   6.368   3.254
 5366SOL    HW116997   6.167   6.383   3.173
 5366SOL    HW216998   6.175   6.311   3.319
 5367SOL     OW16999   6.089   6.046   1.467
 5367SOL    HW117000   6.183   6.012   1.456
 5367SOL    HW217001   6.032   6.011   1.392
 5368SOL     OW17002   0.058   5.973   3.986
 5368SOL    HW117003   0.025   6.050   3.932
 5368SOL    HW217004   7.011   5.950   4.057
 5369SOL     OW17005   3.619   5.531   2.668
 5369SOL    HW117006   3.595   5.440   2.633
 5369SOL    HW217007   3.677   5.520   2.749
 5370SOL     OW17008   1.490   3.303   0.575
 5370SOL    HW117009   1.538   3.337   0.493
 5370SOL    HW217010   1.446   3.380   0.621
 5371SOL     OW17011   5.789   5.202   4.902
 5371SOL    HW117012   5.733   5.274   4.943
 5371SOL    HW217013   5.839   5.238   4.824
 5372SOL     OW17014   1.344   0.059   2.919
 5372SOL    HW117015   1.351   0.036   3.016
 5372SOL    HW217016   1.369   0.154   2.905
 5373SOL     OW17017   3.173   1.324   6.930
 5373SOL    HW117018   3.077   1.344   6.954
 5373SOL    HW217019   3.195   1.366   6.842
 5374SOL     OW17020   2.206   4.408   2.124
 5374SOL    HW117021   2.138   4.402   2.051
 5374SOL    HW217022   2.165   4.452   2.204
 5375SOL     OW17023   2.333   4.599   4.622
 5375SOL    HW117024   2.427   4.607   4.654
 5375SOL    HW217025   2.309   4.502   4.612
 5376SOL     OW17026   0.626   6.816   5.889
 5376SOL    HW117027   0.705   6.874   5.871
 5376SOL    HW217028   0.645   6.723   5.858
 5377SOL     OW17029   1.742   1.256   3.036
 5377SOL    HW117030   1.815   1.308   3.081
 5377SOL    HW217031   1.772   1.233   2.943
 5378SOL     OW17032   4.688   0.748   2.619
 5378SOL    HW117033   4.642   0.837   2.621
 5378SOL    HW217034   4.724   0.731   2.527
 5379SOL     OW17035   1.922   2.353   5.090
 5379SOL    HW117036   1.844   2.412   5.111
 5379SOL    HW217037   1.952   2.306   5.173
 5380SOL     OW17038   3.816   6.396   2.049
 5380SOL    HW117039   3.783   6.448   1.971
 5380SOL    HW217040   3.906   6.357   2.027
 5381SOL     OW17041   3.226   0.140   3.942
 5381SOL    HW117042   3.320   0.121   3.971
 5381SOL    HW217043   3.188   0.060   3.896
 5382SOL     OW17044   4.882   1.002   1.959
 5382SOL    HW117045   4.831   1.088   1.973
 5382SOL    HW217046   4.843   0.953   1.881
 5383SOL     OW17047   2.450   2.554   4.510
 5383SOL    HW117048   2.456   2.568   4.412
 5383SOL    HW217049   2.380   2.486   4.530
 5384SOL     OW17050   5.997   5.191   5.275
 5384SOL    HW117051   5.980   5.225   5.182
 5384SOL    HW217052   5.925   5.126   5.300
 5385SOL     OW17053   3.873   3.350   6.115
 5385SOL    HW117054   3.874   3.388   6.207
 5385SOL    HW217055   3.803   3.278   6.108
 5386SOL     OW17056   4.937   4.493   4.435
 5386SOL    HW117057   4.910   4.426   4.367
 5386SOL    HW217058   4.872   4.493   4.511
 5387SOL     OW17059   0.763   2.075   4.073
 5387SOL    HW117060   0.844   2.059   4.017
 5387SOL    HW217061   0.757   2.173   4.097
 5388SOL     OW17062   0.596   6.665   2.574
 5388SOL    HW117063   0.584   6.568   2.553
 5388SOL    HW217064   0.514   6.715   2.546
 5389SOL     OW17065   4.979   1.378   3.693
 5389SOL    HW117066   5.076   1.385   3.716
 5389SOL    HW217067   4.933   1.321   3.762
 5390SOL     OW17068   0.416   3.212   3.509
 5390SOL    HW117069   0.489   3.148   3.534
 5390SOL    HW217070   0.358   3.229   3.589
 5391SOL     OW17071   2.795   2.750   0.580
 5391SOL    HW117072   2.877   2.698   0.555
 5391SOL    HW217073   2.714   2.703   0.545
 5392SOL     OW17074   6.108   0.894   3.921
 5392SOL    HW117075   6.128   0.902   4.019
 5392SOL    HW217076   6.189   0.860   3.873
 5393SOL     OW17077   4.511   2.503   4.568
 5393SOL    HW117078   4.600   2.469   4.598
 5393SOL    HW217079   4.441   2.434   4.587
 5394SOL     OW17080   0.832   1.881   1.313
 5394SOL    HW117081   0.865   1.974   1.327
 5394SOL    HW217082   0.734   1.883   1.295
 5395SOL     OW17083   6.499   1.552   0.867
 5395SOL    HW117084   6.486   1.461   0.828
 5395SOL    HW217085   6.569   1.549   0.938
 5396SOL     OW17086   4.394   4.072   0.664
 5396SOL    HW117087   4.328   4.128   0.713
 5396SOL    HW217088   4.464   4.131   0.622
 5397SOL     OW17089   0.114   0.847   2.867
 5397SOL    HW117090   0.103   0.918   2.798
 5397SOL    HW217091   0.197   0.794   2.847
 5398SOL     OW17092   6.201   2.448   2.633
 5398SOL    HW117093   6.299   2.436   2.617
 5398SOL    HW217094   6.170   2.532   2.587
 5399SOL     OW17095   1.669   2.229   6.911
 5399SOL    HW117096   1.623   2.228   6.822
 5399SOL    HW217097   1.726   2.147   6.920
 5400SOL     OW17098   4.723   3.185   1.689
 5400SOL    HW117099   4.659   3.121   1.731
 5400SOL    HW217100   4.725   3.171   1.590
 5401SOL     OW17101   5.333   2.770   1.115
 5401SOL    HW117102   5.380   2.682   1.108
 5401SOL    HW217103   5.234   2.755   1.123
 5402SOL     OW17104   1.506   6.736   2.399
 5402SOL    HW117105   1.521   6.646   2.357
 5402SOL    HW217106   1.593   6.771   2.435
 5403SOL     OW17107   4.524   2.571   0.174
 5403SOL    HW117108   4.438   2.533   0.207
 5403SOL    HW217109   4.544   2.656   0.223
 5404SOL     OW17110   5.017   0.443   6.718
 5404SOL    HW117111   5.007   0.526   6.772
 5404SOL    HW217112   5.111   0.437   6.682
 5405SOL     OW17113   0.349   4.798   0.100
 5405SOL    HW117114   0.441   4.830   0.124
 5405SOL    HW217115   0.330   4.820   0.004
 5406SOL     OW17116   2.298   0.981   6.243
 5406SOL    HW117117   2.250   1.048   6.187
 5406SOL    HW217118   2.234   0.942   6.310
 5407SOL     OW17119   1.649   6.943   3.384
 5407SOL    HW117120   1.724   7.000   3.348
 5407SOL    HW217121   1.561   6.982   3.357
 5408SOL     OW17122   2.341   1.826   4.500
 5408SOL    HW117123   2.313   1.766   4.425
 5408SOL    HW217124   2.433   1.861   4.482
 5409SOL     OW17125   0.820   2.591   2.022
 5409SOL    HW117126   0.912   2.623   2.047
 5409SOL    HW217127   0.760   2.596   2.102
 5410SOL     OW17128   6.763   2.397   0.583
 5410SOL    HW117129   6.735   2.327   0.518
 5410SOL    HW217130   6.711   2.481   0.566
 5411SOL     OW17131   3.098   5.559   0.192
 5411SOL    HW117132   3.024   5.584   0.254
 5411SOL    HW217133   3.151   5.640   0.168
 5412SOL     OW17134   0.060   2.181   6.075
 5412SOL    HW117135   0.138   2.122   6.053
 5412SOL    HW217136   0.089   2.277   6.073
 5413SOL     OW17137   1.048   5.421   4.571
 5413SOL    HW117138   1.023   5.515   4.597
 5413SOL    HW217139   1.050   5.415   4.471
 5414SOL     OW17140   5.270   4.494   5.465
 5414SOL    HW117141   5.335   4.477   5.539
 5414SOL    HW217142   5.280   4.588   5.433
 5415SOL     OW17143   3.658   0.590   0.275
 5415SOL    HW117144   3.673   0.602   0.177
 5415SOL    HW217145   3.633   0.495   0.295
 5416SOL     OW17146   3.329   5.863   6.902
 5416SOL    HW117147   3.361   5.796   6.835
 5416SOL    HW217148   3.229   5.871   6.896
 5417SOL     OW17149   4.310   6.836   4.191
 5417SOL    HW117150   4.294   6.913   4.253
 5417SOL    HW217151   4.227   6.781   4.184
 5418SOL     OW17152   6.817   3.020   5.543
 5418SOL    HW117153   6.820   3.007   5.444
 5418SOL    HW217154   6.787   2.935   5.587
 5419SOL     OW17155   4.273   1.489   5.894
 5419SOL    HW117156   4.208   1.506   5.968
 5419SOL    HW217157   4.230   1.514   5.806
 5420SOL     OW17158   1.408   2.271   1.940
 5420SOL    HW117159   1.403   2.301   2.035
 5420SOL    HW217160   1.476   2.199   1.931
 5421SOL     OW17161   3.664   4.983   2.190
 5421SOL    HW117162   3.673   4.908   2.124
 5421SOL    HW217163   3.587   5.041   2.164
 5422SOL     OW17164   2.660   5.023   3.799
 5422SOL    HW117165   2.670   5.007   3.701
 5422SOL    HW217166   2.566   5.000   3.827
 5423SOL     OW17167   4.591   6.696   1.788
 5423SOL    HW117168   4.632   6.718   1.876
 5423SOL    HW217169   4.655   6.641   1.734
 5424SOL     OW17170   4.118   3.620   5.532
 5424SOL    HW117171   4.192   3.556   5.513
 5424SOL    HW217172   4.093   3.668   5.448
 5425SOL     OW17173   1.234   4.207   5.264
 5425SOL    HW117174   1.179   4.176   5.341
 5425SOL    HW217175   1.178   4.208   5.181
 5426SOL     OW17176   6.277   5.545   1.151
 5426SOL    HW117177   6.304   5.636   1.181
 5426SOL    HW217178   6.356   5.498   1.111
 5427SOL     OW17179   4.008   2.941   0.041
 5427SOL    HW117180   4.060   2.887   6.994
 5427SOL    HW217181   4.069   2.967   0.116
 5428SOL     OW17182   5.616   5.360   2.802
 5428SOL    HW117183   5.575   5.438   2.850
 5428SOL    HW217184   5.608   5.278   2.859
 5429SOL     OW17185   3.475   0.734   4.500
 5429SOL    HW117186   3.493   0.820   4.548
 5429SOL    HW217187   3.501   0.743   4.404
 5430SOL     OW17188   2.897   4.020   5.120
 5430SOL    HW117189   2.864   4.027   5.214
 5430SOL    HW217190   2.841   4.078   5.060
 5431SOL     OW17191   4.650   4.717   0.491
 5431SOL    HW117192   4.651   4.669   0.578
 5431SOL    HW217193   4.599   4.802   0.500
 5432SOL     OW17194   0.202   5.474   6.454
 5432SOL    HW117195   0.140   5.454   6.378
 5432SOL    HW217196   0.153   5.526   6.524
 5433SOL     OW17197   3.177   0.622   1.378
 5433SOL    HW117198   3.264   0.575   1.365
 5433SOL    HW217199   3.103   0.554   1.385
 5434SOL     OW17200   4.731   0.660   4.288
 5434SOL    HW117201   4.722   0.575   4.339
 5434SOL    HW217202   4.675   0.731   4.330
 5435SOL     OW17203   6.242   4.983   0.631
 5435SOL    HW117204   6.317   5.048   0.619
 5435SOL    HW217205   6.191   4.975   0.545
 5436SOL     OW17206   1.721   4.650   2.990
 5436SOL    HW117207   1.753   4.562   3.026
 5436SOL    HW217208   1.783   4.681   2.918
 5437SOL     OW17209   3.388   6.276   1.341
 5437SOL    HW117210   3.488   6.274   1.337
 5437SOL    HW217211   3.358   6.349   1.403
 5438SOL     OW17212   4.723   5.956   2.311
 5438SOL    HW117213   4.735   6.042   2.261
 5438SOL    HW217214   4.731   5.879   2.248
 5439SOL     OW17215   1.184   4.520   1.755
 5439SOL    HW117216   1.211   4.607   1.798
 5439SOL    HW217217   1.110   4.537   1.691
 5440SOL     OW17218   6.021   6.859   3.875
 5440SOL    HW117219   6.058   6.944   3.838
 5440SOL    HW217220   6.062   6.781   3.828
 5441SOL     OW17221   5.704   2.984   4.567
 5441SOL    HW117222   5.677   3.000   4.472
 5441SOL    HW217223   5.789   2.932   4.569
 5442SOL     OW17224   3.081   0.052   6.629
 5442SOL    HW117225   3.105   0.147   6.650
 5442SOL    HW217226   3.148   7.011   6.672
 5443SOL     OW17227   5.091   1.041   3.155
 5443SOL    HW117228   5.090   0.960   3.214
 5443SOL    HW217229   5.116   1.121   3.210
 5444SOL     OW17230   6.267   0.771   5.656
 5444SOL    HW117231   6.236   0.860   5.691
 5444SOL    HW217232   6.339   0.736   5.716
 5445SOL     OW17233   5.621   5.632   5.633
 5445SOL    HW117234   5.570   5.551   5.607
 5445SOL    HW217235   5.568   5.685   5.700
 5446SOL     OW17236   6.726   3.985   6.109
 5446SOL    HW117237   6.687   4.020   6.194
 5446SOL    HW217238   6.725   4.057   6.039
 5447SOL     OW17239   7.018   1.578   1.597
 5447SOL    HW117240   0.017   1.481   1.583
 5447SOL    HW217241   6.988   1.619   1.510
 5448SOL     OW17242   5.164   4.951   2.950
 5448SOL    HW117243   5.169   4.855   2.921
 5448SOL    HW217244   5.199   4.959   3.044
 5449SOL     OW17245   2.860   0.939   1.787
 5449SOL    HW117246   2.893   0.999   1.713
 5449SOL    HW217247   2.842   0.848   1.751
 5450SOL     OW17248   3.967   5.686   1.493
 5450SOL    HW117249   3.915   5.609   1.529
 5450SOL    HW217250   4.012   5.735   1.567
 5451SOL     OW17251   6.409   0.086   3.138
 5451SOL    HW117252   6.399   7.015   3.099
 5451SOL    HW217253   6.484   0.134   3.092
 5452SOL     OW17254   2.007   3.804   2.347
 5452SOL    HW117255   2.074   3.875   2.327
 5452SOL    HW217256   1.915   3.843   2.342
 5453SOL     OW17257   6.400   4.227   3.656
 5453SOL    HW117258   6.436   4.274   3.737
 5453SOL    HW217259   6.302   4.246   3.647
 5454SOL     OW17260   6.525   4.252   3.401
 5454SOL    HW117261   6.532   4.175   3.338
 5454SOL    HW217262   6.502   4.219   3.492
 5455SOL     OW17263   2.394   1.871   3.594
 5455SOL    HW117264   2.330   1.900   3.665
 5455SOL    HW217265   2.441   1.951   3.557
 5456SOL     OW17266   4.926   2.430   0.805
 5456SOL    HW117267   4.937   2.337   0.841
 5456SOL    HW217268   4.856   2.478   0.858
 5457SOL     OW17269   5.116   1.459   6.604
 5457SOL    HW117270   5.077   1.393   6.668
 5457SOL    HW217271   5.114   1.550   6.644
 5458SOL     OW17272   6.114   3.477   0.119
 5458SOL    HW117273   6.044   3.509   0.055
 5458SOL    HW217274   6.103   3.524   0.207
 5459SOL     OW17275   1.850   3.600   5.182
 5459SOL    HW117276   1.944   3.634   5.174
 5459SOL    HW217277   1.816   3.574   5.092
 5460SOL     OW17278   0.868   0.969   1.432
 5460SOL    HW117279   0.887   0.968   1.531
 5460SOL    HW217280   0.953   0.951   1.382
 5461SOL     OW17281   6.441   0.887   5.490
 5461SOL    HW117282   6.470   0.972   5.536
 5461SOL    HW217283   6.379   0.837   5.550
 5462SOL     OW17284   4.563   4.322   6.607
 5462SOL    HW117285   4.506   4.240   6.603
 5462SOL    HW217286   4.612   4.333   6.521
 5463SOL     OW17287   1.168   2.865   6.092
 5463SOL    HW117288   1.257   2.911   6.100
 5463SOL    HW217289   1.157   2.801   6.168
 5464SOL     OW17290   2.153   5.856   5.754
 5464SOL    HW117291   2.185   5.762   5.751
 5464SOL    HW217292   2.067   5.864   5.705
 5465SOL     OW17293   0.605   6.978   4.695
 5465SOL    HW117294   0.609   0.026   4.769
 5465SOL    HW217295   0.696   6.966   4.656
 5466SOL     OW17296   6.177   2.092   4.924
 5466SOL    HW117297   6.229   2.141   4.854
 5466SOL    HW217298   6.094   2.143   4.946
 5467SOL     OW17299   4.855   2.922   4.453
 5467SOL    HW117300   4.779   2.859   4.466
 5467SOL    HW217301   4.865   2.979   4.534
 5468SOL     OW17302   0.013   1.045   1.017
 5468SOL    HW117303   7.004   0.978   0.949
 5468SOL    HW217304   0.028   0.999   1.105
 5469SOL     OW17305   3.614   0.124   4.270
 5469SOL    HW117306   3.558   0.111   4.352
 5469SOL    HW217307   3.702   0.163   4.296
 5470SOL     OW17308   3.645   5.522   3.920
 5470SOL    HW117309   3.690   5.434   3.929
 5470SOL    HW217310   3.591   5.541   4.002
 5471SOL     OW17311   4.936   0.962   3.740
 5471SOL    HW117312   4.984   0.877   3.717
 5471SOL    HW217313   4.851   0.940   3.788
 5472SOL     OW17314   3.156   3.450   6.826
 5472SOL    HW117315   3.099   3.506   6.766
 5472SOL    HW217316   3.100   3.377   6.867
 5473SOL     OW17317   2.426   4.545   1.745
 5473SOL    HW117318   2.518   4.517   1.720
 5473SOL    HW217319   2.426   4.642   1.769
 5474SOL     OW17320   1.017   4.951   2.762
 5474SOL    HW117321   1.055   5.026   2.816
 5474SOL    HW217322   0.919   4.941   2.782
 5475SOL     OW17323   0.809   1.142   4.824
 5475SOL    HW117324   0.758   1.080   4.884
 5475SOL    HW217325   0.745   1.187   4.761
 5476SOL     OW17326   2.348   0.036   5.253
 5476SOL    HW117327   2.446   0.027   5.236
 5476SOL    HW217328   2.307   0.090   5.180
 5477SOL     OW17329   1.608   3.848   3.818
 5477SOL    HW117330   1.517   3.889   3.827
 5477SOL    HW217331   1.611   3.760   3.865
 5478SOL     OW17332   5.340   4.709   5.965
 5478SOL    HW117333   5.332   4.623   6.016
 5478SOL    HW217334   5.312   4.785   6.024
 5479SOL     OW17335   4.713   1.965   4.651
 5479SOL    HW117336   4.793   1.995   4.599
 5479SOL    HW217337   4.730   1.874   4.688
 5480SOL     OW17338   0.584   3.686   4.163
 5480SOL    HW117339   0.604   3.783   4.171
 5480SOL    HW217340   0.567   3.663   4.067
 5481SOL     OW17341   4.473   1.361   6.105
 5481SOL    HW117342   4.386   1.366   6.058
 5481SOL    HW217343   4.542   1.412   6.054
 5482SOL     OW17344   5.117   2.914   1.268
 5482SOL    HW117345   5.094   2.968   1.186
 5482SOL    HW217346   5.041   2.854   1.291
 5483SOL     OW17347   6.705   2.470   6.562
 5483SOL    HW117348   6.640   2.531   6.607
 5483SOL    HW217349   6.656   2.398   6.514
 5484SOL     OW17350   6.969   6.724   4.782
 5484SOL    HW117351   7.013   6.792   4.723
 5484SOL    HW217352   6.914   6.770   4.852
 5485SOL     OW17353   3.508   0.039   5.279
 5485SOL    HW117354   3.502   6.999   5.199
 5485SOL    HW217355   3.420   0.039   5.326
 5486SOL     OW17356   1.043   0.824   4.322
 5486SOL    HW117357   1.121   0.820   4.384
 5486SOL    HW217358   0.987   0.904   4.344
 5487SOL     OW17359   4.702   5.020   1.122
 5487SOL    HW117360   4.698   4.971   1.209
 5487SOL    HW217361   4.797   5.026   1.093
 5488SOL     OW17362   4.956   1.168   5.975
 5488SOL    HW117363   5.001   1.086   6.011
 5488SOL    HW217364   4.922   1.223   6.051
 5489SOL     OW17365   1.127   4.001   3.089
 5489SOL    HW117366   1.071   3.947   3.152
 5489SOL    HW217367   1.216   3.957   3.077
 5490SOL     OW17368   1.796   2.006   6.646
 5490SOL    HW117369   1.821   1.997   6.742
 5490SOL    HW217370   1.696   1.998   6.636
 5491SOL     OW17371   0.863   4.995   0.968
 5491SOL    HW117372   0.961   5.009   0.983
 5491SOL    HW217373   0.838   4.902   0.996
 5492SOL     OW17374   1.303   0.798   5.432
 5492SOL    HW117375   1.224   0.860   5.437
 5492SOL    HW217376   1.355   0.803   5.517
 5493SOL     OW17377   3.289   3.235   0.101
 5493SOL    HW117378   3.215   3.280   0.050
 5493SOL    HW217379   3.346   3.182   0.038
 5494SOL     OW17380   5.909   2.951   2.088
 5494SOL    HW117381   5.836   2.893   2.054
 5494SOL    HW217382   5.919   3.031   2.029
 5495SOL     OW17383   3.572   2.868   2.460
 5495SOL    HW117384   3.598   2.862   2.363
 5495SOL    HW217385   3.625   2.802   2.513
 5496SOL     OW17386   3.361   5.895   1.501
 5496SOL    HW117387   3.347   5.933   1.410
 5496SOL    HW217388   3.278   5.848   1.531
 5497SOL     OW17389   6.628   6.573   2.225
 5497SOL    HW117390   6.557   6.579   2.295
 5497SOL    HW217391   6.694   6.647   2.237
 5498SOL     OW17392   4.445   1.277   5.039
 5498SOL    HW117393   4.437   1.324   5.126
 5498SOL    HW217394   4.381   1.199   5.037
 5499SOL     OW17395   0.338   1.807   3.750
 5499SOL    HW117396   0.389   1.785   3.833
 5499SOL    HW217397   0.393   1.867   3.692
 5500SOL     OW17398   1.695   5.779   2.003
 5500SOL    HW117399   1.683   5.680   2.013
 5500SOL    HW217400   1.620   5.815   1.947
 5501SOL     OW17401   2.071   6.934   2.334
 5501SOL    HW117402   2.151   6.983   2.369
 5501SOL    HW217403   1.996   6.999   2.321
 5502SOL     OW17404   4.829   4.017   6.660
 5502SOL    HW117405   4.868   3.949   6.598
 5502SOL    HW217406   4.854   3.993   6.754
 5503SOL     OW17407   1.804   5.575   3.788
 5503SOL    HW117408   1.874   5.643   3.809
 5503SOL    HW217409   1.826   5.529   3.702
 5504SOL     OW17410   3.314   2.096   4.980
 5504SOL    HW117411   3.351   2.063   5.067
 5504SOL    HW217412   3.237   2.157   4.998
 5505SOL     OW17413   2.310   5.003   5.835
 5505SOL    HW117414   2.351   5.088   5.802
 5505SOL    HW217415   2.211   5.010   5.831
 5506SOL     OW17416   6.369   6.979   5.450
 5506SOL    HW117417   6.300   6.918   5.489
 5506SOL    HW217418   6.353   0.053   5.482
 5507SOL     OW17419   2.716   6.234   4.148
 5507SOL    HW117420   2.787   6.201   4.085
 5507SOL    HW217421   2.738   6.326   4.179
 5508SOL     OW17422   2.572   0.978   6.180
 5508SOL    HW117423   2.589   1.073   6.155
 5508SOL    HW217424   2.478   0.969   6.213
 5509SOL     OW17425   6.079   6.149   6.609
 5509SOL    HW117426   6.155   6.206   6.643
 5509SOL    HW217427   6.044   6.092   6.683
 5510SOL     OW17428   5.375   1.115   5.345
 5510SOL    HW117429   5.418   1.119   5.255
 5510SOL    HW217430   5.436   1.067   5.409
 5511SOL     OW17431   0.094   1.349   2.497
 5511SOL    HW117432   0.186   1.348   2.457
 5511SOL    HW217433   0.096   1.399   2.584
 5512SOL     OW17434   1.443   0.066   0.987
 5512SOL    HW117435   1.540   0.088   0.981
 5512SOL    HW217436   1.406   0.099   1.074
 5513SOL     OW17437   3.983   4.882   4.727
 5513SOL    HW117438   4.066   4.826   4.728
 5513SOL    HW217439   3.942   4.882   4.818
 5514SOL     OW17440   5.881   5.289   2.827
 5514SOL    HW117441   5.795   5.322   2.788
 5514SOL    HW217442   5.925   5.225   2.764
 5515SOL     OW17443   6.465   2.586   1.148
 5515SOL    HW117444   6.517   2.612   1.067
 5515SOL    HW217445   6.447   2.488   1.145
 5516SOL     OW17446   1.808   3.276   6.144
 5516SOL    HW117447   1.726   3.300   6.195
 5516SOL    HW217448   1.886   3.271   6.207
 5517SOL     OW17449   2.553   1.589   2.372
 5517SOL    HW117450   2.505   1.614   2.287
 5517SOL    HW217451   2.615   1.663   2.398
 5518SOL     OW17452   5.912   4.953   4.801
 5518SOL    HW117453   5.995   4.912   4.838
 5518SOL    HW217454   5.911   5.051   4.821
 5519SOL     OW17455   5.148   3.545   4.079
 5519SOL    HW117456   5.071   3.483   4.098
 5519SOL    HW217457   5.140   3.580   3.986
 5520SOL     OW17458   1.797   3.572   1.670
 5520SOL    HW117459   1.813   3.541   1.764
 5520SOL    HW217460   1.699   3.585   1.656
 5521SOL     OW17461   5.408   4.955   1.770
 5521SOL    HW117462   5.508   4.944   1.767
 5521SOL    HW217463   5.377   4.997   1.685
 5522SOL     OW17464   2.142   3.660   1.760
 5522SOL    HW117465   2.136   3.748   1.807
 5522SOL    HW217466   2.213   3.604   1.802
 5523SOL     OW17467   2.454   0.815   2.140
 5523SOL    HW117468   2.409   0.762   2.068
 5523SOL    HW217469   2.384   0.858   2.197
 5524SOL     OW17470   0.362   6.098   6.105
 5524SOL    HW117471   0.388   6.178   6.158
 5524SOL    HW217472   0.443   6.055   6.066
 5525SOL     OW17473   6.710   5.709   4.976
 5525SOL    HW117474   6.621   5.669   4.953
 5525SOL    HW217475   6.783   5.656   4.931
 5526SOL     OW17476   6.368   3.157   4.610
 5526SOL    HW117477   6.445   3.093   4.613
 5526SOL    HW217478   6.297   3.123   4.549
 5527SOL     OW17479   1.814   3.677   1.394
 5527SOL    HW117480   1.784   3.757   1.344
 5527SOL    HW217481   1.737   3.614   1.408
 5528SOL     OW17482   0.339   3.577   2.996
 5528SOL    HW117483   0.310   3.530   2.913
 5528SOL    HW217484   0.262   3.585   3.059
 5529SOL     OW17485   1.743   1.350   4.928
 5529SOL    HW117486   1.661   1.321   4.978
 5529SOL    HW217487   1.769   1.442   4.956
 5530SOL     OW17488   0.999   2.537   0.733
 5530SOL    HW117489   0.904   2.531   0.763
 5530SOL    HW217490   1.031   2.446   0.707
 5531SOL     OW17491   3.567   2.615   6.036
 5531SOL    HW117492   3.487   2.555   6.044
 5531SOL    HW217493   3.611   2.600   5.947
 5532SOL     OW17494   2.594   1.150   1.408
 5532SOL    HW117495   2.512   1.102   1.440
 5532SOL    HW217496   2.602   1.140   1.309
 5533SOL     OW17497   4.481   0.774   1.647
 5533SOL    HW117498   4.473   0.703   1.578
 5533SOL    HW217499   4.460   0.863   1.607
 5534SOL     OW17500   6.973   3.600   6.011
 5534SOL    HW117501   6.998   3.596   6.107
 5534SOL    HW217502   6.880   3.636   6.002
 5535SOL     OW17503   6.278   2.782   3.354
 5535SOL    HW117504   6.237   2.754   3.267
 5535SOL    HW217505   6.214   2.763   3.428
 5536SOL     OW17506   2.046   0.618   3.920
 5536SOL    HW117507   2.009   0.614   4.013
 5536SOL    HW217508   1.971   0.614   3.854
 5537SOL     OW17509   4.385   0.973   4.314
 5537SOL    HW117510   4.296   0.931   4.296
 5537SOL    HW217511   4.379   1.032   4.394
 5538SOL     OW17512   4.843   1.402   0.189
 5538SOL    HW117513   4.798   1.371   0.273
 5538SOL    HW217514   4.777   1.452   0.132
 5539SOL     OW17515   3.491   6.962   0.398
 5539SOL    HW117516   3.526   7.005   0.314
 5539SOL    HW217517   3.511   0.001   0.476
 5540SOL     OW17518   5.215   1.076   6.520
 5540SOL    HW117519   5.301   1.124   6.502
 5540SOL    HW217520   5.233   0.981   6.544
 5541SOL     OW17521   4.514   3.672   6.335
 5541SOL    HW117522   4.502   3.769   6.355
 5541SOL    HW217523   4.611   3.650   6.335
 5542SOL     OW17524   4.406   4.497   0.005
 5542SOL    HW117525   4.460   4.563   0.058
 5542SOL    HW217526   4.445   4.406   0.016
 5543SOL     OW17527   1.178   0.515   1.188
 5543SOL    HW117528   1.089   0.471   1.196
 5543SOL    HW217529   1.247   0.458   1.232
 5544SOL     OW17530   4.333   5.474   6.291
 5544SOL    HW117531   4.324   5.456   6.193
 5544SOL    HW217532   4.258   5.533   6.321
 5545SOL     OW17533   3.646   0.802   3.237
 5545SOL    HW117534   3.607   0.863   3.305
 5545SOL    HW217535   3.573   0.762   3.182
 5546SOL     OW17536   1.030   5.599   5.043
 5546SOL    HW117537   1.110   5.636   4.997
 5546SOL    HW217538   0.975   5.547   4.977
 5547SOL     OW17539   5.650   1.586   5.063
 5547SOL    HW117540   5.718   1.531   5.111
 5547SOL    HW217541   5.627   1.666   5.118
 5548SOL     OW17542   6.834   4.450   5.479
 5548SOL    HW117543   6.789   4.483   5.396
 5548SOL    HW217544   6.918   4.401   5.454
 5549SOL     OW17545   4.413   3.177   1.238
 5549SOL    HW117546   4.408   3.123   1.322
 5549SOL    HW217547   4.355   3.135   1.168
 5550SOL     OW17548   1.245   3.352   2.415
 5550SOL    HW117549   1.154   3.386   2.395
 5550SOL    HW217550   1.313   3.422   2.393
 5551SOL     OW17551   2.162   5.092   3.760
 5551SOL    HW117552   2.175   5.177   3.810
 5551SOL    HW217553   2.064   5.071   3.755
 5552SOL     OW17554   0.262   6.744   6.653
 5552SOL    HW117555   0.285   6.840   6.667
 5552SOL    HW217556   0.345   6.691   6.638
 5553SOL     OW17557   4.911   0.218   6.830
 5553SOL    HW117558   4.962   0.300   6.806
 5553SOL    HW217559   4.845   0.240   6.902
 5554SOL     OW17560   5.480   2.611   1.581
 5554SOL    HW117561   5.522   2.665   1.508
 5554SOL    HW217562   5.397   2.568   1.547
 5555SOL     OW17563   1.787   3.960   2.415
 5555SOL    HW117564   1.834   3.965   2.503
 5555SOL    HW217565   1.690   3.943   2.430
 5556SOL     OW17566   6.489   0.645   4.966
 5556SOL    HW117567   6.523   0.731   4.927
 5556SOL    HW217568   6.557   0.608   5.028
 5557SOL     OW17569   3.226   6.175   1.873
 5557SOL    HW117570   3.141   6.228   1.875
 5557SOL    HW217571   3.257   6.160   1.967
 5558SOL     OW17572   3.472   4.759   0.114
 5558SOL    HW117573   3.502   4.667   0.138
 5558SOL    HW217574   3.547   4.824   0.131
 5559SOL     OW17575   1.687   0.031   2.566
 5559SOL    HW117576   1.707   0.004   2.660
 5559SOL    HW217577   1.733   0.117   2.545
 5560SOL     OW17578   0.285   5.771   2.933
 5560SOL    HW117579   0.188   5.761   2.910
 5560SOL    HW217580   0.310   5.867   2.935
 5561SOL     OW17581   3.095   0.557   3.896
 5561SOL    HW117582   3.121   0.495   3.970
 5561SOL    HW217583   3.028   0.623   3.931
 5562SOL     OW17584   4.039   3.962   0.895
 5562SOL    HW117585   3.939   3.965   0.901
 5562SOL    HW217586   4.067   3.971   0.800
 5563SOL     OW17587   2.673   4.733   2.779
 5563SOL    HW117588   2.649   4.669   2.706
 5563SOL    HW217589   2.590   4.768   2.821
 5564SOL     OW17590   5.521   0.903   5.922
 5564SOL    HW117591   5.592   0.964   5.957
 5564SOL    HW217592   5.562   0.834   5.862
 5565SOL     OW17593   3.070   2.349   6.789
 5565SOL    HW117594   3.039   2.257   6.814
 5565SOL    HW217595   3.127   2.344   6.708
 5566SOL     OW17596   1.404   3.225   6.485
 5566SOL    HW117597   1.358   3.305   6.523
 5566SOL    HW217598   1.351   3.188   6.409
 5567SOL     OW17599   6.524   4.344   1.494
 5567SOL    HW117600   6.467   4.389   1.425
 5567SOL    HW217601   6.498   4.375   1.585
 5568SOL     OW17602   4.365   6.442   2.014
 5568SOL    HW117603   4.358   6.412   2.109
 5568SOL    HW217604   4.444   6.397   1.971
 5569SOL     OW17605   2.428   2.625   4.255
 5569SOL    HW117606   2.430   2.670   4.166
 5569SOL    HW217607   2.477   2.538   4.249
 5570SOL     OW17608   6.962   3.437   2.756
 5570SOL    HW117609   6.945   3.466   2.662
 5570SOL    HW217610   6.877   3.403   2.796
 5571SOL     OW17611   6.834   5.263   1.750
 5571SOL    HW117612   6.851   5.292   1.656
 5571SOL    HW217613   6.887   5.181   1.769
 5572SOL     OW17614   0.849   3.420   4.574
 5572SOL    HW117615   0.808   3.496   4.523
 5572SOL    HW217616   0.787   3.393   4.648
 5573SOL     OW17617   2.621   5.270   4.544
 5573SOL    HW117618   2.609   5.246   4.448
 5573SOL    HW217619   2.534   5.257   4.592
 5574SOL     OW17620   0.412   2.382   6.669
 5574SOL    HW117621   0.407   2.385   6.769
 5574SOL    HW217622   0.362   2.459   6.631
 5575SOL     OW17623   0.435   0.821   1.231
 5575SOL    HW117624   0.487   0.872   1.300
 5575SOL    HW217625   0.380   0.751   1.276
 5576SOL     OW17626   1.846   3.759   3.605
 5576SOL    HW117627   1.883   3.714   3.524
 5576SOL    HW217628   1.772   3.820   3.578
 5577SOL     OW17629   1.579   3.357   6.298
 5577SOL    HW117630   1.533   3.273   6.325
 5577SOL    HW217631   1.572   3.424   6.372
 5578SOL     OW17632   3.308   2.897   2.376
 5578SOL    HW117633   3.389   2.881   2.432
 5578SOL    HW217634   3.334   2.895   2.279
 5579SOL     OW17635   6.855   2.649   1.293
 5579SOL    HW117636   6.802   2.731   1.270
 5579SOL    HW217637   6.870   2.646   1.392
 5580SOL     OW17638   4.849   2.126   5.415
 5580SOL    HW117639   4.798   2.129   5.501
 5580SOL    HW217640   4.844   2.034   5.376
 5581SOL     OW17641   0.673   1.669   0.466
 5581SOL    HW117642   0.638   1.613   0.391
 5581SOL    HW217643   0.764   1.636   0.492
 5582SOL     OW17644   2.240   3.380   6.060
 5582SOL    HW117645   2.170   3.449   6.037
 5582SOL    HW217646   2.195   3.301   6.102
 5583SOL     OW17647   5.104   1.674   1.948
 5583SOL    HW117648   5.016   1.714   1.971
 5583SOL    HW217649   5.092   1.577   1.926
 5584SOL     OW17650   0.268   4.437   5.060
 5584SOL    HW117651   0.197   4.491   5.016
 5584SOL    HW217652   0.349   4.493   5.075
 5585SOL     OW17653   4.532   5.379   2.259
 5585SOL    HW117654   4.487   5.452   2.208
 5585SOL    HW217655   4.551   5.409   2.352
 5586SOL     OW17656   6.782   2.817   6.112
 5586SOL    HW117657   6.709   2.749   6.104
 5586SOL    HW217658   6.742   2.907   6.129
 5587SOL     OW17659   4.493   0.792   6.549
 5587SOL    HW117660   4.399   0.826   6.546
 5587SOL    HW217661   4.556   0.868   6.540
 5588SOL     OW17662   3.108   6.752   1.883
 5588SOL    HW117663   3.152   6.831   1.926
 5588SOL    HW217664   3.050   6.706   1.950
 5589SOL     OW17665   5.606   4.327   6.587
 5589SOL    HW117666   5.539   4.270   6.539
 5589SOL    HW217667   5.689   4.334   6.532
 5590SOL     OW17668   5.820   5.781   4.090
 5590SOL    HW117669   5.731   5.825   4.088
 5590SOL    HW217670   5.862   5.794   4.179
 5591SOL     OW17671   6.189   1.367   1.565
 5591SOL    HW117672   6.108   1.426   1.562
 5591SOL    HW217673   6.224   1.354   1.472
 5592SOL     OW17674   0.830   4.477   3.484
 5592SOL    HW117675   0.860   4.387   3.454
 5592SOL    HW217676   0.909   4.533   3.509
 5593SOL     OW17677   6.309   2.009   6.930
 5593SOL    HW117678   6.396   1.998   6.978
 5593SOL    HW217679   6.310   1.956   6.845
 5594SOL     OW17680   5.638   2.193   5.539
 5594SOL    HW117681   5.557   2.147   5.576
 5594SOL    HW217682   5.610   2.264   5.474
 5595SOL     OW17683   0.698   2.733   5.017
 5595SOL    HW117684   0.640   2.741   5.098
 5595SOL    HW217685   0.785   2.690   5.042
 5596SOL     OW17686   4.296   0.130   2.900
 5596SOL    HW117687   4.319   0.211   2.846
 5596SOL    HW217688   4.345   0.134   2.988
 5597SOL     OW17689   5.274   2.754   3.612
 5597SOL    HW117690   5.374   2.752   3.621
 5597SOL    HW217691   5.247   2.839   3.566
 5598SOL     OW17692   5.506   2.772   4.406
 5598SOL    HW117693   5.551   2.773   4.496
 5598SOL    HW217694   5.500   2.865   4.371
 5599SOL     OW17695   0.478   1.489   4.732
 5599SOL    HW117696   0.398   1.530   4.775
 5599SOL    HW217697   0.522   1.555   4.672
 5600SOL     OW17698   1.499   2.670   4.216
 5600SOL    HW117699   1.494   2.668   4.316
 5600SOL    HW217700   1.595   2.666   4.187
 5601SOL     OW17701   2.829   0.655   6.225
 5601SOL    HW117702   2.756   0.598   6.185
 5601SOL    HW217703   2.812   0.666   6.323
 5602SOL     OW17704   0.777   1.092   0.727
 5602SOL    HW117705   0.756   1.174   0.782
 5602SOL    HW217706   0.731   1.013   0.767
 5603SOL     OW17707   5.273   1.956   0.213
 5603SOL    HW117708   5.262   1.987   0.119
 5603SOL    HW217709   5.365   1.920   0.226
 5604SOL     OW17710   6.035   2.141   5.840
 5604SOL    HW117711   5.970   2.075   5.878
 5604SOL    HW217712   6.112   2.151   5.902
 5605SOL     OW17713   0.612   1.690   4.590
 5605SOL    HW117714   0.705   1.703   4.557
 5605SOL    HW217715   0.559   1.773   4.576
 5606SOL     OW17716   5.217   6.721   1.249
 5606SOL    HW117717   5.123   6.736   1.218
 5606SOL    HW217718   5.246   6.797   1.307
 5607SOL     OW17719   5.173   1.826   2.168
 5607SOL    HW117720   5.154   1.771   2.087
 5607SOL    HW217721   5.270   1.815   2.193
 5608SOL     OW17722   4.248   0.179   5.114
 5608SOL    HW117723   4.331   0.146   5.069
 5608SOL    HW217724   4.246   0.150   5.209
 5609SOL     OW17725   2.613   6.090   6.756
 5609SOL    HW117726   2.655   5.999   6.758
 5609SOL    HW217727   2.520   6.083   6.719
 5610SOL     OW17728   5.027   0.600   0.025
 5610SOL    HW117729   5.125   0.618   0.010
 5610SOL    HW217730   4.973   0.668   6.996
 5611SOL     OW17731   1.674   4.932   3.156
 5611SOL    HW117732   1.768   4.913   3.129
 5611SOL    HW217733   1.611   4.887   3.093
 5612SOL     OW17734   3.834   0.592   5.921
 5612SOL    HW117735   3.786   0.609   5.835
 5612SOL    HW217736   3.896   0.514   5.910
 5613SOL     OW17737   4.508   4.486   2.392
 5613SOL    HW117738   4.441   4.521   2.326
 5613SOL    HW217739   4.545   4.399   2.359
 5614SOL     OW17740   4.767   2.708   3.537
 5614SOL    HW117741   4.776   2.738   3.632
 5614SOL    HW217742   4.839   2.751   3.482
 5615SOL     OW17743   1.184   0.394   0.043
 5615SOL    HW117744   1.234   0.308   0.051
 5615SOL    HW217745   1.087   0.378   0.063
 5616SOL     OW17746   2.186   1.357   4.390
 5616SOL    HW117747   2.218   1.432   4.449
 5616SOL    HW217748   2.118   1.392   4.326
 5617SOL     OW17749   2.497   0.640   5.178
 5617SOL    HW117750   2.515   0.542   5.181
 5617SOL    HW217751   2.431   0.664   5.249
 5618SOL     OW17752   6.128   4.327   3.706
 5618SOL    HW117753   6.148   4.417   3.743
 5618SOL    HW217754   6.081   4.272   3.775
 5619SOL     OW17755   2.178   3.763   5.758
 5619SOL    HW117756   2.200   3.773   5.855
 5619SOL    HW217757   2.178   3.853   5.714
 5620SOL     OW17758   3.609   2.134   6.966
 5620SOL    HW117759   3.655   2.220   6.990
 5620SOL    HW217760   3.626   2.066   0.017
 5621SOL     OW17761   1.465   1.584   5.397
 5621SOL    HW117762   1.480   1.495   5.354
 5621SOL    HW217763   1.446   1.572   5.494
 5622SOL     OW17764   4.742   0.844   5.677
 5622SOL    HW117765   4.678   0.786   5.627
 5622SOL    HW217766   4.800   0.893   5.611
 5623SOL     OW17767   1.800   6.327   6.411
 5623SOL    HW117768   1.712   6.331   6.363
 5623SOL    HW217769   1.799   6.393   6.487
 5624SOL     OW17770   1.139   4.559   3.179
 5624SOL    HW117771   1.160   4.503   3.259
 5624SOL    HW217772   1.071   4.512   3.122
 5625SOL     OW17773   6.679   2.831   4.623
 5625SOL    HW117774   6.630   2.852   4.538
 5625SOL    HW217775   6.676   2.733   4.640
 5626SOL     OW17776   3.380   6.585   5.201
 5626SOL    HW117777   3.325   6.570   5.283
 5626SOL    HW217778   3.342   6.661   5.148
 5627SOL     OW17779   1.706   6.009   1.669
 5627SOL    HW117780   1.747   6.089   1.712
 5627SOL    HW217781   1.742   5.999   1.577
 5628SOL     OW17782   1.942   1.898   5.328
 5628SOL    HW117783   2.002   1.821   5.308
 5628SOL    HW217784   1.961   1.932   5.420
 5629SOL     OW17785   3.294   3.805   2.616
 5629SOL    HW117786   3.306   3.879   2.682
 5629SOL    HW217787   3.312   3.839   2.524
 5630SOL     OW17788   0.709   4.632   1.192
 5630SOL    HW117789   0.638   4.597   1.130
 5630SOL    HW217790   0.753   4.712   1.150
 5631SOL     OW17791   4.463   1.281   0.309
 5631SOL    HW117792   4.498   1.209   0.368
 5631SOL    HW217793   4.380   1.249   0.263
 5632SOL     OW17794   4.437   3.926   6.367
 5632SOL    HW117795   4.453   4.025   6.368
 5632SOL    HW217796   4.339   3.908   6.372
 5633SOL     OW17797   6.712   2.897   4.018
 5633SOL    HW117798   6.747   2.873   3.928
 5633SOL    HW217799   6.714   2.997   4.030
 5634SOL     OW17800   3.793   5.248   4.630
 5634SOL    HW117801   3.786   5.165   4.574
 5634SOL    HW217802   3.876   5.244   4.685
 5635SOL     OW17803   2.570   2.390   5.006
 5635SOL    HW117804   2.522   2.472   5.039
 5635SOL    HW217805   2.553   2.380   4.908
 5636SOL     OW17806   4.093   5.413   2.780
 5636SOL    HW117807   4.162   5.402   2.709
 5636SOL    HW217808   4.121   5.362   2.861
 5637SOL     OW17809   6.140   6.985   4.493
 5637SOL    HW117810   6.082   0.046   4.486
 5637SOL    HW217811   6.234   7.012   4.513
 5638SOL     OW17812   4.991   2.985   6.998
 5638SOL    HW117813   4.939   3.020   0.055
 5638SOL    HW217814   5.040   3.060   6.954
 5639SOL     OW17815   0.557   1.336   6.441
 5639SOL    HW117816   0.657   1.345   6.437
 5639SOL    HW217817   0.514   1.404   6.382
 5640SOL     OW17818   2.358   6.953   3.807
 5640SOL    HW117819   2.352   0.022   3.762
 5640SOL    HW217820   2.401   6.887   3.745
 5641SOL     OW17821   6.679   5.256   5.622
 5641SOL    HW117822   6.605   5.234   5.559
 5641SOL    HW217823   6.767   5.243   5.576
 5642SOL     OW17824   1.971   1.863   6.468
 5642SOL    HW117825   2.027   1.785   6.494
 5642SOL    HW217826   1.928   1.902   6.550
 5643SOL     OW17827   6.358   2.772   4.496
 5643SOL    HW117828   6.352   2.737   4.590
 5643SOL    HW217829   6.382   2.697   4.435
 5644SOL     OW17830   2.907   6.823   6.325
 5644SOL    HW117831   2.940   6.915   6.345
 5644SOL    HW217832   2.808   6.826   6.311
 5645SOL     OW17833   5.659   3.534   3.849
 5645SOL    HW117834   5.671   3.446   3.894
 5645SOL    HW217835   5.708   3.534   3.762
 5646SOL     OW17836   1.839   4.388   3.096
 5646SOL    HW117837   1.856   4.379   3.195
 5646SOL    HW217838   1.876   4.309   3.049
 5647SOL     OW17839   5.983   6.097   3.135
 5647SOL    HW117840   5.957   6.000   3.145
 5647SOL    HW217841   6.064   6.104   3.078
 5648SOL     OW17842   3.752   6.275   2.986
 5648SOL    HW117843   3.786   6.190   2.945
 5648SOL    HW217844   3.740   6.344   2.914
 5649SOL     OW17845   0.526   5.762   3.649
 5649SOL    HW117846   0.561   5.669   3.659
 5649SOL    HW217847   0.455   5.778   3.718
 5650SOL     OW17848   0.057   4.555   0.461
 5650SOL    HW117849   0.035   4.630   0.524
 5650SOL    HW217850   0.132   4.583   0.401
 5651SOL     OW17851   1.497   0.699   1.085
 5651SOL    HW117852   1.523   0.645   1.166
 5651SOL    HW217853   1.458   0.786   1.114
 5652SOL     OW17854   0.647   4.928   1.779
 5652SOL    HW117855   0.556   4.925   1.738
 5652SOL    HW217856   0.705   4.857   1.738
 5653SOL     OW17857   7.004   6.092   1.617
 5653SOL    HW117858   0.014   6.177   1.573
 5653SOL    HW217859   6.974   6.028   1.546
 5654SOL     OW17860   2.409   6.050   4.655
 5654SOL    HW117861   2.377   6.144   4.644
 5654SOL    HW217862   2.334   5.986   4.637
 5655SOL     OW17863   6.499   2.724   4.007
 5655SOL    HW117864   6.582   2.777   4.029
 5655SOL    HW217865   6.483   2.726   3.909
 5656SOL     OW17866   0.531   2.861   6.432
 5656SOL    HW117867   0.458   2.876   6.365
 5656SOL    HW217868   0.525   2.767   6.466
 5657SOL     OW17869   4.344   5.158   4.996
 5657SOL    HW117870   4.346   5.255   5.022
 5657SOL    HW217871   4.288   5.147   4.914
 5658SOL     OW17872   1.862   2.124   5.729
 5658SOL    HW117873   1.895   2.210   5.766
 5658SOL    HW217874   1.895   2.048   5.785
 5659SOL     OW17875   3.449   4.144   6.309
 5659SOL    HW117876   3.460   4.239   6.336
 5659SOL    HW217877   3.403   4.139   6.220
 5660SOL     OW17878   4.250   0.048   6.854
 5660SOL    HW117879   4.302   7.003   6.910
 5660SOL    HW217880   4.232   0.008   6.764
 5661SOL     OW17881   0.920   5.602   5.709
 5661SOL    HW117882   0.954   5.694   5.729
 5661SOL    HW217883   0.952   5.574   5.619
 5662SOL     OW17884   2.658   6.351   2.491
 5662SOL    HW117885   2.748   6.370   2.530
 5662SOL    HW217886   2.592   6.338   2.565
 5663SOL     OW17887   1.174   3.084   0.332
 5663SOL    HW117888   1.208   3.168   0.376
 5663SOL    HW217889   1.220   3.072   0.244
 5664SOL     OW17890   5.183   4.040   4.474
 5664SOL    HW117891   5.193   3.941   4.457
 5664SOL    HW217892   5.116   4.078   4.410
 5665SOL     OW17893   2.128   0.783   0.963
 5665SOL    HW117894   2.107   0.706   1.023
 5665SOL    HW217895   2.101   0.868   1.008
 5666SOL     OW17896   6.402   1.011   5.025
 5666SOL    HW117897   6.362   1.004   4.934
 5666SOL    HW217898   6.356   0.948   5.088
 5667SOL     OW17899   2.589   5.686   4.611
 5667SOL    HW117900   2.623   5.780   4.613
 5667SOL    HW217901   2.650   5.630   4.553
 5668SOL     OW17902   5.540   2.796   3.680
 5668SOL    HW117903   5.596   2.801   3.597
 5668SOL    HW217904   5.575   2.862   3.747
 5669SOL     OW17905   6.273   4.066   6.496
 5669SOL    HW117906   6.343   4.131   6.467
 5669SOL    HW217907   6.301   4.024   6.583
 5670SOL     OW17908   1.374   2.343   2.280
 5670SOL    HW117909   1.306   2.271   2.290
 5670SOL    HW217910   1.350   2.421   2.338
 5671SOL     OW17911   0.257   7.019   3.530
 5671SOL    HW117912   0.265   0.060   3.609
 5671SOL    HW217913   0.196   6.943   3.552
 5672SOL     OW17914   5.154   3.785   5.132
 5672SOL    HW117915   5.073   3.795   5.190
 5672SOL    HW217916   5.222   3.729   5.179
 5673SOL     OW17917   0.913   0.408   1.162
 5673SOL    HW117918   0.883   0.401   1.067
 5673SOL    HW217919   0.869   0.487   1.205
 5674SOL     OW17920   1.934   5.606   5.442
 5674SOL    HW117921   1.860   5.645   5.497
 5674SOL    HW217922   1.906   5.517   5.407
 5675SOL     OW17923   2.053   1.855   0.238
 5675SOL    HW117924   2.106   1.934   0.269
 5675SOL    HW217925   2.085   1.773   0.285
 5676SOL     OW17926   2.674   2.258   1.715
 5676SOL    HW117927   2.708   2.197   1.786
 5676SOL    HW217928   2.708   2.351   1.732
 5677SOL     OW17929   6.837   0.069   1.148
 5677SOL    HW117930   6.798   0.160   1.132
 5677SOL    HW217931   6.871   0.063   1.242
 5678SOL     OW17932   3.282   2.040   1.503
 5678SOL    HW117933   3.319   2.132   1.492
 5678SOL    HW217934   3.325   1.995   1.581
 5679SOL     OW17935   6.018   3.386   5.461
 5679SOL    HW117936   5.965   3.405   5.543
 5679SOL    HW217937   5.975   3.311   5.410
 5680SOL     OW17938   1.663   5.744   5.810
 5680SOL    HW117939   1.591   5.813   5.803
 5680SOL    HW217940   1.719   5.761   5.891
 5681SOL     OW17941   0.544   4.091   3.171
 5681SOL    HW117942   0.557   4.006   3.120
 5681SOL    HW217943   0.632   4.124   3.205
 5682SOL     OW17944   2.357   4.180   2.118
 5682SOL    HW117945   2.451   4.199   2.146
 5682SOL    HW217946   2.301   4.262   2.133
 5683SOL     OW17947   4.772   1.469   6.968
 5683SOL    HW117948   4.739   1.375   6.962
 5683SOL    HW217949   4.870   1.470   6.983
 5684SOL     OW17950   2.441   2.540   5.333
 5684SOL    HW117951   2.484   2.621   5.291
 5684SOL    HW217952   2.427   2.557   5.430
 5685SOL     OW17953   2.814   2.078   3.847
 5685SOL    HW117954   2.814   2.031   3.936
 5685SOL    HW217955   2.776   2.170   3.858
 5686SOL     OW17956   3.343   6.259   6.137
 5686SOL    HW117957   3.313   6.237   6.044
 5686SOL    HW217958   3.442   6.272   6.137
 5687SOL     OW17959   2.304   6.382   5.930
 5687SOL    HW117960   2.210   6.352   5.949
 5687SOL    HW217961   2.364   6.302   5.926
 5688SOL     OW17962   2.182   3.037   3.357
 5688SOL    HW117963   2.198   3.129   3.322
 5688SOL    HW217964   2.175   3.040   3.457
 5689SOL     OW17965   1.143   1.815   1.764
 5689SOL    HW117966   1.171   1.845   1.673
 5689SOL    HW217967   1.214   1.755   1.801
 5690SOL     OW17968   1.428   5.632   0.051
 5690SOL    HW117969   1.337   5.605   0.084
 5690SOL    HW217970   1.493   5.559   0.070
 5691SOL     OW17971   3.855   1.233   2.577
 5691SOL    HW117972   3.832   1.292   2.654
 5691SOL    HW217973   3.891   1.289   2.502
 5692SOL     OW17974   4.356   4.913   1.168
 5692SOL    HW117975   4.428   4.971   1.131
 5692SOL    HW217976   4.267   4.950   1.141
 5693SOL     OW17977   3.449   1.010   1.424
 5693SOL    HW117978   3.357   1.046   1.411
 5693SOL    HW217979   3.513   1.057   1.364
 5694SOL     OW17980   0.383   0.038   2.455
 5694SOL    HW117981   0.305   0.019   2.514
 5694SOL    HW217982   0.465   0.050   2.511
 5695SOL     OW17983   0.903   0.540   0.836
 5695SOL    HW117984   0.990   0.573   0.800
 5695SOL    HW217985   0.872   0.601   0.909
 5696SOL     OW17986   1.635   6.967   3.813
 5696SOL    HW117987   1.620   6.938   3.907
 5696SOL    HW217988   1.562   6.932   3.755
 5697SOL     OW17989   6.193   2.621   0.464
 5697SOL    HW117990   6.149   2.617   0.554
 5697SOL    HW217991   6.128   2.657   0.397
 5698SOL     OW17992   2.309   2.734   3.706
 5698SOL    HW117993   2.234   2.757   3.769
 5698SOL    HW217994   2.276   2.742   3.611
 5699SOL     OW17995   2.355   2.518   2.715
 5699SOL    HW117996   2.364   2.427   2.756
 5699SOL    HW217997   2.420   2.581   2.758
 5700SOL     OW17998   6.209   0.713   3.573
 5700SOL    HW117999   6.121   0.666   3.566
 5700SOL    HW218000   6.275   0.654   3.620
 5701SOL     OW18001   6.647   0.734   0.849
 5701SOL    HW118002   6.595   0.758   0.931
 5701SOL    HW218003   6.590   0.678   0.789
 5702SOL     OW18004   2.481   6.936   4.618
 5702SOL    HW118005   2.486   6.963   4.522
 5702SOL    HW218006   2.448   6.842   4.625
 5703SOL     OW18007   6.991   2.604   6.706
 5703SOL    HW118008   0.038   2.597   6.632
 5703SOL    HW218009   6.952   2.514   6.722
 5704SOL     OW18010   5.342   4.733   4.236
 5704SOL    HW118011   5.326   4.638   4.212
 5704SOL    HW218012   5.316   4.792   4.159
 5705SOL     OW18013   5.860   6.715   5.958
 5705SOL    HW118014   5.814   6.729   5.871
 5705SOL    HW218015   5.816   6.771   6.028
 5706SOL     OW18016   5.530   2.263   6.767
 5706SOL    HW118017   5.552   2.166   6.759
 5706SOL    HW218018   5.537   2.292   6.862
 5707SOL     OW18019   5.724   6.380   2.596
 5707SOL    HW118020   5.798   6.357   2.659
 5707SOL    HW218021   5.641   6.331   2.624
 5708SOL     OW18022   4.479   5.867   3.224
 5708SOL    HW118023   4.481   5.794   3.156
 5708SOL    HW218024   4.421   5.942   3.191
 5709SOL     OW18025   0.730   1.333   2.277
 5709SOL    HW118026   0.681   1.262   2.226
 5709SOL    HW218027   0.777   1.394   2.212
 5710SOL     OW18028   2.300   2.283   0.970
 5710SOL    HW118029   2.266   2.287   0.876
 5710SOL    HW218030   2.367   2.356   0.984
 5711SOL     OW18031   5.214   2.109   2.079
 5711SOL    HW118032   5.216   2.022   2.130
 5711SOL    HW218033   5.306   2.129   2.045
 5712SOL     OW18034   6.497   6.080   1.653
 5712SOL    HW118035   6.493   6.027   1.569
 5712SOL    HW218036   6.591   6.085   1.685
 5713SOL     OW18037   2.478   6.465   0.623
 5713SOL    HW118038   2.479   6.481   0.524
 5713SOL    HW218039   2.390   6.426   0.649
 5714SOL     OW18040   6.193   6.359   1.460
 5714SOL    HW118041   6.100   6.395   1.449
 5714SOL    HW218042   6.188   6.262   1.485
 5715SOL     OW18043   0.793   0.267   1.498
 5715SOL    HW118044   0.737   0.325   1.439
 5715SOL    HW218045   0.880   0.248   1.452
 5716SOL     OW18046   6.814   4.375   6.212
 5716SOL    HW118047   6.721   4.395   6.181
 5716SOL    HW218048   6.833   4.427   6.295
 5717SOL     OW18049   1.312   5.152   3.177
 5717SOL    HW118050   1.318   5.117   3.084
 5717SOL    HW218051   1.348   5.085   3.241
 5718SOL     OW18052   0.861   3.079   0.037
 5718SOL    HW118053   0.897   3.119   0.121
 5718SOL    HW218054   0.870   3.145   6.982
 5719SOL     OW18055   2.785   4.047   0.814
 5719SOL    HW118056   2.777   4.146   0.826
 5719SOL    HW218057   2.861   4.027   0.752
 5720SOL     OW18058   2.056   5.089   5.876
 5720SOL    HW118059   2.082   5.160   5.942
 5720SOL    HW218060   1.990   5.126   5.811
 5721SOL     OW18061   4.258   4.070   0.283
 5721SOL    HW118062   4.353   4.092   0.305
 5721SOL    HW218063   4.198   4.108   0.353
 5722SOL     OW18064   0.754   0.988   5.387
 5722SOL    HW118065   0.829   0.987   5.321
 5722SOL    HW218066   0.777   0.928   5.464
 5723SOL     OW18067   4.271   3.027   0.140
 5723SOL    HW118068   4.313   2.948   0.094
 5723SOL    HW218069   4.285   3.109   0.085
 5724SOL     OW18070   5.035   2.326   3.701
 5724SOL    HW118071   5.101   2.259   3.666
 5724SOL    HW218072   5.002   2.383   3.626
 5725SOL     OW18073   6.811   4.294   3.810
 5725SOL    HW118074   6.741   4.253   3.869
 5725SOL    HW218075   6.848   4.224   3.750
 5726SOL     OW18076   5.498   4.593   2.695
 5726SOL    HW118077   5.502   4.511   2.752
 5726SOL    HW218078   5.574   4.654   2.718
 5727SOL     OW18079   0.260   2.812   4.659
 5727SOL    HW118080   0.329   2.739   4.661
 5727SOL    HW218081   0.239   2.835   4.564
 5728SOL     OW18082   5.391   5.947   5.083
 5728SOL    HW118083   5.345   6.027   5.045
 5728SOL    HW218084   5.489   5.963   5.087
 5729SOL     OW18085   1.745   1.494   5.941
 5729SOL    HW118086   1.793   1.454   5.863
 5729SOL    HW218087   1.711   1.585   5.917
 5730SOL     OW18088   6.241   4.163   5.796
 5730SOL    HW118089   6.303   4.107   5.850
 5730SOL    HW218090   6.150   4.164   5.839
 5731SOL     OW18091   0.375   6.425   1.955
 5731SOL    HW118092   0.298   6.430   2.018
 5731SOL    HW218093   0.405   6.330   1.948
 5732SOL     OW18094   1.317   6.854   3.704
 5732SOL    HW118095   1.277   6.763   3.713
 5732SOL    HW218096   1.394   6.851   3.641
 5733SOL     OW18097   3.628   0.458   5.509
 5733SOL    HW118098   3.727   0.459   5.525
 5733SOL    HW218099   3.609   0.472   5.412
 5734SOL     OW18100   2.049   6.385   2.985
 5734SOL    HW118101   1.974   6.320   2.974
 5734SOL    HW218102   2.134   6.344   2.952
 5735SOL     OW18103   3.063   1.090   2.302
 5735SOL    HW118104   3.135   1.160   2.302
 5735SOL    HW218105   2.985   1.123   2.249
 5736SOL     OW18106   1.188   5.529   0.167
 5736SOL    HW118107   1.199   5.542   0.266
 5736SOL    HW218108   1.092   5.516   0.146
 5737SOL     OW18109   5.548   4.819   0.408
 5737SOL    HW118110   5.495   4.735   0.401
 5737SOL    HW218111   5.559   4.843   0.505
 5738SOL     OW18112   1.526   4.052   5.951
 5738SOL    HW118113   1.524   4.023   6.047
 5738SOL    HW218114   1.531   3.971   5.892
 5739SOL     OW18115   0.953   1.110   0.951
 5739SOL    HW118116   0.918   1.098   0.859
 5739SOL    HW218117   0.940   1.205   0.980
 5740SOL     OW18118   4.062   5.832   6.132
 5740SOL    HW118119   4.153   5.841   6.091
 5740SOL    HW218120   4.009   5.766   6.080
 5741SOL     OW18121   0.592   5.086   4.011
 5741SOL    HW118122   0.517   5.047   4.064
 5741SOL    HW218123   0.651   5.013   3.976
 5742SOL     OW18124   6.417   6.986   4.230
 5742SOL    HW118125   6.420   0.005   4.138
 5742SOL    HW218126   6.462   0.029   4.294
 5743SOL     OW18127   1.669   6.507   5.703
 5743SOL    HW118128   1.748   6.478   5.650
 5743SOL    HW218129   1.672   6.607   5.714
 5744SOL     OW18130   6.378   0.183   2.278
 5744SOL    HW118131   6.426   0.118   2.337
 5744SOL    HW218132   6.414   0.275   2.294
 5745SOL     OW18133   1.467   1.813   3.474
 5745SOL    HW118134   1.421   1.800   3.386
 5745SOL    HW218135   1.443   1.738   3.536
 5746SOL     OW18136   5.460   3.489   0.066
 5746SOL    HW118137   5.464   3.493   0.166
 5746SOL    HW218138   5.365   3.485   0.036
 5747SOL     OW18139   1.093   5.769   3.008
 5747SOL    HW118140   1.017   5.810   3.057
 5747SOL    HW218141   1.179   5.811   3.036
 5748SOL     OW18142   2.210   6.467   2.475
 5748SOL    HW118143   2.182   6.378   2.439
 5748SOL    HW218144   2.151   6.538   2.437
 5749SOL     OW18145   2.585   1.656   3.663
 5749SOL    HW118146   2.513   1.715   3.625
 5749SOL    HW218147   2.570   1.645   3.761
 5750SOL     OW18148   6.615   5.991   2.842
 5750SOL    HW118149   6.601   6.055   2.766
 5750SOL    HW218150   6.610   5.897   2.808
 5751SOL     OW18151   2.208   3.993   5.634
 5751SOL    HW118152   2.151   3.978   5.553
 5751SOL    HW218153   2.260   4.077   5.623
 5752SOL     OW18154   6.640   0.300   6.678
 5752SOL    HW118155   6.616   0.374   6.740
 5752SOL    HW218156   6.557   0.261   6.638
 5753SOL     OW18157   3.425   2.379   0.537
 5753SOL    HW118158   3.486   2.339   0.468
 5753SOL    HW218159   3.466   2.464   0.570
 5754SOL     OW18160   6.005   4.518   1.291
 5754SOL    HW118161   5.935   4.535   1.360
 5754SOL    HW218162   6.037   4.605   1.254
 5755SOL     OW18163   3.593   3.988   1.076
 5755SOL    HW118164   3.523   3.922   1.049
 5755SOL    HW218165   3.631   3.963   1.165
 5756SOL     OW18166   0.149   5.696   4.693
 5756SOL    HW118167   0.214   5.678   4.767
 5756SOL    HW218168   0.193   5.677   4.605
 5757SOL     OW18169   0.395   4.588   0.818
 5757SOL    HW118170   0.332   4.514   0.795
 5757SOL    HW218171   0.350   4.676   0.804
 5758SOL     OW18172   1.046   1.986   5.653
 5758SOL    HW118173   0.977   2.025   5.591
 5758SOL    HW218174   1.119   1.944   5.600
 5759SOL     OW18175   5.536   1.787   5.202
 5759SOL    HW118176   5.574   1.879   5.195
 5759SOL    HW218177   5.453   1.782   5.146
 5760SOL     OW18178   1.840   5.321   2.394
 5760SOL    HW118179   1.822   5.340   2.490
 5760SOL    HW218180   1.791   5.386   2.337
 5761SOL     OW18181   4.839   0.149   4.948
 5761SOL    HW118182   4.903   0.211   4.993
 5761SOL    HW218183   4.879   0.058   4.943
 5762SOL     OW18184   5.579   6.006   1.469
 5762SOL    HW118185   5.641   5.966   1.536
 5762SOL    HW218186   5.489   5.963   1.476
 5763SOL     OW18187   1.008   1.246   1.692
 5763SOL    HW118188   1.065   1.221   1.614
 5763SOL    HW218189   0.915   1.210   1.677
 5764SOL     OW18190   4.207   3.765   5.284
 5764SOL    HW118191   4.298   3.807   5.276
 5764SOL    HW218192   4.149   3.797   5.210
 5765SOL     OW18193   5.685   5.073   0.324
 5765SOL    HW118194   5.747   5.123   0.385
 5765SOL    HW218195   5.674   4.980   0.357
 5766SOL     OW18196   3.442   1.458   3.278
 5766SOL    HW118197   3.395   1.539   3.314
 5766SOL    HW218198   3.461   1.395   3.353
 5767SOL     OW18199   0.088   6.587   1.597
 5767SOL    HW118200   0.184   6.592   1.570
 5767SOL    HW218201   0.073   6.505   1.653
 5768SOL     OW18202   6.720   1.534   2.896
 5768SOL    HW118203   6.725   1.445   2.849
 5768SOL    HW218204   6.734   1.520   2.994
 5769SOL     OW18205   2.376   5.529   3.568
 5769SOL    HW118206   2.398   5.435   3.542
 5769SOL    HW218207   2.281   5.533   3.600
 5770SOL     OW18208   6.171   0.351   1.658
 5770SOL    HW118209   6.191   0.331   1.562
 5770SOL    HW218210   6.235   0.302   1.717
 5771SOL     OW18211   0.637   1.770   1.932
 5771SOL    HW118212   0.617   1.785   1.836
 5771SOL    HW218213   0.736   1.775   1.948
 5772SOL     OW18214   6.757   3.807   0.052
 5772SOL    HW118215   6.699   3.837   0.128
 5772SOL    HW218216   6.788   3.714   0.068
 5773SOL     OW18217   5.351   5.937   4.115
 5773SOL    HW118218   5.427   5.980   4.162
 5773SOL    HW218219   5.301   5.877   4.178
 5774SOL     OW18220   2.287   5.159   3.506
 5774SOL    HW118221   2.238   5.140   3.591
 5774SOL    HW218222   2.361   5.093   3.495
 5775SOL     OW18223   0.057   0.454   0.231
 5775SOL    HW118224   7.011   0.524   0.207
 5775SOL    HW218225   0.148   0.495   0.239
 5776SOL     OW18226   5.491   0.943   5.610
 5776SOL    HW118227   5.504   0.991   5.697
 5776SOL    HW218228   5.523   0.849   5.619
 5777SOL     OW18229   6.663   0.853   5.324
 5777SOL    HW118230   6.653   0.888   5.231
 5777SOL    HW218231   6.579   0.869   5.376
 5778SOL     OW18232   2.663   6.781   3.842
 5778SOL    HW118233   2.656   6.866   3.893
 5778SOL    HW218234   2.601   6.713   3.881
 5779SOL     OW18235   4.592   1.453   2.668
 5779SOL    HW118236   4.687   1.426   2.652
 5779SOL    HW218237   4.548   1.476   2.581
 5780SOL     OW18238   6.117   3.620   1.422
 5780SOL    HW118239   6.111   3.692   1.490
 5780SOL    HW218240   6.204   3.571   1.433
 5781SOL     OW18241   2.219   5.277   4.492
 5781SOL    HW118242   2.277   5.280   4.574
 5781SOL    HW218243   2.141   5.338   4.504
 5782SOL     OW18244   2.604   1.486   2.795
 5782SOL    HW118245   2.533   1.444   2.852
 5782SOL    HW218246   2.576   1.579   2.771
 5783SOL     OW18247   1.985   6.518   0.666
 5783SOL    HW118248   2.021   6.597   0.716
 5783SOL    HW218249   1.885   6.519   0.668
 5784SOL     OW18250   1.614   5.465   0.145
 5784SOL    HW118251   1.673   5.523   0.201
 5784SOL    HW218252   1.663   5.381   0.122
 5785SOL     OW18253   1.855   2.021   6.919
 5785SOL    HW118254   1.913   2.080   6.975
 5785SOL    HW218255   1.848   1.931   6.962
 5786SOL     OW18256   0.940   3.210   1.144
 5786SOL    HW118257   0.970   3.126   1.100
 5786SOL    HW218258   0.841   3.206   1.159
 5787SOL     OW18259   0.168   2.977   5.502
 5787SOL    HW118260   0.192   2.939   5.591
 5787SOL    HW218261   0.225   3.058   5.485
 5788SOL     OW18262   1.891   2.771   1.703
 5788SOL    HW118263   1.904   2.784   1.801
 5788SOL    HW218264   1.844   2.684   1.687
 5789SOL     OW18265   3.184   5.153   6.975
 5789SOL    HW118266   3.244   5.158   6.896
 5789SOL    HW218267   3.143   5.062   6.981
 5790SOL     OW18268   6.331   6.165   3.583
 5790SOL    HW118269   6.413   6.154   3.639
 5790SOL    HW218270   6.263   6.218   3.634
 5791SOL     OW18271   3.770   1.318   2.270
 5791SOL    HW118272   3.691   1.370   2.238
 5791SOL    HW218273   3.848   1.380   2.284
 5792SOL     OW18274   5.020   3.260   2.881
 5792SOL    HW118275   5.114   3.234   2.858
 5792SOL    HW218276   4.957   3.189   2.850
 5793SOL     OW18277   4.145   2.499   6.438
 5793SOL    HW118278   4.153   2.474   6.341
 5793SOL    HW218279   4.146   2.416   6.494
 5794SOL     OW18280   4.128   6.721   6.783
 5794SOL    HW118281   4.210   6.704   6.838
 5794SOL    HW218282   4.071   6.640   6.783
 5795SOL     OW18283   2.442   5.774   1.844
 5795SOL    HW118284   2.368   5.838   1.825
 5795SOL    HW218285   2.460   5.771   1.942
 5796SOL     OW18286   5.034   1.262   6.790
 5796SOL    HW118287   5.000   1.169   6.781
 5796SOL    HW218288   5.038   1.287   6.887
 5797SOL     OW18289   5.964   2.334   1.188
 5797SOL    HW118290   5.963   2.264   1.116
 5797SOL    HW218291   6.032   2.310   1.257
 5798SOL     OW18292   1.663   3.529   4.946
 5798SOL    HW118293   1.603   3.605   4.972
 5798SOL    HW218294   1.640   3.499   4.853
 5799SOL     OW18295   2.148   6.603   3.741
 5799SOL    HW118296   2.150   6.575   3.645
 5799SOL    HW218297   2.106   6.694   3.749
 5800SOL     OW18298   1.791   0.136   1.502
 5800SOL    HW118299   1.695   0.120   1.525
 5800SOL    HW218300   1.849   0.076   1.557
 5801SOL     OW18301   2.032   1.552   2.052
 5801SOL    HW118302   2.054   1.475   1.991
 5801SOL    HW218303   2.088   1.546   2.134
 5802SOL     OW18304   0.587   0.652   1.607
 5802SOL    HW118305   0.500   0.603   1.599
 5802SOL    HW218306   0.591   0.696   1.696
 5803SOL     OW18307   0.266   5.496   4.154
 5803SOL    HW118308   0.167   5.497   4.164
 5803SOL    HW218309   0.304   5.581   4.191
 5804SOL     OW18310   5.915   1.888   2.858
 5804SOL    HW118311   5.984   1.836   2.809
 5804SOL    HW218312   5.959   1.964   2.906
 5805SOL     OW18313   1.216   2.574   2.058
 5805SOL    HW118314   1.315   2.561   2.071
 5805SOL    HW218315   1.199   2.606   1.965
 5806SOL     OW18316   6.882   4.185   2.116
 5806SOL    HW118317   6.910   4.099   2.158
 5806SOL    HW218318   6.819   4.233   2.178
 5807SOL     OW18319   1.797   0.459   1.146
 5807SOL    HW118320   1.702   0.446   1.176
 5807SOL    HW218321   1.799   0.467   1.046
 5808SOL     OW18322   6.744   0.496   5.793
 5808SOL    HW118323   6.797   0.573   5.828
 5808SOL    HW218324   6.671   0.475   5.857
 5809SOL     OW18325   0.360   2.261   5.401
 5809SOL    HW118326   0.456   2.287   5.389
 5809SOL    HW218327   0.302   2.319   5.344
 5810SOL     OW18328   3.042   6.792   5.116
 5810SOL    HW118329   3.007   6.828   5.203
 5810SOL    HW218330   3.014   6.696   5.107
 5811SOL     OW18331   3.610   4.542   6.495
 5811SOL    HW118332   3.694   4.512   6.539
 5811SOL    HW218333   3.579   4.627   6.538
 5812SOL     OW18334   5.518   2.676   6.712
 5812SOL    HW118335   5.589   2.683   6.642
 5812SOL    HW218336   5.454   2.603   6.687
 5813SOL     OW18337   4.932   5.739   0.237
 5813SOL    HW118338   4.876   5.656   0.241
 5813SOL    HW218339   4.889   5.812   0.289
 5814SOL     OW18340   5.264   1.567   1.677
 5814SOL    HW118341   5.252   1.664   1.699
 5814SOL    HW218342   5.235   1.512   1.756
 5815SOL     OW18343   6.665   2.459   3.951
 5815SOL    HW118344   6.605   2.537   3.966
 5815SOL    HW218345   6.629   2.403   3.876
 5816SOL     OW18346   6.907   3.331   2.478
 5816SOL    HW118347   6.889   3.234   2.464
 5816SOL    HW218348   6.869   3.384   2.402
 5817SOL     OW18349   6.031   3.741   3.330
 5817SOL    HW118350   6.079   3.749   3.243
 5817SOL    HW218351   6.028   3.830   3.375
 5818SOL     OW18352   2.154   0.477   4.989
 5818SOL    HW118353   2.182   0.543   4.920
 5818SOL    HW218354   2.212   0.487   5.070
 5819SOL     OW18355   4.658   5.099   0.256
 5819SOL    HW118356   4.567   5.057   0.256
 5819SOL    HW218357   4.724   5.035   0.218
 5820SOL     OW18358   5.648   6.189   2.278
 5820SOL    HW118359   5.585   6.126   2.233
 5820SOL    HW218360   5.736   6.145   2.293
 5821SOL     OW18361   0.094   0.487   0.799
 5821SOL    HW118362   0.027   0.415   0.782
 5821SOL    HW218363   0.132   0.519   0.712
 5822SOL     OW18364   1.625   3.373   3.155
 5822SOL    HW118365   1.699   3.379   3.088
 5822SOL    HW218366   1.554   3.313   3.120
 5823SOL     OW18367   1.801   5.603   3.001
 5823SOL    HW118368   1.712   5.620   2.960
 5823SOL    HW218369   1.814   5.505   3.013
 5824SOL     OW18370   1.063   0.399   2.849
 5824SOL    HW118371   0.978   0.408   2.900
 5824SOL    HW218372   1.138   0.436   2.903
 5825SOL     OW18373   5.461   1.285   4.495
 5825SOL    HW118374   5.483   1.248   4.585
 5825SOL    HW218375   5.524   1.359   4.473
 5826SOL     OW18376   0.711   6.539   5.268
 5826SOL    HW118377   0.799   6.585   5.278
 5826SOL    HW218378   0.663   6.577   5.188
 5827SOL     OW18379   2.129   3.848   3.608
 5827SOL    HW118380   2.039   3.815   3.635
 5827SOL    HW218381   2.165   3.791   3.534
 5828SOL     OW18382   3.725   0.519   5.262
 5828SOL    HW118383   3.792   0.460   5.217
 5828SOL    HW218384   3.651   0.540   5.197
 5829SOL     OW18385   2.310   0.669   3.697
 5829SOL    HW118386   2.274   0.719   3.619
 5829SOL    HW218387   2.410   0.664   3.691
 5830SOL     OW18388   4.094   4.851   4.428
 5830SOL    HW118389   4.026   4.891   4.367
 5830SOL    HW218390   4.067   4.867   4.523
 5831SOL     OW18391   1.457   2.127   5.626
 5831SOL    HW118392   1.376   2.103   5.573
 5831SOL    HW218393   1.521   2.050   5.627
 5832SOL     OW18394   2.888   4.997   1.699
 5832SOL    HW118395   2.879   4.919   1.638
 5832SOL    HW218396   2.879   4.967   1.794
 5833SOL     OW18397   3.669   4.939   0.140
 5833SOL    HW118398   3.757   4.949   0.094
 5833SOL    HW218399   3.621   5.027   0.139
 5834SOL     OW18400   5.860   2.697   6.730
 5834SOL    HW118401   5.927   2.652   6.790
 5834SOL    HW218402   5.827   2.632   6.662
 5835SOL     OW18403   5.039   2.343   2.814
 5835SOL    HW118404   5.085   2.320   2.899
 5835SOL    HW218405   5.052   2.270   2.747
 5836SOL     OW18406   4.703   6.072   3.008
 5836SOL    HW118407   4.668   6.004   2.943
 5836SOL    HW218408   4.782   6.034   3.056
 5837SOL     OW18409   2.388   5.474   6.934
 5837SOL    HW118410   2.393   5.420   6.850
 5837SOL    HW218411   2.469   5.457   6.990
 5838SOL     OW18412   3.913   2.248   0.555
 5838SOL    HW118413   3.950   2.341   0.556
 5838SOL    HW218414   3.979   2.186   0.598
 5839SOL     OW18415   2.077   2.449   0.145
 5839SOL    HW118416   2.171   2.455   0.179
 5839SOL    HW218417   2.014   2.487   0.212
 5840SOL     OW18418   0.039   3.307   3.112
 5840SOL    HW118419   6.993   3.380   3.127
 5840SOL    HW218420   0.105   3.305   3.187
 5841SOL     OW18421   4.813   1.182   0.658
 5841SOL    HW118422   4.741   1.119   0.688
 5841SOL    HW218423   4.833   1.247   0.731
 5842SOL     OW18424   2.068   2.370   1.064
 5842SOL    HW118425   2.159   2.355   1.025
 5842SOL    HW218426   2.077   2.394   1.161
 5843SOL     OW18427   2.794   3.912   1.049
 5843SOL    HW118428   2.749   3.833   1.006
 5843SOL    HW218429   2.817   3.979   0.979
 5844SOL     OW18430   0.686   6.246   4.830
 5844SOL    HW118431   0.742   6.169   4.801
 5844SOL    HW218432   0.738   6.331   4.822
 5845SOL     OW18433   1.003   0.450   2.348
 5845SOL    HW118434   0.986   0.406   2.437
 5845SOL    HW218435   0.915   0.465   2.302
 5846SOL     OW18436   0.180   4.026   5.275
 5846SOL    HW118437   0.198   3.935   5.236
 5846SOL    HW218438   0.149   4.087   5.202
 5847SOL     OW18439   2.161   3.880   6.549
 5847SOL    HW118440   2.124   3.912   6.636
 5847SOL    HW218441   2.259   3.898   6.545
 5848SOL     OW18442   1.996   5.115   2.288
 5848SOL    HW118443   1.943   5.185   2.334
 5848SOL    HW218444   2.086   5.106   2.331
 5849SOL     OW18445   3.542   6.005   5.600
 5849SOL    HW118446   3.445   6.011   5.574
 5849SOL    HW218447   3.566   6.083   5.657
 5850SOL     OW18448   0.969   1.436   2.582
 5850SOL    HW118449   0.907   1.494   2.530
 5850SOL    HW218450   0.916   1.385   2.650
 5851SOL     OW18451   6.465   3.817   4.420
 5851SOL    HW118452   6.398   3.748   4.394
 5851SOL    HW218453   6.552   3.799   4.374
 5852SOL     OW18454   4.988   4.268   2.190
 5852SOL    HW118455   4.984   4.347   2.252
 5852SOL    HW218456   5.053   4.286   2.116
 5853SOL     OW18457   4.820   4.975   6.312
 5853SOL    HW118458   4.823   4.962   6.213
 5853SOL    HW218459   4.802   5.071   6.333
 5854SOL     OW18460   2.825   4.793   5.320
 5854SOL    HW118461   2.857   4.730   5.250
 5854SOL    HW218462   2.759   4.857   5.281
 5855SOL     OW18463   2.290   2.914   3.150
 5855SOL    HW118464   2.271   2.977   3.076
 5855SOL    HW218465   2.239   2.942   3.232
 5856SOL     OW18466   1.206   6.253   2.807
 5856SOL    HW118467   1.249   6.319   2.746
 5856SOL    HW218468   1.122   6.292   2.845
 5857SOL     OW18469   5.380   4.877   6.826
 5857SOL    HW118470   5.463   4.835   6.863
 5857SOL    HW218471   5.300   4.826   6.857
 5858SOL     OW18472   1.733   0.826   2.681
 5858SOL    HW118473   1.735   0.738   2.728
 5858SOL    HW218474   1.644   0.839   2.638
 5859SOL     OW18475   5.627   5.862   1.233
 5859SOL    HW118476   5.606   5.921   1.311
 5859SOL    HW218477   5.544   5.849   1.178
 5860SOL     OW18478   0.414   4.332   3.228
 5860SOL    HW118479   0.485   4.398   3.253
 5860SOL    HW218480   0.457   4.245   3.204
 5861SOL     OW18481   5.029   0.872   4.952
 5861SOL    HW118482   5.093   0.815   5.004
 5861SOL    HW218483   4.971   0.923   5.016
 5862SOL     OW18484   6.521   5.544   2.557
 5862SOL    HW118485   6.515   5.445   2.564
 5862SOL    HW218486   6.447   5.587   2.608
 5863SOL     OW18487   4.008   6.498   6.661
 5863SOL    HW118488   3.999   6.536   6.569
 5863SOL    HW218489   4.055   6.409   6.656
 5864SOL     OW18490   3.733   4.116   2.219
 5864SOL    HW118491   3.658   4.137   2.282
 5864SOL    HW218492   3.737   4.186   2.148
 5865SOL     OW18493   6.988   0.587   6.284
 5865SOL    HW118494   7.006   0.498   6.325
 5865SOL    HW218495   6.988   0.579   6.185
 5866SOL     OW18496   3.352   3.264   2.948
 5866SOL    HW118497   3.414   3.314   2.886
 5866SOL    HW218498   3.262   3.307   2.946
 5867SOL     OW18499   2.957   1.469   2.146
 5867SOL    HW118500   2.999   1.381   2.165
 5867SOL    HW218501   2.984   1.535   2.216
 5868SOL     OW18502   0.829   1.286   5.474
 5868SOL    HW118503   0.762   1.332   5.416
 5868SOL    HW218504   0.818   1.187   5.466
 5869SOL     OW18505   1.208   6.150   3.127
 5869SOL    HW118506   1.189   6.127   3.222
 5869SOL    HW218507   1.147   6.222   3.097
 5870SOL     OW18508   3.462   5.765   4.764
 5870SOL    HW118509   3.408   5.703   4.707
 5870SOL    HW218510   3.454   5.858   4.729
 5871SOL     OW18511   2.991   3.172   3.801
 5871SOL    HW118512   3.058   3.107   3.835
 5871SOL    HW218513   2.979   3.246   3.868
 5872SOL     OW18514   4.903   5.447   1.485
 5872SOL    HW118515   4.920   5.352   1.463
 5872SOL    HW218516   4.990   5.498   1.485
 5873SOL     OW18517   4.377   6.144   2.570
 5873SOL    HW118518   4.318   6.089   2.629
 5873SOL    HW218519   4.450   6.086   2.533
 5874SOL     OW18520   1.494   4.169   5.130
 5874SOL    HW118521   1.422   4.170   5.199
 5874SOL    HW218522   1.583   4.165   5.174
 5875SOL     OW18523   3.216   1.330   0.882
 5875SOL    HW118524   3.226   1.356   0.978
 5875SOL    HW218525   3.257   1.240   0.868
 5876SOL     OW18526   3.297   2.971   1.473
 5876SOL    HW118527   3.385   2.982   1.427
 5876SOL    HW218528   3.291   2.880   1.513
 5877SOL     OW18529   5.992   4.356   1.016
 5877SOL    HW118530   5.996   4.265   1.058
 5877SOL    HW218531   5.993   4.426   1.087
 5878SOL     OW18532   2.107   4.769   2.702
 5878SOL    HW118533   2.165   4.848   2.686
 5878SOL    HW218534   2.062   4.742   2.616
 5879SOL     OW18535   0.524   4.753   4.725
 5879SOL    HW118536   0.428   4.746   4.751
 5879SOL    HW218537   0.548   4.675   4.667
 5880SOL     OW18538   3.029   5.840   0.824
 5880SOL    HW118539   2.938   5.867   0.856
 5880SOL    HW218540   3.045   5.744   0.846
 5881SOL     OW18541   1.749   5.865   4.517
 5881SOL    HW118542   1.734   5.770   4.542
 5881SOL    HW218543   1.666   5.918   4.533
 5882SOL     OW18544   4.698   0.825   2.125
 5882SOL    HW118545   4.639   0.904   2.104
 5882SOL    HW218546   4.786   0.837   2.079
 5883SOL     OW18547   0.142   3.333   5.295
 5883SOL    HW118548   0.044   3.329   5.311
 5883SOL    HW218549   0.164   3.292   5.207
 5884SOL     OW18550   0.965   1.493   3.504
 5884SOL    HW118551   0.866   1.482   3.504
 5884SOL    HW218552   0.991   1.558   3.432
 5885SOL     OW18553   5.840   6.814   1.032
 5885SOL    HW118554   5.829   6.810   0.932
 5885SOL    HW218555   5.896   6.894   1.056
 5886SOL     OW18556   1.134   1.220   5.863
 5886SOL    HW118557   1.165   1.185   5.951
 5886SOL    HW218558   1.102   1.314   5.873
 5887SOL     OW18559   4.410   6.695   3.419
 5887SOL    HW118560   4.331   6.635   3.427
 5887SOL    HW218561   4.437   6.728   3.509
 5888SOL     OW18562   1.818   0.419   3.519
 5888SOL    HW118563   1.721   0.442   3.517
 5888SOL    HW218564   1.871   0.500   3.541
 5889SOL     OW18565   2.742   0.798   0.810
 5889SOL    HW118566   2.725   0.887   0.768
 5889SOL    HW218567   2.747   0.728   0.739
 5890SOL     OW18568   3.420   4.736   6.283
 5890SOL    HW118569   3.396   4.756   6.188
 5890SOL    HW218570   3.382   4.647   6.309
 5891SOL     OW18571   2.265   3.675   0.344
 5891SOL    HW118572   2.243   3.770   0.318
 5891SOL    HW218573   2.192   3.639   0.402
 5892SOL     OW18574   0.744   0.050   1.635
 5892SOL    HW118575   0.830   0.011   1.603
 5892SOL    HW218576   0.738   0.146   1.605
 5893SOL     OW18577   1.803   0.660   3.253
 5893SOL    HW118578   1.761   0.748   3.231
 5893SOL    HW218579   1.754   0.587   3.207
 5894SOL     OW18580   0.627   3.130   3.130
 5894SOL    HW118581   0.724   3.119   3.153
 5894SOL    HW218582   0.606   3.227   3.123
 5895SOL     OW18583   5.067   3.599   3.824
 5895SOL    HW118584   5.156   3.587   3.779
 5895SOL    HW218585   5.023   3.510   3.834
 5896SOL     OW18586   3.566   2.053   5.653
 5896SOL    HW118587   3.592   2.069   5.748
 5896SOL    HW218588   3.629   2.102   5.593
 5897SOL     OW18589   3.931   0.627   1.805
 5897SOL    HW118590   3.895   0.563   1.872
 5897SOL    HW218591   3.912   0.593   1.712
 5898SOL     OW18592   1.733   0.208   2.187
 5898SOL    HW118593   1.659   0.171   2.132
 5898SOL    HW218594   1.748   0.304   2.163
 5899SOL     OW18595   4.845   7.018   4.068
 5899SOL    HW118596   4.937   0.003   4.106
 5899SOL    HW218597   4.822   6.923   4.047
 5900SOL     OW18598   4.573   5.097   2.695
 5900SOL    HW118599   4.659   5.055   2.726
 5900SOL    HW218600   4.523   5.032   2.639
 5901SOL     OW18601   3.850   6.904   5.163
 5901SOL    HW118602   3.858   6.805   5.180
 5901SOL    HW218603   3.857   6.922   5.065
 5902SOL     OW18604   6.316   1.229   6.428
 5902SOL    HW118605   6.415   1.240   6.430
 5902SOL    HW218606   6.281   1.257   6.338
 5903SOL     OW18607   6.845   2.965   6.395
 5903SOL    HW118608   6.823   2.886   6.452
 5903SOL    HW218609   6.779   2.972   6.321
 5904SOL     OW18610   0.171   4.335   2.302
 5904SOL    HW118611   0.228   4.254   2.314
 5904SOL    HW218612   0.202   4.408   2.363
 5905SOL     OW18613   6.811   5.293   2.499
 5905SOL    HW118614   6.897   5.243   2.513
 5905SOL    HW218615   6.814   5.340   2.411
 5906SOL     OW18616   6.748   1.496   3.941
 5906SOL    HW118617   6.669   1.551   3.912
 5906SOL    HW218618   6.716   1.426   4.004
 5907SOL     OW18619   1.683   6.750   1.777
 5907SOL    HW118620   1.770   6.725   1.735
 5907SOL    HW218621   1.664   6.846   1.759
 5908SOL     OW18622   0.468   2.760   6.057
 5908SOL    HW118623   0.446   2.812   6.140
 5908SOL    HW218624   0.384   2.718   6.021
 5909SOL     OW18625   6.913   4.343   0.908
 5909SOL    HW118626   6.960   4.423   0.946
 5909SOL    HW218627   6.839   4.315   0.969
 5910SOL     OW18628   2.010   1.660   3.542
 5910SOL    HW118629   2.097   1.669   3.492
 5910SOL    HW218630   2.026   1.613   3.628
 5911SOL     OW18631   6.868   5.685   6.280
 5911SOL    HW118632   6.837   5.721   6.368
 5911SOL    HW218633   6.889   5.762   6.218
 5912SOL     OW18634   0.585   0.922   3.860
 5912SOL    HW118635   0.615   0.889   3.771
 5912SOL    HW218636   0.654   0.984   3.898
 5913SOL     OW18637   5.285   1.583   6.903
 5913SOL    HW118638   5.218   1.618   6.837
 5913SOL    HW218639   5.246   1.585   6.995
 5914SOL     OW18640   0.583   6.018   0.756
 5914SOL    HW118641   0.641   5.950   0.712
 5914SOL    HW218642   0.586   6.104   0.704
 5915SOL     OW18643   3.618   1.433   6.056
 5915SOL    HW118644   3.699   1.462   6.106
 5915SOL    HW218645   3.542   1.420   6.120
 5916SOL     OW18646   0.789   6.046   2.712
 5916SOL    HW118647   0.766   6.132   2.758
 5916SOL    HW218648   0.871   6.007   2.754
 5917SOL     OW18649   3.877   4.155   0.358
 5917SOL    HW118650   3.958   4.167   0.415
 5917SOL    HW218651   3.899   4.098   0.279
 5918SOL     OW18652   3.030   6.203   5.403
 5918SOL    HW118653   2.983   6.240   5.323
 5918SOL    HW218654   3.129   6.209   5.390
 5919SOL     OW18655   3.741   3.034   3.978
 5919SOL    HW118656   3.687   3.002   3.900
 5919SOL    HW218657   3.824   3.079   3.945
 5920SOL     OW18658   6.274   0.257   5.249
 5920SOL    HW118659   6.330   0.340   5.259
 5920SOL    HW218660   6.295   0.213   5.161
 5921SOL     OW18661   2.494   4.711   6.503
 5921SOL    HW118662   2.583   4.673   6.526
 5921SOL    HW218663   2.428   4.637   6.490
 5922SOL     OW18664   4.873   4.019   3.011
 5922SOL    HW118665   4.933   4.079   2.957
 5922SOL    HW218666   4.855   3.936   2.959
 5923SOL     OW18667   6.947   0.500   2.877
 5923SOL    HW118668   6.939   0.513   2.778
 5923SOL    HW218669   6.991   0.580   2.918
 5924SOL     OW18670   5.980   0.396   4.058
 5924SOL    HW118671   5.976   0.486   4.101
 5924SOL    HW218672   5.917   0.393   3.981
 5925SOL     OW18673   4.408   0.186   1.531
 5925SOL    HW118674   4.442   0.262   1.477
 5925SOL    HW218675   4.382   0.110   1.471
 5926SOL     OW18676   4.695   4.933   3.949
 5926SOL    HW118677   4.602   4.962   3.970
 5926SOL    HW218678   4.736   4.998   3.885
 5927SOL     OW18679   1.074   4.546   2.205
 5927SOL    HW118680   1.073   4.504   2.296
 5927SOL    HW218681   0.983   4.541   2.164
 5928SOL     OW18682   3.531   0.620   0.547
 5928SOL    HW118683   3.499   0.527   0.566
 5928SOL    HW218684   3.564   0.626   0.453
 5929SOL     OW18685   1.953   0.543   6.452
 5929SOL    HW118686   1.940   0.626   6.506
 5929SOL    HW218687   1.976   0.467   6.513
 5930SOL     OW18688   0.828   3.320   2.365
 5930SOL    HW118689   0.857   3.385   2.435
 5930SOL    HW218690   0.790   3.369   2.287
 5931SOL     OW18691   4.753   6.167   3.375
 5931SOL    HW118692   4.686   6.095   3.392
 5931SOL    HW218693   4.706   6.255   3.364
 5932SOL     OW18694   2.640   0.919   6.953
 5932SOL    HW118695   2.594   0.833   6.933
 5932SOL    HW218696   2.692   0.948   6.872
 5933SOL     OW18697   6.316   6.322   3.992
 5933SOL    HW118698   6.260   6.248   4.028
 5933SOL    HW218699   6.313   6.400   4.055
 5934SOL     OW18700   3.251   3.594   6.027
 5934SOL    HW118701   3.247   3.498   6.056
 5934SOL    HW218702   3.297   3.647   6.098
 5935SOL     OW18703   0.779   5.736   5.453
 5935SOL    HW118704   0.795   5.807   5.385
 5935SOL    HW218705   0.866   5.704   5.490
 5936SOL     OW18706   3.575   3.055   1.528
 5936SOL    HW118707   3.623   3.086   1.610
 5936SOL    HW218708   3.605   3.109   1.449
 5937SOL     OW18709   6.991   3.015   1.888
 5937SOL    HW118710   6.933   2.937   1.909
 5937SOL    HW218711   0.062   3.000   1.925
 5938SOL     OW18712   0.134   4.820   4.846
 5938SOL    HW118713   0.159   4.781   4.757
 5938SOL    HW218714   0.119   4.746   4.912
 5939SOL     OW18715   3.654   0.826   5.106
 5939SOL    HW118716   3.616   0.918   5.103
 5939SOL    HW218717   3.742   0.827   5.153
 5940SOL     OW18718   5.141   5.960   2.652
 5940SOL    HW118719   5.139   5.908   2.737
 5940SOL    HW218720   5.127   5.899   2.575
 5941SOL     OW18721   6.874   2.159   2.134
 5941SOL    HW118722   6.854   2.235   2.073
 5941SOL    HW218723   6.955   2.179   2.188
 5942SOL     OW18724   5.275   3.248   6.049
 5942SOL    HW118725   5.334   3.213   6.122
 5942SOL    HW218726   5.180   3.230   6.071
 5943SOL     OW18727   2.858   4.283   1.654
 5943SOL    HW118728   2.762   4.257   1.663
 5943SOL    HW218729   2.880   4.355   1.719
 5944SOL     OW18730   0.493   3.531   6.581
 5944SOL    HW118731   0.482   3.477   6.665
 5944SOL    HW218732   0.544   3.614   6.602
 5945SOL     OW18733   0.245   5.745   5.210
 5945SOL    HW118734   0.310   5.669   5.200
 5945SOL    HW218735   0.240   5.796   5.124
 5946SOL     OW18736   3.545   4.345   0.804
 5946SOL    HW118737   3.472   4.411   0.822
 5946SOL    HW218738   3.507   4.252   0.805
 5947SOL     OW18739   3.594   3.269   4.783
 5947SOL    HW118740   3.645   3.303   4.704
 5947SOL    HW218741   3.609   3.171   4.792
 5948SOL     OW18742   5.094   3.752   1.574
 5948SOL    HW118743   5.112   3.768   1.671
 5948SOL    HW218744   5.002   3.785   1.552
 5949SOL     OW18745   6.581   4.010   2.010
 5949SOL    HW118746   6.485   4.035   1.996
 5949SOL    HW218747   6.591   3.962   2.097
 5950SOL     OW18748   4.600   0.646   5.039
 5950SOL    HW118749   4.671   0.713   5.057
 5950SOL    HW218750   4.634   0.554   5.057
 5951SOL     OW18751   1.213   3.670   6.743
 5951SOL    HW118752   1.142   3.735   6.720
 5951SOL    HW218753   1.294   3.719   6.776
 5952SOL     OW18754   3.797   4.889   1.050
 5952SOL    HW118755   3.866   4.955   1.021
 5952SOL    HW218756   3.801   4.809   0.991
 5953SOL     OW18757   6.496   2.956   4.810
 5953SOL    HW118758   6.584   2.962   4.763
 5953SOL    HW218759   6.497   2.879   4.874
 5954SOL     OW18760   1.988   6.393   4.042
 5954SOL    HW118761   2.012   6.479   4.088
 5954SOL    HW218762   2.072   6.346   4.016
 5955SOL     OW18763   6.564   3.480   0.719
 5955SOL    HW118764   6.520   3.565   0.690
 5955SOL    HW218765   6.530   3.404   0.664
 5956SOL     OW18766   4.995   2.893   5.223
 5956SOL    HW118767   4.904   2.851   5.223
 5956SOL    HW218768   5.007   2.948   5.141
 5957SOL     OW18769   0.639   1.597   2.817
 5957SOL    HW118770   0.725   1.562   2.781
 5957SOL    HW218771   0.580   1.624   2.741
 5958SOL     OW18772   3.814   6.789   2.864
 5958SOL    HW118773   3.757   6.788   2.782
 5958SOL    HW218774   3.837   6.883   2.888
 5959SOL     OW18775   5.339   2.464   4.587
 5959SOL    HW118776   5.284   2.521   4.526
 5959SOL    HW218777   5.385   2.393   4.532
 5960SOL     OW18778   4.442   0.313   6.470
 5960SOL    HW118779   4.503   0.382   6.431
 5960SOL    HW218780   4.407   0.254   6.397
 5961SOL     OW18781   2.585   1.921   3.052
 5961SOL    HW118782   2.641   1.919   2.969
 5961SOL    HW218783   2.598   1.835   3.101
 5962SOL     OW18784   4.994   6.791   0.607
 5962SOL    HW118785   4.990   6.822   0.512
 5962SOL    HW218786   4.988   6.691   0.609
 5963SOL     OW18787   3.389   4.357   0.062
 5963SOL    HW118788   3.477   4.335   0.020
 5963SOL    HW218789   3.379   4.305   0.147
 5964SOL     OW18790   1.983   6.810   2.606
 5964SOL    HW118791   2.010   6.741   2.674
 5964SOL    HW218792   2.057   6.876   2.594
 5965SOL     OW18793   2.260   0.303   0.424
 5965SOL    HW118794   2.294   0.227   0.369
 5965SOL    HW218795   2.258   0.278   0.520
 5966SOL     OW18796   3.018   1.148   4.977
 5966SOL    HW118797   3.106   1.196   4.977
 5966SOL    HW218798   2.995   1.119   4.884
 5967SOL     OW18799   3.010   1.670   3.857
 5967SOL    HW118800   2.942   1.714   3.798
 5967SOL    HW218801   3.078   1.738   3.886
 5968SOL     OW18802   5.268   2.203   1.249
 5968SOL    HW118803   5.168   2.197   1.257
 5968SOL    HW218804   5.304   2.114   1.223
 5969SOL     OW18805   4.824   1.053   6.851
 5969SOL    HW118806   4.760   1.110   6.901
 5969SOL    HW218807   4.800   1.053   6.754
 5970SOL     OW18808   0.636   3.326   0.608
 5970SOL    HW118809   0.620   3.421   0.581
 5970SOL    HW218810   0.622   3.267   0.529
 5971SOL     OW18811   0.805   6.811   4.207
 5971SOL    HW118812   0.873   6.738   4.195
 5971SOL    HW218813   0.816   6.877   4.133
 5972SOL     OW18814   4.965   5.001   1.049
 5972SOL    HW118815   5.034   5.071   1.067
 5972SOL    HW218816   4.989   4.917   1.098
 5973SOL     OW18817   1.760   2.506   2.371
 5973SOL    HW118818   1.831   2.442   2.400
 5973SOL    HW218819   1.680   2.455   2.341
 5974SOL     OW18820   5.257   2.093   5.713
 5974SOL    HW118821   5.204   2.124   5.634
 5974SOL    HW218822   5.337   2.041   5.681
 5975SOL     OW18823   4.505   4.895   0.683
 5975SOL    HW118824   4.454   4.810   0.671
 5975SOL    HW218825   4.533   4.904   0.779
 5976SOL     OW18826   2.316   3.362   5.746
 5976SOL    HW118827   2.277   3.377   5.837
 5976SOL    HW218828   2.403   3.313   5.754
 5977SOL     OW18829   6.837   4.558   0.279
 5977SOL    HW118830   6.935   4.540   0.291
 5977SOL    HW218831   6.812   4.546   0.182
 5978SOL     OW18832   3.088   4.996   0.692
 5978SOL    HW118833   3.051   4.903   0.687
 5978SOL    HW218834   3.068   5.044   0.606
 5979SOL     OW18835   5.383   0.267   1.463
 5979SOL    HW118836   5.464   0.286   1.408
 5979SOL    HW218837   5.409   0.261   1.559
 5980SOL     OW18838   3.392   2.740   1.297
 5980SOL    HW118839   3.435   2.769   1.383
 5980SOL    HW218840   3.436   2.657   1.263
 5981SOL     OW18841   2.754   2.409   0.527
 5981SOL    HW118842   2.678   2.471   0.545
 5981SOL    HW218843   2.805   2.394   0.611
 5982SOL     OW18844   6.004   2.878   1.224
 5982SOL    HW118845   5.989   2.829   1.310
 5982SOL    HW218846   6.098   2.867   1.195
 5983SOL     OW18847   6.905   0.600   3.599
 5983SOL    HW118848   7.002   0.619   3.613
 5983SOL    HW218849   6.852   0.648   3.669
 5984SOL     OW18850   6.723   6.554   3.676
 5984SOL    HW118851   6.741   6.652   3.674
 5984SOL    HW218852   6.782   6.507   3.610
 5985SOL     OW18853   5.630   2.594   2.757
 5985SOL    HW118854   5.573   2.669   2.723
 5985SOL    HW218855   5.710   2.632   2.805
 5986SOL     OW18856   4.055   3.426   5.195
 5986SOL    HW118857   4.123   3.442   5.266
 5986SOL    HW218858   4.081   3.475   5.112
 5987SOL     OW18859   0.276   0.041   5.422
 5987SOL    HW118860   0.278   7.000   5.502
 5987SOL    HW218861   0.338   0.117   5.437
 5988SOL     OW18862   1.312   2.305   6.040
 5988SOL    HW118863   1.275   2.249   5.966
 5988SOL    HW218864   1.335   2.247   6.118
 5989SOL     OW18865   0.387   5.744   6.397
 5989SOL    HW118866   0.456   5.731   6.325
 5989SOL    HW218867   0.406   5.681   6.472
 5990SOL     OW18868   3.727   5.030   1.829
 5990SOL    HW118869   3.689   4.953   1.881
 5990SOL    HW218870   3.664   5.108   1.835
 5991SOL     OW18871   5.298   6.992   0.619
 5991SOL    HW118872   5.285   6.905   0.571
 5991SOL    HW218873   5.241   6.994   0.701
 5992SOL     OW18874   3.720   6.905   1.949
 5992SOL    HW118875   3.713   6.916   2.048
 5992SOL    HW218876   3.815   6.885   1.925
 5993SOL     OW18877   6.202   1.887   0.435
 5993SOL    HW118878   6.236   1.973   0.399
 5993SOL    HW218879   6.275   1.819   0.436
 5994SOL     OW18880   0.890   3.552   0.395
 5994SOL    HW118881   0.910   3.561   0.492
 5994SOL    HW218882   0.875   3.642   0.355
 5995SOL     OW18883   4.472   3.842   1.343
 5995SOL    HW118884   4.506   3.758   1.300
 5995SOL    HW218885   4.527   3.863   1.424
 5996SOL     OW18886   2.984   5.421   1.141
 5996SOL    HW118887   3.063   5.364   1.162
 5996SOL    HW218888   2.952   5.467   1.223
 5997SOL     OW18889   6.978   0.252   3.698
 5997SOL    HW118890   6.907   0.315   3.666
 5997SOL    HW218891   6.940   0.160   3.706
 5998SOL     OW18892   6.529   6.807   1.473
 5998SOL    HW118893   6.461   6.783   1.403
 5998SOL    HW218894   6.482   6.841   1.554
 5999SOL     OW18895   4.857   3.063   0.919
 5999SOL    HW118896   4.842   2.976   0.965
 5999SOL    HW218897   4.887   3.131   0.985
 6000SOL     OW18898   7.008   4.214   1.299
 6000SOL    HW118899   6.923   4.223   1.246
 6000SOL    HW218900   7.019   4.119   1.326
 6001SOL     OW18901   6.606   5.362   5.234
 6001SOL    HW118902   6.550   5.426   5.182
 6001SOL    HW218903   6.557   5.275   5.243
 6002SOL     OW18904   6.188   5.607   4.235
 6002SOL    HW118905   6.262   5.672   4.251
 6002SOL    HW218906   6.192   5.534   4.303
 6003SOL     OW18907   0.463   2.932   4.811
 6003SOL    HW118908   0.380   2.895   4.769
 6003SOL    HW218909   0.519   2.975   4.741
 6004SOL     OW18910   5.240   2.908   4.196
 6004SOL    HW118911   5.255   2.886   4.100
 6004SOL    HW218912   5.323   2.949   4.235
 6005SOL     OW18913   3.555   5.192   6.391
 6005SOL    HW118914   3.625   5.134   6.433
 6005SOL    HW218915   3.558   5.283   6.433
 6006SOL     OW18916   3.657   6.217   5.731
 6006SOL    HW118917   3.729   6.225   5.801
 6006SOL    HW218918   3.583   6.280   5.752
 6007SOL     OW18919   2.140   5.566   6.633
 6007SOL    HW118920   2.215   5.502   6.611
 6007SOL    HW218921   2.064   5.515   6.674
 6008SOL     OW18922   3.295   4.199   6.076
 6008SOL    HW118923   3.291   4.297   6.056
 6008SOL    HW218924   3.298   4.148   5.991
 6009SOL     OW18925   3.564   5.141   3.012
 6009SOL    HW118926   3.538   5.048   3.034
 6009SOL    HW218927   3.526   5.166   2.922
 6010SOL     OW18928   0.893   5.452   4.837
 6010SOL    HW118929   0.947   5.373   4.808
 6010SOL    HW218930   0.823   5.471   4.768
 6011SOL     OW18931   6.207   2.050   1.928
 6011SOL    HW118932   6.154   2.033   1.845
 6011SOL    HW218933   6.291   1.995   1.926
 6012SOL     OW18934   6.755   0.128   6.309
 6012SOL    HW118935   6.822   0.178   6.364
 6012SOL    HW218936   6.680   0.098   6.367
 6013SOL     OW18937   6.135   1.405   2.567
 6013SOL    HW118938   6.171   1.315   2.543
 6013SOL    HW218939   6.051   1.395   2.620
 6014SOL     OW18940   3.975   3.183   4.199
 6014SOL    HW118941   3.913   3.116   4.239
 6014SOL    HW218942   3.968   3.270   4.248
 6015SOL     OW18943   5.991   1.370   4.420
 6015SOL    HW118944   5.972   1.273   4.405
 6015SOL    HW218945   5.906   1.418   4.440
 6016SOL     OW18946   5.255   1.032   4.904
 6016SOL    HW118947   5.163   0.998   4.923
 6016SOL    HW218948   5.249   1.113   4.845
 6017SOL     OW18949   6.651   2.212   5.211
 6017SOL    HW118950   6.713   2.229   5.287
 6017SOL    HW218951   6.560   2.193   5.246
 6018SOL     OW18952   2.847   1.258   5.444
 6018SOL    HW118953   2.917   1.308   5.495
 6018SOL    HW218954   2.864   1.268   5.346
 6019SOL     OW18955   6.956   3.343   6.563
 6019SOL    HW118956   6.929   3.415   6.500
 6019SOL    HW218957   0.008   3.377   6.624
 6020SOL     OW18958   0.587   4.806   6.679
 6020SOL    HW118959   0.616   4.832   6.771
 6020SOL    HW218960   0.541   4.884   6.635
 6021SOL     OW18961   4.992   0.178   3.293
 6021SOL    HW118962   5.078   0.190   3.343
 6021SOL    HW218963   5.008   0.187   3.195
 6022SOL     OW18964   5.998   1.780   1.965
 6022SOL    HW118965   6.066   1.719   1.924
 6022SOL    HW218966   5.946   1.825   1.892
 6023SOL     OW18967   4.332   0.783   2.109
 6023SOL    HW118968   4.364   0.733   2.029
 6023SOL    HW218969   4.249   0.741   2.144
 6024SOL     OW18970   0.558   5.558   0.254
 6024SOL    HW118971   0.520   5.466   0.247
 6024SOL    HW218972   0.530   5.612   0.174
 6025SOL     OW18973   2.732   0.921   4.381
 6025SOL    HW118974   2.770   0.828   4.385
 6025SOL    HW218975   2.729   0.959   4.473
 6026SOL     OW18976   6.496   4.422   4.613
 6026SOL    HW118977   6.492   4.343   4.674
 6026SOL    HW218978   6.480   4.391   4.519
 6027SOL     OW18979   5.629   3.959   6.464
 6027SOL    HW118980   5.556   4.027   6.459
 6027SOL    HW218981   5.589   3.868   6.474
 6028SOL     OW18982   5.841   4.876   6.461
 6028SOL    HW118983   5.816   4.942   6.389
 6028SOL    HW218984   5.940   4.871   6.468
 6029SOL     OW18985   2.171   0.514   3.179
 6029SOL    HW118986   2.246   0.525   3.113
 6029SOL    HW218987   2.140   0.604   3.208
 6030SOL     OW18988   5.322   3.588   4.305
 6030SOL    HW118989   5.261   3.536   4.245
 6030SOL    HW218990   5.417   3.573   4.278
 6031SOL     OW18991   1.141   5.909   5.371
 6031SOL    HW118992   1.233   5.898   5.332
 6031SOL    HW218993   1.128   5.841   5.443
 6032SOL     OW18994   3.421   6.074   3.747
 6032SOL    HW118995   3.457   6.071   3.653
 6032SOL    HW218996   3.321   6.076   3.744
 6033SOL     OW18997   2.218   1.793   2.159
 6033SOL    HW118998   2.224   1.861   2.086
 6033SOL    HW218999   2.252   1.833   2.244
 6034SOL     OW19000   0.489   0.731   0.347
 6034SOL    HW119001   0.564   0.795   0.330
 6034SOL    HW219002   0.496   0.695   0.440
 6035SOL     OW19003   1.571   0.432   2.513
 6035SOL    HW119004   1.554   0.513   2.457
 6035SOL    HW219005   1.600   0.461   2.604
 6036SOL     OW19006   6.450   2.158   0.843
 6036SOL    HW119007   6.454   2.257   0.830
 6036SOL    HW219008   6.377   2.119   0.786
 6037SOL     OW19009   5.085   2.470   0.296
 6037SOL    HW119010   4.992   2.439   0.312
 6037SOL    HW219011   5.101   2.556   0.346
 6038SOL     OW19012   0.262   2.003   6.060
 6038SOL    HW119013   0.308   2.070   6.118
 6038SOL    HW219014   0.318   1.920   6.055
 6039SOL     OW19015   3.584   3.496   3.415
 6039SOL    HW119016   3.516   3.422   3.412
 6039SOL    HW219017   3.541   3.582   3.386
 6040SOL     OW19018   0.644   1.927   0.375
 6040SOL    HW119019   0.677   1.985   0.449
 6040SOL    HW219020   0.644   1.832   0.404
 6041SOL     OW19021   2.602   3.094   5.536
 6041SOL    HW119022   2.512   3.050   5.548
 6041SOL    HW219023   2.674   3.028   5.558
 6042SOL     OW19024   3.514   6.061   3.181
 6042SOL    HW119025   3.606   6.101   3.186
 6042SOL    HW219026   3.451   6.127   3.139
 6043SOL     OW19027   2.492   0.430   3.838
 6043SOL    HW119028   2.571   0.449   3.896
 6043SOL    HW219029   2.523   0.422   3.743
 6044SOL     OW19030   0.457   2.835   1.482
 6044SOL    HW119031   0.408   2.803   1.401
 6044SOL    HW219032   0.396   2.890   1.539
 6045SOL     OW19033   4.962   1.828   3.580
 6045SOL    HW119034   5.006   1.757   3.526
 6045SOL    HW219035   5.007   1.916   3.564
 6046SOL     OW19036   3.078   3.025   2.450
 6046SOL    HW119037   3.055   3.028   2.353
 6046SOL    HW219038   3.146   2.954   2.466
 6047SOL     OW19039   6.122   1.533   0.719
 6047SOL    HW119040   6.034   1.486   0.728
 6047SOL    HW219041   6.155   1.525   0.626
 6048SOL     OW19042   5.969   5.787   4.349
 6048SOL    HW119043   6.050   5.739   4.315
 6048SOL    HW219044   5.996   5.875   4.386
 6049SOL     OW19045   4.283   4.699   5.391
 6049SOL    HW119046   4.341   4.750   5.455
 6049SOL    HW219047   4.203   4.663   5.440
 6050SOL     OW19048   3.940   6.583   1.629
 6050SOL    HW119049   4.023   6.569   1.574
 6050SOL    HW219050   3.964   6.583   1.726
 6051SOL     OW19051   1.127   1.271   3.401
 6051SOL    HW119052   1.063   1.345   3.422
 6051SOL    HW219053   1.209   1.282   3.456
 6052SOL     OW19054   5.720   6.603   0.364
 6052SOL    HW119055   5.727   6.525   0.301
 6052SOL    HW219056   5.808   6.651   0.367
 6053SOL     OW19057   4.265   2.787   6.178
 6053SOL    HW119058   4.250   2.736   6.093
 6053SOL    HW219059   4.363   2.792   6.197
 6054SOL     OW19060   3.837   4.530   0.982
 6054SOL    HW119061   3.783   4.464   0.930
 6054SOL    HW219062   3.927   4.539   0.941
 6055SOL     OW19063   3.327   4.496   0.868
 6055SOL    HW119064   3.298   4.533   0.780
 6055SOL    HW219065   3.248   4.459   0.917
 6056SOL     OW19066   5.649   5.381   5.286
 6056SOL    HW119067   5.657   5.283   5.305
 6056SOL    HW219068   5.553   5.407   5.289
 6057SOL     OW19069   5.083   0.115   4.178
 6057SOL    HW119070   5.108   0.206   4.145
 6057SOL    HW219071   5.055   0.121   4.274
 6058SOL     OW19072   5.343   2.243   5.916
 6058SOL    HW119073   5.352   2.185   5.997
 6058SOL    HW219074   5.280   2.199   5.851
 6059SOL     OW19075   3.850   4.122   6.819
 6059SOL    HW119076   3.817   4.028   6.819
 6059SOL    HW219077   3.830   4.164   6.731
 6060SOL     OW19078   2.513   3.110   6.559
 6060SOL    HW119079   2.427   3.154   6.531
 6060SOL    HW219080   2.578   3.179   6.590
 6061SOL     OW19081   3.550   5.179   0.104
 6061SOL    HW119082   3.477   5.188   0.173
 6061SOL    HW219083   3.510   5.186   0.013
 6062SOL     OW19084   1.798   2.522   6.996
 6062SOL    HW119085   1.726   2.540   0.044
 6062SOL    HW219086   1.756   2.504   6.908
 6063SOL     OW19087   3.906   5.019   6.072
 6063SOL    HW119088   3.903   4.964   5.988
 6063SOL    HW219089   3.815   5.052   6.094
 6064SOL     OW19090   6.668   5.774   0.771
 6064SOL    HW119091   6.735   5.807   0.705
 6064SOL    HW219092   6.636   5.851   0.827
 6065SOL     OW19093   0.796   6.083   2.225
 6065SOL    HW119094   0.785   5.990   2.261
 6065SOL    HW219095   0.862   6.081   2.150
 6066SOL     OW19096   5.350   6.621   3.264
 6066SOL    HW119097   5.277   6.659   3.320
 6066SOL    HW219098   5.394   6.546   3.313
 6067SOL     OW19099   5.550   0.493   6.254
 6067SOL    HW119100   5.546   0.488   6.353
 6067SOL    HW219101   5.492   0.569   6.222
 6068SOL     OW19102   4.502   1.772   5.455
 6068SOL    HW119103   4.539   1.685   5.488
 6068SOL    HW219104   4.417   1.755   5.405
 6069SOL     OW19105   0.130   3.556   6.655
 6069SOL    HW119106   0.135   3.614   6.736
 6069SOL    HW219107   0.167   3.606   6.576
 6070SOL     OW19108   2.883   1.571   0.717
 6070SOL    HW119109   2.889   1.627   0.800
 6070SOL    HW219110   2.898   1.475   0.740
 6071SOL     OW19111   6.068   0.046   5.440
 6071SOL    HW119112   6.033   0.136   5.416
 6071SOL    HW219113   6.126   0.011   5.366
 6072SOL     OW19114   0.210   2.713   0.591
 6072SOL    HW119115   0.122   2.672   0.569
 6072SOL    HW219116   0.270   2.707   0.511
 6073SOL     OW19117   4.569   2.780   0.342
 6073SOL    HW119118   4.641   2.847   0.324
 6073SOL    HW219119   4.482   2.828   0.357
 6074SOL     OW19120   0.464   6.308   2.914
 6074SOL    HW119121   0.431   6.344   2.827
 6074SOL    HW219122   0.395   6.323   2.985
 6075SOL     OW19123   4.932   6.914   6.690
 6075SOL    HW119124   4.957   6.945   6.782
 6075SOL    HW219125   4.952   6.985   6.624
 6076SOL     OW19126   1.326   4.974   3.742
 6076SOL    HW119127   1.359   4.893   3.692
 6076SOL    HW219128   1.314   5.050   3.678
 6077SOL     OW19129   5.456   6.650   1.808
 6077SOL    HW119130   5.472   6.610   1.718
 6077SOL    HW219131   5.526   6.720   1.826
 6078SOL     OW19132   3.903   3.309   0.276
 6078SOL    HW119133   3.944   3.349   0.359
 6078SOL    HW219134   3.962   3.328   0.198
 6079SOL     OW19135   3.175   4.244   6.834
 6079SOL    HW119136   3.260   4.263   6.883
 6079SOL    HW219137   3.184   4.159   6.783
 6080SOL     OW19138   0.087   4.339   6.844
 6080SOL    HW119139   0.085   4.420   6.903
 6080SOL    HW219140   0.175   4.333   6.798
 6081SOL     OW19141   1.913   3.368   4.765
 6081SOL    HW119142   1.911   3.438   4.836
 6081SOL    HW219143   1.979   3.393   4.694
 6082SOL     OW19144   4.672   1.098   1.085
 6082SOL    HW119145   4.594   1.069   1.029
 6082SOL    HW219146   4.699   1.024   1.146
 6083SOL     OW19147   4.914   0.148   6.550
 6083SOL    HW119148   4.836   0.145   6.488
 6083SOL    HW219149   4.882   0.159   6.644
 6084SOL     OW19150   0.274   6.386   3.093
 6084SOL    HW119151   0.319   6.394   3.182
 6084SOL    HW219152   0.287   6.471   3.042
 6085SOL     OW19153   0.628   5.997   1.026
 6085SOL    HW119154   0.586   6.082   1.059
 6085SOL    HW219155   0.639   6.002   0.927
 6086SOL     OW19156   3.377   3.716   6.229
 6086SOL    HW119157   3.362   3.652   6.304
 6086SOL    HW219158   3.471   3.752   6.234
 6087SOL     OW19159   5.324   6.681   0.963
 6087SOL    HW119160   5.252   6.731   0.914
 6087SOL    HW219161   5.308   6.688   1.061
 6088SOL     OW19162   5.436   6.871   3.402
 6088SOL    HW119163   5.419   6.950   3.342
 6088SOL    HW219164   5.462   6.792   3.347
 6089SOL     OW19165   6.442   3.507   3.445
 6089SOL    HW119166   6.357   3.559   3.434
 6089SOL    HW219167   6.510   3.565   3.492
 6090SOL     OW19168   4.095   6.431   4.225
 6090SOL    HW119169   4.195   6.426   4.222
 6090SOL    HW219170   4.065   6.438   4.320
 6091SOL     OW19171   1.943   1.084   1.802
 6091SOL    HW119172   1.890   1.000   1.803
 6091SOL    HW219173   1.910   1.144   1.729
 6092SOL     OW19174   4.323   6.398   1.283
 6092SOL    HW119175   4.292   6.434   1.196
 6092SOL    HW219176   4.288   6.305   1.296
 6093SOL     OW19177   2.188   1.554   2.272
 6093SOL    HW119178   2.270   1.499   2.259
 6093SOL    HW219179   2.207   1.649   2.246
 6094SOL     OW19180   0.838   5.935   4.898
 6094SOL    HW119181   0.781   5.887   4.965
 6094SOL    HW219182   0.931   5.946   4.935
 6095SOL     OW19183   4.781   5.965   0.403
 6095SOL    HW119184   4.788   5.939   0.499
 6095SOL    HW219185   4.687   5.953   0.372
 6096SOL     OW19186   6.066   6.398   3.034
 6096SOL    HW119187   6.087   6.301   3.017
 6096SOL    HW219188   6.063   6.447   2.947
 6097SOL     OW19189   1.928   6.191   2.625
 6097SOL    HW119190   1.832   6.170   2.601
 6097SOL    HW219191   1.937   6.195   2.724
 6098SOL     OW19192   6.413   0.981   4.748
 6098SOL    HW119193   6.374   0.938   4.666
 6098SOL    HW219194   6.509   1.005   4.731
 6099SOL     OW19195   4.429   0.353   5.784
 6099SOL    HW119196   4.514   0.401   5.759
 6099SOL    HW219197   4.380   0.406   5.853
 6100SOL     OW19198   0.018   5.930   4.586
 6100SOL    HW119199   0.066   5.857   4.634
 6100SOL    HW219200   0.031   5.919   4.487
 6101SOL     OW19201   6.092   2.615   1.439
 6101SOL    HW119202   6.159   2.659   1.380
 6101SOL    HW219203   6.129   2.530   1.474
 6102SOL     OW19204   4.555   0.043   2.778
 6102SOL    HW119205   4.458   0.042   2.802
 6102SOL    HW219206   4.574   0.122   2.720
 6103SOL     OW19207   0.257   1.681   1.615
 6103SOL    HW119208   0.163   1.653   1.636
 6103SOL    HW219209   0.256   1.772   1.573
 6104SOL     OW19210   6.616   0.976   4.476
 6104SOL    HW119211   6.617   1.024   4.563
 6104SOL    HW219212   6.623   1.043   4.401
 6105SOL     OW19213   2.744   4.677   5.534
 6105SOL    HW119214   2.739   4.759   5.591
 6105SOL    HW219215   2.769   4.703   5.441
 6106SOL     OW19216   6.282   5.057   6.888
 6106SOL    HW119217   6.380   5.055   6.871
 6106SOL    HW219218   6.233   5.038   6.803
 6107SOL     OW19219   5.021   4.855   5.539
 6107SOL    HW119220   5.086   4.837   5.612
 6107SOL    HW219221   5.067   4.902   5.463
 6108SOL     OW19222   2.130   1.247   0.856
 6108SOL    HW119223   2.106   1.301   0.776
 6108SOL    HW219224   2.198   1.296   0.911
 6109SOL     OW19225   6.303   0.238   3.530
 6109SOL    HW119226   6.398   0.209   3.537
 6109SOL    HW219227   6.263   0.200   3.446
 6110SOL     OW19228   1.651   1.773   5.058
 6110SOL    HW119229   1.662   1.868   5.087
 6110SOL    HW219230   1.739   1.736   5.028
 6111SOL     OW19231   1.838   4.332   1.033
 6111SOL    HW119232   1.833   4.263   1.106
 6111SOL    HW219233   1.927   4.376   1.035
 6112SOL     OW19234   4.666   0.208   2.576
 6112SOL    HW119235   4.602   0.277   2.541
 6112SOL    HW219236   4.671   0.132   2.511
 6113SOL     OW19237   2.455   5.659   0.175
 6113SOL    HW119238   2.547   5.693   0.158
 6113SOL    HW219239   2.388   5.726   0.144
 6114SOL     OW19240   4.715   1.476   0.675
 6114SOL    HW119241   4.780   1.550   0.663
 6114SOL    HW219242   4.667   1.486   0.762
 6115SOL     OW19243   0.777   0.367   5.407
 6115SOL    HW119244   0.698   0.338   5.353
 6115SOL    HW219245   0.858   0.371   5.348
 6116SOL     OW19246   4.998   1.888   5.311
 6116SOL    HW119247   5.018   1.827   5.387
 6116SOL    HW219248   5.062   1.870   5.236
 6117SOL     OW19249   1.741   1.946   1.517
 6117SOL    HW119250   1.830   1.901   1.508
 6117SOL    HW219251   1.735   2.021   1.451
 6118SOL     OW19252   6.139   0.446   6.836
 6118SOL    HW119253   6.073   0.519   6.854
 6118SOL    HW219254   6.175   0.456   6.743
 6119SOL     OW19255   6.343   1.800   0.914
 6119SOL    HW119256   6.414   1.751   0.863
 6119SOL    HW219257   6.270   1.827   0.851
 6120SOL     OW19258   2.107   0.932   5.332
 6120SOL    HW119259   2.123   0.984   5.415
 6120SOL    HW219260   2.068   0.993   5.262
 6121SOL     OW19261   0.491   2.856   5.372
 6121SOL    HW119262   0.415   2.825   5.316
 6121SOL    HW219263   0.516   2.949   5.346
 6122SOL     OW19264   5.199   5.558   5.741
 6122SOL    HW119265   5.199   5.644   5.793
 6122SOL    HW219266   5.261   5.493   5.785
 6123SOL     OW19267   5.921   1.953   5.193
 6123SOL    HW119268   5.918   1.922   5.098
 6123SOL    HW219269   5.829   1.972   5.226
 6124SOL     OW19270   2.153   0.061   4.237
 6124SOL    HW119271   2.210   0.139   4.210
 6124SOL    HW219272   2.212   7.004   4.262
 6125SOL     OW19273   1.819   2.195   6.447
 6125SOL    HW119274   1.813   2.106   6.492
 6125SOL    HW219275   1.846   2.264   6.515
 6126SOL     OW19276   6.277   2.899   5.301
 6126SOL    HW119277   6.270   2.836   5.224
 6126SOL    HW219278   6.370   2.934   5.307
 6127SOL     OW19279   3.977   1.977   1.605
 6127SOL    HW119280   3.929   1.891   1.586
 6127SOL    HW219281   4.072   1.958   1.627
 6128SOL     OW19282   5.774   6.060   0.123
 6128SOL    HW119283   5.770   6.094   0.029
 6128SOL    HW219284   5.851   6.101   0.171
 6129SOL     OW19285   1.846   5.344   2.691
 6129SOL    HW119286   1.898   5.409   2.747
 6129SOL    HW219287   1.887   5.253   2.699
 6130SOL     OW19288   4.922   2.683   1.002
 6130SOL    HW119289   4.927   2.587   1.029
 6130SOL    HW219290   5.004   2.708   0.952
 6131SOL     OW19291   0.016   1.783   2.534
 6131SOL    HW119292   6.996   1.724   2.604
 6131SOL    HW219293   0.007   1.878   2.562
 6132SOL     OW19294   3.479   1.164   6.580
 6132SOL    HW119295   3.504   1.098   6.650
 6132SOL    HW219296   3.409   1.226   6.616
 6133SOL     OW19297   1.915   1.667   3.876
 6133SOL    HW119298   1.974   1.692   3.952
 6133SOL    HW219299   1.884   1.749   3.829
 6134SOL     OW19300   5.006   6.853   6.270
 6134SOL    HW119301   4.934   6.864   6.338
 6134SOL    HW219302   4.966   6.853   6.179
 6135SOL     OW19303   6.343   0.263   6.609
 6135SOL    HW119304   6.286   0.338   6.575
 6135SOL    HW219305   6.285   0.194   6.651
 6136SOL     OW19306   1.465   2.846   2.039
 6136SOL    HW119307   1.436   2.942   2.041
 6136SOL    HW219308   1.484   2.820   1.944
 6137SOL     OW19309   6.932   4.168   2.671
 6137SOL    HW119310   6.931   4.189   2.573
 6137SOL    HW219311   6.903   4.073   2.684
 6138SOL     OW19312   3.030   0.247   2.044
 6138SOL    HW119313   3.117   0.294   2.033
 6138SOL    HW219314   3.035   0.185   2.122
 6139SOL     OW19315   2.090   0.546   5.982
 6139SOL    HW119316   2.091   0.539   6.082
 6139SOL    HW219317   1.995   0.554   5.950
 6140SOL     OW19318   1.563   6.805   3.614
 6140SOL    HW119319   1.602   6.716   3.638
 6140SOL    HW219320   1.627   6.855   3.557
 6141SOL     OW19321   0.722   0.156   5.718
 6141SOL    HW119322   0.675   0.240   5.748
 6141SOL    HW219323   0.812   0.179   5.682
 6142SOL     OW19324   0.602   0.147   0.889
 6142SOL    HW119325   0.680   0.180   0.837
 6142SOL    HW219326   0.528   0.122   0.826
 6143SOL     OW19327   6.395   4.039   5.989
 6143SOL    HW119328   6.413   3.941   5.983
 6143SOL    HW219329   6.426   4.073   6.078
 6144SOL     OW19330   3.888   4.842   2.585
 6144SOL    HW119331   3.790   4.838   2.563
 6144SOL    HW219332   3.898   4.862   2.683
 6145SOL     OW19333   5.096   3.292   4.944
 6145SOL    HW119334   5.080   3.366   5.009
 6145SOL    HW219335   5.166   3.320   4.878
 6146SOL     OW19336   5.275   0.441   5.549
 6146SOL    HW119337   5.257   0.361   5.492
 6146SOL    HW219338   5.346   0.497   5.505
 6147SOL     OW19339   1.697   2.197   3.925
 6147SOL    HW119340   1.698   2.297   3.935
 6147SOL    HW219341   1.734   2.155   4.007
 6148SOL     OW19342   3.064   5.954   0.523
 6148SOL    HW119343   3.145   5.915   0.567
 6148SOL    HW219344   3.044   5.904   0.439
 6149SOL     OW19345   3.006   0.104   2.274
 6149SOL    HW119346   3.052   0.089   2.362
 6149SOL    HW219347   3.004   0.018   2.223
 6150SOL     OW19348   6.025   4.197   6.444
 6150SOL    HW119349   6.028   4.215   6.346
 6150SOL    HW219350   6.104   4.141   6.470
 6151SOL     OW19351   4.566   4.514   4.624
 6151SOL    HW119352   4.537   4.597   4.578
 6151SOL    HW219353   4.621   4.459   4.561
 6152SOL     OW19354   0.754   4.915   3.883
 6152SOL    HW119355   0.822   4.923   3.810
 6152SOL    HW219356   0.688   4.844   3.860
 6153SOL     OW19357   4.939   4.963   0.768
 6153SOL    HW119358   4.915   5.054   0.735
 6153SOL    HW219359   4.950   4.966   0.868
 6154SOL     OW19360   5.950   3.278   2.294
 6154SOL    HW119361   5.966   3.362   2.242
 6154SOL    HW219362   5.980   3.291   2.388
 6155SOL     OW19363   2.234   1.261   3.214
 6155SOL    HW119364   2.195   1.229   3.300
 6155SOL    HW219365   2.281   1.186   3.169
 6156SOL     OW19366   4.983   4.914   1.383
 6156SOL    HW119367   4.991   4.895   1.481
 6156SOL    HW219368   4.926   4.844   1.340
 6157SOL     OW19369   1.580   1.788   2.557
 6157SOL    HW119370   1.599   1.882   2.530
 6157SOL    HW219371   1.667   1.742   2.580
 6158SOL     OW19372   3.020   2.595   5.805
 6158SOL    HW119373   3.055   2.576   5.713
 6158SOL    HW219374   3.082   2.658   5.852
 6159SOL     OW19375   5.337   2.741   6.968
 6159SOL    HW119376   5.426   2.731   6.924
 6159SOL    HW219377   5.344   2.714   0.044
 6160SOL     OW19378   0.917   0.087   6.642
 6160SOL    HW119379   0.969   0.173   6.632
 6160SOL    HW219380   0.828   0.097   6.599
 6161SOL     OW19381   4.680   2.423   6.591
 6161SOL    HW119382   4.714   2.485   6.521
 6161SOL    HW219383   4.664   2.474   6.676
 6162SOL     OW19384   6.261   5.549   2.296
 6162SOL    HW119385   6.188   5.490   2.264
 6162SOL    HW219386   6.250   5.641   2.257
 6163SOL     OW19387   5.837   5.820   3.052
 6163SOL    HW119388   5.832   5.742   3.115
 6163SOL    HW219389   5.843   5.788   2.958
 6164SOL     OW19390   3.869   4.073   4.558
 6164SOL    HW119391   3.834   4.007   4.624
 6164SOL    HW219392   3.968   4.079   4.566
 6165SOL     OW19393   3.971   1.933   0.407
 6165SOL    HW119394   3.932   1.843   0.425
 6165SOL    HW219395   3.952   1.994   0.484
 6166SOL     OW19396   0.580   2.303   0.370
 6166SOL    HW119397   0.617   2.357   0.294
 6166SOL    HW219398   0.485   2.278   0.350
 6167SOL     OW19399   1.140   3.576   3.334
 6167SOL    HW119400   1.237   3.568   3.312
 6167SOL    HW219401   1.088   3.509   3.281
 6168SOL     OW19402   1.093   3.628   4.296
 6168SOL    HW119403   1.097   3.653   4.199
 6168SOL    HW219404   0.999   3.602   4.319
 6169SOL     OW19405   2.628   6.974   0.452
 6169SOL    HW119406   2.561   6.902   0.433
 6169SOL    HW219407   2.639   6.984   0.551
 6170SOL     OW19408   4.024   4.390   6.793
 6170SOL    HW119409   3.977   4.421   6.876
 6170SOL    HW219410   4.116   4.428   6.791
 6171SOL     OW19411   1.910   4.735   2.502
 6171SOL    HW119412   1.848   4.657   2.513
 6171SOL    HW219413   1.900   4.773   2.410
 6172SOL     OW19414   1.248   6.499   3.003
 6172SOL    HW119415   1.242   6.401   2.984
 6172SOL    HW219416   1.180   6.548   2.946
 6173SOL     OW19417   1.074   5.154   2.951
 6173SOL    HW119418   1.083   5.224   2.880
 6173SOL    HW219419   1.164   5.130   2.987
 6174SOL     OW19420   5.521   5.524   2.993
 6174SOL    HW119421   5.556   5.555   3.082
 6174SOL    HW219422   5.442   5.464   3.008
 6175SOL     OW19423   4.600   0.629   3.414
 6175SOL    HW119424   4.542   0.549   3.399
 6175SOL    HW219425   4.575   0.673   3.500
 6176SOL     OW19426   6.272   3.247   6.213
 6176SOL    HW119427   6.298   3.165   6.161
 6176SOL    HW219428   6.239   3.317   6.150
 6177SOL     OW19429   5.278   2.274   0.958
 6177SOL    HW119430   5.301   2.244   1.051
 6177SOL    HW219431   5.282   2.197   0.896
 6178SOL     OW19432   5.567   3.622   0.777
 6178SOL    HW119433   5.608   3.568   0.851
 6178SOL    HW219434   5.629   3.696   0.752
 6179SOL     OW19435   0.332   2.572   5.314
 6179SOL    HW119436   0.248   2.585   5.262
 6179SOL    HW219437   0.310   2.560   5.411
 6180SOL     OW19438   3.966   7.014   1.283
 6180SOL    HW119439   3.926   6.996   1.373
 6180SOL    HW219440   3.915   0.067   1.238
 6181SOL     OW19441   4.957   6.447   6.540
 6181SOL    HW119442   4.872   6.409   6.504
 6181SOL    HW219443   5.034   6.414   6.485
 6182SOL     OW19444   4.727   5.923   6.300
 6182SOL    HW119445   4.655   5.856   6.317
 6182SOL    HW219446   4.816   5.884   6.326
 6183SOL     OW19447   2.732   6.809   3.327
 6183SOL    HW119448   2.822   6.821   3.368
 6183SOL    HW219449   2.739   6.817   3.227
 6184SOL     OW19450   0.783   0.522   6.310
 6184SOL    HW119451   0.763   0.571   6.225
 6184SOL    HW219452   0.701   0.474   6.341
 6185SOL     OW19453   0.048   3.229   6.305
 6185SOL    HW119454   0.031   3.229   6.404
 6185SOL    HW219455   0.115   3.300   6.282
 6186SOL     OW19456   5.352   0.245   4.341
 6186SOL    HW119457   5.306   0.255   4.253
 6186SOL    HW219458   5.287   0.263   4.415
 6187SOL     OW19459   4.317   4.665   3.980
 6187SOL    HW119460   4.363   4.596   4.036
 6187SOL    HW219461   4.356   4.665   3.888
 6188SOL     OW19462   2.951   6.740   1.417
 6188SOL    HW119463   2.977   6.664   1.357
 6188SOL    HW219464   2.901   6.705   1.496
 6189SOL     OW19465   5.848   5.183   3.439
 6189SOL    HW119466   5.892   5.210   3.525
 6189SOL    HW219467   5.755   5.153   3.457
 6190SOL     OW19468   5.376   2.445   6.639
 6190SOL    HW119469   5.430   2.386   6.699
 6190SOL    HW219470   5.288   2.465   6.683
 6191SOL     OW19471   5.642   1.921   7.017
 6191SOL    HW119472   5.728   1.872   7.002
 6191SOL    HW219473   5.596   1.884   0.077
 6192SOL     OW19474   2.514   2.931   6.782
 6192SOL    HW119475   2.490   3.012   6.729
 6192SOL    HW219476   2.432   2.875   6.795
 6193SOL     OW19477   5.612   0.138   2.089
 6193SOL    HW119478   5.547   0.067   2.115
 6193SOL    HW219479   5.632   0.195   2.169
 6194SOL     OW19480   2.821   0.449   0.982
 6194SOL    HW119481   2.781   0.392   0.910
 6194SOL    HW219482   2.749   0.503   1.026
 6195SOL     OW19483   3.352   6.831   6.571
 6195SOL    HW119484   3.408   6.914   6.566
 6195SOL    HW219485   3.281   6.835   6.501
 6196SOL     OW19486   0.785   2.030   5.915
 6196SOL    HW119487   0.764   1.968   5.840
 6196SOL    HW219488   0.884   2.034   5.928
 6197SOL     OW19489   2.519   3.916   0.793
 6197SOL    HW119490   2.609   3.960   0.794
 6197SOL    HW219491   2.484   3.915   0.700
 6198SOL     OW19492   3.601   4.873   2.432
 6198SOL    HW119493   3.643   4.931   2.363
 6198SOL    HW219494   3.565   4.790   2.388
 6199SOL     OW19495   1.702   7.010   0.301
 6199SOL    HW119496   1.793   0.003   0.342
 6199SOL    HW219497   1.709   6.945   0.225
 6200SOL     OW19498   3.629   0.789   6.289
 6200SOL    HW119499   3.721   0.779   6.326
 6200SOL    HW219500   3.606   0.886   6.283
 6201SOL     OW19501   2.023   3.996   5.418
 6201SOL    HW119502   2.073   3.969   5.335
 6201SOL    HW219503   1.974   4.081   5.400
 6202SOL     OW19504   2.903   1.958   0.966
 6202SOL    HW119505   2.886   1.995   1.057
 6202SOL    HW219506   2.923   2.033   0.903
 6203SOL     OW19507   4.838   0.975   4.685
 6203SOL    HW119508   4.891   0.961   4.602
 6203SOL    HW219509   4.822   0.887   4.730
 6204SOL     OW19510   2.400   5.837   5.409
 6204SOL    HW119511   2.369   5.920   5.363
 6204SOL    HW219512   2.460   5.786   5.348
 6205SOL     OW19513   5.140   5.808   6.698
 6205SOL    HW119514   5.194   5.728   6.724
 6205SOL    HW219515   5.045   5.782   6.684
 6206SOL     OW19516   5.828   0.342   2.723
 6206SOL    HW119517   5.835   0.276   2.649
 6206SOL    HW219518   5.920   0.375   2.747
 6207SOL     OW19519   1.344   3.926   4.774
 6207SOL    HW119520   1.277   3.877   4.718
 6207SOL    HW219521   1.421   3.953   4.716
 6208SOL     OW19522   5.799   0.106   6.376
 6208SOL    HW119523   5.830   0.164   6.451
 6208SOL    HW219524   5.712   0.141   6.341
 6209SOL     OW19525   4.280   6.630   7.012
 6209SOL    HW119526   4.328   6.557   0.041
 6209SOL    HW219527   4.317   6.719   0.020
 6210SOL     OW19528   5.556   4.307   3.558
 6210SOL    HW119529   5.480   4.348   3.508
 6210SOL    HW219530   5.562   4.210   3.535
 6211SOL     OW19531   2.518   0.489   4.753
 6211SOL    HW119532   2.571   0.527   4.829
 6211SOL    HW219533   2.562   0.405   4.721
 6212SOL     OW19534   6.531   6.140   3.783
 6212SOL    HW119535   6.609   6.078   3.777
 6212SOL    HW219536   6.561   6.229   3.818
 6213SOL     OW19537   6.213   0.854   6.634
 6213SOL    HW119538   6.226   0.792   6.556
 6213SOL    HW219539   6.133   0.912   6.616
 6214SOL     OW19540   6.543   4.875   2.559
 6214SOL    HW119541   6.475   4.895   2.489
 6214SOL    HW219542   6.513   4.911   2.647
 6215SOL     OW19543   2.904   2.936   1.111
 6215SOL    HW119544   2.833   2.871   1.081
 6215SOL    HW219545   2.986   2.885   1.136
 6216SOL     OW19546   5.824   1.911   2.152
 6216SOL    HW119547   5.852   1.837   2.092
 6216SOL    HW219548   5.804   1.875   2.243
 6217SOL     OW19549   4.568   2.124   0.967
 6217SOL    HW119550   4.631   2.071   1.024
 6217SOL    HW219551   4.618   2.164   0.890
 6218SOL     OW19552   2.675   4.901   4.581
 6218SOL    HW119553   2.583   4.885   4.546
 6218SOL    HW219554   2.735   4.931   4.507
 6219SOL     OW19555   0.828   2.473   5.027
 6219SOL    HW119556   0.770   2.394   5.047
 6219SOL    HW219557   0.841   2.527   5.110
 6220SOL     OW19558   2.206   4.760   4.810
 6220SOL    HW119559   2.280   4.826   4.820
 6220SOL    HW219560   2.235   4.686   4.749
 6221SOL     OW19561   3.911   5.006   4.243
 6221SOL    HW119562   3.903   4.985   4.145
 6221SOL    HW219563   3.992   5.063   4.258
 6222SOL     OW19564   6.728   0.020   1.967
 6222SOL    HW119565   6.634   0.045   1.991
 6222SOL    HW219566   6.727   6.983   1.885
 6223SOL     OW19567   5.708   3.178   4.320
 6223SOL    HW119568   5.793   3.145   4.280
 6223SOL    HW219569   5.686   3.268   4.281
 6224SOL     OW19570   2.160   1.454   5.086
 6224SOL    HW119571   2.257   1.456   5.065
 6224SOL    HW219572   2.113   1.389   5.026
 6225SOL     OW19573   3.218   3.486   0.746
 6225SOL    HW119574   3.171   3.398   0.740
 6225SOL    HW219575   3.259   3.508   0.658
 6226SOL     OW19576   5.660   0.692   4.325
 6226SOL    HW119577   5.668   0.735   4.415
 6226SOL    HW219578   5.716   0.743   4.259
 6227SOL     OW19579   3.460   4.530   5.587
 6227SOL    HW119580   3.542   4.476   5.606
 6227SOL    HW219581   3.398   4.524   5.666
 6228SOL     OW19582   6.846   1.590   3.190
 6228SOL    HW119583   6.856   1.492   3.201
 6228SOL    HW219584   6.935   1.630   3.167
 6229SOL     OW19585   2.361   2.160   2.627
 6229SOL    HW119586   2.448   2.208   2.637
 6229SOL    HW219587   2.323   2.179   2.537
 6230SOL     OW19588   2.110   2.014   4.064
 6230SOL    HW119589   2.132   1.988   4.158
 6230SOL    HW219590   2.085   2.110   4.061
 6231SOL     OW19591   0.236   5.181   1.233
 6231SOL    HW119592   0.303   5.118   1.194
 6231SOL    HW219593   0.262   5.275   1.212
 6232SOL     OW19594   0.301   0.533   0.303
 6232SOL    HW119595   0.266   0.529   0.397
 6232SOL    HW219596   0.373   0.603   0.297
 6233SOL     OW19597   4.804   1.970   6.390
 6233SOL    HW119598   4.846   1.893   6.437
 6233SOL    HW219599   4.860   2.051   6.402
 6234SOL     OW19600   1.614   2.064   4.870
 6234SOL    HW119601   1.582   2.155   4.895
 6234SOL    HW219602   1.619   2.056   4.770
 6235SOL     OW19603   1.792   0.265   2.481
 6235SOL    HW119604   1.779   0.253   2.383
 6235SOL    HW219605   1.735   0.341   2.514
 6236SOL     OW19606   0.066   4.647   0.737
 6236SOL    HW119607   7.001   4.619   0.782
 6236SOL    HW219608   0.108   4.722   0.789
 6237SOL     OW19609   4.794   6.400   0.798
 6237SOL    HW119610   4.879   6.451   0.785
 6237SOL    HW219611   4.744   6.396   0.711
 6238SOL     OW19612   4.834   5.545   1.854
 6238SOL    HW119613   4.769   5.484   1.809
 6238SOL    HW219614   4.879   5.602   1.785
 6239SOL     OW19615   2.479   6.834   2.686
 6239SOL    HW119616   2.417   6.895   2.636
 6239SOL    HW219617   2.455   6.739   2.667
 6240SOL     OW19618   1.561   3.036   0.657
 6240SOL    HW119619   1.564   3.131   0.625
 6240SOL    HW219620   1.467   3.003   0.653
 6241SOL     OW19621   2.694   0.380   1.982
 6241SOL    HW119622   2.726   0.431   1.902
 6241SOL    HW219623   2.621   0.318   1.955
 6242SOL     OW19624   5.143   2.133   3.556
 6242SOL    HW119625   5.165   2.166   3.464
 6242SOL    HW219626   5.228   2.109   3.604
 6243SOL     OW19627   5.698   6.529   4.189
 6243SOL    HW119628   5.620   6.483   4.232
 6243SOL    HW219629   5.678   6.544   4.092
 6244SOL     OW19630   2.715   1.801   2.443
 6244SOL    HW119631   2.806   1.836   2.423
 6244SOL    HW219632   2.704   1.790   2.541
 6245SOL     OW19633   2.800   4.529   1.302
 6245SOL    HW119634   2.823   4.435   1.329
 6245SOL    HW219635   2.827   4.591   1.376
 6246SOL     OW19636   2.791   1.998   5.644
 6246SOL    HW119637   2.740   1.940   5.580
 6246SOL    HW219638   2.869   2.039   5.597
 6247SOL     OW19639   0.530   6.880   3.439
 6247SOL    HW119640   0.446   6.926   3.471
 6247SOL    HW219641   0.574   6.834   3.516
 6248SOL     OW19642   0.751   4.385   1.310
 6248SOL    HW119643   0.748   4.481   1.284
 6248SOL    HW219644   0.697   4.371   1.393
 6249SOL     OW19645   6.903   3.977   0.264
 6249SOL    HW119646   6.812   4.009   0.238
 6249SOL    HW219647   6.899   3.931   0.353
 6250SOL     OW19648   6.275   6.526   6.881
 6250SOL    HW119649   6.365   6.567   6.889
 6250SOL    HW219650   6.210   6.595   6.848
 6251SOL     OW19651   4.190   0.977   1.199
 6251SOL    HW119652   4.093   0.982   1.178
 6251SOL    HW219653   4.236   1.059   1.166
 6252SOL     OW19654   3.237   5.528   5.010
 6252SOL    HW119655   3.301   5.493   4.942
 6252SOL    HW219656   3.171   5.589   4.965
 6253SOL     OW19657   2.391   4.170   1.842
 6253SOL    HW119658   2.385   4.155   1.941
 6253SOL    HW219659   2.325   4.240   1.815
 6254SOL     OW19660   5.747   0.213   0.193
 6254SOL    HW119661   5.707   0.214   0.284
 6254SOL    HW219662   5.844   0.189   0.200
 6255SOL     OW19663   0.708   1.093   2.441
 6255SOL    HW119664   0.720   1.092   2.540
 6255SOL    HW219665   0.728   1.185   2.406
 6256SOL     OW19666   4.106   4.887   2.421
 6256SOL    HW119667   4.019   4.910   2.464
 6256SOL    HW219668   4.093   4.868   2.324
 6257SOL     OW19669   5.325   2.857   0.284
 6257SOL    HW119670   5.329   2.922   0.360
 6257SOL    HW219671   5.415   2.849   0.243
 6258SOL     OW19672   4.374   1.898   2.367
 6258SOL    HW119673   4.451   1.842   2.395
 6258SOL    HW219674   4.395   1.994   2.384
 6259SOL     OW19675   3.256   2.123   1.833
 6259SOL    HW119676   3.239   2.025   1.848
 6259SOL    HW219677   3.174   2.166   1.797
 6260SOL     OW19678   3.443   4.154   0.298
 6260SOL    HW119679   3.371   4.134   0.364
 6260SOL    HW219680   3.444   4.083   0.227
 6261SOL     OW19681   3.965   1.123   0.524
 6261SOL    HW119682   3.889   1.069   0.488
 6261SOL    HW219683   4.050   1.073   0.510
 6262SOL     OW19684   1.163   4.660   7.001
 6262SOL    HW119685   1.177   4.677   6.903
 6262SOL    HW219686   1.142   4.746   0.027
 6263SOL     OW19687   0.011   0.119   0.488
 6263SOL    HW119688   6.997   0.079   0.402
 6263SOL    HW219689   0.102   0.158   0.473
 6264SOL     OW19690   2.699   2.180   0.840
 6264SOL    HW119691   2.696   2.162   0.939
 6264SOL    HW219692   2.794   2.182   0.810
 6265SOL     OW19693   4.200   3.997   1.092
 6265SOL    HW119694   4.129   3.982   1.023
 6265SOL    HW219695   4.161   4.044   1.171
 6266SOL     OW19696   3.267   0.486   3.207
 6266SOL    HW119697   3.185   0.535   3.237
 6266SOL    HW219698   3.245   0.427   3.130
 6267SOL     OW19699   3.340   0.244   0.021
 6267SOL    HW119700   3.327   0.323   0.081
 6267SOL    HW219701   3.255   0.225   6.992
 6268SOL     OW19702   2.993   4.838   2.771
 6268SOL    HW119703   3.034   4.820   2.860
 6268SOL    HW219704   2.926   4.767   2.749
 6269SOL     OW19705   5.686   6.265   1.557
 6269SOL    HW119706   5.655   6.173   1.533
 6269SOL    HW219707   5.785   6.263   1.572
 6270SOL     OW19708   1.575   0.773   4.789
 6270SOL    HW119709   1.573   0.873   4.795
 6270SOL    HW219710   1.499   0.735   4.842
 6271SOL     OW19711   0.235   1.426   0.232
 6271SOL    HW119712   0.166   1.408   0.162
 6271SOL    HW219713   0.312   1.475   0.190
 6272SOL     OW19714   2.145   2.353   3.910
 6272SOL    HW119715   2.229   2.299   3.908
 6272SOL    HW219716   2.098   2.343   3.822
 6273SOL     OW19717   2.317   1.348   1.041
 6273SOL    HW119718   2.373   1.269   1.015
 6273SOL    HW219719   2.236   1.317   1.091
 6274SOL     OW19720   3.433   5.811   6.463
 6274SOL    HW119721   3.445   5.730   6.405
 6274SOL    HW219722   3.504   5.811   6.534
 6275SOL     OW19723   1.726   0.224   4.638
 6275SOL    HW119724   1.794   0.277   4.689
 6275SOL    HW219725   1.773   0.165   4.572
 6276SOL     OW19726   1.336   5.703   3.826
 6276SOL    HW119727   1.406   5.683   3.757
 6276SOL    HW219728   1.278   5.622   3.837
 6277SOL     OW19729   5.287   2.577   2.454
 6277SOL    HW119730   5.191   2.552   2.469
 6277SOL    HW219731   5.295   2.677   2.457
 6278SOL     OW19732   4.952   0.392   4.221
 6278SOL    HW119733   4.989   0.484   4.234
 6278SOL    HW219734   4.957   0.368   4.124
 6279SOL     OW19735   3.926   1.464   1.052
 6279SOL    HW119736   3.896   1.374   1.023
 6279SOL    HW219737   4.025   1.463   1.069
 6280SOL     OW19738   0.296   4.063   5.701
 6280SOL    HW119739   0.340   4.144   5.741
 6280SOL    HW219740   0.257   4.007   5.774
 6281SOL     OW19741   2.325   0.476   5.541
 6281SOL    HW119742   2.412   0.431   5.562
 6281SOL    HW219743   2.319   0.562   5.592
 6282SOL     OW19744   1.971   0.057   4.462
 6282SOL    HW119745   2.025   0.064   4.378
 6282SOL    HW219746   2.027   0.089   4.539
 6283SOL     OW19747   0.074   2.638   5.201
 6283SOL    HW119748   0.077   2.734   5.227
 6283SOL    HW219749   7.016   2.594   5.245
 6284SOL     OW19750   1.314   4.865   5.384
 6284SOL    HW119751   1.369   4.826   5.457
 6284SOL    HW219752   1.251   4.796   5.349
 6285SOL     OW19753   1.506   2.970   3.577
 6285SOL    HW119754   1.537   3.040   3.513
 6285SOL    HW219755   1.567   2.966   3.656
 6286SOL     OW19756   5.512   1.211   3.571
 6286SOL    HW119757   5.504   1.288   3.507
 6286SOL    HW219758   5.530   1.127   3.520
 6287SOL     OW19759   4.950   3.959   1.836
 6287SOL    HW119760   4.874   3.911   1.792
 6287SOL    HW219761   4.918   4.005   1.919
 6288SOL     OW19762   5.230   3.777   0.217
 6288SOL    HW119763   5.329   3.772   0.230
 6288SOL    HW219764   5.207   3.861   0.168
 6289SOL     OW19765   1.582   1.724   3.989
 6289SOL    HW119766   1.644   1.727   4.067
 6289SOL    HW219767   1.627   1.760   3.908
 6290SOL     OW19768   4.686   4.262   3.841
 6290SOL    HW119769   4.749   4.332   3.874
 6290SOL    HW219770   4.631   4.300   3.767
 6291SOL     OW19771   3.840   4.052   3.403
 6291SOL    HW119772   3.824   4.096   3.491
 6291SOL    HW219773   3.909   3.980   3.414
 6292SOL     OW19774   1.040   1.852   2.141
 6292SOL    HW119775   0.990   1.794   2.076
 6292SOL    HW219776   1.138   1.848   2.120
 6293SOL     OW19777   5.089   0.107   0.143
 6293SOL    HW119778   5.185   0.106   0.171
 6293SOL    HW219779   5.041   0.182   0.190
 6294SOL     OW19780   3.830   5.144   2.691
 6294SOL    HW119781   3.795   5.072   2.751
 6294SOL    HW219782   3.921   5.120   2.660
 6295SOL     OW19783   5.898   5.751   6.004
 6295SOL    HW119784   5.817   5.712   6.049
 6295SOL    HW219785   5.961   5.785   6.074
 6296SOL     OW19786   6.336   0.731   3.003
 6296SOL    HW119787   6.271   0.713   3.077
 6296SOL    HW219788   6.289   0.724   2.915
 6297SOL     OW19789   5.406   5.978   5.935
 6297SOL    HW119790   5.446   6.001   6.024
 6297SOL    HW219791   5.414   6.057   5.874
 6298SOL     OW19792   0.536   3.139   5.368
 6298SOL    HW119793   0.524   3.141   5.269
 6298SOL    HW219794   0.456   3.180   5.412
 6299SOL     OW19795   6.512   2.696   6.484
 6299SOL    HW119796   6.441   2.763   6.460
 6299SOL    HW219797   6.539   2.710   6.579
 6300SOL     OW19798   4.713   0.979   4.157
 6300SOL    HW119799   4.753   1.069   4.139
 6300SOL    HW219800   4.710   0.962   4.255
 6301SOL     OW19801   3.271   0.170   1.061
 6301SOL    HW119802   3.336   0.117   1.116
 6301SOL    HW219803   3.204   0.108   1.021
 6302SOL     OW19804   1.800   0.819   3.574
 6302SOL    HW119805   1.862   0.756   3.528
 6302SOL    HW219806   1.706   0.797   3.548
 6303SOL     OW19807   1.732   6.378   4.986
 6303SOL    HW119808   1.680   6.304   5.028
 6303SOL    HW219809   1.707   6.386   4.889
 6304SOL     OW19810   2.613   1.639   0.044
 6304SOL    HW119811   2.665   1.723   0.026
 6304SOL    HW219812   2.518   1.662   0.065
 6305SOL     OW19813   6.588   6.939   1.120
 6305SOL    HW119814   6.645   6.938   1.202
 6305SOL    HW219815   6.644   6.917   1.040
 6306SOL     OW19816   6.893   2.810   3.822
 6306SOL    HW119817   6.968   2.782   3.882
 6306SOL    HW219818   6.905   2.768   3.732
 6307SOL     OW19819   2.038   5.146   6.779
 6307SOL    HW119820   1.955   5.090   6.772
 6307SOL    HW219821   2.105   5.116   6.711
 6308SOL     OW19822   2.469   1.731   4.743
 6308SOL    HW119823   2.445   1.770   4.655
 6308SOL    HW219824   2.528   1.794   4.793
 6309SOL     OW19825   5.203   2.481   4.262
 6309SOL    HW119826   5.143   2.497   4.184
 6309SOL    HW219827   5.153   2.429   4.332
 6310SOL     OW19828   1.043   4.978   4.774
 6310SOL    HW119829   1.015   5.073   4.770
 6310SOL    HW219830   1.071   4.956   4.868
 6311SOL     OW19831   6.060   0.170   4.802
 6311SOL    HW119832   6.081   0.073   4.790
 6311SOL    HW219833   5.995   0.199   4.732
 6312SOL     OW19834   4.615   5.209   6.052
 6312SOL    HW119835   4.536   5.148   6.060
 6312SOL    HW219836   4.650   5.230   6.144
 6313SOL     OW19837   2.096   5.779   3.336
 6313SOL    HW119838   2.130   5.819   3.421
 6313SOL    HW219839   2.170   5.725   3.294
 6314SOL     OW19840   2.851   5.947   2.866
 6314SOL    HW119841   2.879   5.923   2.773
 6314SOL    HW219842   2.926   5.994   2.912
 6315SOL     OW19843   3.136   3.739   0.211
 6315SOL    HW119844   3.215   3.778   0.259
 6315SOL    HW219845   3.168   3.689   0.130
 6316SOL     OW19846   4.726   2.527   5.354
 6316SOL    HW119847   4.826   2.534   5.355
 6316SOL    HW219848   4.688   2.612   5.316
 6317SOL     OW19849   5.176   0.065   3.830
 6317SOL    HW119850   5.247   0.005   3.792
 6317SOL    HW219851   5.214   0.156   3.844
 6318SOL     OW19852   2.206   2.447   5.219
 6318SOL    HW119853   2.137   2.486   5.281
 6318SOL    HW219854   2.297   2.475   5.249
 6319SOL     OW19855   1.056   1.777   3.291
 6319SOL    HW119856   1.061   1.868   3.333
 6319SOL    HW219857   1.144   1.755   3.250
 6320SOL     OW19858   6.288   3.616   2.842
 6320SOL    HW119859   6.247   3.702   2.808
 6320SOL    HW219860   6.232   3.539   2.812
 6321SOL     OW19861   2.624   5.255   0.839
 6321SOL    HW119862   2.542   5.246   0.896
 6321SOL    HW219863   2.698   5.200   0.878
 6322SOL     OW19864   1.517   1.417   6.788
 6322SOL    HW119865   1.614   1.399   6.804
 6322SOL    HW219866   1.469   1.416   6.876
 6323SOL     OW19867   4.162   2.835   0.921
 6323SOL    HW119868   4.155   2.739   0.894
 6323SOL    HW219869   4.136   2.893   0.844
 6324SOL     OW19870   4.259   1.256   5.755
 6324SOL    HW119871   4.277   1.348   5.787
 6324SOL    HW219872   4.168   1.227   5.787
 6325SOL     OW19873   0.664   2.657   2.240
 6325SOL    HW119874   0.724   2.729   2.205
 6325SOL    HW219875   0.671   2.654   2.340
 6326SOL     OW19876   5.150   5.574   1.455
 6326SOL    HW119877   5.123   5.659   1.500
 6326SOL    HW219878   5.204   5.595   1.373
 6327SOL     OW19879   5.943   5.634   5.604
 6327SOL    HW119880   5.860   5.676   5.643
 6327SOL    HW219881   5.916   5.561   5.541
 6328SOL     OW19882   2.368   4.002   6.719
 6328SOL    HW119883   2.403   4.096   6.714
 6328SOL    HW219884   2.417   3.945   6.653
 6329SOL     OW19885   1.346   1.281   3.564
 6329SOL    HW119886   1.357   1.202   3.625
 6329SOL    HW219887   1.431   1.333   3.562
 6330SOL     OW19888   4.093   0.801   0.840
 6330SOL    HW119889   4.096   0.777   0.743
 6330SOL    HW219890   4.145   0.885   0.855
 6331SOL     OW19891   6.429   1.810   1.431
 6331SOL    HW119892   6.447   1.908   1.445
 6331SOL    HW219893   6.383   1.798   1.343
 6332SOL     OW19894   5.953   5.659   1.089
 6332SOL    HW119895   5.987   5.751   1.111
 6332SOL    HW219896   5.959   5.601   1.171
 6333SOL     OW19897   3.340   4.950   3.260
 6333SOL    HW119898   3.434   4.978   3.276
 6333SOL    HW219899   3.301   5.006   3.187
 6334SOL     OW19900   2.048   0.590   2.275
 6334SOL    HW119901   2.087   0.671   2.232
 6334SOL    HW219902   1.952   0.583   2.251
 6335SOL     OW19903   6.532   0.997   6.496
 6335SOL    HW119904   6.615   1.010   6.549
 6335SOL    HW219905   6.514   0.899   6.485
 6336SOL     OW19906   6.955   2.602   4.448
 6336SOL    HW119907   6.917   2.667   4.382
 6336SOL    HW219908   6.995   2.653   4.525
 6337SOL     OW19909   5.490   4.266   5.684
 6337SOL    HW119910   5.534   4.245   5.771
 6337SOL    HW219911   5.463   4.182   5.638
 6338SOL     OW19912   3.725   1.683   2.701
 6338SOL    HW119913   3.731   1.649   2.794
 6338SOL    HW219914   3.815   1.712   2.669
 6339SOL     OW19915   0.438   2.161   4.010
 6339SOL    HW119916   0.480   2.112   3.934
 6339SOL    HW219917   0.419   2.255   3.982
 6340SOL     OW19918   2.877   5.731   3.736
 6340SOL    HW119919   2.839   5.752   3.646
 6340SOL    HW219920   2.854   5.637   3.761
 6341SOL     OW19921   0.151   4.358   3.285
 6341SOL    HW119922   0.249   4.370   3.267
 6341SOL    HW219923   0.099   4.403   3.213
 6342SOL     OW19924   1.362   2.586   1.264
 6342SOL    HW119925   1.433   2.633   1.212
 6342SOL    HW219926   1.290   2.555   1.202
 6343SOL     OW19927   3.727   1.253   6.651
 6343SOL    HW119928   3.778   1.325   6.603
 6343SOL    HW219929   3.630   1.258   6.626
 6344SOL     OW19930   0.537   4.009   4.878
 6344SOL    HW119931   0.516   4.015   4.976
 6344SOL    HW219932   0.562   3.915   4.855
 6345SOL     OW19933   3.634   1.526   2.096
 6345SOL    HW119934   3.672   1.613   2.127
 6345SOL    HW219935   3.540   1.539   2.064
 6346SOL     OW19936   0.598   3.854   3.365
 6346SOL    HW119937   0.533   3.921   3.402
 6346SOL    HW219938   0.550   3.792   3.303
 6347SOL     OW19939   3.362   6.995   0.747
 6347SOL    HW119940   3.363   6.945   0.833
 6347SOL    HW219941   3.270   6.992   0.708
 6348SOL     OW19942   0.981   3.126   4.069
 6348SOL    HW119943   0.984   3.030   4.098
 6348SOL    HW219944   1.065   3.172   4.099
 6349SOL     OW19945   3.006   0.790   0.957
 6349SOL    HW119946   2.975   0.764   1.048
 6349SOL    HW219947   2.930   0.831   0.906
 6350SOL     OW19948   1.792   5.869   2.365
 6350SOL    HW119949   1.773   5.923   2.283
 6350SOL    HW219950   1.744   5.909   2.443
 6351SOL     OW19951   6.921   1.238   2.114
 6351SOL    HW119952   6.835   1.289   2.114
 6351SOL    HW219953   6.950   1.222   2.209
 6352SOL     OW19954   1.271   5.482   2.168
 6352SOL    HW119955   1.299   5.537   2.089
 6352SOL    HW219956   1.273   5.539   2.250
 6353SOL     OW19957   0.551   0.164   0.396
 6353SOL    HW119958   0.614   0.087   0.404
 6353SOL    HW219959   0.459   0.135   0.423
 6354SOL     OW19960   0.767   0.341   2.536
 6354SOL    HW119961   0.852   0.335   2.589
 6354SOL    HW219962   0.775   0.415   2.469
 6355SOL     OW19963   1.517   2.898   2.801
 6355SOL    HW119964   1.617   2.901   2.790
 6355SOL    HW219965   1.495   2.911   2.898
 6356SOL     OW19966   3.536   4.646   0.971
 6356SOL    HW119967   3.586   4.591   1.037
 6356SOL    HW219968   3.458   4.594   0.935
 6357SOL     OW19969   4.051   2.206   7.012
 6357SOL    HW119970   3.969   2.203   6.956
 6357SOL    HW219971   4.027   2.187   0.088
 6358SOL     OW19972   6.980   2.231   3.710
 6358SOL    HW119973   6.890   2.216   3.670
 6358SOL    HW219974   0.030   2.222   3.639
 6359SOL     OW19975   0.244   0.744   6.113
 6359SOL    HW119976   0.193   0.808   6.054
 6359SOL    HW219977   0.209   0.652   6.100
 6360SOL     OW19978   2.830   5.134   3.972
 6360SOL    HW119979   2.914   5.147   3.920
 6360SOL    HW219980   2.757   5.104   3.910
 6361SOL     OW19981   4.269   5.827   5.912
 6361SOL    HW119982   4.363   5.846   5.940
 6361SOL    HW219983   4.268   5.748   5.851
 6362SOL     OW19984   6.105   5.049   6.666
 6362SOL    HW119985   6.038   5.104   6.717
 6362SOL    HW219986   6.083   5.051   6.569
 6363SOL     OW19987   1.724   5.852   3.984
 6363SOL    HW119988   1.790   5.922   3.955
 6363SOL    HW219989   1.757   5.809   4.068
 6364SOL     OW19990   2.305   2.488   5.815
 6364SOL    HW119991   2.273   2.541   5.893
 6364SOL    HW219992   2.308   2.391   5.839
 6365SOL     OW19993   4.847   6.711   3.193
 6365SOL    HW119994   4.906   6.782   3.232
 6365SOL    HW219995   4.775   6.754   3.138
 6366SOL     OW19996   0.765   5.525   5.166
 6366SOL    HW119997   0.776   5.500   5.262
 6366SOL    HW219998   0.855   5.547   5.127
 6367SOL     OW19999   5.256   6.821   4.047
 6367SOL    HW120000   5.226   6.825   3.952
 6367SOL    HW220001   5.291   6.910   4.076
 6368SOL     OW20002   3.391   6.543   4.251
 6368SOL    HW120003   3.469   6.500   4.295
 6368SOL    HW220004   3.329   6.579   4.321
 6369SOL     OW20005   2.403   4.928   3.777
 6369SOL    HW120006   2.432   4.862   3.847
 6369SOL    HW220007   2.318   4.972   3.806
 6370SOL     OW20008   5.688   2.264   0.881
 6370SOL    HW120009   5.664   2.222   0.793
 6370SOL    HW220010   5.606   2.276   0.936
 6371SOL     OW20011   4.749   2.918   2.586
 6371SOL    HW120012   4.746   2.898   2.488
 6371SOL    HW220013   4.686   2.857   2.634
 6372SOL     OW20014   3.662   6.397   2.364
 6372SOL    HW120015   3.621   6.468   2.421
 6372SOL    HW220016   3.752   6.373   2.400
 6373SOL     OW20017   4.158   4.098   5.936
 6373SOL    HW120018   4.159   4.176   5.873
 6373SOL    HW220019   4.251   4.072   5.960
 6374SOL     OW20020   2.982   3.205   2.885
 6374SOL    HW120021   2.926   3.277   2.927
 6374SOL    HW220022   3.026   3.152   2.958
 6375SOL     OW20023   1.417   6.808   2.839
 6375SOL    HW120024   1.433   6.843   2.932
 6375SOL    HW220025   1.329   6.842   2.806
 6376SOL     OW20026   6.249   2.243   4.689
 6376SOL    HW120027   6.199   2.237   4.602
 6376SOL    HW220028   6.329   2.302   4.678
 6377SOL     OW20029   0.506   1.079   4.678
 6377SOL    HW120030   0.579   1.146   4.663
 6377SOL    HW220031   0.515   1.005   4.610
 6378SOL     OW20032   4.877   4.309   4.233
 6378SOL    HW120033   4.904   4.218   4.262
 6378SOL    HW220034   4.945   4.345   4.168
 6379SOL     OW20035   2.245   4.046   3.788
 6379SOL    HW120036   2.310   4.119   3.765
 6379SOL    HW220037   2.204   4.010   3.704
 6380SOL     OW20038   0.762   1.071   6.604
 6380SOL    HW120039   0.670   1.032   6.602
 6380SOL    HW220040   0.826   1.003   6.641
 6381SOL     OW20041   2.994   3.871   2.908
 6381SOL    HW120042   2.969   3.934   2.835
 6381SOL    HW220043   2.921   3.805   2.922
 6382SOL     OW20044   1.206   3.446   6.014
 6382SOL    HW120045   1.306   3.446   6.012
 6382SOL    HW220046   1.173   3.352   6.026
 6383SOL     OW20047   2.455   2.175   4.127
 6383SOL    HW120048   2.443   2.185   4.028
 6383SOL    HW220049   2.505   2.254   4.163
 6384SOL     OW20050   6.750   4.826   2.381
 6384SOL    HW120051   6.749   4.726   2.378
 6384SOL    HW220052   6.695   4.857   2.458
 6385SOL     OW20053   0.558   5.319   4.556
 6385SOL    HW120054   0.514   5.348   4.471
 6385SOL    HW220055   0.623   5.246   4.536
 6386SOL     OW20056   2.647   5.504   0.945
 6386SOL    HW120057   2.629   5.566   0.868
 6386SOL    HW220058   2.662   5.412   0.910
 6387SOL     OW20059   6.638   0.903   5.047
 6387SOL    HW120060   6.673   0.853   4.968
 6387SOL    HW220061   6.546   0.936   5.028
 6388SOL     OW20062   3.190   4.896   1.835
 6388SOL    HW120063   3.166   4.898   1.738
 6388SOL    HW220064   3.108   4.877   1.889
 6389SOL     OW20065   1.310   5.904   3.077
 6389SOL    HW120066   1.401   5.898   3.118
 6389SOL    HW220067   1.282   6.000   3.070
 6390SOL     OW20068   0.907   2.518   3.710
 6390SOL    HW120069   0.894   2.566   3.797
 6390SOL    HW220070   0.939   2.425   3.728
 6391SOL     OW20071   2.400   2.090   0.519
 6391SOL    HW120072   2.453   2.042   0.588
 6391SOL    HW220073   2.353   2.168   0.561
 6392SOL     OW20074   1.327   6.258   3.429
 6392SOL    HW120075   1.328   6.225   3.523
 6392SOL    HW220076   1.249   6.219   3.381
 6393SOL     OW20077   6.031   6.412   0.559
 6393SOL    HW120078   6.098   6.365   0.500
 6393SOL    HW220079   6.071   6.497   0.593
 6394SOL     OW20080   2.205   4.893   0.547
 6394SOL    HW120081   2.296   4.913   0.509
 6394SOL    HW220082   2.197   4.936   0.637
 6395SOL     OW20083   6.222   1.519   0.974
 6395SOL    HW120084   6.178   1.530   0.885
 6395SOL    HW220085   6.321   1.521   0.963
 6396SOL     OW20086   4.988   3.853   5.833
 6396SOL    HW120087   4.990   3.938   5.779
 6396SOL    HW220088   4.893   3.827   5.851
 6397SOL     OW20089   0.313   1.302   0.456
 6397SOL    HW120090   0.275   1.209   0.451
 6397SOL    HW220091   0.266   1.360   0.390
 6398SOL     OW20092   3.151   1.352   1.487
 6398SOL    HW120093   3.085   1.377   1.417
 6398SOL    HW220094   3.243   1.373   1.456
 6399SOL     OW20095   1.780   5.634   6.681
 6399SOL    HW120096   1.810   5.594   6.767
 6399SOL    HW220097   1.768   5.733   6.692
 6400SOL     OW20098   2.762   5.793   3.473
 6400SOL    HW120099   2.740   5.698   3.449
 6400SOL    HW220100   2.764   5.849   3.390
 6401SOL     OW20101   0.407   4.660   3.489
 6401SOL    HW120102   0.475   4.589   3.504
 6401SOL    HW220103   0.414   4.728   3.562
 6402SOL     OW20104   2.327   1.010   3.037
 6402SOL    HW120105   2.340   0.917   3.002
 6402SOL    HW220106   2.325   1.074   2.960
 6403SOL     OW20107   1.018   5.071   6.547
 6403SOL    HW120108   1.035   5.023   6.633
 6403SOL    HW220109   0.950   5.020   6.493
 6404SOL     OW20110   4.892   1.286   3.198
 6404SOL    HW120111   4.969   1.332   3.243
 6404SOL    HW220112   4.922   1.248   3.110
 6405SOL     OW20113   2.596   1.342   2.262
 6405SOL    HW120114   2.601   1.347   2.162
 6405SOL    HW220115   2.578   1.432   2.300
 6406SOL     OW20116   2.423   1.312   4.231
 6406SOL    HW120117   2.453   1.219   4.206
 6406SOL    HW220118   2.343   1.306   4.290
 6407SOL     OW20119   3.318   5.613   5.579
 6407SOL    HW120120   3.292   5.539   5.517
 6407SOL    HW220121   3.239   5.641   5.633
 6408SOL     OW20122   5.286   1.869   6.526
 6408SOL    HW120123   5.262   1.826   6.439
 6408SOL    HW220124   5.213   1.932   6.553
 6409SOL     OW20125   0.213   3.457   2.751
 6409SOL    HW120126   0.116   3.442   2.769
 6409SOL    HW220127   0.238   3.412   2.665
 6410SOL     OW20128   1.951   1.678   0.525
 6410SOL    HW120129   1.943   1.739   0.604
 6410SOL    HW220130   1.862   1.637   0.505
 6411SOL     OW20131   0.714   1.242   3.707
 6411SOL    HW120132   0.784   1.176   3.679
 6411SOL    HW220133   0.730   1.329   3.659
 6412SOL     OW20134   0.161   2.625   5.675
 6412SOL    HW120135   0.215   2.690   5.728
 6412SOL    HW220136   0.083   2.593   5.730
 6413SOL     OW20137   6.688   4.635   0.964
 6413SOL    HW120138   6.768   4.580   0.989
 6413SOL    HW220139   6.620   4.576   0.919
 6414SOL     OW20140   6.166   6.778   2.466
 6414SOL    HW120141   6.080   6.757   2.513
 6414SOL    HW220142   6.160   6.746   2.371
 6415SOL     OW20143   1.653   1.723   1.375
 6415SOL    HW120144   1.690   1.810   1.410
 6415SOL    HW220145   1.558   1.713   1.403
 6416SOL     OW20146   1.528   0.641   6.576
 6416SOL    HW120147   1.508   0.739   6.568
 6416SOL    HW220148   1.528   0.615   6.673
 6417SOL     OW20149   0.627   0.063   3.159
 6417SOL    HW120150   0.543   0.114   3.178
 6417SOL    HW220151   0.616   0.012   3.074
 6418SOL     OW20152   0.061   6.054   2.098
 6418SOL    HW120153   0.067   6.003   2.012
 6418SOL    HW220154   0.152   6.085   2.125
 6419SOL     OW20155   3.797   4.875   1.615
 6419SOL    HW120156   3.756   4.937   1.681
 6419SOL    HW220157   3.895   4.893   1.609
 6420SOL     OW20158   2.396   4.043   6.034
 6420SOL    HW120159   2.370   4.118   5.973
 6420SOL    HW220160   2.493   4.022   6.023
 6421SOL     OW20161   5.571   0.867   1.381
 6421SOL    HW120162   5.573   0.967   1.382
 6421SOL    HW220163   5.504   0.835   1.448
 6422SOL     OW20164   6.524   1.631   3.590
 6422SOL    HW120165   6.529   1.731   3.594
 6422SOL    HW220166   6.495   1.602   3.499
 6423SOL     OW20167   5.305   3.723   0.756
 6423SOL    HW120168   5.303   3.816   0.794
 6423SOL    HW220169   5.396   3.685   0.769
 6424SOL     OW20170   6.991   3.350   5.872
 6424SOL    HW120171   6.990   3.441   5.914
 6424SOL    HW220172   0.052   3.341   5.813
 6425SOL     OW20173   0.461   4.364   2.336
 6425SOL    HW120174   0.481   4.274   2.374
 6425SOL    HW220175   0.517   4.379   2.254
 6426SOL     OW20176   1.124   2.120   3.454
 6426SOL    HW120177   1.125   2.220   3.444
 6426SOL    HW220178   1.047   2.082   3.403
 6427SOL     OW20179   1.497   3.509   5.572
 6427SOL    HW120180   1.466   3.432   5.517
 6427SOL    HW220181   1.592   3.494   5.600
 6428SOL     OW20182   6.636   3.648   1.946
 6428SOL    HW120183   6.705   3.652   1.874
 6428SOL    HW220184   6.599   3.555   1.951
 6429SOL     OW20185   1.184   6.896   4.368
 6429SOL    HW120186   1.240   6.904   4.285
 6429SOL    HW220187   1.094   6.934   4.350
 6430SOL     OW20188   5.809   1.787   1.225
 6430SOL    HW120189   5.837   1.703   1.180
 6430SOL    HW220190   5.887   1.849   1.232
 6431SOL     OW20191   5.732   6.598   2.800
 6431SOL    HW120192   5.725   6.563   2.893
 6431SOL    HW220193   5.741   6.521   2.736
 6432SOL     OW20194   4.796   3.397   0.680
 6432SOL    HW120195   4.745   3.482   0.671
 6432SOL    HW220196   4.779   3.339   0.601
 6433SOL     OW20197   2.918   4.207   1.136
 6433SOL    HW120198   2.863   4.201   1.219
 6433SOL    HW220199   3.008   4.167   1.151
 6434SOL     OW20200   1.143   3.674   0.994
 6434SOL    HW120201   1.237   3.639   0.988
 6434SOL    HW220202   1.080   3.599   1.012
 6435SOL     OW20203   4.284   4.708   6.475
 6435SOL    HW120204   4.377   4.671   6.473
 6435SOL    HW220205   4.264   4.742   6.566
 6436SOL     OW20206   1.687   3.173   3.452
 6436SOL    HW120207   1.724   3.260   3.420
 6436SOL    HW220208   1.711   3.159   3.548
 6437SOL     OW20209   1.516   6.874   6.927
 6437SOL    HW120210   1.506   6.785   6.882
 6437SOL    HW220211   1.442   6.935   6.899
 6438SOL     OW20212   1.321   3.957   3.892
 6438SOL    HW120213   1.353   3.929   3.982
 6438SOL    HW220214   1.264   4.039   3.900
 6439SOL     OW20215   1.580   0.029   1.263
 6439SOL    HW120216   1.602   0.073   1.176
 6439SOL    HW220217   1.613   6.955   1.262
 6440SOL     OW20218   1.127   1.424   2.799
 6440SOL    HW120219   1.088   1.427   2.707
 6440SOL    HW220220   1.116   1.513   2.843
 6441SOL     OW20221   1.960   0.995   3.642
 6441SOL    HW120222   1.883   0.938   3.614
 6441SOL    HW220223   2.004   0.955   3.722
 6442SOL     OW20224   2.268   2.342   4.577
 6442SOL    HW120225   2.294   2.271   4.642
 6442SOL    HW220226   2.242   2.299   4.490
 6443SOL     OW20227   2.802   2.547   0.277
 6443SOL    HW120228   2.835   2.476   0.214
 6443SOL    HW220229   2.771   2.505   0.362
 6444SOL     OW20230   0.813   1.397   3.226
 6444SOL    HW120231   0.787   1.474   3.283
 6444SOL    HW220232   0.900   1.417   3.181
 6445SOL     OW20233   3.877   2.931   5.250
 6445SOL    HW120234   3.831   2.942   5.162
 6445SOL    HW220235   3.809   2.910   5.320
 6446SOL     OW20236   6.630   1.232   0.019
 6446SOL    HW120237   6.541   1.201   7.006
 6446SOL    HW220238   6.643   1.328   7.016
 6447SOL     OW20239   1.536   0.066   2.037
 6447SOL    HW120240   1.543   0.027   1.945
 6447SOL    HW220241   1.474   0.010   2.092
 6448SOL     OW20242   5.934   2.625   3.491
 6448SOL    HW120243   5.968   2.717   3.476
 6448SOL    HW220244   5.853   2.609   3.435
 6449SOL     OW20245   3.227   3.133   0.952
 6449SOL    HW120246   3.232   3.131   1.052
 6449SOL    HW220247   3.135   3.157   0.923
 6450SOL     OW20248   5.990   3.947   1.674
 6450SOL    HW120249   5.956   3.876   1.736
 6450SOL    HW220250   5.913   3.991   1.628
 6451SOL     OW20251   2.755   5.623   5.360
 6451SOL    HW120252   2.841   5.673   5.365
 6451SOL    HW220253   2.742   5.571   5.444
 6452SOL     OW20254   3.744   6.779   4.461
 6452SOL    HW120255   3.766   6.689   4.424
 6452SOL    HW220256   3.789   6.850   4.406
 6453SOL     OW20257   1.234   6.269   6.664
 6453SOL    HW120258   1.186   6.215   6.734
 6453SOL    HW220259   1.234   6.366   6.691
 6454SOL     OW20260   3.152   1.777   4.737
 6454SOL    HW120261   3.075   1.824   4.780
 6454SOL    HW220262   3.150   1.680   4.764
 6455SOL     OW20263   6.592   2.743   4.956
 6455SOL    HW120264   6.610   2.659   5.008
 6455SOL    HW220265   6.676   2.798   4.951
 6456SOL     OW20266   0.669   0.411   2.901
 6456SOL    HW120267   0.580   0.445   2.932
 6456SOL    HW220268   0.717   0.369   2.978
 6457SOL     OW20269   6.279   2.044   1.334
 6457SOL    HW120270   6.322   1.984   1.266
 6457SOL    HW220271   6.322   2.134   1.330
 6458SOL     OW20272   1.381   5.692   3.466
 6458SOL    HW120273   1.462   5.690   3.524
 6458SOL    HW220274   1.398   5.640   3.382
 6459SOL     OW20275   5.892   4.200   6.953
 6459SOL    HW120276   5.896   4.239   6.861
 6459SOL    HW220277   5.984   4.201   6.993
 6460SOL     OW20278   3.560   4.812   6.531
 6460SOL    HW120279   3.520   4.780   6.445
 6460SOL    HW220280   3.627   4.884   6.513
 6461SOL     OW20281   3.556   5.232   5.569
 6461SOL    HW120282   3.571   5.328   5.593
 6461SOL    HW220283   3.640   5.180   5.588
 6462SOL     OW20284   2.110   3.641   5.180
 6462SOL    HW120285   2.147   3.734   5.169
 6462SOL    HW220286   2.177   3.585   5.228
 6463SOL     OW20287   2.362   4.125   6.302
 6463SOL    HW120288   2.278   4.178   6.310
 6463SOL    HW220289   2.368   4.085   6.210
 6464SOL     OW20290   0.442   5.437   3.236
 6464SOL    HW120291   0.425   5.394   3.147
 6464SOL    HW220292   0.414   5.533   3.233
 6465SOL     OW20293   6.218   1.845   3.511
 6465SOL    HW120294   6.150   1.900   3.559
 6465SOL    HW220295   6.308   1.886   3.522
 6466SOL     OW20296   0.437   2.418   5.108
 6466SOL    HW120297   0.531   2.388   5.094
 6466SOL    HW220298   0.429   2.464   5.197
 6467SOL     OW20299   2.904   1.476   6.626
 6467SOL    HW120300   2.826   1.475   6.564
 6467SOL    HW220301   2.951   1.388   6.622
 6468SOL     OW20302   4.877   6.078   1.336
 6468SOL    HW120303   4.952   6.105   1.275
 6468SOL    HW220304   4.837   6.160   1.377
 6469SOL     OW20305   6.440   0.683   5.838
 6469SOL    HW120306   6.426   0.639   5.926
 6469SOL    HW220307   6.499   0.625   5.781
 6470SOL     OW20308   5.895   0.033   5.938
 6470SOL    HW120309   5.979   0.015   5.888
 6470SOL    HW220310   5.832   0.087   5.881
 6471SOL     OW20311   6.384   4.773   6.702
 6471SOL    HW120312   6.451   4.700   6.692
 6471SOL    HW220313   6.412   4.853   6.650
 6472SOL     OW20314   0.959   6.668   2.043
 6472SOL    HW120315   0.926   6.760   2.063
 6472SOL    HW220316   1.058   6.664   2.059
 6473SOL     OW20317   2.319   1.323   6.314
 6473SOL    HW120318   2.265   1.407   6.302
 6473SOL    HW220319   2.303   1.263   6.236
 6474SOL     OW20320   1.125   3.452   5.746
 6474SOL    HW120321   1.155   3.477   5.838
 6474SOL    HW220322   1.100   3.355   5.744
 6475SOL     OW20323   4.734   6.114   4.185
 6475SOL    HW120324   4.812   6.097   4.125
 6475SOL    HW220325   4.730   6.043   4.255
 6476SOL     OW20326   4.859   4.742   2.630
 6476SOL    HW120327   4.942   4.699   2.596
 6476SOL    HW220328   4.785   4.730   2.564
 6477SOL     OW20329   6.526   5.579   0.359
 6477SOL    HW120330   6.593   5.653   0.357
 6477SOL    HW220331   6.561   5.501   0.307
 6478SOL     OW20332   4.826   6.549   1.689
 6478SOL    HW120333   4.872   6.611   1.625
 6478SOL    HW220334   4.893   6.484   1.725
 6479SOL     OW20335   4.046   5.335   1.977
 6479SOL    HW120336   4.140   5.303   1.963
 6479SOL    HW220337   4.019   5.317   2.072
 6480SOL     OW20338   2.699   2.755   0.153
 6480SOL    HW120339   2.764   2.828   0.131
 6480SOL    HW220340   2.747   2.678   0.193
 6481SOL     OW20341   3.809   1.121   1.781
 6481SOL    HW120342   3.783   1.078   1.694
 6481SOL    HW220343   3.820   1.220   1.767
 6482SOL     OW20344   6.939   0.517   6.687
 6482SOL    HW120345   6.889   0.446   6.637
 6482SOL    HW220346   0.006   0.480   6.719
 6483SOL     OW20347   1.280   6.845   2.511
 6483SOL    HW120348   1.349   6.783   2.475
 6483SOL    HW220349   1.324   6.918   2.564
 6484SOL     OW20350   4.834   0.682   3.086
 6484SOL    HW120351   4.850   0.740   3.166
 6484SOL    HW220352   4.787   0.598   3.115
 6485SOL     OW20353   1.864   2.350   3.471
 6485SOL    HW120354   1.882   2.432   3.418
 6485SOL    HW220355   1.862   2.270   3.411
 6486SOL     OW20356   1.272   3.835   3.615
 6486SOL    HW120357   1.287   3.909   3.680
 6486SOL    HW220358   1.212   3.766   3.656
 6487SOL     OW20359   6.078   6.619   4.449
 6487SOL    HW120360   6.151   6.599   4.515
 6487SOL    HW220361   6.119   6.652   4.364
 6488SOL     OW20362   2.981   4.855   5.962
 6488SOL    HW120363   2.966   4.767   6.006
 6488SOL    HW220364   2.901   4.878   5.906
 6489SOL     OW20365   1.574   2.019   5.936
 6489SOL    HW120366   1.585   2.006   5.837
 6489SOL    HW220367   1.654   1.980   5.983
 6490SOL     OW20368   3.577   1.614   0.316
 6490SOL    HW120369   3.560   1.517   0.300
 6490SOL    HW220370   3.600   1.659   0.230
 6491SOL     OW20371   4.601   1.704   6.131
 6491SOL    HW120372   4.646   1.627   6.085
 6491SOL    HW220373   4.522   1.732   6.077
 6492SOL     OW20374   6.222   6.363   0.367
 6492SOL    HW120375   6.239   6.452   0.325
 6492SOL    HW220376   6.304   6.307   0.361
 6493SOL     OW20377   1.575   6.734   5.999
 6493SOL    HW120378   1.514   6.720   5.921
 6493SOL    HW220379   1.522   6.763   6.078
 6494SOL     OW20380   0.869   0.262   3.584
 6494SOL    HW120381   0.948   0.273   3.523
 6494SOL    HW220382   0.825   0.351   3.597
 6495SOL     OW20383   5.763   5.093   3.029
 6495SOL    HW120384   5.663   5.090   3.031
 6495SOL    HW220385   5.794   5.180   2.990
 6496SOL     OW20386   1.041   6.431   2.261
 6496SOL    HW120387   0.944   6.420   2.239
 6496SOL    HW220388   1.051   6.491   2.340
 6497SOL     OW20389   1.881   3.861   0.581
 6497SOL    HW120390   1.824   3.841   0.500
 6497SOL    HW220391   1.963   3.804   0.578
 6498SOL     OW20392   2.262   4.152   4.063
 6498SOL    HW120393   2.223   4.062   4.046
 6498SOL    HW220394   2.285   4.161   4.160
 6499SOL     OW20395   5.300   1.255   3.732
 6499SOL    HW120396   5.373   1.221   3.671
 6499SOL    HW220397   5.341   1.295   3.813
 6500SOL     OW20398   4.831   4.627   3.335
 6500SOL    HW120399   4.772   4.573   3.275
 6500SOL    HW220400   4.863   4.708   3.286
 6501SOL     OW20401   6.224   3.838   1.132
 6501SOL    HW120402   6.261   3.880   1.214
 6501SOL    HW220403   6.260   3.745   1.122
 6502SOL     OW20404   0.845   4.859   3.200
 6502SOL    HW120405   0.849   4.794   3.125
 6502SOL    HW220406   0.880   4.947   3.171
 6503SOL     OW20407   4.901   6.882   4.901
 6503SOL    HW120408   4.867   6.880   4.995
 6503SOL    HW220409   4.882   6.795   4.856
 6504SOL     OW20410   3.562   0.895   0.616
 6504SOL    HW120411   3.557   0.796   0.621
 6504SOL    HW220412   3.470   0.933   0.602
 6505SOL     OW20413   5.850   4.870   0.938
 6505SOL    HW120414   5.795   4.844   0.859
 6505SOL    HW220415   5.940   4.902   0.907
 6506SOL     OW20416   1.513   3.009   1.090
 6506SOL    HW120417   1.552   3.003   0.998
 6506SOL    HW220418   1.541   3.095   1.133
 6507SOL     OW20419   2.309   6.742   1.346
 6507SOL    HW120420   2.221   6.696   1.339
 6507SOL    HW220421   2.307   6.805   1.424
 6508SOL     OW20422   2.312   2.099   3.250
 6508SOL    HW120423   2.276   2.007   3.236
 6508SOL    HW220424   2.411   2.095   3.264
 6509SOL     OW20425   1.028   2.917   4.448
 6509SOL    HW120426   1.087   2.838   4.431
 6509SOL    HW220427   0.943   2.886   4.490
 6510SOL     OW20428   6.092   4.690   6.689
 6510SOL    HW120429   6.095   4.779   6.641
 6510SOL    HW220430   6.170   4.634   6.659
 6511SOL     OW20431   6.503   6.436   5.999
 6511SOL    HW120432   6.545   6.383   6.072
 6511SOL    HW220433   6.538   6.530   6.001
 6512SOL     OW20434   5.391   0.068   3.226
 6512SOL    HW120435   5.461   0.129   3.190
 6512SOL    HW220436   5.344   0.023   3.150
 6513SOL     OW20437   3.898   6.670   3.089
 6513SOL    HW120438   3.988   6.707   3.109
 6513SOL    HW220439   3.863   6.711   3.005
 6514SOL     OW20440   4.213   0.461   4.110
 6514SOL    HW120441   4.260   0.451   4.022
 6514SOL    HW220442   4.143   0.389   4.119
 6515SOL     OW20443   0.452   6.586   4.901
 6515SOL    HW120444   0.548   6.606   4.922
 6515SOL    HW220445   0.406   6.555   4.984
 6516SOL     OW20446   0.622   1.942   5.611
 6516SOL    HW120447   0.661   2.019   5.559
 6516SOL    HW220448   0.555   1.977   5.676
 6517SOL     OW20449   0.595   1.296   0.365
 6517SOL    HW120450   0.639   1.355   0.433
 6517SOL    HW220451   0.499   1.283   0.389
 6518SOL     OW20452   6.998   6.360   1.009
 6518SOL    HW120453   0.013   6.298   0.939
 6518SOL    HW220454   7.010   6.455   0.978
 6519SOL     OW20455   1.923   1.863   4.602
 6519SOL    HW120456   1.824   1.855   4.613
 6519SOL    HW220457   1.957   1.939   4.658
 6520SOL     OW20458   5.875   6.085   1.658
 6520SOL    HW120459   5.948   6.068   1.592
 6520SOL    HW220460   5.914   6.127   1.741
 6521SOL     OW20461   0.089   1.923   4.975
 6521SOL    HW120462   0.157   1.995   4.968
 6521SOL    HW220463   0.004   1.961   5.013
 6522SOL     OW20464   2.440   5.245   6.755
 6522SOL    HW120465   2.463   5.149   6.739
 6522SOL    HW220466   2.365   5.272   6.695
 6523SOL     OW20467   2.144   1.521   6.259
 6523SOL    HW120468   2.206   1.533   6.181
 6523SOL    HW220469   2.050   1.511   6.225
 6524SOL     OW20470   4.036   3.454   3.309
 6524SOL    HW120471   3.969   3.446   3.383
 6524SOL    HW220472   4.039   3.369   3.257
 6525SOL     OW20473   0.442   2.998   3.312
 6525SOL    HW120474   0.508   3.025   3.242
 6525SOL    HW220475   0.419   3.077   3.369
 6526SOL     OW20476   1.648   5.918   5.352
 6526SOL    HW120477   1.662   5.899   5.255
 6526SOL    HW220478   1.697   5.850   5.406
 6527SOL     OW20479   1.352   6.835   4.778
 6527SOL    HW120480   1.449   6.858   4.767
 6527SOL    HW220481   1.331   6.824   4.875
 6528SOL     OW20482   0.221   1.905   4.465
 6528SOL    HW120483   0.175   1.943   4.545
 6528SOL    HW220484   0.319   1.921   4.473
 6529SOL     OW20485   6.495   1.240   1.526
 6529SOL    HW120486   6.433   1.271   1.454
 6529SOL    HW220487   6.443   1.226   1.611
 6530SOL     OW20488   6.693   2.053   0.756
 6530SOL    HW120489   6.603   2.054   0.799
 6530SOL    HW220490   6.684   2.031   0.659
 6531SOL     OW20491   5.643   3.364   4.076
 6531SOL    HW120492   5.544   3.376   4.084
 6531SOL    HW220493   5.687   3.453   4.062
 6532SOL     OW20494   6.820   1.174   6.194
 6532SOL    HW120495   6.905   1.127   6.217
 6532SOL    HW220496   6.840   1.253   6.136
 6533SOL     OW20497   4.967   0.248   1.217
 6533SOL    HW120498   5.029   0.187   1.266
 6533SOL    HW220499   4.886   0.197   1.188
 6534SOL     OW20500   2.520   4.177   1.044
 6534SOL    HW120501   2.455   4.250   1.063
 6534SOL    HW220502   2.566   4.194   0.957
 6535SOL     OW20503   0.116   3.650   5.632
 6535SOL    HW120504   0.116   3.746   5.603
 6535SOL    HW220505   0.025   3.612   5.617
 6536SOL     OW20506   5.892   1.817   0.015
 6536SOL    HW120507   5.961   1.768   0.067
 6536SOL    HW220508   5.908   1.916   0.024
 6537SOL     OW20509   0.781   6.481   0.162
 6537SOL    HW120510   0.843   6.429   0.104
 6537SOL    HW220511   0.816   6.574   0.175
 6538SOL     OW20512   3.092   3.940   6.959
 6538SOL    HW120513   3.191   3.923   6.964
 6538SOL    HW220514   3.052   3.930   0.030
 6539SOL     OW20515   2.439   1.949   6.944
 6539SOL    HW120516   2.513   1.958   6.877
 6539SOL    HW220517   2.479   1.941   0.015
 6540SOL     OW20518   2.834   1.339   4.299
 6540SOL    HW120519   2.779   1.302   4.374
 6540SOL    HW220520   2.914   1.386   4.336
 6541SOL     OW20521   2.680   2.344   5.755
 6541SOL    HW120522   2.752   2.332   5.687
 6541SOL    HW220523   2.685   2.270   5.822
 6542SOL     OW20524   6.374   4.569   3.744
 6542SOL    HW120525   6.434   4.591   3.668
 6542SOL    HW220526   6.292   4.626   3.740
 6543SOL     OW20527   6.468   6.027   6.920
 6543SOL    HW120528   6.563   6.057   6.909
 6543SOL    HW220529   6.435   5.990   6.833
 6544SOL     OW20530   6.630   6.387   3.868
 6544SOL    HW120531   6.663   6.447   3.795
 6544SOL    HW220532   6.707   6.338   3.909
 6545SOL     OW20533   5.037   1.849   5.644
 6545SOL    HW120534   4.983   1.808   5.717
 6545SOL    HW220535   5.004   1.942   5.626
 6546SOL     OW20536   3.111   4.635   6.185
 6546SOL    HW120537   3.118   4.622   6.284
 6546SOL    HW220538   3.015   4.647   6.159
 6547SOL     OW20539   4.947   2.322   6.702
 6547SOL    HW120540   5.008   2.400   6.707
 6547SOL    HW220541   4.854   2.351   6.724
 6548SOL     OW20542   6.792   4.228   5.980
 6548SOL    HW120543   6.885   4.195   5.964
 6548SOL    HW220544   6.795   4.308   6.040
 6549SOL     OW20545   3.173   2.514   0.726
 6549SOL    HW120546   3.122   2.534   0.642
 6549SOL    HW220547   3.271   2.511   0.707
 6550SOL     OW20548   0.425   5.474   3.639
 6550SOL    HW120549   0.375   5.393   3.669
 6550SOL    HW220550   0.369   5.526   3.575
 6551SOL     OW20551   1.701   4.642   1.908
 6551SOL    HW120552   1.605   4.655   1.934
 6551SOL    HW220553   1.726   4.546   1.920
 6552SOL     OW20554   2.471   4.615   5.748
 6552SOL    HW120555   2.494   4.708   5.719
 6552SOL    HW220556   2.554   4.559   5.751
 6553SOL     OW20557   0.766   2.927   2.586
 6553SOL    HW120558   0.817   2.849   2.549
 6553SOL    HW220559   0.824   3.009   2.581
 6554SOL     OW20560   6.134   2.489   5.250
 6554SOL    HW120561   6.200   2.474   5.176
 6554SOL    HW220562   6.177   2.542   5.323
 6555SOL     OW20563   1.429   1.402   1.568
 6555SOL    HW120564   1.378   1.454   1.500
 6555SOL    HW220565   1.436   1.307   1.538
 6556SOL     OW20566   3.529   5.820   4.424
 6556SOL    HW120567   3.580   5.868   4.495
 6556SOL    HW220568   3.433   5.812   4.451
 6557SOL     OW20569   5.987   5.402   0.897
 6557SOL    HW120570   6.063   5.372   0.955
 6557SOL    HW220571   5.987   5.502   0.892
 6558SOL     OW20572   6.358   5.944   6.660
 6558SOL    HW120573   6.358   5.854   6.702
 6558SOL    HW220574   6.417   5.944   6.579
 6559SOL     OW20575   4.484   4.146   1.260
 6559SOL    HW120576   4.437   4.120   1.175
 6559SOL    HW220577   4.536   4.068   1.294
 6560SOL     OW20578   3.957   2.311   0.240
 6560SOL    HW120579   3.989   2.300   0.334
 6560SOL    HW220580   3.894   2.237   0.217
 6561SOL     OW20581   4.158   3.386   2.983
 6561SOL    HW120582   4.115   3.476   2.991
 6561SOL    HW220583   4.144   3.334   3.067
 6562SOL     OW20584   6.316   4.630   5.994
 6562SOL    HW120585   6.273   4.557   5.942
 6562SOL    HW220586   6.353   4.699   5.932
 6563SOL     OW20587   0.849   5.476   1.594
 6563SOL    HW120588   0.790   5.448   1.518
 6563SOL    HW220589   0.821   5.429   1.677
 6564SOL     OW20590   1.389   4.291   1.782
 6564SOL    HW120591   1.351   4.328   1.868
 6564SOL    HW220592   1.390   4.191   1.787
 6565SOL     OW20593   6.801   2.971   5.266
 6565SOL    HW120594   6.715   2.954   5.314
 6565SOL    HW220595   6.790   2.950   5.169
 6566SOL     OW20596   3.106   6.616   0.887
 6566SOL    HW120597   3.166   6.627   0.807
 6566SOL    HW220598   3.105   6.520   0.915
 6567SOL     OW20599   5.176   2.755   0.884
 6567SOL    HW120600   5.230   2.786   0.962
 6567SOL    HW220601   5.210   2.798   0.800
 6568SOL     OW20602   4.555   4.165   1.680
 6568SOL    HW120603   4.522   4.233   1.745
 6568SOL    HW220604   4.655   4.166   1.679
 6569SOL     OW20605   1.637   4.517   0.234
 6569SOL    HW120606   1.647   4.598   0.292
 6569SOL    HW220607   1.544   4.514   0.197
 6570SOL     OW20608   5.482   2.135   1.953
 6570SOL    HW120609   5.495   2.050   1.902
 6570SOL    HW220610   5.525   2.210   1.902
 6571SOL     OW20611   2.839   6.498   3.562
 6571SOL    HW120612   2.765   6.432   3.576
 6571SOL    HW220613   2.805   6.591   3.577
 6572SOL     OW20614   0.014   4.139   5.877
 6572SOL    HW120615   7.001   4.157   5.784
 6572SOL    HW220616   0.032   4.041   5.887
 6573SOL     OW20617   2.508   1.148   2.429
 6573SOL    HW120618   2.574   1.078   2.404
 6573SOL    HW220619   2.539   1.237   2.395
 6574SOL     OW20620   2.685   5.025   2.880
 6574SOL    HW120621   2.754   5.060   2.943
 6574SOL    HW220622   2.729   4.969   2.810
 6575SOL     OW20623   1.258   1.548   2.228
 6575SOL    HW120624   1.310   1.558   2.313
 6575SOL    HW220625   1.207   1.462   2.231
 6576SOL     OW20626   1.433   5.959   6.341
 6576SOL    HW120627   1.481   5.872   6.327
 6576SOL    HW220628   1.421   6.004   6.252
 6577SOL     OW20629   0.158   1.964   3.930
 6577SOL    HW120630   0.191   1.895   3.866
 6577SOL    HW220631   0.208   2.049   3.915
 6578SOL     OW20632   6.544   5.600   4.009
 6578SOL    HW120633   6.572   5.663   4.081
 6578SOL    HW220634   6.540   5.649   3.922
 6579SOL     OW20635   6.562   4.086   3.118
 6579SOL    HW120636   6.632   4.017   3.137
 6579SOL    HW220637   6.485   4.043   3.070
 6580SOL     OW20638   5.806   1.733   2.371
 6580SOL    HW120639   5.732   1.727   2.438
 6580SOL    HW220640   5.879   1.669   2.395
 6581SOL     OW20641   3.533   1.789   6.492
 6581SOL    HW120642   3.443   1.822   6.520
 6581SOL    HW220643   3.549   1.699   6.531
 6582SOL     OW20644   6.449   0.047   2.678
 6582SOL    HW120645   6.418   7.002   2.609
 6582SOL    HW220646   6.470   7.018   2.763
 6583SOL     OW20647   5.362   1.697   5.754
 6583SOL    HW120648   5.340   1.649   5.670
 6583SOL    HW220649   5.281   1.748   5.785
 6584SOL     OW20650   6.178   1.478   6.689
 6584SOL    HW120651   6.249   1.493   6.758
 6584SOL    HW220652   6.169   1.380   6.671
 6585SOL     OW20653   0.947   1.591   6.452
 6585SOL    HW120654   0.915   1.497   6.433
 6585SOL    HW220655   0.872   1.655   6.436
 6586SOL     OW20656   6.194   1.750   6.051
 6586SOL    HW120657   6.266   1.767   5.984
 6586SOL    HW220658   6.113   1.715   6.005
 6587SOL     OW20659   2.265   6.400   3.184
 6587SOL    HW120660   2.307   6.484   3.148
 6587SOL    HW220661   2.174   6.388   3.144
 6588SOL     OW20662   1.763   2.841   6.832
 6588SOL    HW120663   1.776   2.901   6.753
 6588SOL    HW220664   1.680   2.786   6.818
 6589SOL     OW20665   4.659   1.515   5.387
 6589SOL    HW120666   4.754   1.487   5.377
 6589SOL    HW220667   4.646   1.606   5.347
 6590SOL     OW20668   0.237   1.071   5.272
 6590SOL    HW120669   0.186   1.139   5.325
 6590SOL    HW220670   0.330   1.103   5.256
 6591SOL     OW20671   6.096   0.721   3.189
 6591SOL    HW120672   5.996   0.722   3.189
 6591SOL    HW220673   6.131   0.810   3.215
 6592SOL     OW20674   4.744   5.908   4.351
 6592SOL    HW120675   4.791   5.842   4.292
 6592SOL    HW220676   4.786   5.909   4.441
 6593SOL     OW20677   3.426   1.714   2.901
 6593SOL    HW120678   3.347   1.705   2.840
 6593SOL    HW220679   3.395   1.732   2.994
 6594SOL     OW20680   5.062   0.795   6.699
 6594SOL    HW120681   5.125   0.806   6.622
 6594SOL    HW220682   4.976   0.757   6.666
 6595SOL     OW20683   1.753   3.848   1.189
 6595SOL    HW120684   1.678   3.814   1.132
 6595SOL    HW220685   1.727   3.936   1.228
 6596SOL     OW20686   4.457   0.026   5.061
 6596SOL    HW120687   4.533   0.035   5.124
 6596SOL    HW220688   4.492   0.016   4.968
 6597SOL     OW20689   0.484   5.899   4.813
 6597SOL    HW120690   0.572   5.907   4.766
 6597SOL    HW220691   0.410   5.892   4.745
 6598SOL     OW20692   2.075   5.778   5.224
 6598SOL    HW120693   2.090   5.729   5.310
 6598SOL    HW220694   2.125   5.732   5.150
 6599SOL     OW20695   4.529   4.641   6.255
 6599SOL    HW120696   4.464   4.571   6.282
 6599SOL    HW220697   4.513   4.725   6.307
 6600SOL     OW20698   4.651   5.884   3.859
 6600SOL    HW120699   4.555   5.884   3.887
 6600SOL    HW220700   4.707   5.845   3.931
 6601SOL     OW20701   0.536   0.389   0.135
 6601SOL    HW120702   0.452   0.441   0.122
 6601SOL    HW220703   0.552   0.375   0.233
 6602SOL     OW20704   6.699   1.411   1.503
 6602SOL    HW120705   6.756   1.421   1.584
 6602SOL    HW220706   6.627   1.345   1.521
 6603SOL     OW20707   2.101   3.614   2.955
 6603SOL    HW120708   2.044   3.687   2.992
 6603SOL    HW220709   2.140   3.643   2.868
 6604SOL     OW20710   3.096   5.221   2.856
 6604SOL    HW120711   3.026   5.260   2.796
 6604SOL    HW220712   3.178   5.277   2.852
 6605SOL     OW20713   6.009   5.843   6.978
 6605SOL    HW120714   5.981   5.804   0.046
 6605SOL    HW220715   6.086   5.791   6.941
 6606SOL     OW20716   5.377   1.289   2.307
 6606SOL    HW120717   5.444   1.363   2.304
 6606SOL    HW220718   5.355   1.268   2.402
 6607SOL     OW20719   1.566   1.284   2.217
 6607SOL    HW120720   1.482   1.232   2.233
 6607SOL    HW220721   1.587   1.285   2.119
 6608SOL     OW20722   5.920   4.009   3.745
 6608SOL    HW120723   5.844   3.952   3.712
 6608SOL    HW220724   5.886   4.099   3.771
 6609SOL     OW20725   5.363   1.194   5.966
 6609SOL    HW120726   5.361   1.095   5.984
 6609SOL    HW220727   5.377   1.243   6.052
 6610SOL     OW20728   2.676   0.373   0.336
 6610SOL    HW120729   2.596   0.419   0.376
 6610SOL    HW220730   2.652   0.338   0.246
 6611SOL     OW20731   6.061   2.273   2.759
 6611SOL    HW120732   6.126   2.209   2.800
 6611SOL    HW220733   6.111   2.349   2.717
 6612SOL     OW20734   1.224   6.322   0.034
 6612SOL    HW120735   1.182   6.388   6.991
 6612SOL    HW220736   1.179   6.327   0.123
 6613SOL     OW20737   4.646   4.915   1.832
 6613SOL    HW120738   4.586   4.896   1.910
 6613SOL    HW220739   4.700   4.997   1.850
 6614SOL     OW20740   5.233   6.038   6.185
 6614SOL    HW120741   5.321   6.069   6.219
 6614SOL    HW220742   5.172   6.116   6.173
 6615SOL     OW20743   0.850   3.661   5.195
 6615SOL    HW120744   0.845   3.574   5.244
 6615SOL    HW220745   0.921   3.656   5.125
 6616SOL     OW20746   5.404   0.879   4.741
 6616SOL    HW120747   5.356   0.947   4.797
 6616SOL    HW220748   5.364   0.789   4.758
 6617SOL     OW20749   3.749   6.913   4.895
 6617SOL    HW120750   3.813   6.920   4.818
 6617SOL    HW220751   3.696   6.829   4.886
 6618SOL     OW20752   1.294   4.405   2.045
 6618SOL    HW120753   1.213   4.459   2.065
 6618SOL    HW220754   1.292   4.321   2.099
 6619SOL     OW20755   4.683   5.547   2.466
 6619SOL    HW120756   4.601   5.588   2.506
 6619SOL    HW220757   4.720   5.478   2.529
 6620SOL     OW20758   1.269   2.788   5.757
 6620SOL    HW120759   1.295   2.694   5.777
 6620SOL    HW220760   1.254   2.838   5.843
 6621SOL     OW20761   2.771   4.221   6.976
 6621SOL    HW120762   2.756   4.275   0.040
 6621SOL    HW220763   2.715   4.138   6.980
 6622SOL     OW20764   6.566   6.049   0.554
 6622SOL    HW120765   6.567   6.145   0.527
 6622SOL    HW220766   6.658   6.010   0.542
 6623SOL     OW20767   3.464   3.407   2.241
 6623SOL    HW120768   3.475   3.470   2.164
 6623SOL    HW220769   3.376   3.361   2.233
 6624SOL     OW20770   4.119   5.174   4.328
 6624SOL    HW120771   4.204   5.146   4.373
 6624SOL    HW220772   4.102   5.271   4.348
 6625SOL     OW20773   6.400   0.703   6.786
 6625SOL    HW120774   6.325   0.740   6.731
 6625SOL    HW220775   6.392   0.739   6.880
 6626SOL     OW20776   3.524   5.284   3.387
 6626SOL    HW120777   3.480   5.246   3.469
 6626SOL    HW220778   3.470   5.258   3.307
 6627SOL     OW20779   2.022   0.480   0.424
 6627SOL    HW120780   1.955   0.407   0.405
 6627SOL    HW220781   2.113   0.440   0.428
 6628SOL     OW20782   4.162   5.701   2.776
 6628SOL    HW120783   4.127   5.610   2.800
 6628SOL    HW220784   4.138   5.721   2.681
 6629SOL     OW20785   3.796   5.435   0.895
 6629SOL    HW120786   3.875   5.385   0.859
 6629SOL    HW220787   3.806   5.447   0.994
 6630SOL     OW20788   3.149   1.957   0.662
 6630SOL    HW120789   3.126   1.865   0.629
 6630SOL    HW220790   3.142   2.022   0.587
 6631SOL     OW20791   5.203   0.976   2.628
 6631SOL    HW120792   5.153   0.963   2.713
 6631SOL    HW220793   5.254   0.893   2.605
 6632SOL     OW20794   6.868   0.640   1.077
 6632SOL    HW120795   6.817   0.718   1.113
 6632SOL    HW220796   6.946   0.673   1.023
 6633SOL     OW20797   1.796   6.518   1.201
 6633SOL    HW120798   1.895   6.512   1.200
 6633SOL    HW220799   1.757   6.438   1.155
 6634SOL     OW20800   6.556   2.674   6.188
 6634SOL    HW120801   6.478   2.725   6.151
 6634SOL    HW220802   6.543   2.660   6.286
 6635SOL     OW20803   4.536   4.608   3.639
 6635SOL    HW120804   4.550   4.511   3.618
 6635SOL    HW220805   4.610   4.662   3.599
 6636SOL     OW20806   2.008   2.273   4.125
 6636SOL    HW120807   1.974   2.330   4.199
 6636SOL    HW220808   2.037   2.332   4.049
 6637SOL     OW20809   0.391   0.095   0.690
 6637SOL    HW120810   0.352   0.174   0.642
 6637SOL    HW220811   0.392   0.016   0.629
 6638SOL     OW20812   2.534   5.846   6.072
 6638SOL    HW120813   2.440   5.878   6.067
 6638SOL    HW220814   2.536   5.747   6.061
 6639SOL     OW20815   5.818   5.076   6.863
 6639SOL    HW120816   5.898   5.135   6.857
 6639SOL    HW220817   5.737   5.124   6.829
 6640SOL     OW20818   6.745   2.224   3.575
 6640SOL    HW120819   6.670   2.183   3.523
 6640SOL    HW220820   6.755   2.320   3.549
 6641SOL     OW20821   1.991   4.046   6.063
 6641SOL    HW120822   1.908   4.088   6.028
 6641SOL    HW220823   2.067   4.066   6.001
 6642SOL     OW20824   0.683   5.736   6.565
 6642SOL    HW120825   0.724   5.645   6.572
 6642SOL    HW220826   0.731   5.790   6.497
 6643SOL     OW20827   5.204   4.658   6.850
 6643SOL    HW120828   5.253   4.595   6.790
 6643SOL    HW220829   5.111   4.670   6.817
 6644SOL     OW20830   2.936   4.860   1.936
 6644SOL    HW120831   2.902   4.767   1.950
 6644SOL    HW220832   2.945   4.906   2.025
 6645SOL     OW20833   0.051   4.698   5.897
 6645SOL    HW120834   0.096   4.657   5.818
 6645SOL    HW220835   0.032   4.794   5.879
 6646SOL     OW20836   2.608   5.619   3.685
 6646SOL    HW120837   2.545   5.567   3.627
 6646SOL    HW220838   2.575   5.713   3.693
 6647SOL     OW20839   3.001   1.201   2.009
 6647SOL    HW120840   2.927   1.205   1.943
 6647SOL    HW220841   3.082   1.161   1.967
 6648SOL     OW20842   5.011   5.615   2.467
 6648SOL    HW120843   4.921   5.627   2.510
 6648SOL    HW220844   5.043   5.702   2.431
 6649SOL     OW20845   4.499   2.228   6.500
 6649SOL    HW120846   4.561   2.152   6.478
 6649SOL    HW220847   4.550   2.299   6.549
 6650SOL     OW20848   4.030   1.882   3.614
 6650SOL    HW120849   4.129   1.873   3.610
 6650SOL    HW220850   3.992   1.873   3.522
 6651SOL     OW20851   0.620   2.710   6.784
 6651SOL    HW120852   0.552   2.769   6.828
 6651SOL    HW220853   0.678   2.765   6.723
 6652SOL     OW20854   7.006   5.628   2.158
 6652SOL    HW120855   7.012   5.669   2.067
 6652SOL    HW220856   0.054   5.670   2.218
 6653SOL     OW20857   3.813   3.965   4.010
 6653SOL    HW120858   3.727   4.012   3.993
 6653SOL    HW220859   3.824   3.889   3.945
 6654SOL     OW20860   2.197   3.312   1.721
 6654SOL    HW120861   2.146   3.352   1.645
 6654SOL    HW220862   2.262   3.379   1.757
 6655SOL     OW20863   2.924   6.634   2.090
 6655SOL    HW120864   2.871   6.582   2.023
 6655SOL    HW220865   2.929   6.583   2.176
 6656SOL     OW20866   6.061   1.787   1.521
 6656SOL    HW120867   6.132   1.836   1.469
 6656SOL    HW220868   6.025   1.713   1.465
 6657SOL     OW20869   3.110   6.561   6.532
 6657SOL    HW120870   3.200   6.520   6.518
 6657SOL    HW220871   3.098   6.582   6.629
 6658SOL     OW20872   5.948   1.198   5.069
 6658SOL    HW120873   5.998   1.221   4.986
 6658SOL    HW220874   5.969   1.104   5.096
 6659SOL     OW20875   2.127   3.047   0.415
 6659SOL    HW120876   2.203   2.990   0.386
 6659SOL    HW220877   2.040   3.002   0.393
 6660SOL     OW20878   6.606   6.853   2.852
 6660SOL    HW120879   6.655   6.766   2.861
 6660SOL    HW220880   6.538   6.860   2.925
 6661SOL     OW20881   0.349   5.804   3.862
 6661SOL    HW120882   0.349   5.720   3.916
 6661SOL    HW220883   0.367   5.882   3.921
 6662SOL     OW20884   1.445   1.715   0.012
 6662SOL    HW120885   1.415   1.620   0.023
 6662SOL    HW220886   1.366   1.774   7.020
 6663SOL     OW20887   0.351   5.793   2.541
 6663SOL    HW120888   0.449   5.800   2.559
 6663SOL    HW220889   0.306   5.879   2.567
 6664SOL     OW20890   1.336   0.530   2.195
 6664SOL    HW120891   1.285   0.446   2.211
 6664SOL    HW220892   1.288   0.586   2.128
 6665SOL     OW20893   2.067   6.657   3.002
 6665SOL    HW120894   2.132   6.658   2.926
 6665SOL    HW220895   2.056   6.563   3.035
 6666SOL     OW20896   6.253   0.442   5.899
 6666SOL    HW120897   6.215   0.436   5.991
 6666SOL    HW220898   6.253   0.537   5.868
 6667SOL     OW20899   0.075   4.963   5.142
 6667SOL    HW120900   0.091   4.871   5.179
 6667SOL    HW220901   7.007   4.965   5.096
 6668SOL     OW20902   1.096   4.276   1.652
 6668SOL    HW120903   1.168   4.230   1.600
 6668SOL    HW220904   1.136   4.354   1.700
 6669SOL     OW20905   2.214   5.917   3.041
 6669SOL    HW120906   2.275   5.846   3.006
 6669SOL    HW220907   2.123   5.878   3.054
 6670SOL     OW20908   3.157   5.116   0.400
 6670SOL    HW120909   3.140   5.174   0.320
 6670SOL    HW220910   3.166   5.021   0.371
 6671SOL     OW20911   6.662   3.267   5.897
 6671SOL    HW120912   6.702   3.292   5.809
 6671SOL    HW220913   6.735   3.254   5.965
 6672SOL     OW20914   1.005   0.851   5.902
 6672SOL    HW120915   1.073   0.881   5.969
 6672SOL    HW220916   1.000   0.918   5.827
 6673SOL     OW20917   4.483   4.895   1.603
 6673SOL    HW120918   4.450   4.990   1.609
 6673SOL    HW220919   4.538   4.874   1.683
 6674SOL     OW20920   1.091   6.209   5.019
 6674SOL    HW120921   1.180   6.168   4.997
 6674SOL    HW220922   1.035   6.142   5.069
 6675SOL     OW20923   6.042   5.404   0.112
 6675SOL    HW120924   5.976   5.331   0.127
 6675SOL    HW220925   6.134   5.366   0.108
 6676SOL     OW20926   0.649   2.261   5.946
 6676SOL    HW120927   0.713   2.186   5.930
 6676SOL    HW220928   0.557   2.233   5.919
 6677SOL     OW20929   1.006   2.798   0.194
 6677SOL    HW120930   1.047   2.832   0.279
 6677SOL    HW220931   1.066   2.818   0.117
 6678SOL     OW20932   0.994   2.759   5.873
 6678SOL    HW120933   0.938   2.679   5.896
 6678SOL    HW220934   1.058   2.776   5.947
 6679SOL     OW20935   1.461   2.590   5.001
 6679SOL    HW120936   1.498   2.500   4.980
 6679SOL    HW220937   1.434   2.592   5.098
 6680SOL     OW20938   3.378   6.538   6.474
 6680SOL    HW120939   3.373   6.635   6.449
 6680SOL    HW220940   3.473   6.507   6.468
 6681SOL     OW20941   5.000   5.590   0.670
 6681SOL    HW120942   5.086   5.639   0.654
 6681SOL    HW220943   4.988   5.520   0.600
 6682SOL     OW20944   0.419   5.362   2.296
 6682SOL    HW120945   0.369   5.414   2.366
 6682SOL    HW220946   0.354   5.320   2.234
 6683SOL     OW20947   5.354   1.763   5.000
 6683SOL    HW120948   5.276   1.764   5.062
 6683SOL    HW220949   5.351   1.681   4.943
 6684SOL     OW20950   0.905   0.161   2.333
 6684SOL    HW120951   0.840   0.135   2.405
 6684SOL    HW220952   0.961   0.083   2.309
 6685SOL     OW20953   5.242   3.121   6.388
 6685SOL    HW120954   5.154   3.078   6.409
 6685SOL    HW220955   5.268   3.100   6.293
 6686SOL     OW20956   6.158   3.753   3.099
 6686SOL    HW120957   6.181   3.698   3.018
 6686SOL    HW220958   6.166   3.850   3.076
 6687SOL     OW20959   1.405   1.783   1.097
 6687SOL    HW120960   1.384   1.708   1.160
 6687SOL    HW220961   1.405   1.748   1.003
 6688SOL     OW20962   0.833   4.059   2.831
 6688SOL    HW120963   0.882   4.023   2.751
 6688SOL    HW220964   0.742   4.090   2.804
 6689SOL     OW20965   5.057   4.642   0.045
 6689SOL    HW120966   5.077   4.596   0.132
 6689SOL    HW220967   5.111   4.600   6.992
 6690SOL     OW20968   1.974   2.880   0.695
 6690SOL    HW120969   2.051   2.932   0.731
 6690SOL    HW220970   1.959   2.799   0.752
 6691SOL     OW20971   2.275   4.795   1.513
 6691SOL    HW120972   2.241   4.883   1.478
 6691SOL    HW220973   2.370   4.805   1.543
 6692SOL     OW20974   3.510   4.208   5.053
 6692SOL    HW120975   3.524   4.283   5.117
 6692SOL    HW220976   3.581   4.212   4.982
 6693SOL     OW20977   4.297   3.469   5.345
 6693SOL    HW120978   4.288   3.555   5.296
 6693SOL    HW220979   4.389   3.431   5.330
 6694SOL     OW20980   4.157   6.396   1.057
 6694SOL    HW120981   4.214   6.473   1.029
 6694SOL    HW220982   4.137   6.339   0.977
 6695SOL     OW20983   1.268   1.420   6.627
 6695SOL    HW120984   1.357   1.433   6.670
 6695SOL    HW220985   1.233   1.509   6.596
 6696SOL     OW20986   2.156   3.151   1.931
 6696SOL    HW120987   2.059   3.136   1.912
 6696SOL    HW220988   2.190   3.224   1.871
 6697SOL     OW20989   4.603   1.336   3.196
 6697SOL    HW120990   4.703   1.330   3.200
 6697SOL    HW220991   4.567   1.258   3.143
 6698SOL     OW20992   4.017   3.418   0.063
 6698SOL    HW120993   4.073   3.347   0.020
 6698SOL    HW220994   4.053   3.508   0.040
 6699SOL     OW20995   1.963   4.781   0.443
 6699SOL    HW120996   2.048   4.813   0.485
 6699SOL    HW220997   1.981   4.754   0.348
 6700SOL     OW20998   0.382   5.832   0.903
 6700SOL    HW120999   0.380   5.790   0.812
 6700SOL    HW221000   0.416   5.925   0.895
 6701SOL     OW21001   0.503   1.669   0.703
 6701SOL    HW121002   0.408   1.691   0.678
 6701SOL    HW221003   0.563   1.692   0.626
 6702SOL     OW21004   2.357   1.403   1.537
 6702SOL    HW121005   2.302   1.473   1.494
 6702SOL    HW221006   2.441   1.389   1.485
 6703SOL     OW21007   6.942   1.504   6.710
 6703SOL    HW121008   6.964   1.422   6.763
 6703SOL    HW221009   6.990   1.583   6.749
 6704SOL     OW21010   4.759   2.180   2.454
 6704SOL    HW121011   4.823   2.148   2.523
 6704SOL    HW221012   4.793   2.153   2.363
 6705SOL     OW21013   5.644   2.104   0.431
 6705SOL    HW121014   5.664   2.200   0.410
 6705SOL    HW221015   5.625   2.055   0.346
 6706SOL     OW21016   0.712   4.511   6.492
 6706SOL    HW121017   0.744   4.538   6.400
 6706SOL    HW221018   0.786   4.465   6.540
 6707SOL     OW21019   1.271   5.552   3.010
 6707SOL    HW121020   1.189   5.609   3.013
 6707SOL    HW221021   1.300   5.530   3.103
 6708SOL     OW21022   2.386   6.254   2.167
 6708SOL    HW121023   2.345   6.313   2.236
 6708SOL    HW221024   2.364   6.158   2.187
 6709SOL     OW21025   4.198   1.344   2.329
 6709SOL    HW121026   4.169   1.302   2.415
 6709SOL    HW221027   4.118   1.361   2.272
 6710SOL     OW21028   3.194   2.668   0.248
 6710SOL    HW121029   3.165   2.729   0.175
 6710SOL    HW221030   3.291   2.682   0.267
 6711SOL     OW21031   3.924   4.046   0.103
 6711SOL    HW121032   3.951   4.098   0.022
 6711SOL    HW221033   3.842   3.993   0.083
 6712SOL     OW21034   3.856   6.186   6.791
 6712SOL    HW121035   3.948   6.177   6.751
 6712SOL    HW221036   3.841   6.281   6.818
 6713SOL     OW21037   2.194   2.409   1.454
 6713SOL    HW121038   2.207   2.488   1.514
 6713SOL    HW221039   2.183   2.326   1.508
 6714SOL     OW21040   5.718   0.430   4.721
 6714SOL    HW121041   5.680   0.379   4.798
 6714SOL    HW221042   5.657   0.506   4.698
 6715SOL     OW21043   0.461   0.937   0.707
 6715SOL    HW121044   0.533   0.908   0.644
 6715SOL    HW221045   0.502   0.966   0.794
 6716SOL     OW21046   2.096   5.397   1.411
 6716SOL    HW121047   2.023   5.444   1.360
 6716SOL    HW221048   2.062   5.311   1.447
 6717SOL     OW21049   4.215   1.922   6.672
 6717SOL    HW121050   4.131   1.939   6.621
 6717SOL    HW221051   4.250   2.008   6.708
 6718SOL     OW21052   3.082   0.430   0.872
 6718SOL    HW121053   2.999   0.450   0.924
 6718SOL    HW221054   3.162   0.459   0.924
 6719SOL     OW21055   6.604   6.524   5.296
 6719SOL    HW121056   6.652   6.451   5.344
 6719SOL    HW221057   6.530   6.485   5.241
 6720SOL     OW21058   1.735   5.273   1.199
 6720SOL    HW121059   1.741   5.268   1.299
 6720SOL    HW221060   1.659   5.215   1.168
 6721SOL     OW21061   5.234   6.593   3.624
 6721SOL    HW121062   5.267   6.526   3.558
 6721SOL    HW221063   5.252   6.560   3.717
 6722SOL     OW21064   4.630   2.763   6.529
 6722SOL    HW121065   4.717   2.754   6.576
 6722SOL    HW221066   4.604   2.859   6.524
 6723SOL     OW21067   3.966   6.473   3.307
 6723SOL    HW121068   3.901   6.402   3.282
 6723SOL    HW221069   3.916   6.557   3.331
 6724SOL     OW21070   3.433   4.860   5.287
 6724SOL    HW121071   3.411   4.956   5.266
 6724SOL    HW221072   3.392   4.800   5.219
 6725SOL     OW21073   0.379   5.111   2.461
 6725SOL    HW121074   0.349   5.202   2.487
 6725SOL    HW221075   0.328   5.080   2.380
 6726SOL     OW21076   2.559   2.078   3.509
 6726SOL    HW121077   2.515   2.161   3.542
 6726SOL    HW221078   2.571   2.084   3.410
 6727SOL     OW21079   3.823   3.415   6.373
 6727SOL    HW121080   3.785   3.390   6.462
 6727SOL    HW221081   3.772   3.493   6.336
 6728SOL     OW21082   4.027   1.638   3.742
 6728SOL    HW121083   3.947   1.582   3.765
 6728SOL    HW221084   3.997   1.723   3.699
 6729SOL     OW21085   5.756   0.691   2.746
 6729SOL    HW121086   5.823   0.690   2.672
 6729SOL    HW221087   5.744   0.784   2.780
 6730SOL     OW21088   2.395   1.100   6.904
 6730SOL    HW121089   2.352   1.186   6.879
 6730SOL    HW221090   2.493   1.113   6.916
 6731SOL     OW21091   2.724   4.610   1.696
 6731SOL    HW121092   2.789   4.566   1.759
 6731SOL    HW221093   2.674   4.681   1.745
 6732SOL     OW21094   2.509   5.829   0.943
 6732SOL    HW121095   2.545   5.800   1.031
 6732SOL    HW221096   2.575   5.808   0.871
 6733SOL     OW21097   5.238   5.844   5.318
 6733SOL    HW121098   5.326   5.888   5.303
 6733SOL    HW221099   5.173   5.874   5.248
 6734SOL     OW21100   2.491   3.644   5.346
 6734SOL    HW121101   2.423   3.599   5.289
 6734SOL    HW221102   2.483   3.611   5.440
 6735SOL     OW21103   6.746   5.532   5.603
 6735SOL    HW121104   6.746   5.450   5.659
 6735SOL    HW221105   6.655   5.572   5.602
 6736SOL     OW21106   2.112   3.406   2.251
 6736SOL    HW121107   2.149   3.314   2.265
 6736SOL    HW221108   2.148   3.444   2.166
 6737SOL     OW21109   2.353   0.685   1.625
 6737SOL    HW121110   2.416   0.623   1.671
 6737SOL    HW221111   2.315   0.749   1.691
 6738SOL     OW21112   3.326   0.854   2.654
 6738SOL    HW121113   3.258   0.820   2.719
 6738SOL    HW221114   3.316   0.953   2.645
 6739SOL     OW21115   3.913   6.627   4.692
 6739SOL    HW121116   3.925   6.676   4.778
 6739SOL    HW221117   3.815   6.622   4.671
 6740SOL     OW21118   0.646   1.648   4.259
 6740SOL    HW121119   0.623   1.745   4.266
 6740SOL    HW221120   0.570   1.593   4.292
 6741SOL     OW21121   6.283   0.044   6.278
 6741SOL    HW121122   6.217   0.105   6.233
 6741SOL    HW221123   6.238   6.977   6.299
 6742SOL     OW21124   6.236   5.416   6.178
 6742SOL    HW121125   6.140   5.398   6.153
 6742SOL    HW221126   6.294   5.343   6.141
 6743SOL     OW21127   4.685   3.229   1.160
 6743SOL    HW121128   4.687   3.268   1.068
 6743SOL    HW221129   4.598   3.181   1.174
 6744SOL     OW21130   4.795   4.761   5.236
 6744SOL    HW121131   4.798   4.675   5.185
 6744SOL    HW221132   4.816   4.743   5.332
 6745SOL     OW21133   0.809   4.277   3.740
 6745SOL    HW121134   0.837   4.259   3.835
 6745SOL    HW221135   0.736   4.346   3.740
 6746SOL     OW21136   0.205   1.486   0.764
 6746SOL    HW121137   0.248   1.479   0.854
 6746SOL    HW221138   0.244   1.564   0.714
 6747SOL     OW21139   5.567   5.948   5.620
 6747SOL    HW121140   5.596   5.864   5.666
 6747SOL    HW221141   5.512   6.003   5.682
 6748SOL     OW21142   0.430   0.044   1.876
 6748SOL    HW121143   0.512   7.018   1.911
 6748SOL    HW221144   0.349   7.011   1.899
 6749SOL     OW21145   4.121   6.245   0.821
 6749SOL    HW121146   4.054   6.274   0.753
 6749SOL    HW221147   4.120   6.145   0.829
 6750SOL     OW21148   2.700   3.187   5.301
 6750SOL    HW121149   2.676   3.149   5.390
 6750SOL    HW221150   2.664   3.127   5.229
 6751SOL     OW21151   3.004   1.686   5.313
 6751SOL    HW121152   3.066   1.727   5.380
 6751SOL    HW221153   2.928   1.749   5.295
 6752SOL     OW21154   6.020   1.687   0.471
 6752SOL    HW121155   6.070   1.609   0.433
 6752SOL    HW221156   6.069   1.771   0.451
 6753SOL     OW21157   4.755   1.880   6.661
 6753SOL    HW121158   4.699   1.931   6.726
 6753SOL    HW221159   4.720   1.787   6.652
 6754SOL     OW21160   5.849   1.068   6.809
 6754SOL    HW121161   5.765   1.072   6.755
 6754SOL    HW221162   5.828   1.038   6.902
 6755SOL     OW21163   4.876   2.087   3.685
 6755SOL    HW121164   4.960   2.110   3.636
 6755SOL    HW221165   4.811   2.046   3.621
 6756SOL     OW21166   5.199   4.802   4.469
 6756SOL    HW121167   5.105   4.773   4.449
 6756SOL    HW221168   5.259   4.773   4.394
 6757SOL     OW21169   6.096   5.566   1.970
 6757SOL    HW121170   6.066   5.572   2.065
 6757SOL    HW221171   6.057   5.642   1.918
 6758SOL     OW21172   4.715   2.482   2.171
 6758SOL    HW121173   4.793   2.544   2.174
 6758SOL    HW221174   4.744   2.391   2.203
 6759SOL     OW21175   0.112   4.609   3.170
 6759SOL    HW121176   0.171   4.673   3.219
 6759SOL    HW221177   0.027   4.655   3.144
 6760SOL     OW21178   6.593   4.109   4.595
 6760SOL    HW121179   6.503   4.086   4.556
 6760SOL    HW221180   6.580   4.160   4.680
 6761SOL     OW21181   4.998   3.275   6.119
 6761SOL    HW121182   4.976   3.314   6.209
 6761SOL    HW221183   4.929   3.207   6.094
 6762SOL     OW21184   6.114   4.697   4.294
 6762SOL    HW121185   6.022   4.661   4.277
 6762SOL    HW221186   6.133   4.696   4.392
 6763SOL     OW21187   5.586   6.528   5.929
 6763SOL    HW121188   5.652   6.458   5.905
 6763SOL    HW221189   5.599   6.608   5.870
 6764SOL     OW21190   1.722   3.903   6.477
 6764SOL    HW121191   1.792   3.878   6.410
 6764SOL    HW221192   1.677   3.987   6.448
 6765SOL     OW21193   5.984   4.885   3.016
 6765SOL    HW121194   6.005   4.959   3.081
 6765SOL    HW221195   5.888   4.890   2.990
 6766SOL     OW21196   1.432   0.757   5.669
 6766SOL    HW121197   1.402   0.809   5.749
 6766SOL    HW221198   1.371   0.680   5.654
 6767SOL     OW21199   0.316   2.719   6.653
 6767SOL    HW121200   0.371   2.795   6.689
 6767SOL    HW221201   0.254   2.754   6.583
 6768SOL     OW21202   0.200   0.311   5.109
 6768SOL    HW121203   0.168   0.356   5.193
 6768SOL    HW221204   0.121   0.276   5.059
 6769SOL     OW21205   2.000   3.253   5.767
 6769SOL    HW121206   2.090   3.289   5.791
 6769SOL    HW221207   1.972   3.289   5.678
 6770SOL     OW21208   0.743   1.875   3.475
 6770SOL    HW121209   0.648   1.889   3.449
 6770SOL    HW221210   0.755   1.899   3.572
 6771SOL     OW21211   4.321   1.627   3.095
 6771SOL    HW121212   4.244   1.568   3.118
 6771SOL    HW221213   4.358   1.600   3.007
 6772SOL     OW21214   6.986   0.650   1.715
 6772SOL    HW121215   6.909   0.687   1.768
 6772SOL    HW221216   6.977   0.551   1.707
 6773SOL     OW21217   1.338   6.712   1.305
 6773SOL    HW121218   1.307   6.748   1.217
 6773SOL    HW221219   1.389   6.628   1.290
 6774SOL     OW21220   2.722   2.640   5.744
 6774SOL    HW121221   2.818   2.629   5.770
 6774SOL    HW221222   2.676   2.551   5.744
 6775SOL     OW21223   0.496   2.682   4.571
 6775SOL    HW121224   0.559   2.659   4.645
 6775SOL    HW221225   0.547   2.718   4.493
 6776SOL     OW21226   3.985   3.597   2.959
 6776SOL    HW121227   3.979   3.635   2.867
 6776SOL    HW221228   4.008   3.670   3.024
 6777SOL     OW21229   6.447   6.213   6.477
 6777SOL    HW121230   6.379   6.139   6.466
 6777SOL    HW221231   6.438   6.278   6.402
 6778SOL     OW21232   5.721   5.844   2.053
 6778SOL    HW121233   5.744   5.841   1.956
 6778SOL    HW221234   5.775   5.915   2.098
 6779SOL     OW21235   4.977   3.814   6.120
 6779SOL    HW121236   4.952   3.910   6.113
 6779SOL    HW221237   4.988   3.775   6.029
 6780SOL     OW21238   3.602   2.062   2.643
 6780SOL    HW121239   3.695   2.099   2.645
 6780SOL    HW221240   3.601   1.976   2.592
 6781SOL     OW21241   6.546   1.977   3.177
 6781SOL    HW121242   6.539   1.880   3.153
 6781SOL    HW221243   6.565   1.987   3.274
 6782SOL     OW21244   6.601   1.724   3.127
 6782SOL    HW121245   6.576   1.698   3.034
 6782SOL    HW221246   6.701   1.725   3.136
 6783SOL     OW21247   0.457   5.384   5.814
 6783SOL    HW121248   0.426   5.407   5.722
 6783SOL    HW221249   0.553   5.357   5.811
 6784SOL     OW21250   2.226   3.938   1.789
 6784SOL    HW121251   2.281   4.008   1.833
 6784SOL    HW221252   2.275   3.904   1.708
 6785SOL     OW21253   5.681   5.270   4.350
 6785SOL    HW121254   5.700   5.368   4.338
 6785SOL    HW221255   5.689   5.224   4.262
 6786SOL     OW21256   5.633   2.042   5.895
 6786SOL    HW121257   5.569   2.017   5.823
 6786SOL    HW221258   5.587   2.034   5.984
 6787SOL     OW21259   2.885   2.072   0.283
 6787SOL    HW121260   2.807   2.085   0.222
 6787SOL    HW221261   2.906   1.974   0.290
 6788SOL     OW21262   0.270   4.052   2.353
 6788SOL    HW121263   0.261   3.995   2.271
 6788SOL    HW221264   0.245   3.999   2.434
 6789SOL     OW21265   5.142   4.647   3.302
 6789SOL    HW121266   5.156   4.551   3.327
 6789SOL    HW221267   5.045   4.670   3.313
 6790SOL     OW21268   0.635   5.235   6.535
 6790SOL    HW121269   0.708   5.217   6.600
 6790SOL    HW221270   0.672   5.234   6.442
 6791SOL     OW21271   2.360   0.202   3.001
 6791SOL    HW121272   2.451   0.192   2.960
 6791SOL    HW221273   2.367   0.194   3.100
 6792SOL     OW21274   3.922   0.460   5.593
 6792SOL    HW121275   3.877   0.373   5.612
 6792SOL    HW221276   4.018   0.444   5.570
 6793SOL     OW21277   1.909   3.749   6.016
 6793SOL    HW121278   1.951   3.666   6.053
 6793SOL    HW221279   1.930   3.826   6.076
 6794SOL     OW21280   5.912   2.325   5.184
 6794SOL    HW121281   5.983   2.395   5.185
 6794SOL    HW221282   5.877   2.312   5.277
 6795SOL     OW21283   1.156   0.670   1.422
 6795SOL    HW121284   1.168   0.624   1.510
 6795SOL    HW221285   1.183   0.608   1.348
 6796SOL     OW21286   6.275   2.081   2.840
 6796SOL    HW121287   6.349   2.077   2.773
 6796SOL    HW221288   6.266   1.993   2.886
 6797SOL     OW21289   0.406   3.247   1.335
 6797SOL    HW121290   0.312   3.216   1.346
 6797SOL    HW221291   0.469   3.179   1.373
 6798SOL     OW21292   5.333   0.587   1.965
 6798SOL    HW121293   5.245   0.599   2.010
 6798SOL    HW221294   5.329   0.510   1.902
 6799SOL     OW21295   6.559   0.207   3.615
 6799SOL    HW121296   6.618   0.278   3.577
 6799SOL    HW221297   6.586   0.188   3.709
 6800SOL     OW21298   6.145   3.122   1.528
 6800SOL    HW121299   6.193   3.114   1.615
 6800SOL    HW221300   6.172   3.048   1.468
 6801SOL     OW21301   0.738   6.824   6.445
 6801SOL    HW121302   0.766   6.839   6.350
 6801SOL    HW221303   0.659   6.764   6.448
 6802SOL     OW21304   3.291   5.154   1.933
 6802SOL    HW121305   3.267   5.057   1.940
 6802SOL    HW221306   3.224   5.201   1.875
 6803SOL     OW21307   5.320   5.366   6.402
 6803SOL    HW121308   5.275   5.277   6.397
 6803SOL    HW221309   5.297   5.420   6.321
 6804SOL     OW21310   3.446   4.870   2.667
 6804SOL    HW121311   3.506   4.865   2.587
 6804SOL    HW221312   3.492   4.830   2.746
 6805SOL     OW21313   0.002   4.319   4.621
 6805SOL    HW121314   0.085   4.266   4.635
 6805SOL    HW221315   6.967   4.276   4.549
 6806SOL     OW21316   6.296   2.742   1.696
 6806SOL    HW121317   6.226   2.731   1.625
 6806SOL    HW221318   6.272   2.821   1.754
 6807SOL     OW21319   3.055   3.924   2.126
 6807SOL    HW121320   2.976   3.974   2.163
 6807SOL    HW221321   3.030   3.881   2.040
 6808SOL     OW21322   3.327   1.036   3.930
 6808SOL    HW121323   3.327   0.939   3.905
 6808SOL    HW221324   3.280   1.089   3.860
 6809SOL     OW21325   5.989   3.002   6.587
 6809SOL    HW121326   6.058   3.069   6.561
 6809SOL    HW221327   6.030   2.911   6.590
 6810SOL     OW21328   2.958   0.986   4.766
 6810SOL    HW121329   2.978   0.888   4.765
 6810SOL    HW221330   2.966   1.023   4.674
 6811SOL     OW21331   6.191   1.405   0.108
 6811SOL    HW121332   6.218   1.471   0.037
 6811SOL    HW221333   6.172   1.317   0.066
 6812SOL     OW21334   3.651   4.184   5.466
 6812SOL    HW121335   3.639   4.270   5.516
 6812SOL    HW221336   3.745   4.178   5.433
 6813SOL     OW21337   6.794   3.240   2.056
 6813SOL    HW121338   6.735   3.188   1.993
 6813SOL    HW221339   6.880   3.192   2.068
 6814SOL     OW21340   5.438   0.892   6.922
 6814SOL    HW121341   5.492   0.915   7.003
 6814SOL    HW221342   5.356   0.949   6.919
 6815SOL     OW21343   0.974   5.199   6.177
 6815SOL    HW121344   0.986   5.239   6.086
 6815SOL    HW221345   1.041   5.240   6.240
 6816SOL     OW21346   6.999   0.219   3.192
 6816SOL    HW121347   0.019   0.235   3.282
 6816SOL    HW221348   0.027   0.275   3.124
 6817SOL     OW21349   4.193   2.503   1.436
 6817SOL    HW121350   4.159   2.505   1.342
 6817SOL    HW221351   4.132   2.446   1.492
 6818SOL     OW21352   1.370   6.434   5.357
 6818SOL    HW121353   1.415   6.470   5.439
 6818SOL    HW221354   1.271   6.435   5.370
 6819SOL     OW21355   4.774   4.483   1.976
 6819SOL    HW121356   4.785   4.543   2.055
 6819SOL    HW221357   4.685   4.439   1.981
 6820SOL     OW21358   2.983   5.321   1.493
 6820SOL    HW121359   3.063   5.301   1.437
 6820SOL    HW221360   2.935   5.236   1.514
 6821SOL     OW21361   3.848   2.589   5.359
 6821SOL    HW121362   3.891   2.499   5.360
 6821SOL    HW221363   3.882   2.642   5.281
 6822SOL     OW21364   6.279   3.215   5.775
 6822SOL    HW121365   6.188   3.228   5.814
 6822SOL    HW221366   6.323   3.304   5.761
 6823SOL     OW21367   6.902   2.452   5.214
 6823SOL    HW121368   6.972   2.457   5.143
 6823SOL    HW221369   6.918   2.371   5.271
 6824SOL     OW21370   0.953   6.703   5.300
 6824SOL    HW121371   0.974   6.778   5.363
 6824SOL    HW221372   1.030   6.689   5.238
 6825SOL     OW21373   4.379   4.658   0.642
 6825SOL    HW121374   4.286   4.632   0.618
 6825SOL    HW221375   4.441   4.581   0.627
 6826SOL     OW21376   6.420   6.494   3.727
 6826SOL    HW121377   6.348   6.426   3.739
 6826SOL    HW221378   6.509   6.453   3.749
 6827SOL     OW21379   4.906   5.727   4.879
 6827SOL    HW121380   4.912   5.641   4.930
 6827SOL    HW221381   4.873   5.799   4.940
 6828SOL     OW21382   3.151   2.138   2.365
 6828SOL    HW121383   3.056   2.141   2.334
 6828SOL    HW221384   3.174   2.225   2.407
 6829SOL     OW21385   3.846   0.170   3.158
 6829SOL    HW121386   3.914   0.116   3.206
 6829SOL    HW221387   3.888   0.254   3.122
 6830SOL     OW21388   4.829   4.980   2.770
 6830SOL    HW121389   4.824   4.940   2.862
 6830SOL    HW221390   4.855   4.910   2.704
 6831SOL     OW21391   1.674   2.374   6.016
 6831SOL    HW121392   1.619   2.328   6.085
 6831SOL    HW221393   1.640   2.351   5.925
 6832SOL     OW21394   2.670   2.179   6.322
 6832SOL    HW121395   2.687   2.270   6.284
 6832SOL    HW221396   2.743   2.156   6.387
 6833SOL     OW21397   3.749   5.395   6.042
 6833SOL    HW121398   3.760   5.446   6.128
 6833SOL    HW221399   3.726   5.300   6.062
 6834SOL     OW21400   6.521   6.576   6.968
 6834SOL    HW121401   6.536   6.494   6.913
 6834SOL    HW221402   6.554   6.561   0.041
 6835SOL     OW21403   2.703   1.044   4.832
 6835SOL    HW121404   2.690   1.040   4.931
 6835SOL    HW221405   2.799   1.026   4.811
 6836SOL     OW21406   2.094   4.515   6.533
 6836SOL    HW121407   2.046   4.603   6.538
 6836SOL    HW221408   2.046   4.448   6.590
 6837SOL     OW21409   6.482   0.821   2.123
 6837SOL    HW121410   6.437   0.886   2.062
 6837SOL    HW221411   6.524   0.870   2.199
 6838SOL     OW21412   3.391   4.046   4.845
 6838SOL    HW121413   3.393   3.958   4.893
 6838SOL    HW221414   3.416   4.119   4.908
 6839SOL     OW21415   6.416   3.363   4.812
 6839SOL    HW121416   6.336   3.423   4.813
 6839SOL    HW221417   6.408   3.297   4.738
 6840SOL     OW21418   2.777   6.710   4.922
 6840SOL    HW121419   2.783   6.718   5.022
 6840SOL    HW221420   2.860   6.667   4.887
 6841SOL     OW21421   5.123   6.191   1.183
 6841SOL    HW121422   5.210   6.216   1.225
 6841SOL    HW221423   5.124   6.216   1.086
 6842SOL     OW21424   0.460   3.660   4.592
 6842SOL    HW121425   0.521   3.686   4.517
 6842SOL    HW221426   0.466   3.562   4.608
 6843SOL     OW21427   3.885   2.230   1.740
 6843SOL    HW121428   3.854   2.146   1.696
 6843SOL    HW221429   3.805   2.281   1.774
 6844SOL     OW21430   4.073   5.612   4.219
 6844SOL    HW121431   4.051   5.708   4.236
 6844SOL    HW221432   4.082   5.596   4.120
 6845SOL     OW21433   4.117   4.499   0.844
 6845SOL    HW121434   4.182   4.566   0.880
 6845SOL    HW221435   4.107   4.511   0.746
 6846SOL     OW21436   3.318   2.963   2.872
 6846SOL    HW121437   3.410   2.981   2.839
 6846SOL    HW221438   3.266   3.049   2.872
 6847SOL     OW21439   5.701   3.171   2.201
 6847SOL    HW121440   5.695   3.092   2.141
 6847SOL    HW221441   5.789   3.217   2.189
 6848SOL     OW21442   6.714   6.757   3.311
 6848SOL    HW121443   6.625   6.718   3.286
 6848SOL    HW221444   6.702   6.822   3.385
 6849SOL     OW21445   3.661   6.734   3.834
 6849SOL    HW121446   3.568   6.707   3.858
 6849SOL    HW221447   3.683   6.821   3.878
 6850SOL     OW21448   5.402   3.313   1.667
 6850SOL    HW121449   5.307   3.281   1.667
 6850SOL    HW221450   5.409   3.395   1.609
 6851SOL     OW21451   1.918   5.899   5.616
 6851SOL    HW121452   1.885   5.993   5.614
 6851SOL    HW221453   1.901   5.855   5.528
 6852SOL     OW21454   0.138   4.693   2.229
 6852SOL    HW121455   0.152   4.640   2.313
 6852SOL    HW221456   0.108   4.785   2.253
 6853SOL     OW21457   6.568   3.531   5.563
 6853SOL    HW121458   6.607   3.574   5.481
 6853SOL    HW221459   6.641   3.489   5.616
 6854SOL     OW21460   0.225   1.995   6.406
 6854SOL    HW121461   0.185   2.065   6.346
 6854SOL    HW221462   0.254   1.917   6.350
 6855SOL     OW21463   3.598   6.211   1.072
 6855SOL    HW121464   3.645   6.156   1.004
 6855SOL    HW221465   3.665   6.257   1.131
 6856SOL     OW21466   6.829   3.838   5.701
 6856SOL    HW121467   6.790   3.803   5.616
 6856SOL    HW221468   6.881   3.921   5.682
 6857SOL     OW21469   4.493   1.780   5.851
 6857SOL    HW121470   4.541   1.698   5.819
 6857SOL    HW221471   4.484   1.845   5.775
 6858SOL     OW21472   3.490   2.906   5.162
 6858SOL    HW121473   3.532   2.846   5.231
 6858SOL    HW221474   3.561   2.955   5.112
 6859SOL     OW21475   3.831   0.161   1.120
 6859SOL    HW121476   3.790   0.244   1.159
 6859SOL    HW221477   3.796   0.147   1.028
 6860SOL     OW21478   4.833   4.511   0.393
 6860SOL    HW121479   4.809   4.596   0.439
 6860SOL    HW221480   4.777   4.436   0.429
 6861SOL     OW21481   6.123   4.922   0.391
 6861SOL    HW121482   6.164   4.935   0.301
 6861SOL    HW221483   6.119   4.824   0.412
 6862SOL     OW21484   3.720   5.915   4.184
 6862SOL    HW121485   3.634   5.878   4.219
 6862SOL    HW221486   3.702   5.961   4.096
 6863SOL     OW21487   0.173   3.191   4.324
 6863SOL    HW121488   0.097   3.193   4.259
 6863SOL    HW221489   0.200   3.285   4.346
 6864SOL     OW21490   4.333   5.674   5.203
 6864SOL    HW121491   4.328   5.759   5.151
 6864SOL    HW221492   4.427   5.657   5.230
 6865SOL     OW21493   6.642   4.233   4.145
 6865SOL    HW121494   6.724   4.178   4.160
 6865SOL    HW221495   6.668   4.327   4.122
 6866SOL     OW21496   0.279   3.494   2.134
 6866SOL    HW121497   0.289   3.539   2.223
 6866SOL    HW221498   0.182   3.480   2.115
 6867SOL     OW21499   2.207   4.324   2.600
 6867SOL    HW121500   2.121   4.310   2.649
 6867SOL    HW221501   2.189   4.356   2.507
 6868SOL     OW21502   2.161   5.493   5.124
 6868SOL    HW121503   2.182   5.547   5.205
 6868SOL    HW221504   2.110   5.411   5.151
 6869SOL     OW21505   5.852   3.385   5.673
 6869SOL    HW121506   5.810   3.470   5.706
 6869SOL    HW221507   5.780   3.324   5.639
 6870SOL     OW21508   5.041   4.176   2.852
 6870SOL    HW121509   4.990   4.219   2.777
 6870SOL    HW221510   5.072   4.086   2.823
 6871SOL     OW21511   5.329   6.616   2.229
 6871SOL    HW121512   5.357   6.527   2.266
 6871SOL    HW221513   5.335   6.685   2.300
 6872SOL     OW21514   2.705   3.122   6.287
 6872SOL    HW121515   2.751   3.163   6.366
 6872SOL    HW221516   2.635   3.185   6.253
 6873SOL     OW21517   4.992   4.656   5.937
 6873SOL    HW121518   4.909   4.631   5.886
 6873SOL    HW221519   5.062   4.688   5.873
 6874SOL     OW21520   0.840   2.507   5.643
 6874SOL    HW121521   0.886   2.463   5.566
 6874SOL    HW221522   0.852   2.606   5.637
 6875SOL     OW21523   3.077   2.128   3.790
 6875SOL    HW121524   3.125   2.129   3.878
 6875SOL    HW221525   2.979   2.116   3.806
 6876SOL     OW21526   3.300   6.043   6.493
 6876SOL    HW121527   3.244   6.087   6.423
 6876SOL    HW221528   3.347   5.964   6.454
 6877SOL     OW21529   2.450   3.860   6.458
 6877SOL    HW121530   2.390   3.923   6.407
 6877SOL    HW221531   2.543   3.896   6.458
 6878SOL     OW21532   1.302   1.966   5.057
 6878SOL    HW121533   1.362   2.044   5.039
 6878SOL    HW221534   1.332   1.887   5.003
 6879SOL     OW21535   0.950   1.812   5.845
 6879SOL    HW121536   1.021   1.745   5.870
 6879SOL    HW221537   0.983   1.868   5.769
 6880SOL     OW21538   1.872   4.362   4.781
 6880SOL    HW121539   1.846   4.426   4.709
 6880SOL    HW221540   1.971   4.363   4.793
 6881SOL     OW21541   6.689   4.155   1.371
 6881SOL    HW121542   6.719   4.069   1.413
 6881SOL    HW221543   6.642   4.211   1.440
 6882SOL     OW21544   1.986   0.016   5.521
 6882SOL    HW121545   1.946   0.105   5.543
 6882SOL    HW221546   2.072   0.005   5.571
 6883SOL     OW21547   3.665   6.061   1.711
 6883SOL    HW121548   3.628   5.968   1.715
 6883SOL    HW221549   3.594   6.124   1.682
 6884SOL     OW21550   2.793   4.728   3.012
 6884SOL    HW121551   2.722   4.677   3.060
 6884SOL    HW221552   2.779   4.720   2.913
 6885SOL     OW21553   3.033   5.270   4.403
 6885SOL    HW121554   3.028   5.194   4.337
 6885SOL    HW221555   2.995   5.241   4.490
 6886SOL     OW21556   5.695   2.106   2.825
 6886SOL    HW121557   5.770   2.043   2.844
 6886SOL    HW221558   5.731   2.190   2.786
 6887SOL     OW21559   6.197   0.593   4.901
 6887SOL    HW121560   6.265   0.551   4.840
 6887SOL    HW221561   6.132   0.523   4.932
 6888SOL     OW21562   5.786   6.175   4.337
 6888SOL    HW121563   5.792   6.274   4.350
 6888SOL    HW221564   5.833   6.150   4.252
 6889SOL     OW21565   1.238   4.467   5.865
 6889SOL    HW121566   1.269   4.530   5.794
 6889SOL    HW221567   1.301   4.390   5.870
 6890SOL     OW21568   2.445   0.495   0.410
 6890SOL    HW121569   2.369   0.430   0.405
 6890SOL    HW221570   2.449   0.534   0.502
 6891SOL     OW21571   3.441   5.031   3.852
 6891SOL    HW121572   3.420   4.995   3.943
 6891SOL    HW221573   3.508   4.971   3.807
 6892SOL     OW21574   4.095   0.760   4.011
 6892SOL    HW121575   4.137   0.669   4.019
 6892SOL    HW221576   4.014   0.754   3.954
 6893SOL     OW21577   5.110   6.498   2.119
 6893SOL    HW121578   5.208   6.480   2.132
 6893SOL    HW221579   5.057   6.433   2.174
 6894SOL     OW21580   6.229   4.638   6.257
 6894SOL    HW121581   6.253   4.642   6.160
 6894SOL    HW221582   6.146   4.583   6.268
 6895SOL     OW21583   3.802   5.683   6.484
 6895SOL    HW121584   3.753   5.607   6.528
 6895SOL    HW221585   3.797   5.764   6.543
 6896SOL     OW21586   4.452   0.356   2.765
 6896SOL    HW121587   4.479   0.407   2.683
 6896SOL    HW221588   4.496   0.396   2.846
 6897SOL     OW21589   3.259   2.181   0.490
 6897SOL    HW121590   3.171   2.225   0.472
 6897SOL    HW221591   3.329   2.251   0.504
 6898SOL     OW21592   3.910   2.157   2.397
 6898SOL    HW121593   3.979   2.167   2.325
 6898SOL    HW221594   3.828   2.116   2.358
 6899SOL     OW21595   5.366   6.234   6.780
 6899SOL    HW121596   5.287   6.191   6.823
 6899SOL    HW221597   5.419   6.164   6.732
 6900SOL     OW21598   3.966   1.098   5.460
 6900SOL    HW121599   4.048   1.053   5.495
 6900SOL    HW221600   3.895   1.098   5.530
 6901SOL     OW21601   1.552   0.806   6.942
 6901SOL    HW121602   1.616   0.759   7.003
 6901SOL    HW221603   1.481   0.850   6.997
 6902SOL     OW21604   6.424   5.655   0.649
 6902SOL    HW121605   6.504   5.687   0.699
 6902SOL    HW221606   6.452   5.615   0.562
 6903SOL     OW21607   4.821   3.629   1.072
 6903SOL    HW121608   4.839   3.611   0.975
 6903SOL    HW221609   4.890   3.582   1.127
 6904SOL     OW21610   0.397   1.282   3.186
 6904SOL    HW121611   0.480   1.252   3.139
 6904SOL    HW221612   0.383   1.226   3.268
 6905SOL     OW21613   5.294   6.134   0.365
 6905SOL    HW121614   5.245   6.129   0.278
 6905SOL    HW221615   5.392   6.124   0.349
 6906SOL     OW21616   4.580   6.990   3.846
 6906SOL    HW121617   4.620   0.054   3.884
 6906SOL    HW221618   4.488   6.977   3.885
 6907SOL     OW21619   3.632   2.035   1.512
 6907SOL    HW121620   3.718   2.077   1.543
 6907SOL    HW221621   3.561   2.050   1.581
 6908SOL     OW21622   0.669   6.917   6.156
 6908SOL    HW121623   0.578   6.904   6.197
 6908SOL    HW221624   0.659   6.950   6.062
 6909SOL     OW21625   4.266   3.500   6.863
 6909SOL    HW121626   4.177   3.495   6.818
 6909SOL    HW221627   4.273   3.586   6.913
 6910SOL     OW21628   6.914   1.467   2.318
 6910SOL    HW121629   6.823   1.473   2.360
 6910SOL    HW221630   6.979   1.429   2.384
 6911SOL     OW21631   4.142   1.240   4.723
 6911SOL    HW121632   4.166   1.199   4.635
 6911SOL    HW221633   4.135   1.168   4.792
 6912SOL     OW21634   4.780   5.642   0.860
 6912SOL    HW121635   4.778   5.557   0.912
 6912SOL    HW221636   4.841   5.632   0.782
 6913SOL     OW21637   5.615   5.101   5.254
 6913SOL    HW121638   5.621   5.055   5.165
 6913SOL    HW221639   5.599   5.034   5.326
 6914SOL     OW21640   5.569   5.350   0.788
 6914SOL    HW121641   5.618   5.329   0.703
 6914SOL    HW221642   5.554   5.448   0.795
 6915SOL     OW21643   0.895   5.388   1.195
 6915SOL    HW121644   0.943   5.457   1.248
 6915SOL    HW221645   0.936   5.381   1.104
 6916SOL     OW21646   6.724   1.456   6.943
 6916SOL    HW121647   6.687   1.532   6.889
 6916SOL    HW221648   6.819   1.440   6.915
 6917SOL     OW21649   4.384   6.085   6.139
 6917SOL    HW121650   4.290   6.116   6.121
 6917SOL    HW221651   4.402   6.090   6.237
 6918SOL     OW21652   1.999   2.829   3.330
 6918SOL    HW121653   1.949   2.874   3.256
 6918SOL    HW221654   2.064   2.894   3.370
 6919SOL     OW21655   1.910   6.433   3.237
 6919SOL    HW121656   1.975   6.363   3.265
 6919SOL    HW221657   1.879   6.414   3.144
 6920SOL     OW21658   5.301   5.712   4.969
 6920SOL    HW121659   5.339   5.728   4.878
 6920SOL    HW221660   5.324   5.789   5.029
 6921SOL     OW21661   0.630   6.939   2.900
 6921SOL    HW121662   0.551   6.946   2.839
 6921SOL    HW221663   0.693   7.014   2.882
 6922SOL     OW21664   2.000   6.184   0.459
 6922SOL    HW121665   2.018   6.133   0.542
 6922SOL    HW221666   1.911   6.158   0.422
 6923SOL     OW21667   4.681   7.004   4.305
 6923SOL    HW121668   4.750   0.013   4.240
 6923SOL    HW221669   4.633   6.923   4.270
 6924SOL     OW21670   0.156   5.793   1.089
 6924SOL    HW121671   0.140   5.874   1.145
 6924SOL    HW221672   0.234   5.809   1.028
 6925SOL     OW21673   5.374   6.355   2.360
 6925SOL    HW121674   5.312   6.288   2.400
 6925SOL    HW221675   5.465   6.344   2.400
 6926SOL     OW21676   2.904   3.458   5.051
 6926SOL    HW121677   2.877   3.531   5.115
 6926SOL    HW221678   2.873   3.370   5.087
 6927SOL     OW21679   4.422   3.742   5.865
 6927SOL    HW121680   4.475   3.754   5.781
 6927SOL    HW221681   4.437   3.820   5.926
 6928SOL     OW21682   5.551   0.540   6.519
 6928SOL    HW121683   5.531   0.447   6.550
 6928SOL    HW221684   5.508   0.605   6.581
 6929SOL     OW21685   3.375   5.010   0.558
 6929SOL    HW121686   3.327   5.056   0.483
 6929SOL    HW221687   3.393   4.915   0.532
 6930SOL     OW21688   0.755   6.437   3.356
 6930SOL    HW121689   0.690   6.427   3.431
 6930SOL    HW221690   0.800   6.526   3.363
 6931SOL     OW21691   1.573   1.122   1.102
 6931SOL    HW121692   1.665   1.110   1.065
 6931SOL    HW221693   1.571   1.094   1.198
 6932SOL     OW21694   2.491   2.825   0.857
 6932SOL    HW121695   2.440   2.751   0.813
 6932SOL    HW221696   2.444   2.853   0.941
 6933SOL     OW21697   3.800   6.789   6.654
 6933SOL    HW121698   3.750   6.868   6.689
 6933SOL    HW221699   3.851   6.816   6.572
 6934SOL     OW21700   5.329   3.409   6.612
 6934SOL    HW121701   5.366   3.432   6.702
 6934SOL    HW221702   5.251   3.347   6.623
 6935SOL     OW21703   4.578   5.096   3.644
 6935SOL    HW121704   4.543   5.146   3.723
 6935SOL    HW221705   4.504   5.079   3.579
 6936SOL     OW21706   1.180   4.377   0.895
 6936SOL    HW121707   1.256   4.390   0.958
 6936SOL    HW221708   1.195   4.295   0.841
 6937SOL     OW21709   4.313   0.166   5.408
 6937SOL    HW121710   4.251   0.236   5.444
 6937SOL    HW221711   4.374   0.136   5.481
 6938SOL     OW21712   4.652   2.277   5.249
 6938SOL    HW121713   4.631   2.206   5.316
 6938SOL    HW221714   4.661   2.365   5.296
 6939SOL     OW21715   1.304   4.007   2.680
 6939SOL    HW121716   1.323   3.954   2.763
 6939SOL    HW221717   1.314   3.948   2.600
 6940SOL     OW21718   4.693   0.716   4.723
 6940SOL    HW121719   4.612   0.770   4.745
 6940SOL    HW221720   4.665   0.629   4.682
 6941SOL     OW21721   3.889   3.121   3.019
 6941SOL    HW121722   3.842   3.034   3.031
 6941SOL    HW221723   3.935   3.122   2.930
 6942SOL     OW21724   6.807   1.910   0.370
 6942SOL    HW121725   6.855   1.969   0.435
 6942SOL    HW221726   6.816   1.947   0.278
 6943SOL     OW21727   4.736   6.442   6.372
 6943SOL    HW121728   4.678   6.365   6.399
 6943SOL    HW221729   4.704   6.478   6.284
 6944SOL     OW21730   1.942   6.034   6.144
 6944SOL    HW121731   1.919   6.055   6.239
 6944SOL    HW221732   2.029   6.076   6.120
 6945SOL     OW21733   5.561   3.023   5.841
 6945SOL    HW121734   5.580   2.947   5.779
 6945SOL    HW221735   5.476   3.067   5.814
 6946SOL     OW21736   5.671   4.548   3.031
 6946SOL    HW121737   5.767   4.525   3.045
 6946SOL    HW221738   5.640   4.607   3.106
 6947SOL     OW21739   3.831   6.500   2.841
 6947SOL    HW121740   3.843   6.598   2.824
 6947SOL    HW221741   3.761   6.464   2.780
 6948SOL     OW21742   4.275   1.670   5.339
 6948SOL    HW121743   4.303   1.636   5.249
 6948SOL    HW221744   4.204   1.739   5.328
 6949SOL     OW21745   5.130   0.381   2.595
 6949SOL    HW121746   5.058   0.311   2.598
 6949SOL    HW221747   5.109   0.452   2.662
 6950SOL     OW21748   1.702   0.305   3.237
 6950SOL    HW121749   1.757   0.387   3.252
 6950SOL    HW221750   1.732   0.233   3.300
 6951SOL     OW21751   6.357   5.238   5.991
 6951SOL    HW121752   6.454   5.253   5.970
 6951SOL    HW221753   6.348   5.156   6.047
 6952SOL     OW21754   0.255   4.781   4.607
 6952SOL    HW121755   0.277   4.870   4.567
 6952SOL    HW221756   0.189   4.734   4.549
 6953SOL     OW21757   5.127   1.236   5.147
 6953SOL    HW121758   5.157   1.330   5.164
 6953SOL    HW221759   5.195   1.172   5.183
 6954SOL     OW21760   0.810   4.196   3.226
 6954SOL    HW121761   0.812   4.168   3.321
 6954SOL    HW221762   0.903   4.193   3.188
 6955SOL     OW21763   6.943   5.785   1.909
 6955SOL    HW121764   7.020   5.847   1.891
 6955SOL    HW221765   6.870   5.836   1.955
 6956SOL     OW21766   3.446   4.923   1.755
 6956SOL    HW121767   3.487   4.846   1.804
 6956SOL    HW221768   3.353   4.937   1.789
 6957SOL     OW21769   0.508   4.765   0.508
 6957SOL    HW121770   0.607   4.767   0.526
 6957SOL    HW221771   0.478   4.671   0.495
 6958SOL     OW21772   2.696   3.996   6.501
 6958SOL    HW121773   2.671   3.954   6.588
 6958SOL    HW221774   2.705   4.095   6.513
 6959SOL     OW21775   2.591   1.073   4.162
 6959SOL    HW121776   2.656   1.134   4.115
 6959SOL    HW221777   2.636   1.033   4.242
 6960SOL     OW21778   0.151   5.096   6.881
 6960SOL    HW121779   0.099   5.133   6.803
 6960SOL    HW221780   0.091   5.090   6.961
 6961SOL     OW21781   0.120   1.049   2.706
 6961SOL    HW121782   0.189   1.116   2.681
 6961SOL    HW221783   0.034   1.095   2.727
 6962SOL     OW21784   4.351   4.203   0.958
 6962SOL    HW121785   4.353   4.125   1.021
 6962SOL    HW221786   4.440   4.212   0.914
 6963SOL     OW21787   6.876   5.355   1.499
 6963SOL    HW121788   6.864   5.300   1.416
 6963SOL    HW221789   6.931   5.436   1.477
 6964SOL     OW21790   4.013   5.947   5.124
 6964SOL    HW121791   3.931   5.990   5.161
 6964SOL    HW221792   4.081   5.935   5.196
 6965SOL     OW21793   6.968   2.557   5.860
 6965SOL    HW121794   6.938   2.587   5.951
 6965SOL    HW221795   6.899   2.495   5.822
 6966SOL     OW21796   4.655   2.652   4.154
 6966SOL    HW121797   4.682   2.670   4.249
 6966SOL    HW221798   4.555   2.647   4.149
 6967SOL     OW21799   2.514   0.711   6.094
 6967SOL    HW121800   2.546   0.792   6.143
 6967SOL    HW221801   2.467   0.740   6.010
 6968SOL     OW21802   5.046   6.687   2.322
 6968SOL    HW121803   5.068   6.649   2.412
 6968SOL    HW221804   5.061   6.617   2.251
 6969SOL     OW21805   3.208   1.970   1.137
 6969SOL    HW121806   3.208   1.994   1.040
 6969SOL    HW221807   3.276   2.025   1.185
 6970SOL     OW21808   5.101   4.628   0.322
 6970SOL    HW121809   5.119   4.699   0.391
 6970SOL    HW221810   5.015   4.582   0.344
 6971SOL     OW21811   4.902   0.678   1.889
 6971SOL    HW121812   4.820   0.735   1.880
 6971SOL    HW221813   4.911   0.620   1.808
 6972SOL     OW21814   5.872   5.090   4.409
 6972SOL    HW121815   5.800   5.154   4.385
 6972SOL    HW221816   5.837   5.024   4.476
 6973SOL     OW21817   1.939   4.911   3.055
 6973SOL    HW121818   2.038   4.926   3.056
 6973SOL    HW221819   1.909   4.895   2.961
 6974SOL     OW21820   3.227   4.132   4.299
 6974SOL    HW121821   3.177   4.109   4.215
 6974SOL    HW221822   3.190   4.079   4.375
 6975SOL     OW21823   3.827   1.016   5.683
 6975SOL    HW121824   3.856   1.077   5.757
 6975SOL    HW221825   3.850   0.921   5.707
 6976SOL     OW21826   2.134   4.831   6.159
 6976SOL    HW121827   2.084   4.912   6.129
 6976SOL    HW221828   2.228   4.835   6.125
 6977SOL     OW21829   3.923   2.158   2.674
 6977SOL    HW121830   3.921   2.184   2.577
 6977SOL    HW221831   3.987   2.217   2.723
 6978SOL     OW21832   6.121   0.482   2.516
 6978SOL    HW121833   6.094   0.481   2.612
 6978SOL    HW221834   6.183   0.405   2.498
 6979SOL     OW21835   0.344   4.946   2.720
 6979SOL    HW121836   0.334   4.980   2.813
 6979SOL    HW221837   0.312   5.016   2.656
 6980SOL     OW21838   3.271   0.963   4.364
 6980SOL    HW121839   3.191   0.904   4.355
 6980SOL    HW221840   3.273   1.028   4.288
 6981SOL     OW21841   2.438   5.356   0.287
 6981SOL    HW121842   2.410   5.261   0.280
 6981SOL    HW221843   2.536   5.364   0.271
 6982SOL     OW21844   0.599   0.164   4.919
 6982SOL    HW121845   0.514   0.216   4.908
 6982SOL    HW221846   0.595   0.113   5.005
 6983SOL     OW21847   6.720   0.704   4.369
 6983SOL    HW121848   6.733   0.707   4.270
 6983SOL    HW221849   6.676   0.789   4.398
 6984SOL     OW21850   1.573   1.100   6.338
 6984SOL    HW121851   1.536   1.014   6.371
 6984SOL    HW221852   1.533   1.121   6.249
 6985SOL     OW21853   5.333   5.855   1.845
 6985SOL    HW121854   5.425   5.876   1.813
 6985SOL    HW221855   5.281   5.940   1.857
 6986SOL     OW21856   2.238   6.808   5.360
 6986SOL    HW121857   2.273   6.894   5.323
 6986SOL    HW221858   2.142   6.797   5.336
 6987SOL     OW21859   0.416   3.571   6.339
 6987SOL    HW121860   0.458   3.659   6.317
 6987SOL    HW221861   0.425   3.552   6.436
 6988SOL     OW21862   5.499   0.804   4.153
 6988SOL    HW121863   5.469   0.899   4.163
 6988SOL    HW221864   5.548   0.776   4.235
 6989SOL     OW21865   1.468   2.325   4.163
 6989SOL    HW121866   1.434   2.277   4.081
 6989SOL    HW221867   1.535   2.394   4.135
 6990SOL     OW21868   3.642   3.271   0.371
 6990SOL    HW121869   3.602   3.306   0.455
 6990SOL    HW221870   3.730   3.315   0.355
 6991SOL     OW21871   3.755   4.452   5.287
 6991SOL    HW121872   3.812   4.378   5.252
 6991SOL    HW221873   3.661   4.420   5.298
 6992SOL     OW21874   5.455   6.393   4.593
 6992SOL    HW121875   5.497   6.356   4.676
 6992SOL    HW221876   5.422   6.485   4.610
 6993SOL     OW21877   0.323   0.207   2.979
 6993SOL    HW121878   0.310   0.208   3.078
 6993SOL    HW221879   0.235   0.215   2.933
 6994SOL     OW21880   1.385   3.014   6.207
 6994SOL    HW121881   1.445   2.949   6.252
 6994SOL    HW221882   1.437   3.067   6.139
 6995SOL     OW21883   6.903   5.610   3.108
 6995SOL    HW121884   6.809   5.577   3.118
 6995SOL    HW221885   6.967   5.533   3.114
 6996SOL     OW21886   2.460   6.880   5.685
 6996SOL    HW121887   2.362   6.896   5.696
 6996SOL    HW221888   2.496   6.838   5.768
 6997SOL     OW21889   4.988   0.358   5.034
 6997SOL    HW121890   4.961   0.429   4.969
 6997SOL    HW221891   5.077   0.320   5.006
 6998SOL     OW21892   0.764   2.802   3.218
 6998SOL    HW121893   0.674   2.791   3.175
 6998SOL    HW221894   0.768   2.747   3.301
 6999SOL     OW21895   3.296   1.597   5.788
 6999SOL    HW121896   3.277   1.585   5.886
 6999SOL    HW221897   3.343   1.684   5.773
 7000SOL     OW21898   0.064   6.289   2.561
 7000SOL    HW121899   0.019   6.273   2.648
 7000SOL    HW221900   0.027   6.371   2.518
 7001SOL     OW21901   2.461   2.647   5.611
 7001SOL    HW121902   2.560   2.662   5.620
 7001SOL    HW221903   2.436   2.564   5.661
 7002SOL     OW21904   1.431   4.949   3.315
 7002SOL    HW121905   1.526   4.969   3.289
 7002SOL    HW221906   1.424   4.854   3.344
 7003SOL     OW21907   2.268   5.937   0.962
 7003SOL    HW121908   2.358   5.897   0.946
 7003SOL    HW221909   2.213   5.874   1.017
 7004SOL     OW21910   1.405   4.170   0.772
 7004SOL    HW121911   1.419   4.114   0.690
 7004SOL    HW221912   1.494   4.193   0.811
 7005SOL     OW21913   5.187   6.252   5.541
 7005SOL    HW121914   5.133   6.287   5.618
 7005SOL    HW221915   5.282   6.239   5.569
 7006SOL     OW21916   4.243   4.766   4.670
 7006SOL    HW121917   4.288   4.685   4.709
 7006SOL    HW221918   4.243   4.759   4.570
 7007SOL     OW21919   5.043   5.143   2.826
 7007SOL    HW121920   5.088   5.068   2.874
 7007SOL    HW221921   4.955   5.110   2.790
 7008SOL     OW21922   0.994   5.287   3.872
 7008SOL    HW121923   1.008   5.207   3.931
 7008SOL    HW221924   0.948   5.258   3.788
 7009SOL     OW21925   0.684   4.315   2.143
 7009SOL    HW121926   0.724   4.407   2.135
 7009SOL    HW221927   0.671   4.277   2.051
 7010SOL     OW21928   3.667   5.124   6.155
 7010SOL    HW121929   3.649   5.028   6.134
 7010SOL    HW221930   3.615   5.150   6.237
 7011SOL     OW21931   3.009   0.929   5.134
 7011SOL    HW121932   2.940   0.863   5.162
 7011SOL    HW221933   2.967   0.998   5.075
 7012SOL     OW21934   0.706   0.768   2.021
 7012SOL    HW121935   0.626   0.788   2.077
 7012SOL    HW221936   0.721   0.844   1.958
 7013SOL     OW21937   0.615   0.862   2.333
 7013SOL    HW121938   0.708   0.824   2.333
 7013SOL    HW221939   0.619   0.960   2.352
 7014SOL     OW21940   2.214   4.346   1.732
 7014SOL    HW121941   2.191   4.354   1.635
 7014SOL    HW221942   2.274   4.422   1.758
 7015SOL     OW21943   5.471   2.791   2.660
 7015SOL    HW121944   5.536   2.867   2.657
 7015SOL    HW221945   5.396   2.808   2.595
 7016SOL     OW21946   3.755   5.158   1.336
 7016SOL    HW121947   3.723   5.199   1.422
 7016SOL    HW221948   3.854   5.153   1.336
 7017SOL     OW21949   3.347   1.145   3.493
 7017SOL    HW121950   3.435   1.181   3.463
 7017SOL    HW221951   3.354   1.046   3.506
 7018SOL     OW21952   0.629   4.929   4.507
 7018SOL    HW121953   0.568   4.882   4.570
 7018SOL    HW221954   0.682   4.861   4.454
 7019SOL     OW21955   2.160   5.971   0.145
 7019SOL    HW121956   2.259   5.954   0.144
 7019SOL    HW221957   2.125   5.965   0.052
 7020SOL     OW21958   6.353   6.386   6.275
 7020SOL    HW121959   6.328   6.314   6.210
 7020SOL    HW221960   6.283   6.457   6.276
 7021SOL     OW21961   2.656   1.227   6.109
 7021SOL    HW121962   2.701   1.195   6.026
 7021SOL    HW221963   2.587   1.296   6.086
 7022SOL     OW21964   5.394   4.618   0.305
 7022SOL    HW121965   5.437   4.674   0.234
 7022SOL    HW221966   5.296   4.640   0.311
 7023SOL     OW21967   6.635   3.667   2.699
 7023SOL    HW121968   6.629   3.630   2.791
 7023SOL    HW221969   6.580   3.611   2.637
 7024SOL     OW21970   0.854   6.174   0.795
 7024SOL    HW121971   0.843   6.221   0.883
 7024SOL    HW221972   0.783   6.206   0.731
 7025SOL     OW21973   2.496   1.603   6.220
 7025SOL    HW121974   2.451   1.651   6.295
 7025SOL    HW221975   2.595   1.610   6.231
 7026SOL     OW21976   4.206   1.868   0.825
 7026SOL    HW121977   4.217   1.898   0.730
 7026SOL    HW221978   4.108   1.860   0.846
 7027SOL     OW21979   4.590   6.734   4.193
 7027SOL    HW121980   4.495   6.765   4.187
 7027SOL    HW221981   4.615   6.688   4.108
 7028SOL     OW21982   3.911   0.661   4.502
 7028SOL    HW121983   4.009   0.680   4.512
 7028SOL    HW221984   3.883   0.597   4.573
 7029SOL     OW21985   4.009   0.403   5.844
 7029SOL    HW121986   4.011   0.433   5.749
 7029SOL    HW221987   4.100   0.412   5.884
 7030SOL     OW21988   1.552   3.399   4.439
 7030SOL    HW121989   1.587   3.466   4.374
 7030SOL    HW221990   1.622   3.330   4.456
 7031SOL     OW21991   2.515   6.091   4.054
 7031SOL    HW121992   2.591   6.150   4.083
 7031SOL    HW221993   2.511   6.089   3.954
 7032SOL     OW21994   6.178   1.784   2.196
 7032SOL    HW121995   6.122   1.752   2.273
 7032SOL    HW221996   6.118   1.809   2.120
 7033SOL     OW21997   6.690   0.758   3.779
 7033SOL    HW121998   6.629   0.707   3.719
 7033SOL    HW221999   6.638   0.827   3.829
 7034SOL     OW22000   6.199   6.191   2.868
 7034SOL    HW122001   6.263   6.263   2.895
 7034SOL    HW222002   6.230   6.150   2.782
 7035SOL     OW22003   6.355   5.908   1.476
 7035SOL    HW122004   6.358   5.837   1.547
 7035SOL    HW222005   6.388   5.870   1.390
 7036SOL     OW22006   6.904   4.731   1.774
 7036SOL    HW122007   6.914   4.643   1.821
 7036SOL    HW222008   6.971   4.737   1.701
 7037SOL     OW22009   1.140   6.441   6.453
 7037SOL    HW122010   1.217   6.461   6.391
 7037SOL    HW222011   1.154   6.351   6.495
 7038SOL     OW22012   0.743   4.154   4.392
 7038SOL    HW122013   0.706   4.135   4.483
 7038SOL    HW222014   0.840   4.178   4.400
 7039SOL     OW22015   3.877   1.248   0.223
 7039SOL    HW122016   3.856   1.309   0.299
 7039SOL    HW222017   3.794   1.199   0.196
 7040SOL     OW22018   4.975   2.536   6.198
 7040SOL    HW122019   4.909   2.529   6.272
 7040SOL    HW222020   4.937   2.592   6.124
 7041SOL     OW22021   2.267   2.280   2.148
 7041SOL    HW122022   2.224   2.194   2.119
 7041SOL    HW222023   2.291   2.335   2.068
 7042SOL     OW22024   2.653   6.589   6.977
 7042SOL    HW122025   2.666   6.570   6.880
 7042SOL    HW222026   2.735   6.562   0.008
 7043SOL     OW22027   2.111   1.771   2.925
 7043SOL    HW122028   2.137   1.767   3.022
 7043SOL    HW222029   2.181   1.820   2.874
 7044SOL     OW22030   4.739   5.287   2.585
 7044SOL    HW122031   4.676   5.220   2.623
 7044SOL    HW222032   4.765   5.260   2.492
 7045SOL     OW22033   5.378   5.806   1.104
 7045SOL    HW122034   5.388   5.708   1.085
 7045SOL    HW222035   5.283   5.832   1.090
 7046SOL     OW22036   3.822   0.745   4.862
 7046SOL    HW122037   3.752   0.734   4.933
 7046SOL    HW222038   3.813   0.836   4.821
 7047SOL     OW22039   1.619   1.076   4.529
 7047SOL    HW122040   1.691   1.141   4.549
 7047SOL    HW222041   1.658   0.994   4.488
 7048SOL     OW22042   6.709   6.126   0.184
 7048SOL    HW122043   6.611   6.123   0.208
 7048SOL    HW222044   6.727   6.061   0.110
 7049SOL     OW22045   2.330   1.283   0.624
 7049SOL    HW122046   2.244   1.329   0.601
 7049SOL    HW222047   2.323   1.186   0.602
 7050SOL     OW22048   3.752   3.862   4.697
 7050SOL    HW122049   3.731   3.848   4.600
 7050SOL    HW222050   3.708   3.790   4.751
 7051SOL     OW22051   6.708   6.378   2.005
 7051SOL    HW122052   6.797   6.354   2.043
 7051SOL    HW222053   6.705   6.476   1.985
 7052SOL     OW22054   6.942   2.017   3.327
 7052SOL    HW122055   6.873   2.056   3.265
 7052SOL    HW222056   6.918   1.922   3.346
 7053SOL     OW22057   0.391   4.989   6.548
 7053SOL    HW122058   0.305   4.940   6.531
 7053SOL    HW222059   0.371   5.087   6.559
 7054SOL     OW22060   6.994   6.732   1.882
 7054SOL    HW122061   6.983   6.752   1.980
 7054SOL    HW222062   0.071   6.723   1.860
 7055SOL     OW22063   3.670   0.180   4.935
 7055SOL    HW122064   3.693   0.234   5.016
 7055SOL    HW222065   3.716   0.092   4.939
 7056SOL     OW22066   5.316   5.127   4.196
 7056SOL    HW122067   5.264   5.192   4.251
 7056SOL    HW222068   5.377   5.074   4.255
 7057SOL     OW22069   0.414   5.704   3.248
 7057SOL    HW122070   0.402   5.777   3.180
 7057SOL    HW222071   0.490   5.727   3.308
 7058SOL     OW22072   1.015   5.489   5.478
 7058SOL    HW122073   0.995   5.397   5.446
 7058SOL    HW222074   1.069   5.538   5.409
 7059SOL     OW22075   1.196   0.304   2.206
 7059SOL    HW122076   1.139   0.326   2.285
 7059SOL    HW222077   1.142   0.252   2.140
 7060SOL     OW22078   3.232   6.345   1.084
 7060SOL    HW122079   3.294   6.304   1.151
 7060SOL    HW222080   3.243   6.300   0.996
 7061SOL     OW22081   0.710   0.947   2.716
 7061SOL    HW122082   0.769   0.877   2.676
 7061SOL    HW222083   0.616   0.913   2.722
 7062SOL     OW22084   5.533   2.192   4.672
 7062SOL    HW122085   5.541   2.260   4.599
 7062SOL    HW222086   5.437   2.162   4.680
 7063SOL     OW22087   3.890   6.684   1.048
 7063SOL    HW122088   3.967   6.698   1.110
 7063SOL    HW222089   3.807   6.665   1.101
 7064SOL     OW22090   3.922   2.568   0.806
 7064SOL    HW122091   3.943   2.527   0.717
 7064SOL    HW222092   3.871   2.653   0.792
 7065SOL     OW22093   4.592   3.603   1.239
 7065SOL    HW122094   4.672   3.610   1.180
 7065SOL    HW222095   4.617   3.556   1.324
 7066SOL     OW22096   3.554   6.658   0.891
 7066SOL    HW122097   3.472   6.695   0.935
 7066SOL    HW222098   3.598   6.730   0.837
 7067SOL     OW22099   0.068   3.926   5.510
 7067SOL    HW122100   0.038   4.007   5.560
 7067SOL    HW222101   0.102   3.954   5.419
 7068SOL     OW22102   1.685   1.064   3.858
 7068SOL    HW122103   1.696   1.123   3.938
 7068SOL    HW222104   1.714   0.971   3.881
 7069SOL     OW22105   1.373   4.684   4.697
 7069SOL    HW122106   1.338   4.603   4.651
 7069SOL    HW222107   1.371   4.670   4.796
 7070SOL     OW22108   5.896   5.566   4.786
 7070SOL    HW122109   5.989   5.540   4.811
 7070SOL    HW222110   5.899   5.650   4.731
 7071SOL     OW22111   1.562   6.185   5.667
 7071SOL    HW122112   1.655   6.163   5.639
 7071SOL    HW222113   1.499   6.116   5.631
 7072SOL     OW22114   0.452   6.575   6.671
 7072SOL    HW122115   0.428   6.479   6.657
 7072SOL    HW222116   0.466   6.591   6.769
 7073SOL     OW22117   1.063   0.613   5.792
 7073SOL    HW122118   1.043   0.701   5.835
 7073SOL    HW222119   0.984   0.583   5.739
 7074SOL     OW22120   3.333   1.814   1.347
 7074SOL    HW122121   3.307   1.835   1.253
 7074SOL    HW222122   3.323   1.896   1.404
 7075SOL     OW22123   1.796   6.234   2.975
 7075SOL    HW122124   1.712   6.277   3.009
 7075SOL    HW222125   1.795   6.137   2.998
 7076SOL     OW22126   2.819   2.420   6.604
 7076SOL    HW122127   2.887   2.430   6.677
 7076SOL    HW222128   2.849   2.470   6.523
 7077SOL     OW22129   2.643   5.399   5.790
 7077SOL    HW122130   2.699   5.329   5.835
 7077SOL    HW222131   2.690   5.487   5.793
 7078SOL     OW22132   6.081   1.004   3.666
 7078SOL    HW122133   6.167   1.034   3.708
 7078SOL    HW222134   6.025   0.958   3.735
 7079SOL     OW22135   6.074   6.091   5.851
 7079SOL    HW122136   6.067   6.179   5.804
 7079SOL    HW222137   5.982   6.056   5.870
 7080SOL     OW22138   4.563   1.334   3.901
 7080SOL    HW122139   4.567   1.331   4.000
 7080SOL    HW222140   4.519   1.419   3.871
 7081SOL     OW22141   3.772   1.285   4.867
 7081SOL    HW122142   3.701   1.279   4.796
 7081SOL    HW222143   3.796   1.194   4.899
 7082SOL     OW22144   5.111   0.883   6.073
 7082SOL    HW122145   5.038   0.852   6.134
 7082SOL    HW222146   5.178   0.936   6.125
 7083SOL     OW22147   3.264   6.925   6.803
 7083SOL    HW122148   3.318   6.909   6.886
 7083SOL    HW222149   3.307   6.878   6.726
 7084SOL     OW22150   6.751   6.458   5.814
 7084SOL    HW122151   6.725   6.538   5.868
 7084SOL    HW222152   6.677   6.391   5.816
 7085SOL     OW22153   2.519   2.394   1.525
 7085SOL    HW122154   2.588   2.347   1.580
 7085SOL    HW222155   2.428   2.375   1.563
 7086SOL     OW22156   5.971   0.241   6.542
 7086SOL    HW122157   6.053   0.211   6.591
 7086SOL    HW222158   5.953   0.337   6.562
 7087SOL     OW22159   1.371   3.391   3.550
 7087SOL    HW122160   1.433   3.408   3.473
 7087SOL    HW222161   1.299   3.329   3.521
 7088SOL     OW22162   6.034   3.011   5.284
 7088SOL    HW122163   6.132   3.030   5.294
 7088SOL    HW222164   6.017   2.971   5.194
 7089SOL     OW22165   2.682   1.498   0.362
 7089SOL    HW122166   2.623   1.451   0.298
 7089SOL    HW222167   2.629   1.568   0.411
 7090SOL     OW22168   2.621   2.153   5.104
 7090SOL    HW122169   2.582   2.241   5.076
 7090SOL    HW222170   2.720   2.155   5.088
 7091SOL     OW22171   6.936   6.324   6.873
 7091SOL    HW122172   7.004   6.388   6.909
 7091SOL    HW222173   6.862   6.313   6.940
 7092SOL     OW22174   3.423   3.771   1.051
 7092SOL    HW122175   3.334   3.776   1.094
 7092SOL    HW222176   3.476   3.696   1.092
 7093SOL     OW22177   3.417   3.866   4.448
 7093SOL    HW122178   3.322   3.857   4.418
 7093SOL    HW222179   3.446   3.961   4.441
 7094SOL     OW22180   0.852   0.491   5.692
 7094SOL    HW122181   0.770   0.521   5.739
 7094SOL    HW222182   0.827   0.431   5.616
 7095SOL     OW22183   0.656   3.066   6.666
 7095SOL    HW122184   0.674   3.160   6.638
 7095SOL    HW222185   0.615   3.016   6.590
 7096SOL     OW22186   4.553   2.355   3.293
 7096SOL    HW122187   4.590   2.448   3.301
 7096SOL    HW222188   4.627   2.289   3.303
 7097SOL     OW22189   0.215   0.747   1.711
 7097SOL    HW122190   0.267   0.692   1.645
 7097SOL    HW222191   0.120   0.714   1.714
 7098SOL     OW22192   1.678   6.441   6.071
 7098SOL    HW122193   1.644   6.534   6.057
 7098SOL    HW222194   1.770   6.444   6.109
 7099SOL     OW22195   0.892   1.152   6.180
 7099SOL    HW122196   0.867   1.056   6.187
 7099SOL    HW222197   0.857   1.202   6.259
 7100SOL     OW22198   5.736   3.399   1.222
 7100SOL    HW122199   5.750   3.473   1.287
 7100SOL    HW222200   5.735   3.436   1.129
 7101SOL     OW22201   3.089   0.725   5.390
 7101SOL    HW122202   3.146   0.706   5.469
 7101SOL    HW222203   3.128   0.680   5.309
 7102SOL     OW22204   4.352   1.215   1.105
 7102SOL    HW122205   4.396   1.219   1.015
 7102SOL    HW222206   4.422   1.208   1.176
 7103SOL     OW22207   3.493   6.613   6.856
 7103SOL    HW122208   3.496   6.680   6.781
 7103SOL    HW222209   3.526   6.525   6.822
 7104SOL     OW22210   0.922   2.104   2.855
 7104SOL    HW122211   0.948   2.083   2.949
 7104SOL    HW222212   0.978   2.180   2.821
 7105SOL     OW22213   3.407   3.432   4.908
 7105SOL    HW122214   3.313   3.405   4.888
 7105SOL    HW222215   3.470   3.374   4.856
 7106SOL     OW22216   3.061   2.834   5.280
 7106SOL    HW122217   3.104   2.916   5.242
 7106SOL    HW222218   3.130   2.765   5.300
 7107SOL     OW22219   2.616   2.184   0.384
 7107SOL    HW122220   2.650   2.268   0.427
 7107SOL    HW222221   2.550   2.140   0.446
 7108SOL     OW22222   5.380   6.941   1.674
 7108SOL    HW122223   5.425   0.000   1.715
 7108SOL    HW222224   5.397   6.860   1.730
 7109SOL     OW22225   3.515   0.032   6.534
 7109SOL    HW122226   3.595   0.036   6.474
 7109SOL    HW222227   3.444   0.092   6.497
 7110SOL     OW22228   4.850   5.014   3.735
 7110SOL    HW122229   4.877   5.110   3.735
 7110SOL    HW222230   4.763   5.004   3.687
 7111SOL     OW22231   2.398   2.749   4.013
 7111SOL    HW122232   2.316   2.692   4.001
 7111SOL    HW222233   2.389   2.831   3.956
 7112SOL     OW22234   0.841   6.700   3.419
 7112SOL    HW122235   0.820   6.797   3.412
 7112SOL    HW222236   0.843   6.673   3.515
 7113SOL     OW22237   4.054   3.415   4.336
 7113SOL    HW122238   4.072   3.464   4.421
 7113SOL    HW222239   4.077   3.473   4.258
 7114SOL     OW22240   4.054   0.893   1.515
 7114SOL    HW122241   4.093   0.859   1.601
 7114SOL    HW222242   4.062   0.993   1.513
 7115SOL     OW22243   4.871   1.735   1.275
 7115SOL    HW122244   4.895   1.828   1.304
 7115SOL    HW222245   4.886   1.671   1.351
 7116SOL     OW22246   5.456   4.165   3.042
 7116SOL    HW122247   5.458   4.261   3.015
 7116SOL    HW222248   5.367   4.144   3.083
 7117SOL     OW22249   6.237   6.690   1.933
 7117SOL    HW122250   6.160   6.681   1.997
 7117SOL    HW222251   6.314   6.636   1.966
 7118SOL     OW22252   6.176   3.216   0.971
 7118SOL    HW122253   6.142   3.303   1.006
 7118SOL    HW222254   6.258   3.189   1.022
 7119SOL     OW22255   6.830   1.783   3.438
 7119SOL    HW122256   6.911   1.742   3.480
 7119SOL    HW222257   6.804   1.729   3.358
 7120SOL     OW22258   4.796   1.325   3.473
 7120SOL    HW122259   4.879   1.349   3.523
 7120SOL    HW222260   4.821   1.290   3.382
 7121SOL     OW22261   3.333   6.703   3.227
 7121SOL    HW122262   3.348   6.605   3.222
 7121SOL    HW222263   3.347   6.744   3.137
 7122SOL     OW22264   6.203   0.847   6.947
 7122SOL    HW122265   6.194   0.939   6.985
 7122SOL    HW222266   6.189   0.849   6.848
 7123SOL     OW22267   2.776   5.150   1.257
 7123SOL    HW122268   2.775   5.250   1.254
 7123SOL    HW222269   2.689   5.118   1.294
 7124SOL     OW22270   0.400   4.991   0.656
 7124SOL    HW122271   0.443   4.902   0.649
 7124SOL    HW222272   0.428   5.036   0.742
 7125SOL     OW22273   5.964   6.261   2.312
 7125SOL    HW122274   5.916   6.337   2.269
 7125SOL    HW222275   6.054   6.291   2.342
 7126SOL     OW22276   1.025   4.664   0.442
 7126SOL    HW122277   1.046   4.606   0.363
 7126SOL    HW222278   0.970   4.612   0.507
 7127SOL     OW22279   3.810   6.285   4.567
 7127SOL    HW122280   3.792   6.287   4.469
 7127SOL    HW222281   3.883   6.220   4.587
 7128SOL     OW22282   3.246   3.973   1.372
 7128SOL    HW122283   3.170   3.917   1.406
 7128SOL    HW222284   3.332   3.922   1.382
 7129SOL     OW22285   2.423   0.008   1.854
 7129SOL    HW122286   2.459   6.977   1.932
 7129SOL    HW222287   2.476   7.005   1.772
 7130SOL     OW22288   2.064   4.389   3.579
 7130SOL    HW122289   2.059   4.485   3.550
 7130SOL    HW222290   2.154   4.370   3.616
 7131SOL     OW22291   2.462   0.655   3.337
 7131SOL    HW122292   2.412   0.576   3.374
 7131SOL    HW222293   2.412   0.691   3.258
 7132SOL     OW22294   3.719   4.076   3.156
 7132SOL    HW122295   3.792   4.028   3.106
 7132SOL    HW222296   3.743   4.080   3.253
 7133SOL     OW22297   5.335   5.352   3.101
 7133SOL    HW122298   5.236   5.359   3.108
 7133SOL    HW222299   5.377   5.377   3.189
 7134SOL     OW22300   5.577   4.489   4.449
 7134SOL    HW122301   5.506   4.422   4.469
 7134SOL    HW222302   5.640   4.494   4.527
 7135SOL     OW22303   1.100   2.129   4.681
 7135SOL    HW122304   1.047   2.059   4.729
 7135SOL    HW222305   1.071   2.219   4.710
 7136SOL     OW22306   1.941   1.156   0.283
 7136SOL    HW122307   1.880   1.085   0.248
 7136SOL    HW222308   2.007   1.181   0.213
 7137SOL     OW22309   4.508   0.482   4.692
 7137SOL    HW122310   4.574   0.417   4.730
 7137SOL    HW222311   4.483   0.455   4.599
 7138SOL     OW22312   2.342   3.975   1.119
 7138SOL    HW122313   2.392   4.054   1.083
 7138SOL    HW222314   2.406   3.914   1.165
 7139SOL     OW22315   4.044   2.845   1.464
 7139SOL    HW122316   4.112   2.802   1.522
 7139SOL    HW222317   4.018   2.934   1.502
 7140SOL     OW22318   6.010   3.897   5.134
 7140SOL    HW122319   6.010   3.809   5.180
 7140SOL    HW222320   6.033   3.969   5.199
 7141SOL     OW22321   2.840   6.832   0.677
 7141SOL    HW122322   2.767   6.793   0.622
 7141SOL    HW222323   2.832   6.932   0.677
 7142SOL     OW22324   3.976   6.185   4.177
 7142SOL    HW122325   4.047   6.115   4.180
 7142SOL    HW222326   4.018   6.275   4.189
 7143SOL     OW22327   1.383   4.156   5.535
 7143SOL    HW122328   1.443   4.092   5.486
 7143SOL    HW222329   1.421   4.248   5.529
 7144SOL     OW22330   0.811   2.351   3.423
 7144SOL    HW122331   0.898   2.391   3.393
 7144SOL    HW222332   0.736   2.392   3.371
 7145SOL     OW22333   4.670   6.942   6.698
 7145SOL    HW122334   4.769   6.931   6.686
 7145SOL    HW222335   4.622   6.873   6.645
 7146SOL     OW22336   3.204   5.319   0.638
 7146SOL    HW122337   3.190   5.312   0.737
 7146SOL    HW222338   3.173   5.235   0.594
 7147SOL     OW22339   0.393   0.486   3.002
 7147SOL    HW122340   0.336   0.408   2.975
 7147SOL    HW222341   0.383   0.502   3.100
 7148SOL     OW22342   0.890   0.909   1.731
 7148SOL    HW122343   0.917   0.969   1.806
 7148SOL    HW222344   0.904   0.814   1.758
 7149SOL     OW22345   6.235   1.577   3.487
 7149SOL    HW122346   6.207   1.671   3.506
 7149SOL    HW222347   6.316   1.578   3.428
 7150SOL     OW22348   6.338   2.719   0.083
 7150SOL    HW122349   6.398   2.783   0.130
 7150SOL    HW222350   6.274   2.769   0.025
 7151SOL     OW22351   2.945   6.008   2.052
 7151SOL    HW122352   2.870   5.947   2.028
 7151SOL    HW222353   2.909   6.099   2.075
 7152SOL     OW22354   1.382   2.702   3.773
 7152SOL    HW122355   1.341   2.680   3.861
 7152SOL    HW222356   1.481   2.698   3.780
 7153SOL     OW22357   3.636   1.530   3.844
 7153SOL    HW122358   3.720   1.478   3.859
 7153SOL    HW222359   3.602   1.564   3.932
 7154SOL     OW22360   4.361   5.236   3.822
 7154SOL    HW122361   4.356   5.146   3.865
 7154SOL    HW222362   4.380   5.305   3.892
 7155SOL     OW22363   2.107   0.292   1.083
 7155SOL    HW122364   2.092   0.390   1.097
 7155SOL    HW222365   2.170   0.258   1.152
 7156SOL     OW22366   6.906   5.614   4.826
 7156SOL    HW122367   6.852   5.604   4.742
 7156SOL    HW222368   7.001   5.634   4.803
 7157SOL     OW22369   4.996   4.561   0.957
 7157SOL    HW122370   5.034   4.576   0.866
 7157SOL    HW222371   4.921   4.495   0.951
 7158SOL     OW22372   6.399   6.851   3.063
 7158SOL    HW122373   6.318   6.832   3.007
 7158SOL    HW222374   6.391   6.803   3.150
 7159SOL     OW22375   0.907   5.492   0.585
 7159SOL    HW122376   0.930   5.398   0.613
 7159SOL    HW222377   0.883   5.493   0.488
 7160SOL     OW22378   5.965   0.058   2.171
 7160SOL    HW122379   5.879   0.109   2.170
 7160SOL    HW222380   5.948   6.982   2.193
 7161SOL     OW22381   3.647   3.167   4.211
 7161SOL    HW122382   3.710   3.244   4.202
 7161SOL    HW222383   3.667   3.099   4.140
 7162SOL     OW22384   3.447   4.954   3.539
 7162SOL    HW122385   3.371   5.009   3.574
 7162SOL    HW222386   3.414   4.892   3.468
 7163SOL     OW22387   2.683   0.116   3.333
 7163SOL    HW122388   2.700   0.025   3.293
 7163SOL    HW222389   2.732   0.185   3.280
 7164SOL     OW22390   2.076   0.998   3.134
 7164SOL    HW122391   2.165   1.009   3.091
 7164SOL    HW222392   2.031   1.087   3.141
 7165SOL     OW22393   5.105   1.198   0.848
 7165SOL    HW122394   5.026   1.211   0.909
 7165SOL    HW222395   5.179   1.153   0.899
 7166SOL     OW22396   5.294   4.851   0.981
 7166SOL    HW122397   5.320   4.812   1.069
 7166SOL    HW222398   5.375   4.889   0.936
 7167SOL     OW22399   4.851   3.344   5.123
 7167SOL    HW122400   4.802   3.423   5.159
 7167SOL    HW222401   4.848   3.345   5.023
 7168SOL     OW22402   1.203   0.366   3.841
 7168SOL    HW122403   1.259   0.290   3.810
 7168SOL    HW222404   1.131   0.332   3.902
 7169SOL     OW22405   1.265   2.351   5.218
 7169SOL    HW122406   1.224   2.441   5.232
 7169SOL    HW222407   1.361   2.353   5.248
 7170SOL     OW22408   6.289   4.928   4.262
 7170SOL    HW122409   6.219   4.999   4.261
 7170SOL    HW222410   6.246   4.839   4.273
 7171SOL     OW22411   4.216   3.241   5.472
 7171SOL    HW122412   4.255   3.325   5.435
 7171SOL    HW222413   4.137   3.263   5.530
 7172SOL     OW22414   1.261   6.992   0.341
 7172SOL    HW122415   1.257   6.922   0.270
 7172SOL    HW222416   1.209   6.963   0.421
 7173SOL     OW22417   6.996   6.237   5.733
 7173SOL    HW122418   0.008   6.227   5.827
 7173SOL    HW222419   0.033   6.303   5.685
 7174SOL     OW22420   1.584   5.225   0.339
 7174SOL    HW122421   1.545   5.291   0.275
 7174SOL    HW222422   1.676   5.254   0.365
 7175SOL     OW22423   6.316   3.762   6.122
 7175SOL    HW122424   6.219   3.779   6.135
 7175SOL    HW222425   6.368   3.808   6.194
 7176SOL     OW22426   6.188   4.143   0.829
 7176SOL    HW122427   6.120   4.094   0.885
 7176SOL    HW222428   6.257   4.184   0.888
 7177SOL     OW22429   0.753   5.343   2.060
 7177SOL    HW122430   0.849   5.329   2.084
 7177SOL    HW222431   0.695   5.293   2.124
 7178SOL     OW22432   0.862   2.631   5.232
 7178SOL    HW122433   0.945   2.671   5.272
 7178SOL    HW222434   0.791   2.624   5.302
 7179SOL     OW22435   2.881   3.843   5.861
 7179SOL    HW122436   2.912   3.760   5.907
 7179SOL    HW222437   2.864   3.824   5.765
 7180SOL     OW22438   0.343   6.027   2.135
 7180SOL    HW122439   0.362   6.064   2.044
 7180SOL    HW222440   0.343   5.927   2.131
 7181SOL     OW22441   5.242   0.477   1.572
 7181SOL    HW122442   5.235   0.390   1.524
 7181SOL    HW222443   5.177   0.478   1.649
 7182SOL     OW22444   2.746   4.215   5.508
 7182SOL    HW122445   2.689   4.183   5.584
 7182SOL    HW222446   2.829   4.258   5.545
 7183SOL     OW22447   1.508   5.478   2.461
 7183SOL    HW122448   1.516   5.449   2.557
 7183SOL    HW222449   1.415   5.461   2.429
 7184SOL     OW22450   2.392   6.505   4.320
 7184SOL    HW122451   2.296   6.476   4.320
 7184SOL    HW222452   2.397   6.604   4.327
 7185SOL     OW22453   4.800   2.453   0.008
 7185SOL    HW122454   4.859   2.403   0.072
 7185SOL    HW222455   4.745   2.389   6.975
 7186SOL     OW22456   0.141   6.089   5.319
 7186SOL    HW122457   0.168   6.059   5.228
 7186SOL    HW222458   0.043   6.112   5.319
 7187SOL     OW22459   2.008   4.302   1.963
 7187SOL    HW122460   2.066   4.325   1.885
 7187SOL    HW222461   1.989   4.203   1.962
 7188SOL     OW22462   5.083   1.980   2.365
 7188SOL    HW122463   5.102   1.903   2.304
 7188SOL    HW222464   5.166   2.035   2.375
 7189SOL     OW22465   6.916   1.216   5.455
 7189SOL    HW122466   6.851   1.277   5.410
 7189SOL    HW222467   6.924   1.131   5.403
 7190SOL     OW22468   5.374   4.504   3.473
 7190SOL    HW122469   5.341   4.528   3.382
 7190SOL    HW222470   5.306   4.532   3.541
 7191SOL     OW22471   1.657   3.540   1.988
 7191SOL    HW122472   1.746   3.501   1.964
 7191SOL    HW222473   1.666   3.594   2.071
 7192SOL     OW22474   2.705   4.270   6.006
 7192SOL    HW122475   2.763   4.351   6.009
 7192SOL    HW222476   2.676   4.246   6.099
 7193SOL     OW22477   4.108   2.185   3.439
 7193SOL    HW122478   4.013   2.171   3.412
 7193SOL    HW222479   4.119   2.161   3.535
 7194SOL     OW22480   2.688   1.487   2.021
 7194SOL    HW122481   2.696   1.447   1.929
 7194SOL    HW222482   2.780   1.507   2.056
 7195SOL     OW22483   1.185   5.543   0.945
 7195SOL    HW122484   1.163   5.569   0.851
 7195SOL    HW222485   1.135   5.602   1.009
 7196SOL     OW22486   3.225   3.302   2.206
 7196SOL    HW122487   3.195   3.207   2.215
 7196SOL    HW222488   3.147   3.363   2.216
 7197SOL     OW22489   6.884   1.824   5.919
 7197SOL    HW122490   6.878   1.924   5.914
 7197SOL    HW222491   6.823   1.783   5.851
 7198SOL     OW22492   0.848   6.370   6.709
 7198SOL    HW122493   0.803   6.282   6.697
 7198SOL    HW222494   0.882   6.402   6.620
 7199SOL     OW22495   6.038   6.480   2.742
 7199SOL    HW122496   6.116   6.437   2.697
 7199SOL    HW222497   5.992   6.542   2.678
 7200SOL     OW22498   1.832   1.072   1.003
 7200SOL    HW122499   1.919   1.069   1.052
 7200SOL    HW222500   1.846   1.048   0.907
 7201SOL     OW22501   1.908   4.175   3.653
 7201SOL    HW122502   1.964   4.257   3.647
 7201SOL    HW222503   1.909   4.141   3.747
 7202SOL     OW22504   3.731   0.783   6.754
 7202SOL    HW122505   3.635   0.756   6.766
 7202SOL    HW222506   3.776   0.718   6.693
 7203SOL     OW22507   5.266   1.146   0.139
 7203SOL    HW122508   5.222   1.085   0.074
 7203SOL    HW222509   5.292   1.095   0.221
 7204SOL     OW22510   5.877   1.710   3.569
 7204SOL    HW122511   5.968   1.697   3.607
 7204SOL    HW222512   5.809   1.678   3.635
 7205SOL     OW22513   2.449   4.877   2.466
 7205SOL    HW122514   2.536   4.909   2.503
 7205SOL    HW222515   2.455   4.778   2.450
 7206SOL     OW22516   6.314   0.869   1.477
 7206SOL    HW122517   6.214   0.866   1.466
 7206SOL    HW222518   6.349   0.951   1.430
 7207SOL     OW22519   3.627   0.133   1.918
 7207SOL    HW122520   3.623   0.055   1.980
 7207SOL    HW222521   3.715   0.134   1.871
 7208SOL     OW22522   3.214   6.998   5.816
 7208SOL    HW122523   3.226   0.055   5.753
 7208SOL    HW222524   3.120   6.995   5.847
 7209SOL     OW22525   3.775   3.415   4.211
 7209SOL    HW122526   3.861   3.455   4.245
 7209SOL    HW222527   3.701   3.480   4.223
 7210SOL     OW22528   4.888   1.513   4.242
 7210SOL    HW122529   4.947   1.579   4.194
 7210SOL    HW222530   4.891   1.532   4.340
 7211SOL     OW22531   1.672   5.254   3.515
 7211SOL    HW122532   1.693   5.225   3.421
 7211SOL    HW222533   1.672   5.354   3.519
 7212SOL     OW22534   5.997   6.401   4.064
 7212SOL    HW122535   5.968   6.404   3.968
 7212SOL    HW222536   5.928   6.353   4.118
 7213SOL     OW22537   6.046   1.067   5.612
 7213SOL    HW122538   6.095   1.134   5.556
 7213SOL    HW222539   5.986   1.013   5.553
 7214SOL     OW22540   1.909   5.205   4.699
 7214SOL    HW122541   1.937   5.272   4.630
 7214SOL    HW222542   1.988   5.152   4.728
 7215SOL     OW22543   1.039   3.764   3.804
 7215SOL    HW122544   1.028   3.730   3.710
 7215SOL    HW222545   1.059   3.862   3.802
 7216SOL     OW22546   2.755   0.292   0.712
 7216SOL    HW122547   2.804   0.296   0.625
 7216SOL    HW222548   2.761   0.199   0.749
 7217SOL     OW22549   1.101   3.116   2.075
 7217SOL    HW122550   1.070   3.107   2.170
 7217SOL    HW222551   1.201   3.106   2.073
 7218SOL     OW22552   4.931   3.129   5.504
 7218SOL    HW122553   4.903   3.177   5.588
 7218SOL    HW222554   4.939   3.031   5.523
 7219SOL     OW22555   3.753   0.987   2.661
 7219SOL    HW122556   3.713   0.937   2.584
 7219SOL    HW222557   3.772   1.081   2.632
 7220SOL     OW22558   6.417   1.181   2.760
 7220SOL    HW122559   6.419   1.108   2.829
 7220SOL    HW222560   6.398   1.141   2.670
 7221SOL     OW22561   5.194   5.131   6.420
 7221SOL    HW122562   5.174   5.110   6.516
 7221SOL    HW222563   5.270   5.074   6.389
 7222SOL     OW22564   0.276   5.917   1.462
 7222SOL    HW122565   0.219   5.951   1.387
 7222SOL    HW222566   0.361   5.879   1.425
 7223SOL     OW22567   3.595   1.007   5.529
 7223SOL    HW122568   3.679   1.032   5.578
 7223SOL    HW222569   3.518   1.059   5.566
 7224SOL     OW22570   5.369   6.979   4.818
 7224SOL    HW122571   5.419   0.017   4.753
 7224SOL    HW222572   5.275   6.969   4.787
 7225SOL     OW22573   2.095   6.477   6.907
 7225SOL    HW122574   2.103   6.423   6.823
 7225SOL    HW222575   2.033   6.432   6.971
 7226SOL     OW22576   7.014   6.416   0.676
 7226SOL    HW122577   6.993   6.347   0.745
 7226SOL    HW222578   0.082   6.394   0.633
 7227SOL     OW22579   0.210   2.512   6.840
 7227SOL    HW122580   0.111   2.500   6.833
 7227SOL    HW222581   0.240   2.585   6.778
 7228SOL     OW22582   0.857   0.741   2.336
 7228SOL    HW122583   0.842   0.668   2.269
 7228SOL    HW222584   0.945   0.785   2.320
 7229SOL     OW22585   0.559   0.469   3.801
 7229SOL    HW122586   0.469   0.493   3.766
 7229SOL    HW222587   0.562   0.372   3.824
 7230SOL     OW22588   5.196   4.120   3.190
 7230SOL    HW122589   5.143   4.048   3.146
 7230SOL    HW222590   5.220   4.091   3.283
 7231SOL     OW22591   5.893   1.233   6.443
 7231SOL    HW122592   5.886   1.322   6.487
 7231SOL    HW222593   5.825   1.226   6.370
 7232SOL     OW22594   4.266   4.524   1.566
 7232SOL    HW122595   4.224   4.576   1.641
 7232SOL    HW222596   4.295   4.587   1.494
 7233SOL     OW22597   6.761   2.333   6.821
 7233SOL    HW122598   6.673   2.319   6.867
 7233SOL    HW222599   6.746   2.381   6.734
 7234SOL     OW22600   6.318   1.594   2.016
 7234SOL    HW122601   6.281   1.617   1.926
 7234SOL    HW222602   6.283   1.659   2.084
 7235SOL     OW22603   5.786   3.605   5.423
 7235SOL    HW122604   5.756   3.587   5.516
 7235SOL    HW222605   5.741   3.541   5.360
 7236SOL     OW22606   3.170   0.342   2.971
 7236SOL    HW122607   3.102   0.366   2.902
 7236SOL    HW222608   3.262   0.345   2.930
 7237SOL     OW22609   5.981   5.490   5.880
 7237SOL    HW122610   6.064   5.516   5.831
 7237SOL    HW222611   5.927   5.572   5.900
 7238SOL     OW22612   1.937   1.583   0.936
 7238SOL    HW122613   1.892   1.629   1.013
 7238SOL    HW222614   1.901   1.490   0.928
 7239SOL     OW22615   3.740   1.592   1.329
 7239SOL    HW122616   3.665   1.635   1.278
 7239SOL    HW222617   3.742   1.628   1.422
 7240SOL     OW22618   2.724   4.587   0.733
 7240SOL    HW122619   2.679   4.503   0.704
 7240SOL    HW222620   2.752   4.579   0.829
 7241SOL     OW22621   4.039   0.030   5.333
 7241SOL    HW122622   3.982   6.991   5.276
 7241SOL    HW222623   4.128   7.007   5.347
 7242SOL     OW22624   5.267   4.995   0.067
 7242SOL    HW122625   5.327   5.067   0.101
 7242SOL    HW222626   5.319   4.910   0.057
 7243SOL     OW22627   0.345   5.751   0.638
 7243SOL    HW122628   0.267   5.801   0.601
 7243SOL    HW222629   0.428   5.778   0.590
 7244SOL     OW22630   5.916   1.117   1.532
 7244SOL    HW122631   5.951   1.024   1.527
 7244SOL    HW222632   5.972   1.170   1.597
 7245SOL     OW22633   0.114   2.085   3.511
 7245SOL    HW122634   0.117   2.009   3.576
 7245SOL    HW222635   0.055   2.060   3.434
 7246SOL     OW22636   0.171   6.253   5.928
 7246SOL    HW122637   0.226   6.292   5.854
 7246SOL    HW222638   0.231   6.211   5.996
 7247SOL     OW22639   3.285   5.411   2.868
 7247SOL    HW122640   3.357   5.358   2.823
 7247SOL    HW222641   3.320   5.445   2.956
 7248SOL     OW22642   3.568   0.542   4.732
 7248SOL    HW122643   3.645   0.552   4.669
 7248SOL    HW222644   3.515   0.627   4.734
 7249SOL     OW22645   6.323   5.708   6.771
 7249SOL    HW122646   6.285   5.665   6.852
 7249SOL    HW222647   6.372   5.640   6.716
 7250SOL     OW22648   3.060   4.330   6.575
 7250SOL    HW122649   3.047   4.243   6.529
 7250SOL    HW222650   3.116   4.317   6.657
 7251SOL     OW22651   5.838   0.133   5.229
 7251SOL    HW122652   5.807   0.120   5.135
 7251SOL    HW222653   5.892   0.216   5.236
 7252SOL     OW22654   3.666   3.609   4.798
 7252SOL    HW122655   3.737   3.571   4.739
 7252SOL    HW222656   3.588   3.637   4.742
 7253SOL     OW22657   5.260   6.295   1.488
 7253SOL    HW122658   5.314   6.305   1.404
 7253SOL    HW222659   5.226   6.384   1.517
 7254SOL     OW22660   4.793   5.994   5.298
 7254SOL    HW122661   4.857   6.022   5.369
 7254SOL    HW222662   4.807   5.898   5.276
 7255SOL     OW22663   3.799   3.928   2.403
 7255SOL    HW122664   3.793   4.005   2.340
 7255SOL    HW222665   3.892   3.923   2.440
 7256SOL     OW22666   4.497   5.017   4.282
 7256SOL    HW122667   4.577   4.958   4.291
 7256SOL    HW222668   4.417   4.961   4.262
 7257SOL     OW22669   5.870   4.218   3.130
 7257SOL    HW122670   5.807   4.156   3.178
 7257SOL    HW222671   5.837   4.233   3.037
 7258SOL     OW22672   3.965   6.912   4.713
 7258SOL    HW122673   4.002   6.833   4.664
 7258SOL    HW222674   4.031   6.988   4.709
 7259SOL     OW22675   2.629   5.073   5.963
 7259SOL    HW122676   2.686   5.153   5.944
 7259SOL    HW222677   2.685   4.991   5.964
 7260SOL     OW22678   3.660   1.811   1.863
 7260SOL    HW122679   3.665   1.843   1.958
 7260SOL    HW222680   3.750   1.822   1.820
 7261SOL     OW22681   1.360   3.575   2.247
 7261SOL    HW122682   1.318   3.649   2.193
 7261SOL    HW222683   1.448   3.607   2.284
 7262SOL     OW22684   6.454   1.876   5.360
 7262SOL    HW122685   6.521   1.944   5.389
 7262SOL    HW222686   6.416   1.904   5.272
 7263SOL     OW22687   3.608   6.443   1.811
 7263SOL    HW122688   3.559   6.526   1.785
 7263SOL    HW222689   3.564   6.363   1.770
 7264SOL     OW22690   0.875   6.791   5.659
 7264SOL    HW122691   0.794   6.734   5.664
 7264SOL    HW222692   0.882   6.831   5.567
 7265SOL     OW22693   4.349   4.842   5.853
 7265SOL    HW122694   4.272   4.784   5.878
 7265SOL    HW222695   4.345   4.928   5.905
 7266SOL     OW22696   5.942   1.488   2.160
 7266SOL    HW122697   5.909   1.532   2.077
 7266SOL    HW222698   5.909   1.394   2.165
 7267SOL     OW22699   6.872   4.032   4.199
 7267SOL    HW122700   6.887   4.037   4.100
 7267SOL    HW222701   6.934   4.095   4.245
 7268SOL     OW22702   3.113   6.987   1.394
 7268SOL    HW122703   3.090   6.904   1.342
 7268SOL    HW222704   3.212   6.993   1.407
 7269SOL     OW22705   1.118   6.745   1.488
 7269SOL    HW122706   1.203   6.715   1.445
 7269SOL    HW222707   1.046   6.679   1.469
 7270SOL     OW22708   3.232   1.159   2.790
 7270SOL    HW122709   3.145   1.204   2.809
 7270SOL    HW222710   3.236   1.072   2.838
 7271SOL     OW22711   6.573   3.902   3.426
 7271SOL    HW122712   6.514   3.873   3.351
 7271SOL    HW222713   6.614   3.821   3.469
 7272SOL     OW22714   5.542   2.245   1.109
 7272SOL    HW122715   5.578   2.301   1.183
 7272SOL    HW222716   5.535   2.150   1.140
 7273SOL     OW22717   5.607   4.738   6.872
 7273SOL    HW122718   5.601   4.644   6.838
 7273SOL    HW222719   5.701   4.771   6.862
 7274SOL     OW22720   7.010   4.730   5.271
 7274SOL    HW122721   6.972   4.762   5.357
 7274SOL    HW222722   6.955   4.654   5.237
 7275SOL     OW22723   6.021   0.002   1.050
 7275SOL    HW122724   6.032   0.094   1.012
 7275SOL    HW222725   6.075   6.957   0.996
 7276SOL     OW22726   2.954   1.768   3.488
 7276SOL    HW122727   2.906   1.846   3.526
 7276SOL    HW222728   2.890   1.692   3.476
 7277SOL     OW22729   5.652   1.488   4.819
 7277SOL    HW122730   5.644   1.534   4.908
 7277SOL    HW222731   5.633   1.554   4.747
 7278SOL     OW22732   2.408   1.360   3.029
 7278SOL    HW122733   2.344   1.343   3.104
 7278SOL    HW222734   2.498   1.382   3.066
 7279SOL     OW22735   4.680   4.249   1.011
 7279SOL    HW122736   4.637   4.168   1.051
 7279SOL    HW222737   4.774   4.227   0.985
 7280SOL     OW22738   6.142   2.253   5.543
 7280SOL    HW122739   6.188   2.342   5.545
 7280SOL    HW222740   6.187   2.194   5.475
 7281SOL     OW22741   4.306   5.328   1.961
 7281SOL    HW122742   4.323   5.417   2.003
 7281SOL    HW222743   4.344   5.256   2.020
 7282SOL     OW22744   6.534   3.903   2.520
 7282SOL    HW122745   6.579   3.840   2.583
 7282SOL    HW222746   6.435   3.893   2.529
 7283SOL     OW22747   4.240   4.672   2.906
 7283SOL    HW122748   4.199   4.729   2.977
 7283SOL    HW222749   4.223   4.713   2.817
 7284SOL     OW22750   0.148   1.841   2.827
 7284SOL    HW122751   0.127   1.907   2.754
 7284SOL    HW222752   0.186   1.758   2.787
 7285SOL     OW22753   5.005   3.168   1.796
 7285SOL    HW122754   4.911   3.193   1.773
 7285SOL    HW222755   5.032   3.215   1.880
 7286SOL     OW22756   0.161   1.433   3.120
 7286SOL    HW122757   0.238   1.387   3.164
 7286SOL    HW222758   0.077   1.381   3.135
 7287SOL     OW22759   1.835   2.104   3.337
 7287SOL    HW122760   1.750   2.075   3.380
 7287SOL    HW222761   1.823   2.104   3.237
 7288SOL     OW22762   2.579   1.754   2.697
 7288SOL    HW122763   2.607   1.839   2.740
 7288SOL    HW222764   2.483   1.760   2.668
 7289SOL     OW22765   6.465   1.547   1.260
 7289SOL    HW122766   6.562   1.573   1.256
 7289SOL    HW222767   6.408   1.626   1.236
 7290SOL     OW22768   3.602   1.111   5.250
 7290SOL    HW122769   3.542   1.189   5.270
 7290SOL    HW222770   3.589   1.040   5.319
 7291SOL     OW22771   3.336   1.479   0.688
 7291SOL    HW122772   3.429   1.514   0.692
 7291SOL    HW222773   3.312   1.437   0.777
 7292SOL     OW22774   2.774   0.684   2.625
 7292SOL    HW122775   2.870   0.656   2.635
 7292SOL    HW222776   2.750   0.682   2.528
 7293SOL     OW22777   0.348   1.874   4.162
 7293SOL    HW122778   0.259   1.912   4.138
 7293SOL    HW222779   0.400   1.941   4.214
 7294SOL     OW22780   3.530   6.582   2.513
 7294SOL    HW122781   3.498   6.643   2.586
 7294SOL    HW222782   3.452   6.536   2.471
 7295SOL     OW22783   5.999   5.222   1.745
 7295SOL    HW122784   6.022   5.127   1.767
 7295SOL    HW222785   5.907   5.243   1.778
 7296SOL     OW22786   4.861   4.676   2.126
 7296SOL    HW122787   4.789   4.741   2.153
 7296SOL    HW222788   4.948   4.725   2.117
 7297SOL     OW22789   4.183   6.852   1.579
 7297SOL    HW122790   4.205   6.758   1.605
 7297SOL    HW222791   4.261   6.892   1.530
 7298SOL     OW22792   4.090   5.132   6.703
 7298SOL    HW122793   4.068   5.075   6.783
 7298SOL    HW222794   4.089   5.075   6.621
 7299SOL     OW22795   1.053   2.569   6.162
 7299SOL    HW122796   0.964   2.601   6.192
 7299SOL    HW222797   1.045   2.478   6.123
 7300SOL     OW22798   0.419   4.835   2.257
 7300SOL    HW122799   0.389   4.740   2.253
 7300SOL    HW222800   0.340   4.895   2.248
 7301SOL     OW22801   4.469   1.954   5.648
 7301SOL    HW122802   4.463   2.047   5.610
 7301SOL    HW222803   4.491   1.890   5.575
 7302SOL     OW22804   5.518   1.986   6.143
 7302SOL    HW122805   5.466   1.901   6.135
 7302SOL    HW222806   5.522   2.013   6.240
 7303SOL     OW22807   2.836   1.677   1.717
 7303SOL    HW122808   2.814   1.609   1.648
 7303SOL    HW222809   2.887   1.634   1.792
 7304SOL     OW22810   2.580   5.545   1.372
 7304SOL    HW122811   2.566   5.636   1.411
 7304SOL    HW222812   2.529   5.537   1.286
 7305SOL     OW22813   6.433   1.309   0.749
 7305SOL    HW122814   6.334   1.298   0.748
 7305SOL    HW222815   6.475   1.223   0.777
 7306SOL     OW22816   0.372   2.492   1.152
 7306SOL    HW122817   0.354   2.522   1.246
 7306SOL    HW222818   0.311   2.540   1.089
 7307SOL     OW22819   2.567   0.154   1.101
 7307SOL    HW122820   2.520   0.068   1.121
 7307SOL    HW222821   2.625   0.179   1.179
 7308SOL     OW22822   5.019   1.222   2.821
 7308SOL    HW122823   4.968   1.306   2.842
 7308SOL    HW222824   4.956   1.152   2.789
 7309SOL     OW22825   2.650   5.022   3.516
 7309SOL    HW122826   2.565   4.970   3.520
 7309SOL    HW222827   2.708   4.985   3.444
 7310SOL     OW22828   2.178   2.761   6.001
 7310SOL    HW122829   2.276   2.769   6.019
 7310SOL    HW222830   2.135   2.706   6.072
 7311SOL     OW22831   0.192   6.057   6.643
 7311SOL    HW122832   0.133   6.129   6.607
 7311SOL    HW222833   0.278   6.056   6.592
 7312SOL     OW22834   6.587   2.049   3.843
 7312SOL    HW122835   6.630   2.078   3.928
 7312SOL    HW222836   6.654   2.003   3.785
 7313SOL     OW22837   2.623   0.833   2.809
 7313SOL    HW122838   2.680   0.788   2.741
 7313SOL    HW222839   2.532   0.849   2.770
 7314SOL     OW22840   0.179   4.058   6.259
 7314SOL    HW122841   0.127   4.045   6.343
 7314SOL    HW222842   0.234   3.976   6.242
 7315SOL     OW22843   1.889   4.855   2.258
 7315SOL    HW122844   1.938   4.942   2.251
 7315SOL    HW222845   1.927   4.791   2.191
 7316SOL     OW22846   3.198   2.347   1.220
 7316SOL    HW122847   3.191   2.404   1.138
 7316SOL    HW222848   3.278   2.288   1.213
 7317SOL     OW22849   3.825   1.705   0.475
 7317SOL    HW122850   3.776   1.773   0.529
 7317SOL    HW222851   3.760   1.658   0.415
 7318SOL     OW22852   4.827   6.005   0.982
 7318SOL    HW122853   4.847   5.926   1.040
 7318SOL    HW222854   4.741   6.046   1.010
 7319SOL     OW22855   5.715   5.449   6.530
 7319SOL    HW122856   5.789   5.386   6.503
 7319SOL    HW222857   5.752   5.519   6.590
 7320SOL     OW22858   6.980   2.235   1.328
 7320SOL    HW122859   7.003   2.187   1.413
 7320SOL    HW222860   7.020   2.186   1.250
 7321SOL     OW22861   1.361   0.898   0.089
 7321SOL    HW122862   1.431   0.965   0.111
 7321SOL    HW222863   1.309   0.875   0.171
 7322SOL     OW22864   1.113   2.591   2.816
 7322SOL    HW122865   1.211   2.606   2.802
 7322SOL    HW222866   1.100   2.531   2.896
 7323SOL     OW22867   0.640   2.798   0.944
 7323SOL    HW122868   0.562   2.795   0.882
 7323SOL    HW222869   0.632   2.877   1.004
 7324SOL     OW22870   5.890   4.638   3.259
 7324SOL    HW122871   5.841   4.557   3.293
 7324SOL    HW222872   5.842   4.721   3.287
 7325SOL     OW22873   4.447   0.904   5.947
 7325SOL    HW122874   4.479   0.987   5.901
 7325SOL    HW222875   4.384   0.855   5.887
 7326SOL     OW22876   3.561   0.153   0.219
 7326SOL    HW122877   3.648   0.125   0.180
 7326SOL    HW222878   3.489   0.148   0.149
 7327SOL     OW22879   1.172   4.400   3.415
 7327SOL    HW122880   1.154   4.477   3.476
 7327SOL    HW222881   1.205   4.322   3.468
 7328SOL     OW22882   4.359   5.194   4.544
 7328SOL    HW122883   4.446   5.168   4.587
 7328SOL    HW222884   4.355   5.294   4.536
 7329SOL     OW22885   3.546   3.406   1.083
 7329SOL    HW122886   3.464   3.434   1.134
 7329SOL    HW222887   3.518   3.361   0.998
 7330SOL     OW22888   2.716   3.337   1.640
 7330SOL    HW122889   2.640   3.362   1.580
 7330SOL    HW222890   2.792   3.400   1.626
 7331SOL     OW22891   5.493   2.455   2.335
 7331SOL    HW122892   5.406   2.497   2.362
 7331SOL    HW222893   5.567   2.492   2.390
 7332SOL     OW22894   3.526   6.051   5.969
 7332SOL    HW122895   3.443   6.089   5.928
 7332SOL    HW222896   3.557   5.973   5.915
 7333SOL     OW22897   0.912   0.935   0.553
 7333SOL    HW122898   1.012   0.940   0.546
 7333SOL    HW222899   0.878   1.017   0.598
 7334SOL     OW22900   2.913   6.705   4.293
 7334SOL    HW122901   3.005   6.739   4.274
 7334SOL    HW222902   2.898   6.700   4.392
 7335SOL     OW22903   6.281   3.396   1.791
 7335SOL    HW122904   6.305   3.472   1.731
 7335SOL    HW222905   6.276   3.428   1.886
 7336SOL     OW22906   1.994   6.519   1.723
 7336SOL    HW122907   1.949   6.591   1.671
 7336SOL    HW222908   1.930   6.443   1.737
 7337SOL     OW22909   2.286   1.669   3.440
 7337SOL    HW122910   2.341   1.585   3.447
 7337SOL    HW222911   2.326   1.740   3.498
 7338SOL     OW22912   5.019   3.487   1.587
 7338SOL    HW122913   5.050   3.577   1.557
 7338SOL    HW222914   4.958   3.497   1.666
 7339SOL     OW22915   6.800   5.832   4.431
 7339SOL    HW122916   6.798   5.911   4.492
 7339SOL    HW222917   6.891   5.823   4.391
 7340SOL     OW22918   2.534   6.805   0.897
 7340SOL    HW122919   2.449   6.810   0.846
 7340SOL    HW222920   2.527   6.861   0.979
 7341SOL     OW22921   6.447   5.521   4.474
 7341SOL    HW122922   6.516   5.521   4.401
 7341SOL    HW222923   6.359   5.491   4.437
 7342SOL     OW22924   1.278   5.314   1.343
 7342SOL    HW122925   1.305   5.306   1.247
 7342SOL    HW222926   1.291   5.227   1.389
 7343SOL     OW22927   5.255   3.119   2.876
 7343SOL    HW122928   5.263   3.021   2.897
 7343SOL    HW222929   5.345   3.156   2.852
 7344SOL     OW22930   2.129   1.182   0.096
 7344SOL    HW122931   2.123   1.086   0.069
 7344SOL    HW222932   2.161   1.237   0.019
 7345SOL     OW22933   3.713   5.487   0.450
 7345SOL    HW122934   3.706   5.583   0.424
 7345SOL    HW222935   3.624   5.443   0.438
 7346SOL     OW22936   3.922   4.591   1.725
 7346SOL    HW122937   3.955   4.500   1.701
 7346SOL    HW222938   3.991   4.639   1.779
 7347SOL     OW22939   5.821   2.449   2.975
 7347SOL    HW122940   5.897   2.467   2.913
 7347SOL    HW222941   5.757   2.385   2.933
 7348SOL     OW22942   0.701   2.317   4.213
 7348SOL    HW122943   0.771   2.334   4.283
 7348SOL    HW222944   0.610   2.317   4.256
 7349SOL     OW22945   3.886   1.403   0.450
 7349SOL    HW122946   3.920   1.496   0.460
 7349SOL    HW222947   3.904   1.351   0.534
 7350SOL     OW22948   2.470   0.738   3.055
 7350SOL    HW122949   2.478   0.653   3.003
 7350SOL    HW222950   2.531   0.807   3.017
 7351SOL     OW22951   3.944   4.720   6.979
 7351SOL    HW122952   3.854   4.721   6.936
 7351SOL    HW222953   3.949   4.642   0.023
 7352SOL     OW22954   6.512   1.268   3.292
 7352SOL    HW122955   6.431   1.211   3.299
 7352SOL    HW222956   6.592   1.216   3.322
 7353SOL     OW22957   4.957   2.567   4.870
 7353SOL    HW122958   5.041   2.519   4.893
 7353SOL    HW222959   4.949   2.575   4.771
 7354SOL     OW22960   6.132   4.011   5.597
 7354SOL    HW122961   6.175   4.084   5.650
 7354SOL    HW222962   6.194   3.932   5.593
 7355SOL     OW22963   1.436   4.632   1.983
 7355SOL    HW122964   1.392   4.688   1.913
 7355SOL    HW222965   1.388   4.544   1.990
 7356SOL     OW22966   6.059   1.802   5.633
 7356SOL    HW122967   6.039   1.777   5.727
 7356SOL    HW222968   6.031   1.897   5.616
 7357SOL     OW22969   6.733   1.707   0.197
 7357SOL    HW122970   6.761   1.776   0.264
 7357SOL    HW222971   6.712   1.621   0.244
 7358SOL     OW22972   3.052   0.764   4.340
 7358SOL    HW122973   3.069   0.772   4.242
 7358SOL    HW222974   2.961   0.725   4.355
 7359SOL     OW22975   3.794   3.269   3.375
 7359SOL    HW122976   3.774   3.172   3.360
 7359SOL    HW222977   3.723   3.324   3.333
 7360SOL     OW22978   0.182   2.440   6.092
 7360SOL    HW122979   0.145   2.529   6.066
 7360SOL    HW222980   0.274   2.452   6.130
 7361SOL     OW22981   5.303   6.934   2.769
 7361SOL    HW122982   5.391   6.961   2.730
 7361SOL    HW222983   5.277   6.997   2.842
 7362SOL     OW22984   1.497   6.283   5.938
 7362SOL    HW122985   1.519   6.245   5.848
 7362SOL    HW222986   1.569   6.348   5.965
 7363SOL     OW22987   5.095   2.671   6.422
 7363SOL    HW122988   5.038   2.655   6.342
 7363SOL    HW222989   5.184   2.706   6.393
 7364SOL     OW22990   5.468   0.410   1.752
 7364SOL    HW122991   5.549   0.466   1.737
 7364SOL    HW222992   5.395   0.440   1.691
 7365SOL     OW22993   3.541   0.652   2.112
 7365SOL    HW122994   3.536   0.597   2.029
 7365SOL    HW222995   3.454   0.699   2.126
 7366SOL     OW22996   0.719   5.818   0.649
 7366SOL    HW122997   0.714   5.737   0.707
 7366SOL    HW222998   0.676   5.798   0.561
 7367SOL     OW22999   4.822   3.771   7.009
 7367SOL    HW123000   4.837   3.712   0.069
 7367SOL    HW223001   4.724   3.787   6.998
 7368SOL     OW23002   3.342   3.721   3.599
 7368SOL    HW123003   3.292   3.800   3.563
 7368SOL    HW223004   3.438   3.744   3.611
 7369SOL     OW23005   4.300   2.131   6.956
 7369SOL    HW123006   4.315   2.148   6.859
 7369SOL    HW223007   4.201   2.126   6.973
 7370SOL     OW23008   1.946   5.777   1.483
 7370SOL    HW123009   2.007   5.852   1.509
 7370SOL    HW223010   1.942   5.710   1.558
 7371SOL     OW23011   2.778   5.154   4.735
 7371SOL    HW123012   2.741   5.064   4.712
 7371SOL    HW223013   2.744   5.221   4.670
 7372SOL     OW23014   3.405   6.835   6.178
 7372SOL    HW123015   3.371   6.814   6.087
 7372SOL    HW223016   3.338   6.804   6.246
 7373SOL     OW23017   3.557   0.796   1.280
 7373SOL    HW123018   3.554   0.853   1.198
 7373SOL    HW223019   3.541   0.852   1.361
 7374SOL     OW23020   1.595   3.119   6.029
 7374SOL    HW123021   1.599   3.153   5.935
 7374SOL    HW223022   1.667   3.163   6.083
 7375SOL     OW23023   0.815   0.311   3.120
 7375SOL    HW123024   0.752   0.235   3.136
 7375SOL    HW223025   0.904   0.290   3.162
 7376SOL     OW23026   3.001   4.109   5.881
 7376SOL    HW123027   2.989   4.131   5.978
 7376SOL    HW223028   2.961   4.019   5.862
 7377SOL     OW23029   4.375   4.476   1.262
 7377SOL    HW123030   4.389   4.574   1.281
 7377SOL    HW223031   4.396   4.423   1.344
 7378SOL     OW23032   6.744   1.369   5.319
 7378SOL    HW123033   6.799   1.401   5.242
 7378SOL    HW223034   6.647   1.372   5.294
 7379SOL     OW23035   3.138   1.357   1.749
 7379SOL    HW123036   3.133   1.360   1.649
 7379SOL    HW223037   3.233   1.350   1.778
 7380SOL     OW23038   6.912   3.246   5.436
 7380SOL    HW123039   6.889   3.163   5.486
 7380SOL    HW223040   6.875   3.240   5.343
 7381SOL     OW23041   5.715   2.451   0.495
 7381SOL    HW123042   5.755   2.503   0.571
 7381SOL    HW223043   5.618   2.437   0.512
 7382SOL     OW23044   0.575   6.087   3.551
 7382SOL    HW123045   0.600   6.069   3.456
 7382SOL    HW223046   0.479   6.065   3.565
 7383SOL     OW23047   0.084   6.176   3.400
 7383SOL    HW123048   0.051   6.266   3.430
 7383SOL    HW223049   0.023   6.105   3.436
 7384SOL     OW23050   5.924   1.135   2.611
 7384SOL    HW123051   5.908   1.042   2.578
 7384SOL    HW223052   5.851   1.195   2.580
 7385SOL     OW23053   4.978   6.727   1.544
 7385SOL    HW123054   4.965   6.764   1.452
 7385SOL    HW223055   4.989   6.803   1.609
 7386SOL     OW23056   0.337   2.374   5.692
 7386SOL    HW123057   0.357   2.314   5.615
 7386SOL    HW223058   0.307   2.464   5.657
 7387SOL     OW23059   4.017   5.780   3.458
 7387SOL    HW123060   3.960   5.817   3.532
 7387SOL    HW223061   4.079   5.851   3.425
 7388SOL     OW23062   6.689   4.944   3.825
 7388SOL    HW123063   6.598   4.983   3.809
 7388SOL    HW223064   6.725   4.978   3.911
 7389SOL     OW23065   1.146   4.105   6.127
 7389SOL    HW123066   1.082   4.072   6.197
 7389SOL    HW223067   1.204   4.030   6.096
 7390SOL     OW23068   2.563   6.436   5.373
 7390SOL    HW123069   2.486   6.374   5.392
 7390SOL    HW223070   2.543   6.526   5.411
 7391SOL     OW23071   6.422   2.970   6.839
 7391SOL    HW123072   6.473   2.967   6.753
 7391SOL    HW223073   6.486   2.980   6.915
 7392SOL     OW23074   2.416   4.536   3.527
 7392SOL    HW123075   2.428   4.477   3.447
 7392SOL    HW223076   2.503   4.582   3.547
 7393SOL     OW23077   0.252   3.853   1.645
 7393SOL    HW123078   0.323   3.820   1.707
 7393SOL    HW223079   0.281   3.937   1.601
 7394SOL     OW23080   2.954   3.416   6.213
 7394SOL    HW123081   2.856   3.435   6.208
 7394SOL    HW223082   3.004   3.482   6.157
 7395SOL     OW23083   1.626   6.202   0.160
 7395SOL    HW123084   1.634   6.276   0.093
 7395SOL    HW223085   1.536   6.160   0.151
 7396SOL     OW23086   1.043   0.028   6.895
 7396SOL    HW123087   1.011   6.978   6.958
 7396SOL    HW223088   0.976   0.038   6.821
 7397SOL     OW23089   6.136   5.430   4.831
 7397SOL    HW123090   6.161   5.339   4.798
 7397SOL    HW223091   6.204   5.496   4.800
 7398SOL     OW23092   3.994   5.298   3.251
 7398SOL    HW123093   3.903   5.262   3.229
 7398SOL    HW223094   3.984   5.381   3.306
 7399SOL     OW23095   4.886   4.037   5.239
 7399SOL    HW123096   4.899   4.135   5.220
 7399SOL    HW223097   4.879   3.987   5.153
 7400SOL     OW23098   1.932   5.191   6.501
 7400SOL    HW123099   1.912   5.289   6.504
 7400SOL    HW223100   1.996   5.167   6.574
 7401SOL     OW23101   6.261   1.724   4.302
 7401SOL    HW123102   6.312   1.731   4.216
 7401SOL    HW223103   6.317   1.677   4.371
 7402SOL     OW23104   2.481   0.171   3.694
 7402SOL    HW123105   2.449   0.218   3.776
 7402SOL    HW223106   2.502   0.238   3.623
 7403SOL     OW23107   1.889   3.117   1.851
 7403SOL    HW123108   1.869   3.088   1.945
 7403SOL    HW223109   1.806   3.110   1.796
 7404SOL     OW23110   1.223   0.987   2.161
 7404SOL    HW123111   1.164   1.033   2.094
 7404SOL    HW223112   1.175   0.910   2.201
 7405SOL     OW23113   2.578   4.885   6.197
 7405SOL    HW123114   2.652   4.946   6.226
 7405SOL    HW223115   2.576   4.804   6.255
 7406SOL     OW23116   0.238   5.113   1.544
 7406SOL    HW123117   0.243   5.145   1.449
 7406SOL    HW223118   0.182   5.030   1.548
 7407SOL     OW23119   2.040   6.902   6.270
 7407SOL    HW123120   2.049   6.992   6.312
 7407SOL    HW223121   1.944   6.878   6.262
 7408SOL     OW23122   0.946   3.853   5.641
 7408SOL    HW123123   0.937   3.891   5.549
 7408SOL    HW223124   0.995   3.918   5.699
 7409SOL     OW23125   3.232   4.882   5.816
 7409SOL    HW123126   3.139   4.847   5.817
 7409SOL    HW223127   3.254   4.915   5.724
 7410SOL     OW23128   6.171   4.800   0.852
 7410SOL    HW123129   6.223   4.875   0.811
 7410SOL    HW223130   6.112   4.758   0.783
 7411SOL     OW23131   4.781   5.739   5.276
 7411SOL    HW123132   4.848   5.665   5.271
 7411SOL    HW223133   4.692   5.705   5.243
 7412SOL     OW23134   1.069   2.004   0.103
 7412SOL    HW123135   0.981   2.049   0.124
 7412SOL    HW223136   1.126   2.004   0.185
 7413SOL     OW23137   6.793   3.197   4.894
 7413SOL    HW123138   6.748   3.227   4.810
 7413SOL    HW223139   6.884   3.240   4.900
 7414SOL     OW23140   6.666   5.470   3.186
 7414SOL    HW123141   6.642   5.381   3.148
 7414SOL    HW223142   6.630   5.478   3.279
 7415SOL     OW23143   1.904   2.379   2.703
 7415SOL    HW123144   1.949   2.455   2.657
 7415SOL    HW223145   1.969   2.304   2.716
 7416SOL     OW23146   4.813   6.691   4.343
 7416SOL    HW123147   4.736   6.696   4.280
 7416SOL    HW223148   4.895   6.729   4.300
 7417SOL     OW23149   1.014   6.441   0.597
 7417SOL    HW123150   1.033   6.527   0.551
 7417SOL    HW223151   0.965   6.380   0.535
 7418SOL     OW23152   1.726   3.386   0.913
 7418SOL    HW123153   1.787   3.307   0.920
 7418SOL    HW223154   1.753   3.441   0.834
 7419SOL     OW23155   6.579   1.203   5.034
 7419SOL    HW123156   6.674   1.174   5.021
 7419SOL    HW223157   6.521   1.122   5.043
 7420SOL     OW23158   0.241   5.565   1.881
 7420SOL    HW123159   0.244   5.636   1.811
 7420SOL    HW223160   0.295   5.486   1.852
 7421SOL     OW23161   4.095   3.216   0.969
 7421SOL    HW123162   4.101   3.247   1.064
 7421SOL    HW223163   4.173   3.157   0.949
 7422SOL     OW23164   0.974   3.223   0.689
 7422SOL    HW123165   0.924   3.298   0.732
 7422SOL    HW223166   1.059   3.206   0.740
 7423SOL     OW23167   2.061   6.105   6.868
 7423SOL    HW123168   2.135   6.170   6.850
 7423SOL    HW223169   1.983   6.153   6.907
 7424SOL     OW23170   5.641   1.437   4.087
 7424SOL    HW123171   5.605   1.344   4.093
 7424SOL    HW223172   5.650   1.463   3.991
 7425SOL     OW23173   3.718   5.764   6.016
 7425SOL    HW123174   3.765   5.838   5.967
 7425SOL    HW223175   3.772   5.681   6.011
 7426SOL     OW23176   1.034   1.102   6.910
 7426SOL    HW123177   1.040   1.183   6.851
 7426SOL    HW223178   1.123   1.056   6.913
 7427SOL     OW23179   4.145   5.137   4.046
 7427SOL    HW123180   4.127   5.150   4.144
 7427SOL    HW223181   4.079   5.072   4.009
 7428SOL     OW23182   3.211   1.937   5.868
 7428SOL    HW123183   3.284   1.901   5.809
 7428SOL    HW223184   3.252   1.996   5.938
 7429SOL     OW23185   6.151   0.062   3.785
 7429SOL    HW123186   6.233   0.051   3.841
 7429SOL    HW223187   6.165   0.135   3.719
 7430SOL     OW23188   6.548   3.912   5.113
 7430SOL    HW123189   6.645   3.912   5.091
 7430SOL    HW223190   6.537   3.913   5.213
 7431SOL     OW23191   0.983   3.945   2.107
 7431SOL    HW123192   0.917   3.997   2.162
 7431SOL    HW223193   1.020   4.003   2.035
 7432SOL     OW23194   0.596   6.204   5.074
 7432SOL    HW123195   0.636   6.213   4.983
 7432SOL    HW223196   0.562   6.111   5.087
 7433SOL     OW23197   6.065   5.904   1.094
 7433SOL    HW123198   6.149   5.880   1.045
 7433SOL    HW223199   6.047   6.002   1.085
 7434SOL     OW23200   4.437   1.053   6.396
 7434SOL    HW123201   4.364   1.040   6.329
 7434SOL    HW223202   4.490   1.135   6.372
 7435SOL     OW23203   2.433   6.182   0.350
 7435SOL    HW123204   2.526   6.185   0.385
 7435SOL    HW223205   2.368   6.197   0.426
 7436SOL     OW23206   5.136   2.847   0.597
 7436SOL    HW123207   5.183   2.927   0.560
 7436SOL    HW223208   5.183   2.764   0.566
 7437SOL     OW23209   0.531   5.818   6.143
 7437SOL    HW123210   0.562   5.781   6.055
 7437SOL    HW223211   0.443   5.863   6.131
 7438SOL     OW23212   6.323   4.713   1.699
 7438SOL    HW123213   6.395   4.653   1.664
 7438SOL    HW223214   6.302   4.689   1.794
 7439SOL     OW23215   1.132   6.629   3.453
 7439SOL    HW123216   1.176   6.668   3.372
 7439SOL    HW223217   1.032   6.632   3.441
 7440SOL     OW23218   1.421   2.180   3.924
 7440SOL    HW123219   1.352   2.169   3.853
 7440SOL    HW223220   1.511   2.189   3.882
 7441SOL     OW23221   5.338   0.045   4.121
 7441SOL    HW123222   5.403   0.014   4.190
 7441SOL    HW223223   5.255   0.080   4.166
 7442SOL     OW23224   1.759   1.395   6.919
 7442SOL    HW123225   1.812   1.435   6.844
 7442SOL    HW223226   1.790   1.302   6.935
 7443SOL     OW23227   0.140   0.596   0.537
 7443SOL    HW123228   0.043   0.610   0.519
 7443SOL    HW223229   0.184   0.684   0.555
 7444SOL     OW23230   0.389   2.555   6.313
 7444SOL    HW123231   0.456   2.607   6.367
 7444SOL    HW223232   0.297   2.587   6.336
 7445SOL     OW23233   5.381   2.609   1.945
 7445SOL    HW123234   5.290   2.600   1.904
 7445SOL    HW223235   5.407   2.523   1.988
 7446SOL     OW23236   6.550   3.120   1.416
 7446SOL    HW123237   6.477   3.126   1.485
 7446SOL    HW223238   6.511   3.130   1.325
 7447SOL     OW23239   0.843   4.572   5.866
 7447SOL    HW123240   0.758   4.624   5.867
 7447SOL    HW223241   0.857   4.529   5.956
 7448SOL     OW23242   6.909   6.737   5.935
 7448SOL    HW123243   6.939   6.820   5.981
 7448SOL    HW223244   6.978   6.666   5.946
 7449SOL     OW23245   5.321   2.108   2.449
 7449SOL    HW123246   5.381   2.135   2.373
 7449SOL    HW223247   5.363   2.132   2.536
 7450SOL     OW23248   3.405   1.099   3.052
 7450SOL    HW123249   3.455   1.105   2.966
 7450SOL    HW223250   3.353   1.013   3.055
 7451SOL     OW23251   1.888   0.628   4.176
 7451SOL    HW123252   1.907   0.726   4.172
 7451SOL    HW223253   1.874   0.600   4.271
 7452SOL     OW23254   1.736   6.566   5.405
 7452SOL    HW123255   1.735   6.481   5.351
 7452SOL    HW223256   1.828   6.583   5.438
 7453SOL     OW23257   6.241   5.965   5.262
 7453SOL    HW123258   6.340   5.967   5.280
 7453SOL    HW223259   6.207   5.872   5.271
 7454SOL     OW23260   0.508   3.585   0.793
 7454SOL    HW123261   0.561   3.501   0.807
 7454SOL    HW223262   0.525   3.620   0.701
 7455SOL     OW23263   4.822   2.364   0.288
 7455SOL    HW123264   4.789   2.273   0.261
 7455SOL    HW223265   4.745   2.421   0.316
 7456SOL     OW23266   2.044   3.686   4.756
 7456SOL    HW123267   2.048   3.779   4.793
 7456SOL    HW223268   2.034   3.621   4.832
 7457SOL     OW23269   5.735   0.996   6.057
 7457SOL    HW123270   5.775   0.906   6.075
 7457SOL    HW223271   5.773   1.033   5.973
 7458SOL     OW23272   2.656   1.348   0.074
 7458SOL    HW123273   2.570   1.317   0.114
 7458SOL    HW223274   2.668   1.445   0.094
 7459SOL     OW23275   4.634   0.870   4.416
 7459SOL    HW123276   4.616   0.893   4.512
 7459SOL    HW223277   4.550   0.878   4.363
 7460SOL     OW23278   0.639   4.820   6.948
 7460SOL    HW123279   0.708   4.756   6.979
 7460SOL    HW223280   0.549   4.792   6.982
 7461SOL     OW23281   4.917   0.853   4.459
 7461SOL    HW123282   4.824   0.821   4.442
 7461SOL    HW223283   4.959   0.881   4.373
 7462SOL     OW23284   2.453   1.595   2.117
 7462SOL    HW123285   2.541   1.555   2.091
 7462SOL    HW223286   2.452   1.692   2.092
 7463SOL     OW23287   3.474   3.602   2.802
 7463SOL    HW123288   3.512   3.695   2.799
 7463SOL    HW223289   3.507   3.556   2.884
 7464SOL     OW23290   5.538   6.076   0.644
 7464SOL    HW123291   5.526   6.091   0.546
 7464SOL    HW223292   5.476   6.003   0.674
 7465SOL     OW23293   2.830   0.596   1.860
 7465SOL    HW123294   2.759   0.636   1.802
 7465SOL    HW223295   2.828   0.640   1.950
 7466SOL     OW23296   0.877   0.601   6.549
 7466SOL    HW123297   0.853   0.585   6.454
 7466SOL    HW223298   0.796   0.591   6.607
 7467SOL     OW23299   6.814   1.387   1.216
 7467SOL    HW123300   6.794   1.405   1.313
 7467SOL    HW223301   6.899   1.336   1.208
 7468SOL     OW23302   6.533   2.961   2.924
 7468SOL    HW123303   6.620   2.912   2.928
 7468SOL    HW223304   6.481   2.944   3.008
 7469SOL     OW23305   0.414   1.615   1.967
 7469SOL    HW123306   0.508   1.645   1.952
 7469SOL    HW223307   0.360   1.689   2.006
 7470SOL     OW23308   6.930   2.531   2.247
 7470SOL    HW123309   7.003   2.476   2.288
 7470SOL    HW223310   6.884   2.479   2.176
 7471SOL     OW23311   5.981   6.266   5.652
 7471SOL    HW123312   6.030   6.198   5.599
 7471SOL    HW223313   5.884   6.241   5.658
 7472SOL     OW23314   3.347   6.936   2.964
 7472SOL    HW123315   3.336   7.011   2.899
 7472SOL    HW223316   3.432   6.949   3.016
 7473SOL     OW23317   6.793   3.671   4.643
 7473SOL    HW123318   6.782   3.767   4.666
 7473SOL    HW223319   6.872   3.634   4.692
 7474SOL     OW23320   3.904   1.018   3.140
 7474SOL    HW123321   3.949   1.078   3.207
 7474SOL    HW223322   3.909   1.059   3.049
 7475SOL     OW23323   4.022   1.295   0.776
 7475SOL    HW123324   3.944   1.287   0.838
 7475SOL    HW223325   4.001   1.250   0.689
 7476SOL     OW23326   4.314   6.827   4.965
 7476SOL    HW123327   4.247   6.785   5.027
 7476SOL    HW223328   4.390   6.865   5.018
 7477SOL     OW23329   4.608   2.063   3.960
 7477SOL    HW123330   4.567   2.086   4.048
 7477SOL    HW223331   4.701   2.100   3.956
 7478SOL     OW23332   1.333   4.842   1.086
 7478SOL    HW123333   1.348   4.836   1.185
 7478SOL    HW223334   1.385   4.770   1.040
 7479SOL     OW23335   4.570   0.580   6.720
 7479SOL    HW123336   4.512   0.658   6.695
 7479SOL    HW223337   4.513   0.500   6.739
 7480SOL     OW23338   6.898   5.396   1.000
 7480SOL    HW123339   6.823   5.453   0.967
 7480SOL    HW223340   6.985   5.432   0.965
 7481SOL     OW23341   5.750   5.280   0.955
 7481SOL    HW123342   5.834   5.328   0.928
 7481SOL    HW223343   5.674   5.314   0.900
 7482SOL     OW23344   5.234   0.344   4.093
 7482SOL    HW123345   5.144   0.355   4.051
 7482SOL    HW223346   5.305   0.367   4.026
 7483SOL     OW23347   3.579   0.648   6.042
 7483SOL    HW123348   3.580   0.682   6.136
 7483SOL    HW223349   3.673   0.646   6.007
 7484SOL     OW23350   1.745   6.992   2.301
 7484SOL    HW123351   1.755   0.063   2.259
 7484SOL    HW223352   1.693   7.001   2.386
 7485SOL     OW23353   1.816   6.520   6.611
 7485SOL    HW123354   1.723   6.552   6.593
 7485SOL    HW223355   1.819   6.474   6.700
 7486SOL     OW23356   2.484   6.692   5.455
 7486SOL    HW123357   2.400   6.739   5.425
 7486SOL    HW223358   2.500   6.711   5.551
 7487SOL     OW23359   3.639   6.040   3.954
 7487SOL    HW123360   3.557   6.026   3.899
 7487SOL    HW223361   3.711   6.079   3.897
 7488SOL     OW23362   3.863   0.860   5.924
 7488SOL    HW123363   3.838   0.763   5.916
 7488SOL    HW223364   3.788   0.910   5.969
 7489SOL     OW23365   5.389   3.532   3.497
 7489SOL    HW123366   5.303   3.490   3.465
 7489SOL    HW223367   5.443   3.561   3.419
 7490SOL     OW23368   5.636   1.438   1.747
 7490SOL    HW123369   5.578   1.437   1.665
 7490SOL    HW223370   5.600   1.373   1.814
 7491SOL     OW23371   6.812   5.548   6.597
 7491SOL    HW123372   6.808   5.471   6.534
 7491SOL    HW223373   6.880   5.614   6.564
 7492SOL     OW23374   1.585   2.957   4.294
 7492SOL    HW123375   1.593   2.896   4.373
 7492SOL    HW223376   1.493   2.951   4.256
 7493SOL     OW23377   4.868   3.640   6.705
 7493SOL    HW123378   4.934   3.609   6.773
 7493SOL    HW223379   4.800   3.698   6.748
 7494SOL     OW23380   5.499   1.045   1.892
 7494SOL    HW123381   5.571   1.035   1.824
 7494SOL    HW223382   5.467   1.139   1.895
 7495SOL     OW23383   1.075   1.804   1.481
 7495SOL    HW123384   1.139   1.741   1.436
 7495SOL    HW223385   0.986   1.760   1.490
 7496SOL     OW23386   0.846   4.912   5.940
 7496SOL    HW123387   0.788   4.831   5.935
 7496SOL    HW223388   0.919   4.897   6.008
 7497SOL     OW23389   1.735   4.370   1.931
 7497SOL    HW123390   1.833   4.351   1.939
 7497SOL    HW223391   1.700   4.333   1.845
 7498SOL     OW23392   3.738   1.786   4.029
 7498SOL    HW123393   3.665   1.737   3.980
 7498SOL    HW223394   3.712   1.797   4.125
 7499SOL     OW23395   5.017   6.352   4.433
 7499SOL    HW123396   4.918   6.363   4.437
 7499SOL    HW223397   5.039   6.278   4.369
 7500SOL     OW23398   5.381   4.745   1.208
 7500SOL    HW123399   5.337   4.801   1.278
 7500SOL    HW223400   5.472   4.718   1.238
 7501SOL     OW23401   0.280   4.326   4.188
 7501SOL    HW123402   0.362   4.309   4.133
 7501SOL    HW223403   0.232   4.405   4.151
 7502SOL     OW23404   1.893   1.631   4.970
 7502SOL    HW123405   1.979   1.646   5.019
 7502SOL    HW223406   1.913   1.595   4.879
 7503SOL     OW23407   2.606   2.060   6.755
 7503SOL    HW123408   2.621   2.159   6.755
 7503SOL    HW223409   2.628   2.023   6.665
 7504SOL     OW23410   4.002   6.100   3.075
 7504SOL    HW123411   3.942   6.046   3.016
 7504SOL    HW223412   3.995   6.197   3.051
 7505SOL     OW23413   1.610   2.294   5.253
 7505SOL    HW123414   1.645   2.384   5.227
 7505SOL    HW223415   1.645   2.270   5.344
 7506SOL     OW23416   3.477   1.447   2.841
 7506SOL    HW123417   3.467   1.537   2.884
 7506SOL    HW223418   3.389   1.399   2.844
 7507SOL     OW23419   1.009   6.219   5.735
 7507SOL    HW123420   0.971   6.143   5.788
 7507SOL    HW223421   0.992   6.204   5.637
 7508SOL     OW23422   5.237   0.196   3.424
 7508SOL    HW123423   5.270   0.186   3.517
 7508SOL    HW223424   5.307   0.165   3.360
 7509SOL     OW23425   4.587   4.134   5.843
 7509SOL    HW123426   4.538   4.142   5.756
 7509SOL    HW223427   4.682   4.162   5.830
 7510SOL     OW23428   3.446   4.136   4.584
 7510SOL    HW123429   3.432   4.077   4.664
 7510SOL    HW223430   3.401   4.224   4.600
 7511SOL     OW23431   0.798   0.504   2.177
 7511SOL    HW123432   0.729   0.570   2.147
 7511SOL    HW223433   0.793   0.423   2.120
 7512SOL     OW23434   1.724   2.893   1.530
 7512SOL    HW123435   1.730   2.827   1.604
 7512SOL    HW223436   1.630   2.897   1.497
 7513SOL     OW23437   1.066   2.273   6.892
 7513SOL    HW123438   1.024   2.312   6.974
 7513SOL    HW223439   1.004   2.286   6.814
 7514SOL     OW23440   2.502   5.866   2.894
 7514SOL    HW123441   2.501   5.790   2.959
 7514SOL    HW223442   2.535   5.948   2.940
 7515SOL     OW23443   6.355   5.816   2.167
 7515SOL    HW123444   6.372   5.872   2.085
 7515SOL    HW223445   6.436   5.763   2.189
 7516SOL     OW23446   0.370   1.126   3.419
 7516SOL    HW123447   0.432   1.050   3.403
 7516SOL    HW223448   0.371   1.151   3.516
 7517SOL     OW23449   0.563   3.800   1.535
 7517SOL    HW123450   0.480   3.797   1.478
 7517SOL    HW223451   0.538   3.819   1.630
 7518SOL     OW23452   4.929   5.628   3.852
 7518SOL    HW123453   4.879   5.551   3.813
 7518SOL    HW223454   5.027   5.609   3.850
 7519SOL     OW23455   2.635   6.118   3.511
 7519SOL    HW123456   2.597   6.205   3.480
 7519SOL    HW223457   2.687   6.133   3.595
 7520SOL     OW23458   1.724   6.329   4.159
 7520SOL    HW123459   1.647   6.316   4.097
 7520SOL    HW223460   1.803   6.361   4.108
 7521SOL     OW23461   4.445   4.259   5.643
 7521SOL    HW123462   4.537   4.299   5.637
 7521SOL    HW223463   4.378   4.324   5.608
 7522SOL     OW23464   2.011   0.867   1.423
 7522SOL    HW123465   2.096   0.901   1.383
 7522SOL    HW223466   2.025   0.773   1.456
 7523SOL     OW23467   5.477   0.304   6.637
 7523SOL    HW123468   5.486   0.207   6.617
 7523SOL    HW223469   5.508   0.321   6.731
 7524SOL     OW23470   0.235   1.255   4.962
 7524SOL    HW123471   0.263   1.161   4.947
 7524SOL    HW223472   0.311   1.305   5.006
 7525SOL     OW23473   1.257   0.250   0.579
 7525SOL    HW123474   1.260   0.247   0.479
 7525SOL    HW223475   1.221   0.338   0.609
 7526SOL     OW23476   3.362   2.841   4.885
 7526SOL    HW123477   3.339   2.744   4.882
 7526SOL    HW223478   3.427   2.857   4.960
 7527SOL     OW23479   5.598   5.142   3.497
 7527SOL    HW123480   5.565   5.114   3.587
 7527SOL    HW223481   5.545   5.096   3.425
 7528SOL     OW23482   6.451   3.298   6.758
 7528SOL    HW123483   6.447   3.339   6.668
 7528SOL    HW223484   6.358   3.279   6.791
 7529SOL     OW23485   2.819   1.320   6.377
 7529SOL    HW123486   2.873   1.258   6.434
 7529SOL    HW223487   2.745   1.268   6.333
 7530SOL     OW23488   0.781   3.762   2.517
 7530SOL    HW123489   0.851   3.830   2.540
 7530SOL    HW223490   0.740   3.785   2.428
 7531SOL     OW23491   3.852   2.163   3.351
 7531SOL    HW123492   3.769   2.152   3.405
 7531SOL    HW223493   3.831   2.152   3.254
 7532SOL     OW23494   5.334   5.382   2.333
 7532SOL    HW123495   5.243   5.354   2.362
 7532SOL    HW223496   5.349   5.478   2.357
 7533SOL     OW23497   3.759   0.886   4.032
 7533SOL    HW123498   3.815   0.891   4.114
 7533SOL    HW223499   3.668   0.922   4.052
 7534SOL     OW23500   5.105   6.194   4.771
 7534SOL    HW123501   5.133   6.265   4.835
 7534SOL    HW223502   5.006   6.178   4.779
 7535SOL     OW23503   3.116   3.009   6.062
 7535SOL    HW123504   3.155   3.075   5.998
 7535SOL    HW223505   3.126   2.917   6.024
 7536SOL     OW23506   4.635   6.330   4.042
 7536SOL    HW123507   4.592   6.327   3.952
 7536SOL    HW223508   4.645   6.237   4.078
 7537SOL     OW23509   1.460   4.788   5.611
 7537SOL    HW123510   1.506   4.713   5.658
 7537SOL    HW223511   1.489   4.876   5.649
 7538SOL     OW23512   2.924   3.502   2.383
 7538SOL    HW123513   2.915   3.578   2.448
 7538SOL    HW223514   2.875   3.422   2.418
 7539SOL     OW23515   2.222   2.931   4.541
 7539SOL    HW123516   2.290   2.880   4.594
 7539SOL    HW223517   2.136   2.935   4.592
 7540SOL     OW23518   2.128   1.524   0.273
 7540SOL    HW123519   2.162   1.443   0.320
 7540SOL    HW223520   2.031   1.535   0.291
 7541SOL     OW23521   6.740   2.415   5.751
 7541SOL    HW123522   6.703   2.410   5.844
 7541SOL    HW223523   6.685   2.356   5.691
 7542SOL     OW23524   1.310   6.501   5.996
 7542SOL    HW123525   1.258   6.497   5.911
 7542SOL    HW223526   1.386   6.436   5.991
 7543SOL     OW23527   3.917   2.814   0.303
 7543SOL    HW123528   3.866   2.852   0.226
 7543SOL    HW223529   3.951   2.723   0.279
 7544SOL     OW23530   1.876   2.255   2.420
 7544SOL    HW123531   1.829   2.176   2.381
 7544SOL    HW223532   1.826   2.286   2.502
 7545SOL     OW23533   5.497   6.303   4.322
 7545SOL    HW123534   5.576   6.242   4.333
 7545SOL    HW223535   5.461   6.327   4.412
 7546SOL     OW23536   4.608   1.209   6.966
 7546SOL    HW123537   4.512   1.203   6.938
 7546SOL    HW223538   4.629   1.135   0.010
 7547SOL     OW23539   3.528   0.362   0.403
 7547SOL    HW123540   3.518   0.325   0.495
 7547SOL    HW223541   3.558   0.290   0.341
 7548SOL     OW23542   1.828   2.183   1.347
 7548SOL    HW123543   1.798   2.279   1.347
 7548SOL    HW223544   1.842   2.153   1.252
 7549SOL     OW23545   5.536   2.173   2.292
 7549SOL    HW123546   5.501   2.266   2.307
 7549SOL    HW223547   5.634   2.171   2.309
 7550SOL     OW23548   1.693   5.499   2.053
 7550SOL    HW123549   1.623   5.427   2.055
 7550SOL    HW223550   1.678   5.562   2.129
 7551SOL     OW23551   4.814   3.375   6.580
 7551SOL    HW123552   4.732   3.361   6.635
 7551SOL    HW223553   4.843   3.471   6.587
 7552SOL     OW23554   3.345   5.262   3.953
 7552SOL    HW123555   3.342   5.347   3.900
 7552SOL    HW223556   3.395   5.192   3.902
 7553SOL     OW23557   4.109   5.386   6.070
 7553SOL    HW123558   4.191   5.437   6.042
 7553SOL    HW223559   4.119   5.290   6.043
 7554SOL     OW23560   6.675   1.122   0.660
 7554SOL    HW123561   6.722   1.150   0.744
 7554SOL    HW223562   6.740   1.125   0.584
 7555SOL     OW23563   0.901   6.098   5.497
 7555SOL    HW123564   0.855   6.172   5.447
 7555SOL    HW223565   0.971   6.056   5.440
 7556SOL     OW23566   0.827   2.976   5.039
 7556SOL    HW123567   0.800   2.880   5.032
 7556SOL    HW223568   0.862   3.008   4.951
 7557SOL     OW23569   4.594   3.953   0.304
 7557SOL    HW123570   4.623   3.955   0.399
 7557SOL    HW223571   4.675   3.953   0.244
 7558SOL     OW23572   1.429   3.229   3.028
 7558SOL    HW123573   1.364   3.182   3.087
 7558SOL    HW223574   1.430   3.187   2.937
 7559SOL     OW23575   0.426   4.045   0.854
 7559SOL    HW123576   0.492   4.111   0.818
 7559SOL    HW223577   0.420   4.054   0.953
 7560SOL     OW23578   5.106   6.776   0.303
 7560SOL    HW123579   5.164   6.709   0.348
 7560SOL    HW223580   5.160   6.832   0.241
 7561SOL     OW23581   0.262   3.455   0.663
 7561SOL    HW123582   0.329   3.466   0.589
 7561SOL    HW223583   0.172   3.485   0.631
 7562SOL     OW23584   5.692   5.931   5.039
 7562SOL    HW123585   5.775   5.985   5.028
 7562SOL    HW223586   5.641   5.931   4.953
 7563SOL     OW23587   2.580   0.678   2.338
 7563SOL    HW123588   2.585   0.579   2.321
 7563SOL    HW223589   2.503   0.716   2.287
 7564SOL     OW23590   5.252   6.182   3.663
 7564SOL    HW123591   5.263   6.183   3.762
 7564SOL    HW223592   5.245   6.277   3.630
 7565SOL     OW23593   4.856   4.388   0.692
 7565SOL    HW123594   4.849   4.344   0.782
 7565SOL    HW223595   4.953   4.401   0.669
 7566SOL     OW23596   1.438   5.850   4.026
 7566SOL    HW123597   1.390   5.791   3.961
 7566SOL    HW223598   1.535   5.853   4.003
 7567SOL     OW23599   2.955   4.364   0.491
 7567SOL    HW123600   2.936   4.459   0.465
 7567SOL    HW223601   3.048   4.357   0.525
 7568SOL     OW23602   4.647   5.160   3.359
 7568SOL    HW123603   4.661   5.140   3.455
 7568SOL    HW223604   4.735   5.159   3.311
 7569SOL     OW23605   4.265   6.947   1.073
 7569SOL    HW123606   4.355   6.971   1.108
 7569SOL    HW223607   4.203   0.005   1.085
 7570SOL     OW23608   5.970   5.241   3.978
 7570SOL    HW123609   5.979   5.340   3.993
 7570SOL    HW223610   5.898   5.204   4.037
 7571SOL     OW23611   5.703   4.432   2.445
 7571SOL    HW123612   5.697   4.389   2.354
 7571SOL    HW223613   5.788   4.485   2.451
 7572SOL     OW23614   2.695   1.328   4.836
 7572SOL    HW123615   2.701   1.369   4.927
 7572SOL    HW223616   2.672   1.231   4.845
 7573SOL     OW23617   2.620   5.601   4.268
 7573SOL    HW123618   2.526   5.609   4.301
 7573SOL    HW223619   2.648   5.688   4.228
 7574SOL     OW23620   5.093   6.113   3.064
 7574SOL    HW123621   5.064   6.209   3.059
 7574SOL    HW223622   5.164   6.096   2.996
 7575SOL     OW23623   3.726   1.902   5.108
 7575SOL    HW123624   3.760   1.991   5.077
 7575SOL    HW223625   3.736   1.835   5.035
 7576SOL     OW23626   6.653   2.629   0.494
 7576SOL    HW123627   6.583   2.699   0.484
 7576SOL    HW223628   6.656   2.572   0.412
 7577SOL     OW23629   6.059   0.371   5.021
 7577SOL    HW123630   6.025   0.293   4.969
 7577SOL    HW223631   6.040   0.357   5.118
 7578SOL     OW23632   2.200   5.034   4.394
 7578SOL    HW123633   2.209   5.121   4.442
 7578SOL    HW223634   2.290   5.002   4.365
 7579SOL     OW23635   4.118   1.721   2.832
 7579SOL    HW123636   4.159   1.797   2.882
 7579SOL    HW223637   4.043   1.756   2.775
 7580SOL     OW23638   1.588   3.687   2.352
 7580SOL    HW123639   1.648   3.708   2.276
 7580SOL    HW223640   1.555   3.771   2.394
 7581SOL     OW23641   6.191   0.841   0.922
 7581SOL    HW123642   6.262   0.886   0.977
 7581SOL    HW223643   6.172   0.751   0.960
 7582SOL     OW23644   3.289   0.815   0.971
 7582SOL    HW123645   3.324   0.749   0.905
 7582SOL    HW223646   3.189   0.812   0.970
 7583SOL     OW23647   6.203   3.367   2.787
 7583SOL    HW123648   6.282   3.318   2.824
 7583SOL    HW223649   6.123   3.350   2.845
 7584SOL     OW23650   2.692   0.188   1.596
 7584SOL    HW123651   2.686   0.171   1.497
 7584SOL    HW223652   2.763   0.257   1.613
 7585SOL     OW23653   1.915   4.857   5.952
 7585SOL    HW123654   1.989   4.793   5.970
 7585SOL    HW223655   1.951   4.938   5.905
 7586SOL     OW23656   2.697   0.918   2.397
 7586SOL    HW123657   2.665   0.832   2.357
 7586SOL    HW223658   2.788   0.905   2.435
 7587SOL     OW23659   0.804   1.485   5.785
 7587SOL    HW123660   0.873   1.480   5.713
 7587SOL    HW223661   0.781   1.392   5.815
 7588SOL     OW23662   0.265   4.218   2.013
 7588SOL    HW123663   0.213   4.258   2.088
 7588SOL    HW223664   0.264   4.280   1.935
 7589SOL     OW23665   5.702   5.778   0.909
 7589SOL    HW123666   5.787   5.736   0.943
 7589SOL    HW223667   5.704   5.876   0.926
 7590SOL     OW23668   1.908   0.836   6.148
 7590SOL    HW123669   1.847   0.761   6.173
 7590SOL    HW223670   1.954   0.871   6.229
 7591SOL     OW23671   6.566   4.501   0.361
 7591SOL    HW123672   6.662   4.494   0.336
 7591SOL    HW223673   6.518   4.559   0.295
 7592SOL     OW23674   5.419   5.945   6.880
 7592SOL    HW123675   5.322   5.969   6.875
 7592SOL    HW223676   5.437   5.897   6.966
 7593SOL     OW23677   5.993   2.295   6.434
 7593SOL    HW123678   5.920   2.228   6.424
 7593SOL    HW223679   6.058   2.265   6.503
 7594SOL     OW23680   1.284   6.139   3.686
 7594SOL    HW123681   1.203   6.083   3.701
 7594SOL    HW223682   1.339   6.141   3.770
 7595SOL     OW23683   6.372   2.503   0.280
 7595SOL    HW123684   6.340   2.549   0.198
 7595SOL    HW223685   6.330   2.544   0.361
 7596SOL     OW23686   5.669   4.003   1.911
 7596SOL    HW123687   5.706   4.095   1.900
 7596SOL    HW223688   5.570   4.008   1.924
 7597SOL     OW23689   3.632   5.213   1.587
 7597SOL    HW123690   3.593   5.196   1.678
 7597SOL    HW223691   3.565   5.261   1.531
 7598SOL     OW23692   6.878   1.191   3.728
 7598SOL    HW123693   6.931   1.106   3.739
 7598SOL    HW223694   6.941   1.267   3.710
 7599SOL     OW23695   6.265   1.878   2.597
 7599SOL    HW123696   6.185   1.931   2.572
 7599SOL    HW223697   6.300   1.830   2.517
 7600SOL     OW23698   2.132   1.541   1.428
 7600SOL    HW123699   2.063   1.499   1.369
 7600SOL    HW223700   2.123   1.504   1.521
 7601SOL     OW23701   2.004   6.501   4.740
 7601SOL    HW123702   2.084   6.452   4.774
 7601SOL    HW223703   2.032   6.565   4.668
 7602SOL     OW23704   0.456   4.000   4.490
 7602SOL    HW123705   0.463   3.907   4.455
 7602SOL    HW223706   0.530   4.018   4.556
 7603SOL     OW23707   1.026   6.578   1.133
 7603SOL    HW123708   0.982   6.531   1.057
 7603SOL    HW223709   1.032   6.676   1.113
 7604SOL     OW23710   4.986   6.044   5.511
 7604SOL    HW123711   5.037   6.127   5.531
 7604SOL    HW223712   5.048   5.965   5.517
 7605SOL     OW23713   6.451   4.454   6.863
 7605SOL    HW123714   6.432   4.356   6.861
 7605SOL    HW223715   6.407   4.495   6.943
 7606SOL     OW23716   5.817   2.174   2.310
 7606SOL    HW123717   5.852   2.158   2.218
 7606SOL    HW223718   5.844   2.265   2.341
 7607SOL     OW23719   4.549   0.083   6.873
 7607SOL    HW123720   4.458   0.046   6.857
 7607SOL    HW223721   4.618   0.019   6.838
 7608SOL     OW23722   3.522   3.238   3.665
 7608SOL    HW123723   3.480   3.236   3.575
 7608SOL    HW223724   3.458   3.275   3.732
 7609SOL     OW23725   1.185   3.306   4.078
 7609SOL    HW123726   1.266   3.300   4.136
 7609SOL    HW223727   1.210   3.346   3.989
 7610SOL     OW23728   5.462   0.326   0.980
 7610SOL    HW123729   5.486   0.293   0.889
 7610SOL    HW223730   5.386   0.272   1.016
 7611SOL     OW23731   1.250   2.274   0.197
 7611SOL    HW123732   1.267   2.363   0.240
 7611SOL    HW223733   1.156   2.272   0.162
 7612SOL     OW23734   3.558   1.815   3.159
 7612SOL    HW123735   3.460   1.812   3.141
 7612SOL    HW223736   3.604   1.863   3.085
 7613SOL     OW23737   4.764   1.276   1.978
 7613SOL    HW123738   4.834   1.295   1.909
 7613SOL    HW223739   4.678   1.318   1.951
 7614SOL     OW23740   4.285   1.927   0.544
 7614SOL    HW123741   4.239   1.881   0.469
 7614SOL    HW223742   4.251   2.020   0.553
 7615SOL     OW23743   3.606   4.868   6.129
 7615SOL    HW123744   3.618   4.782   6.180
 7615SOL    HW223745   3.517   4.866   6.083
 7616SOL     OW23746   6.580   3.359   3.686
 7616SOL    HW123747   6.533   3.300   3.752
 7616SOL    HW223748   6.514   3.416   3.638
 7617SOL     OW23749   3.193   5.049   3.032
 7617SOL    HW123750   3.163   5.115   2.963
 7617SOL    HW223751   3.140   4.964   3.021
 7618SOL     OW23752   1.907   2.742   6.522
 7618SOL    HW123753   1.949   2.652   6.510
 7618SOL    HW223754   1.888   2.782   6.433
 7619SOL     OW23755   5.388   3.889   5.726
 7619SOL    HW123756   5.293   3.917   5.742
 7619SOL    HW223757   5.410   3.812   5.786
 7620SOL     OW23758   3.183   6.702   1.616
 7620SOL    HW123759   3.168   6.715   1.714
 7620SOL    HW223760   3.114   6.753   1.564
 7621SOL     OW23761   2.144   0.616   1.450
 7621SOL    HW123762   2.226   0.632   1.505
 7621SOL    HW223763   2.099   0.532   1.480
 7622SOL     OW23764   3.996   2.521   0.542
 7622SOL    HW123765   3.910   2.565   0.516
 7622SOL    HW223766   4.072   2.583   0.521
 7623SOL     OW23767   4.619   0.717   5.451
 7623SOL    HW123768   4.678   0.669   5.386
 7623SOL    HW223769   4.585   0.801   5.408
 7624SOL     OW23770   0.500   0.700   3.580
 7624SOL    HW123771   0.515   0.661   3.489
 7624SOL    HW223772   0.578   0.757   3.606
 7625SOL     OW23773   4.927   0.692   1.335
 7625SOL    HW123774   5.017   0.653   1.353
 7625SOL    HW223775   4.858   0.619   1.334
 7626SOL     OW23776   2.126   5.801   4.838
 7626SOL    HW123777   2.212   5.775   4.883
 7626SOL    HW223778   2.110   5.899   4.852
 7627SOL     OW23779   6.488   2.287   1.215
 7627SOL    HW123780   6.505   2.198   1.173
 7627SOL    HW223781   6.571   2.319   1.261
 7628SOL     OW23782   3.110   1.671   0.589
 7628SOL    HW123783   3.026   1.620   0.605
 7628SOL    HW223784   3.188   1.617   0.618
 7629SOL     OW23785   6.923   5.851   3.223
 7629SOL    HW123786   6.907   5.767   3.172
 7629SOL    HW223787   6.976   5.915   3.167
 7630SOL     OW23788   6.084   0.746   2.871
 7630SOL    HW123789   6.031   0.747   2.956
 7630SOL    HW223790   6.124   0.836   2.856
 7631SOL     OW23791   0.518   2.494   3.407
 7631SOL    HW123792   0.537   2.572   3.347
 7631SOL    HW223793   0.548   2.517   3.500
 7632SOL     OW23794   4.875   1.730   0.397
 7632SOL    HW123795   4.823   1.814   0.382
 7632SOL    HW223796   4.836   1.657   0.341
 7633SOL     OW23797   5.220   3.839   6.787
 7633SOL    HW123798   5.236   3.801   6.697
 7633SOL    HW223799   5.307   3.863   6.830
 7634SOL     OW23800   1.541   1.275   1.910
 7634SOL    HW123801   1.474   1.348   1.925
 7634SOL    HW223802   1.627   1.315   1.880
 7635SOL     OW23803   2.951   4.292   5.684
 7635SOL    HW123804   2.947   4.220   5.753
 7635SOL    HW223805   3.045   4.301   5.651
 7636SOL     OW23806   0.954   0.047   4.251
 7636SOL    HW123807   0.989   0.021   4.161
 7636SOL    HW223808   0.927   0.144   4.249
 7637SOL     OW23809   2.107   6.135   4.253
 7637SOL    HW123810   2.049   6.079   4.312
 7637SOL    HW223811   2.170   6.076   4.203
 7638SOL     OW23812   5.088   4.885   2.167
 7638SOL    HW123813   5.125   4.905   2.257
 7638SOL    HW223814   5.138   4.938   2.098
 7639SOL     OW23815   0.737   1.871   5.306
 7639SOL    HW123816   0.806   1.927   5.260
 7639SOL    HW223817   0.776   1.831   5.388
 7640SOL     OW23818   2.407   1.786   0.210
 7640SOL    HW123819   2.352   1.868   0.228
 7640SOL    HW223820   2.456   1.760   0.293
 7641SOL     OW23821   5.775   3.952   2.155
 7641SOL    HW123822   5.743   3.960   2.060
 7641SOL    HW223823   5.870   3.921   2.156
 7642SOL     OW23824   2.544   1.984   2.298
 7642SOL    HW123825   2.594   1.904   2.333
 7642SOL    HW223826   2.546   1.984   2.199
 7643SOL     OW23827   4.827   2.861   3.752
 7643SOL    HW123828   4.853   2.926   3.681
 7643SOL    HW223829   4.796   2.910   3.833
 7644SOL     OW23830   6.861   3.062   2.512
 7644SOL    HW123831   6.788   3.006   2.552
 7644SOL    HW223832   6.940   3.062   2.574
 7645SOL     OW23833   4.273   4.187   0.051
 7645SOL    HW123834   4.264   4.138   0.138
 7645SOL    HW223835   4.210   4.265   0.050
 7646SOL     OW23836   2.357   2.281   1.736
 7646SOL    HW123837   2.435   2.260   1.795
 7646SOL    HW223838   2.288   2.209   1.746
 7647SOL     OW23839   2.599   4.189   1.673
 7647SOL    HW123840   2.514   4.172   1.722
 7647SOL    HW223841   2.650   4.104   1.662
 7648SOL     OW23842   4.234   0.972   3.868
 7648SOL    HW123843   4.180   0.903   3.917
 7648SOL    HW223844   4.176   1.018   3.801
 7649SOL     OW23845   3.099   0.558   1.824
 7649SOL    HW123846   3.001   0.573   1.838
 7649SOL    HW223847   3.140   0.640   1.785
 7650SOL     OW23848   6.293   4.574   1.920
 7650SOL    HW123849   6.370   4.579   1.984
 7650SOL    HW223850   6.210   4.549   1.969
 7651SOL     OW23851   3.603   1.189   6.334
 7651SOL    HW123852   3.573   1.182   6.429
 7651SOL    HW223853   3.529   1.228   6.279
 7652SOL     OW23854   0.637   3.669   2.214
 7652SOL    HW123855   0.668   3.611   2.139
 7652SOL    HW223856   0.578   3.616   2.275
 7653SOL     OW23857   2.688   2.001   1.616
 7653SOL    HW123858   2.696   2.101   1.623
 7653SOL    HW223859   2.754   1.968   1.549
 7654SOL     OW23860   4.823   4.123   3.649
 7654SOL    HW123861   4.851   4.043   3.701
 7654SOL    HW223862   4.769   4.184   3.707
 7655SOL     OW23863   4.264   6.522   5.203
 7655SOL    HW123864   4.271   6.422   5.200
 7655SOL    HW223865   4.344   6.560   5.250
 7656SOL     OW23866   0.560   6.061   5.460
 7656SOL    HW123867   0.501   5.981   5.450
 7656SOL    HW223868   0.597   6.063   5.552
 7657SOL     OW23869   3.302   1.434   4.008
 7657SOL    HW123870   3.392   1.474   4.026
 7657SOL    HW223871   3.307   1.377   3.926
 7658SOL     OW23872   4.120   0.860   5.534
 7658SOL    HW123873   4.106   0.898   5.626
 7658SOL    HW223874   4.045   0.798   5.511
 7659SOL     OW23875   5.838   6.857   0.759
 7659SOL    HW123876   5.748   6.813   0.758
 7659SOL    HW223877   5.834   6.941   0.706
 7660SOL     OW23878   5.755   5.142   4.123
 7660SOL    HW123879   5.769   5.053   4.164
 7660SOL    HW223880   5.668   5.142   4.072
 7661SOL     OW23881   6.520   2.788   3.747
 7661SOL    HW123882   6.602   2.809   3.694
 7661SOL    HW223883   6.466   2.719   3.698
 7662SOL     OW23884   0.294   4.997   1.856
 7662SOL    HW123885   0.327   4.906   1.877
 7662SOL    HW223886   0.230   4.993   1.779
 7663SOL     OW23887   6.929   5.043   6.467
 7663SOL    HW123888   6.979   5.102   6.529
 7663SOL    HW223889   6.974   5.042   6.377
 7664SOL     OW23890   2.758   5.250   3.411
 7664SOL    HW123891   2.717   5.168   3.452
 7664SOL    HW223892   2.689   5.323   3.408
 7665SOL     OW23893   3.477   6.889   5.061
 7665SOL    HW123894   3.504   6.822   4.991
 7665SOL    HW223895   3.439   6.970   5.016
 7666SOL     OW23896   1.072   0.888   1.291
 7666SOL    HW123897   1.089   0.886   1.193
 7666SOL    HW223898   1.096   0.800   1.331
 7667SOL     OW23899   4.356   6.511   6.637
 7667SOL    HW123900   4.339   6.462   6.722
 7667SOL    HW223901   4.273   6.559   6.609
 7668SOL     OW23902   3.458   3.853   1.485
 7668SOL    HW123903   3.549   3.866   1.445
 7668SOL    HW223904   3.434   3.756   1.480
 7669SOL     OW23905   5.052   6.950   4.484
 7669SOL    HW123906   5.044   6.896   4.400
 7669SOL    HW223907   4.996   0.012   4.477
 7670SOL     OW23908   1.546   5.501   0.765
 7670SOL    HW123909   1.495   5.518   0.849
 7670SOL    HW223910   1.581   5.587   0.729
 7671SOL     OW23911   6.197   2.988   4.463
 7671SOL    HW123912   6.121   2.977   4.527
 7671SOL    HW223913   6.262   2.913   4.477
 7672SOL     OW23914   5.547   0.798   3.127
 7672SOL    HW123915   5.499   0.718   3.161
 7672SOL    HW223916   5.489   0.848   3.063
 7673SOL     OW23917   1.008   4.402   1.153
 7673SOL    HW123918   1.037   4.358   1.068
 7673SOL    HW223919   0.932   4.350   1.193
 7674SOL     OW23920   6.024   1.592   4.951
 7674SOL    HW123921   6.045   1.689   4.938
 7674SOL    HW223922   6.078   1.537   4.888
 7675SOL     OW23923   4.507   6.672   2.932
 7675SOL    HW123924   4.496   6.720   3.019
 7675SOL    HW223925   4.524   6.575   2.949
 7676SOL     OW23926   1.490   0.818   0.581
 7676SOL    HW123927   1.447   0.852   0.498
 7676SOL    HW223928   1.419   0.786   0.644
 7677SOL     OW23929   1.520   2.902   2.361
 7677SOL    HW123930   1.543   2.848   2.280
 7677SOL    HW223931   1.463   2.980   2.334
 7678SOL     OW23932   6.312   6.540   0.675
 7678SOL    HW123933   6.392   6.572   0.725
 7678SOL    HW223934   6.302   6.441   0.686
 7679SOL     OW23935   0.918   5.206   5.343
 7679SOL    HW123936   0.967   5.206   5.256
 7679SOL    HW223937   0.943   5.125   5.395
 7680SOL     OW23938   3.717   2.593   0.562
 7680SOL    HW123939   3.653   2.560   0.631
 7680SOL    HW223940   3.701   2.690   0.546
 7681SOL     OW23941   2.748   1.873   7.007
 7681SOL    HW123942   2.701   1.938   0.046
 7681SOL    HW223943   2.782   1.920   6.925
 7682SOL     OW23944   2.833   0.069   1.941
 7682SOL    HW123945   2.834   0.042   1.844
 7682SOL    HW223946   2.907   0.134   1.958
 7683SOL     OW23947   4.925   2.052   3.340
 7683SOL    HW123948   4.840   1.999   3.336
 7683SOL    HW223949   4.999   1.998   3.299
 7684SOL     OW23950   4.315   2.104   5.850
 7684SOL    HW123951   4.350   2.085   5.758
 7684SOL    HW223952   4.215   2.098   5.849
 7685SOL     OW23953   3.033   2.930   0.476
 7685SOL    HW123954   3.023   2.833   0.454
 7685SOL    HW223955   3.033   2.942   0.575
 7686SOL     OW23956   4.189   6.241   3.994
 7686SOL    HW123957   4.214   6.246   3.898
 7686SOL    HW223958   4.245   6.172   4.040
 7687SOL     OW23959   5.654   4.923   5.669
 7687SOL    HW123960   5.723   4.927   5.596
 7687SOL    HW223961   5.643   5.014   5.710
 7688SOL     OW23962   0.646   6.165   4.460
 7688SOL    HW123963   0.633   6.132   4.553
 7688SOL    HW223964   0.657   6.264   4.461
 7689SOL     OW23965   4.479   6.247   4.963
 7689SOL    HW123966   4.563   6.299   4.950
 7689SOL    HW223967   4.496   6.150   4.944
 7690SOL     OW23968   6.495   4.939   3.576
 7690SOL    HW123969   6.525   4.844   3.585
 7690SOL    HW223970   6.570   4.995   3.541
 7691SOL     OW23971   5.358   3.099   4.556
 7691SOL    HW123972   5.265   3.067   4.538
 7691SOL    HW223973   5.357   3.198   4.568
 7692SOL     OW23974   1.768   6.769   2.081
 7692SOL    HW123975   1.703   6.756   2.006
 7692SOL    HW223976   1.740   6.849   2.135
 7693SOL     OW23977   4.492   1.374   6.379
 7693SOL    HW123978   4.504   1.360   6.281
 7693SOL    HW223979   4.529   1.464   6.404
 7694SOL     OW23980   0.128   5.412   4.462
 7694SOL    HW123981   0.102   5.344   4.393
 7694SOL    HW223982   0.069   5.401   4.543
 7695SOL     OW23983   4.076   6.769   1.199
 7695SOL    HW123984   4.009   6.838   1.227
 7695SOL    HW223985   4.140   6.810   1.133
 7696SOL     OW23986   0.248   2.901   5.761
 7696SOL    HW123987   0.174   2.920   5.826
 7696SOL    HW223988   0.334   2.939   5.797
 7697SOL     OW23989   2.994   1.514   2.653
 7697SOL    HW123990   3.074   1.494   2.596
 7697SOL    HW223991   2.913   1.474   2.611
 7698SOL     OW23992   6.714   2.445   6.021
 7698SOL    HW123993   6.769   2.409   6.097
 7698SOL    HW223994   6.640   2.501   6.057
 7699SOL     OW23995   2.478   4.959   6.632
 7699SOL    HW123996   2.570   4.983   6.663
 7699SOL    HW223997   2.475   4.862   6.608
 7700SOL     OW23998   4.894   6.649   4.772
 7700SOL    HW123999   4.821   6.641   4.704
 7700SOL    HW224000   4.977   6.606   4.738
 7701SOL     OW24001   6.853   2.011   4.339
 7701SOL    HW124002   6.914   2.022   4.417
 7701SOL    HW224003   6.894   1.948   4.273
 7702SOL     OW24004   3.304   6.097   5.821
 7702SOL    HW124005   3.220   6.150   5.810
 7702SOL    HW224006   3.290   6.005   5.786
 7703SOL     OW24007   0.994   1.045   5.734
 7703SOL    HW124008   0.898   1.069   5.720
 7703SOL    HW224009   1.042   1.123   5.773
 7704SOL     OW24010   4.264   4.526   6.803
 7704SOL    HW124011   4.320   4.522   6.886
 7704SOL    HW224012   4.261   4.621   6.770
 7705SOL     OW24013   3.417   5.129   5.274
 7705SOL    HW124014   3.441   5.172   5.187
 7705SOL    HW224015   3.457   5.181   5.349
 7706SOL     OW24016   6.933   0.999   5.312
 7706SOL    HW124017   6.986   0.991   5.228
 7706SOL    HW224018   6.859   0.932   5.312
 7707SOL     OW24019   6.920   5.075   6.122
 7707SOL    HW124020   6.967   5.163   6.121
 7707SOL    HW224021   6.822   5.090   6.129
 7708SOL     OW24022   4.536   6.869   4.543
 7708SOL    HW124023   4.445   6.827   4.541
 7708SOL    HW224024   4.547   6.928   4.464
 7709SOL     OW24025   4.109   2.196   2.229
 7709SOL    HW124026   4.078   2.222   2.137
 7709SOL    HW224027   4.205   2.221   2.240
 7710SOL     OW24028   2.085   0.906   0.433
 7710SOL    HW124029   2.044   0.824   0.394
 7710SOL    HW224030   2.063   0.985   0.375
 7711SOL     OW24031   5.372   6.817   5.395
 7711SOL    HW124032   5.419   6.792   5.310
 7711SOL    HW224033   5.274   6.801   5.384
 7712SOL     OW24034   5.541   5.362   1.145
 7712SOL    HW124035   5.576   5.431   1.209
 7712SOL    HW224036   5.614   5.336   1.081
 7713SOL     OW24037   1.575   4.110   6.395
 7713SOL    HW124038   1.592   4.057   6.312
 7713SOL    HW224039   1.493   4.165   6.383
 7714SOL     OW24040   5.844   4.230   3.866
 7714SOL    HW124041   5.745   4.225   3.878
 7714SOL    HW224042   5.885   4.268   3.950
 7715SOL     OW24043   5.018   0.420   1.737
 7715SOL    HW124044   5.003   0.347   1.804
 7715SOL    HW224045   4.972   0.398   1.652
 7716SOL     OW24046   4.514   2.019   3.684
 7716SOL    HW124047   4.542   2.095   3.626
 7716SOL    HW224048   4.565   2.021   3.769
 7717SOL     OW24049   2.827   1.390   5.777
 7717SOL    HW124050   2.807   1.470   5.721
 7717SOL    HW224051   2.907   1.407   5.834
 7718SOL     OW24052   2.952   6.732   3.793
 7718SOL    HW124053   3.012   6.707   3.716
 7718SOL    HW224054   2.862   6.756   3.758
 7719SOL     OW24055   6.668   2.214   4.518
 7719SOL    HW124056   6.743   2.264   4.473
 7719SOL    HW224057   6.612   2.170   4.448
 7720SOL     OW24058   5.693   5.897   1.741
 7720SOL    HW124059   5.783   5.941   1.734
 7720SOL    HW224060   5.692   5.815   1.683
 7721SOL     OW24061   2.090   4.430   2.377
 7721SOL    HW124062   2.079   4.530   2.384
 7721SOL    HW224063   2.007   4.391   2.338
 7722SOL     OW24064   6.716   5.378   3.966
 7722SOL    HW124065   6.639   5.443   3.967
 7722SOL    HW224066   6.741   5.359   3.871
 7723SOL     OW24067   6.557   3.063   0.790
 7723SOL    HW124068   6.608   3.038   0.709
 7723SOL    HW224069   6.592   3.149   0.827
 7724SOL     OW24070   1.314   4.133   1.490
 7724SOL    HW124071   1.289   4.158   1.396
 7724SOL    HW224072   1.364   4.209   1.532
 7725SOL     OW24073   5.706   3.115   4.007
 7725SOL    HW124074   5.660   3.197   4.042
 7725SOL    HW224075   5.698   3.041   4.074
 7726SOL     OW24076   0.255   4.662   2.710
 7726SOL    HW124077   0.302   4.746   2.684
 7726SOL    HW224078   0.294   4.628   2.796
 7727SOL     OW24079   6.489   2.404   2.239
 7727SOL    HW124080   6.396   2.408   2.277
 7727SOL    HW224081   6.510   2.309   2.215
 7728SOL     OW24082   2.081   2.529   3.085
 7728SOL    HW124083   2.161   2.470   3.099
 7728SOL    HW224084   2.111   2.624   3.081
 7729SOL     OW24085   4.677   2.596   0.505
 7729SOL    HW124086   4.777   2.602   0.508
 7729SOL    HW224087   4.640   2.677   0.459
 7730SOL     OW24088   5.307   0.823   2.917
 7730SOL    HW124089   5.294   0.729   2.947
 7730SOL    HW224090   5.220   0.873   2.923
 7731SOL     OW24091   5.988   1.253   6.988
 7731SOL    HW124092   5.916   1.304   0.014
 7731SOL    HW224093   5.948   1.177   6.937
 7732SOL     OW24094   4.189   5.514   0.899
 7732SOL    HW124095   4.185   5.556   0.809
 7732SOL    HW224096   4.214   5.583   0.967
 7733SOL     OW24097   3.615   0.288   2.202
 7733SOL    HW124098   3.650   0.195   2.198
 7733SOL    HW224099   3.665   0.345   2.136
 7734SOL     OW24100   1.778   2.435   2.975
 7734SOL    HW124101   1.819   2.398   2.891
 7734SOL    HW224102   1.831   2.406   3.054
 7735SOL     OW24103   4.808   4.514   0.117
 7735SOL    HW124104   4.866   4.576   0.065
 7735SOL    HW224105   4.813   4.537   0.214
 7736SOL     OW24106   6.221   4.919   0.115
 7736SOL    HW124107   6.201   4.828   0.078
 7736SOL    HW224108   6.254   4.978   0.042
 7737SOL     OW24109   4.417   1.377   0.580
 7737SOL    HW124110   4.476   1.440   0.630
 7737SOL    HW224111   4.430   1.389   0.482
 7738SOL     OW24112   3.079   5.294   0.160
 7738SOL    HW124113   3.123   5.252   0.080
 7738SOL    HW224114   3.108   5.389   0.167
 7739SOL     OW24115   6.091   2.167   0.711
 7739SOL    HW124116   6.139   2.081   0.727
 7739SOL    HW224117   6.010   2.151   0.655
 7740SOL     OW24118   0.345   6.927   3.001
 7740SOL    HW124119   0.337   0.005   2.982
 7740SOL    HW224120   0.371   6.913   3.096
 7741SOL     OW24121   2.422   5.797   4.387
 7741SOL    HW124122   2.507   5.796   4.439
 7741SOL    HW224123   2.345   5.782   4.448
 7742SOL     OW24124   6.723   1.847   3.706
 7742SOL    HW124125   6.761   1.816   3.619
 7742SOL    HW224126   6.663   1.776   3.743
 7743SOL     OW24127   4.443   2.480   4.185
 7743SOL    HW124128   4.349   2.506   4.208
 7743SOL    HW224129   4.452   2.470   4.086
 7744SOL     OW24130   6.667   0.432   4.469
 7744SOL    HW124131   6.635   0.524   4.449
 7744SOL    HW224132   6.638   0.405   4.561
 7745SOL     OW24133   4.101   3.183   6.449
 7745SOL    HW124134   4.096   3.112   6.379
 7745SOL    HW224135   4.113   3.272   6.406
 7746SOL     OW24136   1.166   1.012   0.616
 7746SOL    HW124137   1.194   1.069   0.694
 7746SOL    HW224138   1.242   1.005   0.551
 7747SOL     OW24139   5.023   6.538   0.807
 7747SOL    HW124140   5.104   6.548   0.750
 7747SOL    HW224141   5.047   6.554   0.903
 7748SOL     OW24142   2.831   4.365   6.749
 7748SOL    HW124143   2.918   4.366   6.701
 7748SOL    HW224144   2.841   4.316   6.835
 7749SOL     OW24145   5.266   2.866   5.619
 7749SOL    HW124146   5.253   2.940   5.553
 7749SOL    HW224147   5.248   2.900   5.711
 7750SOL     OW24148   6.765   5.443   2.260
 7750SOL    HW124149   6.682   5.499   2.267
 7750SOL    HW224150   6.830   5.487   2.198
 7751SOL     OW24151   0.978   2.713   2.197
 7751SOL    HW124152   1.007   2.767   2.276
 7751SOL    HW224153   1.052   2.652   2.169
 7752SOL     OW24154   4.474   1.813   3.938
 7752SOL    HW124155   4.382   1.848   3.917
 7752SOL    HW224156   4.537   1.890   3.944
 7753SOL     OW24157   3.028   1.487   4.892
 7753SOL    HW124158   2.966   1.564   4.908
 7753SOL    HW224159   2.997   1.408   4.945
 7754SOL     OW24160   4.761   6.021   1.697
 7754SOL    HW124161   4.817   6.098   1.726
 7754SOL    HW224162   4.790   5.991   1.606
 7755SOL     OW24163   0.288   4.496   6.021
 7755SOL    HW124164   0.209   4.539   6.064
 7755SOL    HW224165   0.280   4.396   6.030
 7756SOL     OW24166   2.570   5.514   1.724
 7756SOL    HW124167   2.544   5.450   1.652
 7756SOL    HW224168   2.489   5.561   1.757
 7757SOL     OW24169   6.740   4.276   2.338
 7757SOL    HW124170   6.753   4.183   2.372
 7757SOL    HW224171   6.810   4.336   2.377
 7758SOL     OW24172   1.424   1.680   4.944
 7758SOL    HW124173   1.512   1.716   4.973
 7758SOL    HW224174   1.374   1.645   5.023
 7759SOL     OW24175   2.598   2.671   6.886
 7759SOL    HW124176   2.575   2.762   6.854
 7759SOL    HW224177   2.671   2.677   6.955
 7760SOL     OW24178   3.984   2.573   0.239
 7760SOL    HW124179   3.954   2.478   0.254
 7760SOL    HW224180   4.079   2.583   0.269
 7761SOL     OW24181   4.575   5.462   4.182
 7761SOL    HW124182   4.674   5.480   4.177
 7761SOL    HW224183   4.536   5.469   4.090
 7762SOL     OW24184   6.134   1.697   2.808
 7762SOL    HW124185   6.205   1.763   2.835
 7762SOL    HW224186   6.159   1.656   2.721
 7763SOL     OW24187   2.400   0.180   4.157
 7763SOL    HW124188   2.450   0.110   4.208
 7763SOL    HW224189   2.464   0.249   4.123
 7764SOL     OW24190   2.479   3.893   5.615
 7764SOL    HW124191   2.499   3.899   5.517
 7764SOL    HW224192   2.380   3.893   5.628
 7765SOL     OW24193   6.442   3.144   5.996
 7765SOL    HW124194   6.373   3.168   5.928
 7765SOL    HW224195   6.525   3.198   5.980
 7766SOL     OW24196   5.557   4.225   6.217
 7766SOL    HW124197   5.501   4.292   6.266
 7766SOL    HW224198   5.652   4.231   6.249
 7767SOL     OW24199   3.533   0.183   4.019
 7767SOL    HW124200   3.469   0.259   4.008
 7767SOL    HW224201   3.572   0.187   4.111
 7768SOL     OW24202   4.378   4.839   3.282
 7768SOL    HW124203   4.414   4.758   3.326
 7768SOL    HW224204   4.443   4.872   3.213
 7769SOL     OW24205   3.654   2.847   5.406
 7769SOL    HW124206   3.587   2.902   5.457
 7769SOL    HW224207   3.634   2.750   5.419
 7770SOL     OW24208   2.132   3.136   4.391
 7770SOL    HW124209   2.102   3.203   4.459
 7770SOL    HW224210   2.175   3.058   4.437
 7771SOL     OW24211   2.431   2.790   6.109
 7771SOL    HW124212   2.530   2.774   6.117
 7771SOL    HW224213   2.391   2.796   6.200
 7772SOL     OW24214   5.141   6.513   1.558
 7772SOL    HW124215   5.133   6.486   1.653
 7772SOL    HW224216   5.080   6.590   1.540
 7773SOL     OW24217   3.205   6.403   6.912
 7773SOL    HW124218   3.109   6.392   6.888
 7773SOL    HW224219   3.260   6.333   6.865
 7774SOL     OW24220   4.518   1.374   2.325
 7774SOL    HW124221   4.471   1.399   2.240
 7774SOL    HW224222   4.616   1.363   2.306
 7775SOL     OW24223   2.421   1.255   0.220
 7775SOL    HW124224   2.435   1.187   0.291
 7775SOL    HW224225   2.339   1.231   0.167
 7776SOL     OW24226   1.511   1.526   4.700
 7776SOL    HW124227   1.558   1.442   4.672
 7776SOL    HW224228   1.506   1.530   4.799
 7777SOL     OW24229   6.336   5.340   4.085
 7777SOL    HW124230   6.254   5.354   4.029
 7777SOL    HW224231   6.385   5.427   4.094
 7778SOL     OW24232   6.862   4.771   2.806
 7778SOL    HW124233   6.817   4.682   2.793
 7778SOL    HW224234   6.795   4.844   2.795
 7779SOL     OW24235   4.452   6.076   2.870
 7779SOL    HW124236   4.439   6.146   2.799
 7779SOL    HW224237   4.444   6.119   2.960
 7780SOL     OW24238   6.284   6.584   4.854
 7780SOL    HW124239   6.368   6.608   4.903
 7780SOL    HW224240   6.213   6.650   4.876
 7781SOL     OW24241   1.295   2.677   0.881
 7781SOL    HW124242   1.327   2.708   0.791
 7781SOL    HW224243   1.225   2.740   0.914
 7782SOL     OW24244   5.954   2.710   4.268
 7782SOL    HW124245   6.035   2.721   4.211
 7782SOL    HW224246   5.956   2.619   4.311
 7783SOL     OW24247   1.546   6.729   5.058
 7783SOL    HW124248   1.556   6.752   5.155
 7783SOL    HW224249   1.634   6.739   5.012
 7784SOL     OW24250   2.171   2.093   1.755
 7784SOL    HW124251   2.181   2.001   1.718
 7784SOL    HW224252   2.093   2.139   1.711
 7785SOL     OW24253   0.171   6.790   2.863
 7785SOL    HW124254   0.231   6.854   2.910
 7785SOL    HW224255   0.217   6.701   2.854
 7786SOL     OW24256   3.810   1.359   5.687
 7786SOL    HW124257   3.802   1.436   5.750
 7786SOL    HW224258   3.777   1.386   5.596
 7787SOL     OW24259   2.525   2.692   1.578
 7787SOL    HW124260   2.516   2.688   1.479
 7787SOL    HW224261   2.547   2.600   1.613
 7788SOL     OW24262   6.617   4.668   1.405
 7788SOL    HW124263   6.529   4.647   1.362
 7788SOL    HW224264   6.644   4.592   1.464
 7789SOL     OW24265   3.011   1.636   5.747
 7789SOL    HW124266   3.108   1.626   5.766
 7789SOL    HW224267   2.979   1.724   5.783
 7790SOL     OW24268   4.416   4.541   1.924
 7790SOL    HW124269   4.412   4.441   1.921
 7790SOL    HW224270   4.434   4.576   1.832
 7791SOL     OW24271   2.645   4.967   2.131
 7791SOL    HW124272   2.604   4.878   2.151
 7791SOL    HW224273   2.741   4.966   2.158
 7792SOL     OW24274   0.445   1.723   2.598
 7792SOL    HW124275   0.437   1.683   2.507
 7792SOL    HW224276   0.399   1.812   2.600
 7793SOL     OW24277   4.731   0.959   6.590
 7793SOL    HW124278   4.765   0.868   6.615
 7793SOL    HW224279   4.774   0.989   6.505
 7794SOL     OW24280   0.504   6.777   3.179
 7794SOL    HW124281   0.578   6.712   3.163
 7794SOL    HW224282   0.503   6.802   3.276
 7795SOL     OW24283   2.834   5.638   0.370
 7795SOL    HW124284   2.793   5.549   0.354
 7795SOL    HW224285   2.889   5.635   0.454
 7796SOL     OW24286   3.538   3.606   6.892
 7796SOL    HW124287   3.503   3.549   6.818
 7796SOL    HW224288   3.638   3.602   6.892
 7797SOL     OW24289   0.584   5.987   2.994
 7797SOL    HW124290   0.615   5.927   2.920
 7797SOL    HW224291   0.505   6.040   2.963
 7798SOL     OW24292   1.324   3.399   0.786
 7798SOL    HW124293   1.302   3.308   0.751
 7798SOL    HW224294   1.307   3.402   0.884
 7799SOL     OW24295   2.333   6.046   3.233
 7799SOL    HW124296   2.378   5.974   3.286
 7799SOL    HW224297   2.299   6.008   3.147
 7800SOL     OW24298   0.485   6.157   2.361
 7800SOL    HW124299   0.562   6.201   2.314
 7800SOL    HW224300   0.445   6.088   2.301
 7801SOL     OW24301   1.500   1.798   1.594
 7801SOL    HW124302   1.593   1.830   1.579
 7801SOL    HW224303   1.436   1.859   1.547
 7802SOL     OW24304   6.815   3.932   4.705
 7802SOL    HW124305   6.731   3.967   4.662
 7802SOL    HW224306   6.893   3.955   4.647
 7803SOL     OW24307   3.834   2.684   5.631
 7803SOL    HW124308   3.848   2.680   5.532
 7803SOL    HW224309   3.788   2.769   5.655
 7804SOL     OW24310   3.324   1.746   5.143
 7804SOL    HW124311   3.244   1.701   5.104
 7804SOL    HW224312   3.388   1.678   5.179
 7805SOL     OW24313   4.800   3.247   0.469
 7805SOL    HW124314   4.776   3.300   0.387
 7805SOL    HW224315   4.799   3.150   0.447
 7806SOL     OW24316   6.340   1.361   5.904
 7806SOL    HW124317   6.273   1.318   5.843
 7806SOL    HW224318   6.421   1.303   5.909
 7807SOL     OW24319   1.752   4.517   5.971
 7807SOL    HW124320   1.753   4.600   6.027
 7807SOL    HW224321   1.731   4.438   6.029
 7808SOL     OW24322   5.997   3.768   2.819
 7808SOL    HW124323   5.947   3.703   2.877
 7808SOL    HW224324   5.942   3.851   2.808
 7809SOL     OW24325   4.782   5.259   2.299
 7809SOL    HW124326   4.702   5.296   2.252
 7809SOL    HW224327   4.818   5.180   2.249
 7810SOL     OW24328   3.990   6.251   5.711
 7810SOL    HW124329   4.032   6.290   5.629
 7810SOL    HW224330   4.018   6.156   5.722
 7811SOL     OW24331   1.766   6.652   2.932
 7811SOL    HW124332   1.726   6.690   3.015
 7811SOL    HW224333   1.861   6.683   2.923
 7812SOL     OW24334   3.141   1.693   6.036
 7812SOL    HW124335   3.082   1.655   6.108
 7812SOL    HW224336   3.088   1.753   5.977
 7813SOL     OW24337   5.719   0.519   0.608
 7813SOL    HW124338   5.801   0.512   0.550
 7813SOL    HW224339   5.673   0.606   0.590
 7814SOL     OW24340   6.570   2.760   1.660
 7814SOL    HW124341   6.572   2.734   1.564
 7814SOL    HW224342   6.487   2.723   1.703
 7815SOL     OW24343   5.651   3.865   5.452
 7815SOL    HW124344   5.705   3.789   5.487
 7815SOL    HW224345   5.629   3.928   5.527
 7816SOL     OW24346   0.881   0.814   5.575
 7816SOL    HW124347   0.838   0.734   5.617
 7816SOL    HW224348   0.932   0.865   5.644
 7817SOL     OW24349   3.211   2.924   6.774
 7817SOL    HW124350   3.113   2.925   6.758
 7817SOL    HW224351   3.241   2.830   6.792
 7818SOL     OW24352   5.642   0.276   4.315
 7818SOL    HW124353   5.550   0.299   4.347
 7818SOL    HW224354   5.709   0.304   4.383
 7819SOL     OW24355   1.327   3.572   4.062
 7819SOL    HW124356   1.279   3.536   3.982
 7819SOL    HW224357   1.425   3.574   4.043
 7820SOL     OW24358   1.502   6.977   5.667
 7820SOL    HW124359   1.526   6.890   5.711
 7820SOL    HW224360   1.545   6.981   5.577
 7821SOL     OW24361   4.940   6.417   6.945
 7821SOL    HW124362   4.868   6.351   6.922
 7821SOL    HW224363   4.943   6.430   0.024
 7822SOL     OW24364   0.744   1.329   5.016
 7822SOL    HW124365   0.740   1.412   4.959
 7822SOL    HW224366   0.771   1.251   4.960
 7823SOL     OW24367   2.260   3.466   5.321
 7823SOL    HW124368   2.218   3.473   5.411
 7823SOL    HW224369   2.307   3.378   5.313
 7824SOL     OW24370   5.536   3.027   3.142
 7824SOL    HW124371   5.453   2.971   3.147
 7824SOL    HW224372   5.562   3.057   3.234
 7825SOL     OW24373   3.833   3.594   2.287
 7825SOL    HW124374   3.736   3.619   2.281
 7825SOL    HW224375   3.888   3.678   2.289
 7826SOL     OW24376   6.133   6.933   1.303
 7826SOL    HW124377   6.060   6.987   1.262
 7826SOL    HW224378   6.155   6.970   1.393
 7827SOL     OW24379   4.876   3.814   0.597
 7827SOL    HW124380   4.810   3.758   0.648
 7827SOL    HW224381   4.901   3.766   0.513
 7828SOL     OW24382   0.919   5.911   0.827
 7828SOL    HW124383   0.868   5.868   0.753
 7828SOL    HW224384   0.910   6.010   0.822
 7829SOL     OW24385   4.117   3.400   2.465
 7829SOL    HW124386   4.130   3.323   2.403
 7829SOL    HW224387   4.117   3.367   2.560
 7830SOL     OW24388   5.799   2.951   6.775
 7830SOL    HW124389   5.844   2.866   6.749
 7830SOL    HW224390   5.861   3.028   6.760
 7831SOL     OW24391   1.687   2.595   6.497
 7831SOL    HW124392   1.705   2.543   6.414
 7831SOL    HW224393   1.750   2.673   6.502
 7832SOL     OW24394   2.765   2.415   5.237
 7832SOL    HW124395   2.709   2.356   5.295
 7832SOL    HW224396   2.753   2.389   5.141
 7833SOL     OW24397   1.462   6.745   0.648
 7833SOL    HW124398   1.457   6.830   0.594
 7833SOL    HW224399   1.545   6.746   0.703
 7834SOL     OW24400   0.238   0.451   1.089
 7834SOL    HW124401   0.257   0.456   0.991
 7834SOL    HW224402   0.143   0.424   1.103
 7835SOL     OW24403   2.057   2.554   4.949
 7835SOL    HW124404   2.044   2.520   4.856
 7835SOL    HW224405   2.058   2.477   5.012
 7836SOL     OW24406   2.518   0.057   0.128
 7836SOL    HW124407   2.567   6.991   0.139
 7836SOL    HW224408   2.435   0.055   0.184
 7837SOL     OW24409   6.001   0.493   3.780
 7837SOL    HW124410   6.039   0.452   3.697
 7837SOL    HW224411   5.951   0.576   3.757
 7838SOL     OW24412   3.801   6.997   3.704
 7838SOL    HW124413   3.752   0.062   3.722
 7838SOL    HW224414   3.746   6.938   3.646
 7839SOL     OW24415   6.550   5.266   4.496
 7839SOL    HW124416   6.522   5.356   4.529
 7839SOL    HW224417   6.536   5.261   4.397
 7840SOL     OW24418   5.110   3.228   5.832
 7840SOL    HW124419   5.013   3.219   5.808
 7840SOL    HW224420   5.119   3.284   5.914
 7841SOL     OW24421   1.045   1.701   6.118
 7841SOL    HW124422   1.024   1.609   6.150
 7841SOL    HW224423   1.125   1.698   6.058
 7842SOL     OW24424   2.923   1.143   2.830
 7842SOL    HW124425   2.937   1.175   2.737
 7842SOL    HW224426   2.825   1.132   2.846
 7843SOL     OW24427   5.717   3.719   1.226
 7843SOL    HW124428   5.813   3.694   1.242
 7843SOL    HW224429   5.713   3.805   1.176
 7844SOL     OW24430   4.646   1.440   4.157
 7844SOL    HW124431   4.598   1.528   4.152
 7844SOL    HW224432   4.736   1.453   4.197
 7845SOL     OW24433   0.622   1.092   4.297
 7845SOL    HW124434   0.708   1.097   4.348
 7845SOL    HW224435   0.613   1.173   4.239
 7846SOL     OW24436   3.839   0.440   2.028
 7846SOL    HW124437   3.842   0.525   2.081
 7846SOL    HW224438   3.901   0.374   2.069
 7847SOL     OW24439   6.983   0.696   0.124
 7847SOL    HW124440   0.058   0.678   0.099
 7847SOL    HW224441   6.976   0.787   0.165
 7848SOL     OW24442   4.669   4.304   0.504
 7848SOL    HW124443   4.729   4.324   0.581
 7848SOL    HW224444   4.696   4.217   0.463
 7849SOL     OW24445   5.538   3.957   5.213
 7849SOL    HW124446   5.585   3.921   5.293
 7849SOL    HW224447   5.603   3.971   5.138
 7850SOL     OW24448   0.848   1.030   4.442
 7850SOL    HW124449   0.920   1.060   4.505
 7850SOL    HW224450   0.809   0.944   4.476
 7851SOL     OW24451   5.338   6.635   0.099
 7851SOL    HW124452   5.342   6.542   0.063
 7851SOL    HW224453   5.273   6.689   0.045
 7852SOL     OW24454   2.571   6.163   6.340
 7852SOL    HW124455   2.566   6.066   6.317
 7852SOL    HW224456   2.479   6.196   6.363
 7853SOL     OW24457   2.209   3.013   0.800
 7853SOL    HW124458   2.274   2.951   0.843
 7853SOL    HW224459   2.248   3.052   0.717
 7854SOL     OW24460   3.523   4.126   2.696
 7854SOL    HW124461   3.622   4.112   2.700
 7854SOL    HW224462   3.492   4.166   2.783
 7855SOL     OW24463   3.640   6.709   5.788
 7855SOL    HW124464   3.650   6.786   5.851
 7855SOL    HW224465   3.648   6.624   5.840
 7856SOL     OW24466   4.999   3.015   6.403
 7856SOL    HW124467   4.957   2.975   6.322
 7856SOL    HW224468   4.954   2.979   6.485
 7857SOL     OW24469   0.800   1.564   4.908
 7857SOL    HW124470   0.728   1.634   4.916
 7857SOL    HW224471   0.829   1.557   4.813
 7858SOL     OW24472   6.561   3.999   3.685
 7858SOL    HW124473   6.563   3.970   3.590
 7858SOL    HW224474   6.504   4.081   3.693
 7859SOL     OW24475   0.972   5.726   6.479
 7859SOL    HW124476   0.966   5.646   6.539
 7859SOL    HW224477   1.054   5.778   6.502
 7860SOL     OW24478   3.317   0.028   2.253
 7860SOL    HW124479   3.331   0.126   2.253
 7860SOL    HW224480   3.340   7.011   2.163
 7861SOL     OW24481   5.803   4.084   0.311
 7861SOL    HW124482   5.756   4.070   0.224
 7861SOL    HW224483   5.775   4.172   0.349
 7862SOL     OW24484   3.158   4.559   1.718
 7862SOL    HW124485   3.135   4.485   1.654
 7862SOL    HW224486   3.088   4.564   1.789
 7863SOL     OW24487   6.609   6.118   2.076
 7863SOL    HW124488   6.672   6.081   2.144
 7863SOL    HW224489   6.635   6.211   2.053
 7864SOL     OW24490   0.788   5.148   4.560
 7864SOL    HW124491   0.831   5.130   4.648
 7864SOL    HW224492   0.737   5.066   4.530
 7865SOL     OW24493   2.972   0.253   2.512
 7865SOL    HW124494   3.039   0.311   2.558
 7865SOL    HW224495   2.956   0.287   2.419
 7866SOL     OW24496   2.597   2.402   4.208
 7866SOL    HW124497   2.624   2.371   4.298
 7866SOL    HW224498   2.671   2.388   4.143
 7867SOL     OW24499   5.563   4.729   2.414
 7867SOL    HW124500   5.464   4.718   2.404
 7867SOL    HW224501   5.603   4.643   2.447
 7868SOL     OW24502   5.792   0.145   0.800
 7868SOL    HW124503   5.854   0.166   0.875
 7868SOL    HW224504   5.839   0.159   0.713
 7869SOL     OW24505   0.328   3.038   1.611
 7869SOL    HW124506   0.419   3.077   1.593
 7869SOL    HW224507   0.261   3.082   1.551
 7870SOL     OW24508   0.092   6.435   3.829
 7870SOL    HW124509   0.134   6.352   3.865
 7870SOL    HW224510   0.043   6.482   3.902
 7871SOL     OW24511   5.154   3.377   3.597
 7871SOL    HW124512   5.085   3.342   3.661
 7871SOL    HW224513   5.241   3.387   3.645
 7872SOL     OW24514   6.671   2.882   3.550
 7872SOL    HW124515   6.749   2.820   3.543
 7872SOL    HW224516   6.703   2.973   3.574
 7873SOL     OW24517   0.297   5.054   4.993
 7873SOL    HW124518   0.239   4.984   5.033
 7873SOL    HW224519   0.255   5.090   4.910
 7874SOL     OW24520   5.528   0.648   0.193
 7874SOL    HW124521   5.481   0.562   0.215
 7874SOL    HW224522   5.562   0.690   0.277
 7875SOL     OW24523   4.345   3.221   6.626
 7875SOL    HW124524   4.405   3.236   6.547
 7875SOL    HW224525   4.250   3.234   6.597
 7876SOL     OW24526   6.742   0.428   3.856
 7876SOL    HW124527   6.792   0.438   3.942
 7876SOL    HW224528   6.726   0.518   3.815
 7877SOL     OW24529   6.730   2.042   1.915
 7877SOL    HW124530   6.770   2.074   1.829
 7877SOL    HW224531   6.801   2.042   1.986
 7878SOL     OW24532   4.748   3.794   1.763
 7878SOL    HW124533   4.697   3.708   1.776
 7878SOL    HW224534   4.789   3.795   1.672
 7879SOL     OW24535   5.730   0.624   5.048
 7879SOL    HW124536   5.685   0.690   4.988
 7879SOL    HW224537   5.805   0.668   5.097
 7880SOL     OW24538   0.789   0.211   6.073
 7880SOL    HW124539   0.690   0.225   6.075
 7880SOL    HW224540   0.810   0.126   6.026
 7881SOL     OW24541   6.973   4.944   4.064
 7881SOL    HW124542   0.027   5.012   4.072
 7881SOL    HW224543   6.885   4.992   4.056
 7882SOL     OW24544   0.520   4.110   2.462
 7882SOL    HW124545   0.420   4.106   2.455
 7882SOL    HW224546   0.560   4.064   2.383
 7883SOL     OW24547   3.957   1.293   4.297
 7883SOL    HW124548   3.979   1.309   4.201
 7883SOL    HW224549   3.911   1.373   4.335
 7884SOL     OW24550   0.717   3.756   4.507
 7884SOL    HW124551   0.746   3.701   4.429
 7884SOL    HW224552   0.778   3.740   4.585
 7885SOL     OW24553   6.281   5.322   3.588
 7885SOL    HW124554   6.307   5.384   3.514
 7885SOL    HW224555   6.323   5.353   3.674
 7886SOL     OW24556   4.850   3.414   3.483
 7886SOL    HW124557   4.826   3.482   3.413
 7886SOL    HW224558   4.877   3.329   3.439
 7887SOL     OW24559   2.479   3.599   0.720
 7887SOL    HW124560   2.509   3.678   0.773
 7887SOL    HW224561   2.381   3.585   0.735
 7888SOL     OW24562   6.333   2.225   4.313
 7888SOL    HW124563   6.360   2.130   4.325
 7888SOL    HW224564   6.283   2.256   4.394
 7889SOL     OW24565   5.669   5.550   0.195
 7889SOL    HW124566   5.683   5.626   0.258
 7889SOL    HW224567   5.582   5.505   0.215
 7890SOL     OW24568   1.638   3.587   4.256
 7890SOL    HW124569   1.666   3.596   4.161
 7890SOL    HW224570   1.701   3.638   4.315
 7891SOL     OW24571   6.910   1.905   3.935
 7891SOL    HW124572   6.994   1.958   3.948
 7891SOL    HW224573   6.888   1.901   3.837
 7892SOL     OW24574   0.282   1.804   5.829
 7892SOL    HW124575   0.270   1.724   5.771
 7892SOL    HW224576   0.206   1.867   5.815
 7893SOL     OW24577   6.148   0.373   0.334
 7893SOL    HW124578   6.067   0.424   0.362
 7893SOL    HW224579   6.162   0.383   0.235
 7894SOL     OW24580   3.410   1.680   6.103
 7894SOL    HW124581   3.311   1.688   6.094
 7894SOL    HW224582   3.447   1.634   6.022
 7895SOL     OW24583   4.545   6.393   3.337
 7895SOL    HW124584   4.563   6.415   3.433
 7895SOL    HW224585   4.469   6.448   3.303
 7896SOL     OW24586   2.753   2.642   1.020
 7896SOL    HW124587   2.769   2.660   0.923
 7896SOL    HW224588   2.656   2.623   1.034
 7897SOL     OW24589   3.323   3.457   0.471
 7897SOL    HW124590   3.375   3.374   0.451
 7897SOL    HW224591   3.377   3.537   0.445
 7898SOL     OW24592   5.817   6.781   3.647
 7898SOL    HW124593   5.860   6.712   3.589
 7898SOL    HW224594   5.880   6.808   3.720
 7899SOL     OW24595   6.257   4.927   3.441
 7899SOL    HW124596   6.207   5.008   3.410
 7899SOL    HW224597   6.327   4.954   3.507
 7900SOL     OW24598   0.668   4.286   1.560
 7900SOL    HW124599   0.585   4.276   1.614
 7900SOL    HW224600   0.738   4.333   1.614
 7901SOL     OW24601   6.741   1.548   6.149
 7901SOL    HW124602   6.763   1.466   6.096
 7901SOL    HW224603   6.674   1.603   6.099
 7902SOL     OW24604   1.080   6.665   2.814
 7902SOL    HW124605   0.989   6.678   2.775
 7902SOL    HW224606   1.108   6.747   2.863
 7903SOL     OW24607   2.905   2.116   5.025
 7903SOL    HW124608   2.985   2.167   5.055
 7903SOL    HW224609   2.904   2.110   4.925
 7904SOL     OW24610   5.113   1.427   1.855
 7904SOL    HW124611   5.024   1.417   1.811
 7904SOL    HW224612   5.107   1.397   1.950
 7905SOL     OW24613   5.819   0.778   1.320
 7905SOL    HW124614   5.732   0.796   1.366
 7905SOL    HW224615   5.830   0.839   1.242
 7906SOL     OW24616   1.792   5.387   0.431
 7906SOL    HW124617   1.841   5.423   0.510
 7906SOL    HW224618   1.855   5.377   0.354
 7907SOL     OW24619   6.242   0.290   3.008
 7907SOL    HW124620   6.319   0.231   3.030
 7907SOL    HW224621   6.231   0.359   3.080
 7908SOL     OW24622   1.020   0.335   6.598
 7908SOL    HW124623   1.066   0.366   6.682
 7908SOL    HW224624   0.968   0.411   6.560
 7909SOL     OW24625   5.975   4.938   1.763
 7909SOL    HW124626   5.998   4.903   1.672
 7909SOL    HW224627   6.017   4.880   1.833
 7910SOL     OW24628   1.356   3.741   0.183
 7910SOL    HW124629   1.327   3.819   0.129
 7910SOL    HW224630   1.403   3.675   0.125
 7911SOL     OW24631   1.013   4.302   0.072
 7911SOL    HW124632   0.922   4.324   0.106
 7911SOL    HW224633   1.043   4.215   0.113
 7912SOL     OW24634   5.837   5.717   0.610
 7912SOL    HW124635   5.841   5.809   0.571
 7912SOL    HW224636   5.744   5.701   0.645
 7913SOL     OW24637   0.896   4.084   1.121
 7913SOL    HW124638   0.807   4.048   1.093
 7913SOL    HW224639   0.940   4.019   1.184
 7914SOL     OW24640   6.067   5.875   4.954
 7914SOL    HW124641   6.157   5.911   4.978
 7914SOL    HW224642   6.027   5.931   4.881
 7915SOL     OW24643   3.758   6.049   2.631
 7915SOL    HW124644   3.844   6.049   2.580
 7915SOL    HW224645   3.709   5.963   2.613
 7916SOL     OW24646   1.719   0.538   4.742
 7916SOL    HW124647   1.691   0.445   4.766
 7916SOL    HW224648   1.641   0.600   4.751
 7917SOL     OW24649   4.453   3.707   0.984
 7917SOL    HW124650   4.394   3.637   0.944
 7917SOL    HW224651   4.480   3.678   1.076
 7918SOL     OW24652   1.892   1.978   4.996
 7918SOL    HW124653   1.929   1.952   5.085
 7918SOL    HW224654   1.799   2.012   5.007
 7919SOL     OW24655   2.235   6.294   3.862
 7919SOL    HW124656   2.300   6.320   3.934
 7919SOL    HW224657   2.272   6.322   3.773
 7920SOL     OW24658   5.198   0.625   1.303
 7920SOL    HW124659   5.255   0.666   1.232
 7920SOL    HW224660   5.254   0.565   1.360
 7921SOL     OW24661   5.247   2.314   1.738
 7921SOL    HW124662   5.199   2.398   1.763
 7921SOL    HW224663   5.184   2.237   1.745
 7922SOL     OW24664   1.443   5.542   1.001
 7922SOL    HW124665   1.475   5.559   1.094
 7922SOL    HW224666   1.344   5.555   0.997
 7923SOL     OW24667   4.645   1.081   0.368
 7923SOL    HW124668   4.691   1.170   0.374
 7923SOL    HW224669   4.653   1.046   0.275
 7924SOL     OW24670   6.098   6.379   0.980
 7924SOL    HW124671   6.101   6.478   0.995
 7924SOL    HW224672   6.065   6.360   0.887
 7925SOL     OW24673   1.480   6.342   6.921
 7925SOL    HW124674   1.395   6.315   6.965
 7925SOL    HW224675   1.517   6.264   6.869
 7926SOL     OW24676   4.329   5.220   6.839
 7926SOL    HW124677   4.389   5.224   6.760
 7926SOL    HW224678   4.234   5.234   6.810
 7927SOL     OW24679   4.585   0.493   2.982
 7927SOL    HW124680   4.535   0.577   3.003
 7927SOL    HW224681   4.629   0.459   3.065
 7928SOL     OW24682   6.669   1.996   3.410
 7928SOL    HW124683   6.734   2.072   3.403
 7928SOL    HW224684   6.717   1.909   3.403
 7929SOL     OW24685   3.942   4.242   6.037
 7929SOL    HW124686   3.996   4.327   6.040
 7929SOL    HW224687   4.001   4.166   6.012
 7930SOL     OW24688   4.729   5.889   5.657
 7930SOL    HW124689   4.724   5.793   5.629
 7930SOL    HW224690   4.797   5.936   5.601
 7931SOL     OW24691   3.740   2.156   1.040
 7931SOL    HW124692   3.727   2.252   1.014
 7931SOL    HW224693   3.728   2.147   1.139
 7932SOL     OW24694   1.398   4.976   2.444
 7932SOL    HW124695   1.480   4.967   2.389
 7932SOL    HW224696   1.396   5.066   2.487
 7933SOL     OW24697   0.832   1.297   6.425
 7933SOL    HW124698   0.791   1.224   6.479
 7933SOL    HW224699   0.931   1.300   6.442
 7934SOL     OW24700   0.957   4.579   1.563
 7934SOL    HW124701   0.872   4.526   1.559
 7934SOL    HW224702   0.937   4.673   1.591
 7935SOL     OW24703   5.003   3.160   3.991
 7935SOL    HW124704   4.962   3.100   4.060
 7935SOL    HW224705   5.094   3.126   3.967
 7936SOL     OW24706   3.910   6.146   3.806
 7936SOL    HW124707   3.902   6.220   3.873
 7936SOL    HW224708   3.882   6.178   3.716
 7937SOL     OW24709   3.457   0.678   6.779
 7937SOL    HW124710   3.501   0.592   6.752
 7937SOL    HW224711   3.364   0.659   6.812
 7938SOL     OW24712   4.052   6.736   4.481
 7938SOL    HW124713   4.023   6.644   4.508
 7938SOL    HW224714   3.996   6.768   4.405
 7939SOL     OW24715   0.738   1.927   3.768
 7939SOL    HW124716   0.760   2.024   3.774
 7939SOL    HW224717   0.667   1.904   3.834
 7940SOL     OW24718   5.280   1.196   2.923
 7940SOL    HW124719   5.189   1.224   2.893
 7940SOL    HW224720   5.286   1.096   2.921
 7941SOL     OW24721   3.374   6.921   1.411
 7941SOL    HW124722   3.365   6.831   1.368
 7941SOL    HW224723   3.419   6.912   1.500
 7942SOL     OW24724   1.143   4.522   1.357
 7942SOL    HW124725   1.081   4.543   1.433
 7942SOL    HW224726   1.091   4.491   1.278
 7943SOL     OW24727   1.297   5.697   6.062
 7943SOL    HW124728   1.357   5.636   6.011
 7943SOL    HW224729   1.316   5.689   6.160
 7944SOL     OW24730   1.622   2.598   0.884
 7944SOL    HW124731   1.564   2.630   0.959
 7944SOL    HW224732   1.623   2.498   0.883
 7945SOL     OW24733   6.139   4.190   3.084
 7945SOL    HW124734   6.172   4.257   3.150
 7945SOL    HW224735   6.044   4.166   3.106
 7946SOL     OW24736   3.635   1.228   5.861
 7946SOL    HW124737   3.648   1.301   5.928
 7946SOL    HW224738   3.692   1.245   5.781
 7947SOL     OW24739   0.794   3.721   6.164
 7947SOL    HW124740   0.754   3.810   6.143
 7947SOL    HW224741   0.775   3.658   6.088
 7948SOL     OW24742   1.316   4.236   2.284
 7948SOL    HW124743   1.250   4.188   2.342
 7948SOL    HW224744   1.367   4.302   2.340
 7949SOL     OW24745   3.751   6.090   6.385
 7949SOL    HW124746   3.666   6.045   6.356
 7949SOL    HW224747   3.803   6.029   6.444
 7950SOL     OW24748   5.474   4.708   5.610
 7950SOL    HW124749   5.428   4.713   5.521
 7950SOL    HW224750   5.533   4.787   5.623
 7951SOL     OW24751   3.035   6.347   2.943
 7951SOL    HW124752   3.036   6.285   2.865
 7951SOL    HW224753   2.941   6.375   2.962
 7952SOL     OW24754   5.750   3.582   6.676
 7952SOL    HW124755   5.781   3.488   6.687
 7952SOL    HW224756   5.772   3.613   6.583
 7953SOL     OW24757   2.640   0.715   1.050
 7953SOL    HW124758   2.661   0.740   0.956
 7953SOL    HW224759   2.549   0.673   1.054
 7954SOL     OW24760   3.920   3.775   6.478
 7954SOL    HW124761   3.827   3.807   6.500
 7954SOL    HW224762   3.957   3.723   6.555
 7955SOL     OW24763   1.609   1.352   0.162
 7955SOL    HW124764   1.627   1.424   0.095
 7955SOL    HW224765   1.537   1.381   0.225
 7956SOL     OW24766   5.961   6.201   0.280
 7956SOL    HW124767   6.038   6.157   0.326
 7956SOL    HW224768   5.912   6.259   0.345
 7957SOL     OW24769   4.417   1.162   5.515
 7957SOL    HW124770   4.391   1.232   5.448
 7957SOL    HW224771   4.376   1.184   5.604
 7958SOL     OW24772   5.778   2.818   0.002
 7958SOL    HW124773   5.778   2.866   6.934
 7958SOL    HW224774   5.861   2.763   0.009
 7959SOL     OW24775   5.658   1.728   6.290
 7959SOL    HW124776   5.753   1.758   6.284
 7959SOL    HW224777   5.628   1.727   6.385
 7960SOL     OW24778   0.401   0.625   5.815
 7960SOL    HW124779   0.344   0.662   5.741
 7960SOL    HW224780   0.497   0.647   5.798
 7961SOL     OW24781   6.774   6.179   0.698
 7961SOL    HW124782   6.719   6.248   0.745
 7961SOL    HW224783   6.791   6.209   0.603
 7962SOL     OW24784   5.125   6.959   5.783
 7962SOL    HW124785   5.084   6.888   5.726
 7962SOL    HW224786   5.192   6.917   5.845
 7963SOL     OW24787   0.241   5.663   4.419
 7963SOL    HW124788   0.330   5.696   4.388
 7963SOL    HW224789   0.240   5.563   4.416
 7964SOL     OW24790   6.732   4.484   2.050
 7964SOL    HW124791   6.784   4.503   2.134
 7964SOL    HW224792   6.636   4.508   2.064
 7965SOL     OW24793   3.179   2.325   6.549
 7965SOL    HW124794   3.248   2.381   6.504
 7965SOL    HW224795   3.218   2.236   6.572
 7966SOL     OW24796   4.961   3.759   4.813
 7966SOL    HW124797   5.058   3.737   4.801
 7966SOL    HW224798   4.911   3.675   4.835
 7967SOL     OW24799   1.745   4.530   2.216
 7967SOL    HW124800   1.702   4.447   2.180
 7967SOL    HW224801   1.675   4.591   2.252
 7968SOL     OW24802   0.075   2.206   4.662
 7968SOL    HW124803   0.070   2.262   4.579
 7968SOL    HW224804   0.168   2.169   4.671
 7969SOL     OW24805   4.620   4.804   0.015
 7969SOL    HW124806   4.581   4.895   0.027
 7969SOL    HW224807   4.707   4.797   0.063
 7970SOL     OW24808   5.694   2.963   2.615
 7970SOL    HW124809   5.665   2.995   2.525
 7970SOL    HW224810   5.776   2.908   2.606
 7971SOL     OW24811   3.067   0.887   0.523
 7971SOL    HW124812   3.005   0.918   0.452
 7971SOL    HW224813   3.058   0.788   0.534
 7972SOL     OW24814   3.936   3.904   3.061
 7972SOL    HW124815   3.979   3.907   2.971
 7972SOL    HW224816   3.989   3.845   3.121
 7973SOL     OW24817   6.386   3.691   2.367
 7973SOL    HW124818   6.411   3.624   2.436
 7973SOL    HW224819   6.468   3.724   2.321
 7974SOL     OW24820   6.831   2.249   6.196
 7974SOL    HW124821   6.919   2.221   6.159
 7974SOL    HW224822   6.768   2.172   6.196
 7975SOL     OW24823   5.775   0.639   1.063
 7975SOL    HW124824   5.753   0.652   1.160
 7975SOL    HW224825   5.704   0.584   1.020
 7976SOL     OW24826   0.895   6.829   7.007
 7976SOL    HW124827   0.858   6.753   6.955
 7976SOL    HW224828   0.904   6.802   0.083
 7977SOL     OW24829   5.630   5.307   3.230
 7977SOL    HW124830   5.702   5.368   3.264
 7977SOL    HW224831   5.665   5.254   3.153
 7978SOL     OW24832   0.273   4.396   1.813
 7978SOL    HW124833   0.210   4.408   1.736
 7978SOL    HW224834   0.256   4.467   1.882
 7979SOL     OW24835   1.727   3.183   4.379
 7979SOL    HW124836   1.672   3.112   4.335
 7979SOL    HW224837   1.758   3.151   4.468
 7980SOL     OW24838   4.120   5.440   6.863
 7980SOL    HW124839   4.075   5.351   6.856
 7980SOL    HW224840   4.063   5.502   6.918
 7981SOL     OW24841   1.331   5.007   2.966
 7981SOL    HW124842   1.255   4.947   2.992
 7981SOL    HW224843   1.411   4.951   2.942
 7982SOL     OW24844   6.397   2.190   5.333
 7982SOL    HW124845   6.321   2.132   5.303
 7982SOL    HW224846   6.384   2.215   5.429
 7983SOL     OW24847   5.068   1.559   1.479
 7983SOL    HW124848   5.100   1.509   1.398
 7983SOL    HW224849   5.144   1.570   1.543
 7984SOL     OW24850   1.162   1.767   2.601
 7984SOL    HW124851   1.072   1.804   2.621
 7984SOL    HW224852   1.232   1.828   2.639
 7985SOL     OW24853   2.608   2.339   5.467
 7985SOL    HW124854   2.549   2.393   5.407
 7985SOL    HW224855   2.562   2.322   5.554
 7986SOL     OW24856   2.861   1.010   3.860
 7986SOL    HW124857   2.764   1.027   3.842
 7986SOL    HW224858   2.892   1.070   3.933
 7987SOL     OW24859   1.350   3.303   0.208
 7987SOL    HW124860   1.447   3.283   0.219
 7987SOL    HW224861   1.325   3.380   0.267
 7988SOL     OW24862   6.948   1.638   0.819
 7988SOL    HW124863   6.955   1.579   0.738
 7988SOL    HW224864   6.996   1.596   0.895
 7989SOL     OW24865   0.231   4.708   0.319
 7989SOL    HW124866   0.273   4.745   0.236
 7989SOL    HW224867   0.185   4.781   0.368
 7990SOL     OW24868   3.959   5.232   5.735
 7990SOL    HW124869   4.033   5.291   5.703
 7990SOL    HW224870   3.878   5.287   5.754
 7991SOL     OW24871   6.501   1.423   4.901
 7991SOL    HW124872   6.539   1.359   4.968
 7991SOL    HW224873   6.542   1.408   4.812
 7992SOL     OW24874   2.804   0.084   0.289
 7992SOL    HW124875   2.755   0.170   0.279
 7992SOL    HW224876   2.755   0.024   0.353
 7993SOL     OW24877   6.616   6.024   1.324
 7993SOL    HW124878   6.705   5.980   1.319
 7993SOL    HW224879   6.621   6.105   1.382
 7994SOL     OW24880   5.445   0.153   3.635
 7994SOL    HW124881   5.509   0.077   3.627
 7994SOL    HW224882   5.439   0.183   3.731
 7995SOL     OW24883   0.454   4.539   1.396
 7995SOL    HW124884   0.452   4.551   1.297
 7995SOL    HW224885   0.390   4.604   1.439
 7996SOL     OW24886   3.224   0.902   3.025
 7996SOL    HW124887   3.169   0.928   3.105
 7996SOL    HW224888   3.176   0.829   2.975
 7997SOL     OW24889   1.242   1.616   6.431
 7997SOL    HW124890   1.267   1.609   6.334
 7997SOL    HW224891   1.145   1.640   6.439
 7998SOL     OW24892   2.766   1.313   0.527
 7998SOL    HW124893   2.764   1.368   0.444
 7998SOL    HW224894   2.752   1.373   0.607
 7999SOL     OW24895   1.000   0.670   4.736
 7999SOL    HW124896   0.970   0.591   4.790
 7999SOL    HW224897   1.077   0.643   4.678
 8000SOL     OW24898   4.531   5.186   6.649
 8000SOL    HW124899   4.629   5.183   6.667
 8000SOL    HW224900   4.515   5.224   6.557
 8001SOL     OW24901   4.329   6.609   1.723
 8001SOL    HW124902   4.407   6.662   1.756
 8001SOL    HW224903   4.354   6.513   1.717
 8002SOL     OW24904   0.732   0.045   5.266
 8002SOL    HW124905   0.679   7.012   5.199
 8002SOL    HW224906   0.712   0.013   5.358
 8003SOL     OW24907   2.095   6.192   2.400
 8003SOL    HW124908   2.051   6.253   2.335
 8003SOL    HW224909   2.035   6.177   2.478
 8004SOL     OW24910   1.139   3.215   3.422
 8004SOL    HW124911   1.149   3.189   3.326
 8004SOL    HW224912   1.152   3.135   3.480
 8005SOL     OW24913   2.547   0.433   3.580
 8005SOL    HW124914   2.458   0.430   3.535
 8005SOL    HW224915   2.618   0.450   3.511
 8006SOL     OW24916   3.555   4.795   5.579
 8006SOL    HW124917   3.530   4.704   5.612
 8006SOL    HW224918   3.584   4.788   5.483
 8007SOL     OW24919   6.274   0.699   6.410
 8007SOL    HW124920   6.365   0.720   6.448
 8007SOL    HW224921   6.275   0.716   6.311
 8008SOL     OW24922   5.393   0.017   6.468
 8008SOL    HW124923   5.429   6.966   6.407
 8008SOL    HW224924   5.328   0.074   6.418
 8009SOL     OW24925   4.844   1.931   6.122
 8009SOL    HW124926   4.942   1.922   6.107
 8009SOL    HW224927   4.824   1.925   6.220
 8010SOL     OW24928   2.612   1.773   5.513
 8010SOL    HW124929   2.611   1.677   5.488
 8010SOL    HW224930   2.594   1.783   5.611
 8011SOL     OW24931   4.182   1.510   1.864
 8011SOL    HW124932   4.153   1.450   1.789
 8011SOL    HW224933   4.165   1.464   1.952
 8012SOL     OW24934   0.132   1.296   5.379
 8012SOL    HW124935   0.112   1.313   5.283
 8012SOL    HW224936   0.048   1.273   5.427
 8013SOL     OW24937   3.113   2.197   2.716
 8013SOL    HW124938   3.073   2.209   2.807
 8013SOL    HW224939   3.209   2.173   2.725
 8014SOL     OW24940   2.112   1.308   2.368
 8014SOL    HW124941   2.175   1.288   2.443
 8014SOL    HW224942   2.115   1.405   2.347
 8015SOL     OW24943   3.228   6.836   5.555
 8015SOL    HW124944   3.283   6.752   5.563
 8015SOL    HW224945   3.133   6.816   5.579
 8016SOL     OW24946   3.739   1.729   4.914
 8016SOL    HW124947   3.713   1.640   4.951
 8016SOL    HW224948   3.827   1.721   4.867
 8017SOL     OW24949   6.288   6.310   1.169
 8017SOL    HW124950   6.218   6.332   1.101
 8017SOL    HW224951   6.248   6.315   1.260
 8018SOL     OW24952   3.787   1.762   6.847
 8018SOL    HW124953   3.744   1.756   6.937
 8018SOL    HW224954   3.886   1.776   6.858
 8019SOL     OW24955   2.587   4.034   1.294
 8019SOL    HW124956   2.578   4.108   1.227
 8019SOL    HW224957   2.609   3.949   1.247
 8020SOL     OW24958   0.259   0.741   5.611
 8020SOL    HW124959   0.169   0.758   5.572
 8020SOL    HW224960   0.320   0.817   5.590
 8021SOL     OW24961   1.281   2.177   1.303
 8021SOL    HW124962   1.356   2.223   1.256
 8021SOL    HW224963   1.206   2.241   1.318
 8022SOL     OW24964   4.827   1.711   2.074
 8022SOL    HW124965   4.769   1.708   1.992
 8022SOL    HW224966   4.820   1.802   2.116
 8023SOL     OW24967   4.827   5.454   2.804
 8023SOL    HW124968   4.921   5.484   2.790
 8023SOL    HW224969   4.796   5.401   2.725
 8024SOL     OW24970   2.402   0.922   6.705
 8024SOL    HW124971   2.350   0.839   6.727
 8024SOL    HW224972   2.393   0.987   6.780
 8025SOL     OW24973   1.407   5.935   0.894
 8025SOL    HW124974   1.319   5.968   0.929
 8025SOL    HW224975   1.392   5.859   0.830
 8026SOL     OW24976   0.757   5.501   6.701
 8026SOL    HW124977   0.723   5.423   6.754
 8026SOL    HW224978   0.853   5.488   6.679
 8027SOL     OW24979   3.453   6.809   0.030
 8027SOL    HW124980   3.375   6.790   0.091
 8027SOL    HW224981   3.471   6.729   6.994
 8028SOL     OW24982   3.337   5.523   5.252
 8028SOL    HW124983   3.302   5.515   5.158
 8028SOL    HW224984   3.283   5.465   5.313
 8029SOL     OW24985   6.900   7.015   0.258
 8029SOL    HW124986   6.875   0.066   0.192
 8029SOL    HW224987   6.817   6.977   0.299
 8030SOL     OW24988   1.012   3.930   0.912
 8030SOL    HW124989   1.057   3.847   0.944
 8030SOL    HW224990   1.014   3.999   0.985
 8031SOL     OW24991   0.092   0.771   3.323
 8031SOL    HW124992   0.148   0.704   3.371
 8031SOL    HW224993   0.056   0.838   3.389
 8032SOL     OW24994   5.893   3.096   1.377
 8032SOL    HW124995   5.919   3.015   1.324
 8032SOL    HW224996   5.974   3.134   1.421
 8033SOL     OW24997   5.204   3.554   0.552
 8033SOL    HW124998   5.124   3.610   0.529
 8033SOL    HW224999   5.265   3.607   0.612
 8034SOL     OW25000   6.118   0.282   5.716
 8034SOL    HW125001   6.171   0.326   5.788
 8034SOL    HW225002   6.175   0.215   5.669
 8035SOL     OW25003   5.757   1.708   3.039
 8035SOL    HW125004   5.762   1.786   2.976
 8035SOL    HW225005   5.831   1.714   3.105
 8036SOL     OW25006   6.177   2.473   3.475
 8036SOL    HW125007   6.192   2.378   3.503
 8036SOL    HW225008   6.082   2.498   3.493
 8037SOL     OW25009   0.966   2.288   6.044
 8037SOL    HW125010   0.954   2.247   6.134
 8037SOL    HW225011   0.885   2.341   6.021
 8038SOL     OW25012   7.008   4.924   2.340
 8038SOL    HW125013   0.008   4.990   2.412
 8038SOL    HW225014   6.918   4.884   2.354
 8039SOL     OW25015   1.003   2.415   5.452
 8039SOL    HW125016   1.083   2.385   5.504
 8039SOL    HW225017   1.032   2.481   5.382
 8040SOL     OW25018   2.267   5.312   6.536
 8040SOL    HW125019   2.183   5.297   6.484
 8040SOL    HW225020   2.337   5.349   6.476
 8041SOL     OW25021   4.106   1.358   3.514
 8041SOL    HW125022   4.051   1.425   3.463
 8041SOL    HW225023   4.201   1.387   3.515
 8042SOL     OW25024   4.146   4.187   5.515
 8042SOL    HW125025   4.078   4.216   5.582
 8042SOL    HW225026   4.200   4.112   5.553
 8043SOL     OW25027   5.496   5.241   6.638
 8043SOL    HW125028   5.433   5.296   6.583
 8043SOL    HW225029   5.588   5.249   6.600
 8044SOL     OW25030   2.736   3.702   1.713
 8044SOL    HW125031   2.636   3.696   1.712
 8044SOL    HW225032   2.775   3.630   1.656
 8045SOL     OW25033   0.409   1.725   3.159
 8045SOL    HW125034   0.399   1.804   3.219
 8045SOL    HW225035   0.505   1.712   3.136
 8046SOL     OW25036   6.989   5.022   1.810
 8046SOL    HW125037   7.019   4.978   1.895
 8046SOL    HW225038   6.916   4.968   1.769
 8047SOL     OW25039   3.542   6.356   6.790
 8047SOL    HW125040   3.506   6.327   6.701
 8047SOL    HW225041   3.641   6.368   6.783
 8048SOL     OW25042   3.755   2.663   6.812
 8048SOL    HW125043   3.688   2.735   6.791
 8048SOL    HW225044   3.846   2.703   6.816
 8049SOL     OW25045   1.381   1.424   0.274
 8049SOL    HW125046   1.337   1.511   0.297
 8049SOL    HW225047   1.342   1.351   0.331
 8050SOL     OW25048   0.138   4.654   5.642
 8050SOL    HW125049   0.057   4.712   5.637
 8050SOL    HW225050   0.217   4.703   5.604
 8051SOL     OW25051   4.065   5.957   3.968
 8051SOL    HW125052   4.084   5.901   3.886
 8051SOL    HW225053   4.027   6.045   3.940
 8052SOL     OW25054   2.405   2.715   2.346
 8052SOL    HW125055   2.490   2.748   2.306
 8052SOL    HW225056   2.407   2.615   2.352
 8053SOL     OW25057   2.228   2.711   6.318
 8053SOL    HW125058   2.139   2.671   6.297
 8053SOL    HW225059   2.248   2.700   6.415
 8054SOL     OW25060   4.575   3.444   5.299
 8054SOL    HW125061   4.641   3.505   5.256
 8054SOL    HW225062   4.623   3.362   5.332
 8055SOL     OW25063   6.178   0.478   6.548
 8055SOL    HW125064   6.090   0.511   6.584
 8055SOL    HW225065   6.220   0.548   6.491
 8056SOL     OW25066   1.933   1.520   4.738
 8056SOL    HW125067   1.875   1.554   4.664
 8056SOL    HW225068   2.014   1.475   4.700
 8057SOL     OW25069   2.752   2.111   1.946
 8057SOL    HW125070   2.820   2.040   1.927
 8057SOL    HW225071   2.796   2.185   1.997
 8058SOL     OW25072   3.669   6.323   2.672
 8058SOL    HW125073   3.628   6.364   2.591
 8058SOL    HW225074   3.721   6.241   2.646
 8059SOL     OW25075   2.546   2.922   6.384
 8059SOL    HW125076   2.605   2.952   6.309
 8059SOL    HW225077   2.543   2.993   6.454
 8060SOL     OW25078   6.013   0.330   5.284
 8060SOL    HW125079   6.110   0.311   5.297
 8060SOL    HW225080   5.975   0.367   5.369
 8061SOL     OW25081   6.936   0.725   2.311
 8061SOL    HW125082   6.988   0.662   2.252
 8061SOL    HW225083   6.870   0.672   2.365
 8062SOL     OW25084   4.333   5.522   6.000
 8062SOL    HW125085   4.365   5.617   5.999
 8062SOL    HW225086   4.381   5.470   5.931
 8063SOL     OW25087   3.683   5.598   3.214
 8063SOL    HW125088   3.719   5.657   3.141
 8063SOL    HW225089   3.634   5.521   3.173
 8064SOL     OW25090   5.956   1.602   1.023
 8064SOL    HW125091   6.051   1.569   1.021
 8064SOL    HW225092   5.893   1.525   1.019
 8065SOL     OW25093   3.760   5.469   6.313
 8065SOL    HW125094   3.673   5.446   6.357
 8065SOL    HW225095   3.800   5.549   6.359
 8066SOL     OW25096   0.542   6.955   5.090
 8066SOL    HW125097   0.465   7.004   5.050
 8066SOL    HW225098   0.508   6.881   5.147
 8067SOL     OW25099   5.272   3.073   3.919
 8067SOL    HW125100   5.286   2.975   3.901
 8067SOL    HW225101   5.311   3.126   3.844
 8068SOL     OW25102   6.427   4.013   1.081
 8068SOL    HW125103   6.447   4.053   1.171
 8068SOL    HW225104   6.385   3.923   1.094
 8069SOL     OW25105   2.691   4.996   2.463
 8069SOL    HW125106   2.716   4.900   2.447
 8069SOL    HW225107   2.774   5.050   2.475
 8070SOL     OW25108   4.823   4.835   0.201
 8070SOL    HW125109   4.869   4.845   0.289
 8070SOL    HW225110   4.878   4.877   0.130
 8071SOL     OW25111   2.925   6.544   5.591
 8071SOL    HW125112   2.937   6.643   5.589
 8071SOL    HW225113   2.879   6.517   5.676
 8072SOL     OW25114   1.214   2.336   5.616
 8072SOL    HW125115   1.250   2.273   5.548
 8072SOL    HW225116   1.190   2.286   5.699
 8073SOL     OW25117   3.900   0.376   6.797
 8073SOL    HW125118   3.816   0.428   6.782
 8073SOL    HW225119   3.971   0.408   6.734
 8074SOL     OW25120   1.458   1.161   6.671
 8074SOL    HW125121   1.470   1.252   6.712
 8074SOL    HW225122   1.432   1.171   6.575
 8075SOL     OW25123   0.707   6.873   0.676
 8075SOL    HW125124   0.771   6.944   0.706
 8075SOL    HW225125   0.665   6.831   0.756
 8076SOL     OW25126   0.271   6.078   0.692
 8076SOL    HW125127   0.223   6.007   0.640
 8076SOL    HW225128   0.369   6.058   0.693
 8077SOL     OW25129   4.557   4.787   0.965
 8077SOL    HW125130   4.598   4.697   0.977
 8077SOL    HW225131   4.609   4.855   1.017
 8078SOL     OW25132   0.503   0.571   2.431
 8078SOL    HW125133   0.537   0.657   2.392
 8078SOL    HW225134   0.521   0.571   2.530
 8079SOL     OW25135   1.265   2.141   5.434
 8079SOL    HW125136   1.250   2.044   5.415
 8079SOL    HW225137   1.266   2.192   5.348
 8080SOL     OW25138   1.449   2.858   3.088
 8080SOL    HW125139   1.350   2.862   3.101
 8080SOL    HW225140   1.494   2.921   3.151
 8081SOL     OW25141   6.374   6.124   4.323
 8081SOL    HW125142   6.462   6.109   4.279
 8081SOL    HW225143   6.368   6.218   4.355
 8082SOL     OW25144   4.054   1.898   1.985
 8082SOL    HW125145   4.024   1.852   2.069
 8082SOL    HW225146   4.034   1.996   1.991
 8083SOL     OW25147   5.887   2.440   4.656
 8083SOL    HW125148   5.880   2.355   4.707
 8083SOL    HW225149   5.798   2.486   4.656
 8084SOL     OW25150   3.029   0.912   5.789
 8084SOL    HW125151   3.014   1.004   5.754
 8084SOL    HW225152   2.955   0.852   5.758
 8085SOL     OW25153   1.737   6.264   4.435
 8085SOL    HW125154   1.650   6.218   4.454
 8085SOL    HW225155   1.749   6.275   4.336
 8086SOL     OW25156   6.802   1.037   1.885
 8086SOL    HW125157   6.870   1.088   1.938
 8086SOL    HW225158   6.710   1.068   1.909
 8087SOL     OW25159   1.115   0.703   0.778
 8087SOL    HW125160   1.192   0.664   0.829
 8087SOL    HW225161   1.142   0.791   0.740
 8088SOL     OW25162   6.586   0.034   4.879
 8088SOL    HW125163   6.668   0.066   4.831
 8088SOL    HW225164   6.531   6.998   4.816
 8089SOL     OW25165   5.353   2.745   6.281
 8089SOL    HW125166   5.413   2.771   6.205
 8089SOL    HW225167   5.354   2.816   6.350
 8090SOL     OW25168   4.086   1.874   5.293
 8090SOL    HW125169   4.111   1.898   5.199
 8090SOL    HW225170   3.994   1.908   5.312
 8091SOL     OW25171   1.764   4.578   4.620
 8091SOL    HW125172   1.811   4.577   4.532
 8091SOL    HW225173   1.751   4.673   4.649
 8092SOL     OW25174   4.938   2.126   5.721
 8092SOL    HW125175   4.861   2.070   5.753
 8092SOL    HW225176   4.962   2.192   5.792
 8093SOL     OW25177   4.360   6.370   2.273
 8093SOL    HW125178   4.286   6.304   2.259
 8093SOL    HW225179   4.415   6.341   2.352
 8094SOL     OW25180   1.625   3.951   3.487
 8094SOL    HW125181   1.563   3.997   3.551
 8094SOL    HW225182   1.716   3.990   3.494
 8095SOL     OW25183   1.102   4.799   5.765
 8095SOL    HW125184   1.151   4.733   5.708
 8095SOL    HW225185   1.012   4.818   5.724
 8096SOL     OW25186   0.942   5.760   1.894
 8096SOL    HW125187   1.000   5.840   1.877
 8096SOL    HW225188   0.927   5.711   1.808
 8097SOL     OW25189   3.716   5.813   5.174
 8097SOL    HW125190   3.726   5.766   5.261
 8097SOL    HW225191   3.624   5.797   5.137
 8098SOL     OW25192   1.623   5.469   4.909
 8098SOL    HW125193   1.699   5.404   4.918
 8098SOL    HW225194   1.588   5.491   5.000
 8099SOL     OW25195   2.420   5.827   3.398
 8099SOL    HW125196   2.376   5.741   3.374
 8099SOL    HW225197   2.438   5.829   3.497
 8100SOL     OW25198   0.148   0.422   6.774
 8100SOL    HW125199   0.164   0.404   6.871
 8100SOL    HW225200   0.234   0.449   6.730
 8101SOL     OW25201   2.623   6.055   1.858
 8101SOL    HW125202   2.633   5.963   1.898
 8101SOL    HW225203   2.687   6.117   1.903
 8102SOL     OW25204   1.434   3.192   5.457
 8102SOL    HW125205   1.436   3.187   5.357
 8102SOL    HW225206   1.522   3.227   5.491
 8103SOL     OW25207   3.356   1.471   2.088
 8103SOL    HW125208   3.354   1.427   2.177
 8103SOL    HW225209   3.294   1.550   2.089
 8104SOL     OW25210   2.222   6.530   0.251
 8104SOL    HW125211   2.202   6.433   0.262
 8104SOL    HW225212   2.272   6.544   0.166
 8105SOL     OW25213   0.013   0.714   3.073
 8105SOL    HW125214   0.042   0.747   3.163
 8105SOL    HW225215   0.044   0.779   3.003
 8106SOL     OW25216   2.831   6.424   5.341
 8106SOL    HW125217   2.866   6.411   5.434
 8106SOL    HW225218   2.732   6.428   5.342
 8107SOL     OW25219   1.802   5.813   6.046
 8107SOL    HW125220   1.827   5.897   6.094
 8107SOL    HW225221   1.867   5.795   5.973
 8108SOL     OW25222   0.346   1.414   6.602
 8108SOL    HW125223   0.257   1.401   6.560
 8108SOL    HW225224   0.417   1.375   6.544
 8109SOL     OW25225   6.951   2.957   0.773
 8109SOL    HW125226   6.942   3.019   0.851
 8109SOL    HW225227   6.923   2.865   0.801
 8110SOL     OW25228   4.230   4.948   0.837
 8110SOL    HW125229   4.275   5.026   0.879
 8110SOL    HW225230   4.278   4.864   0.862
 8111SOL     OW25231   5.900   1.633   3.264
 8111SOL    HW125232   5.998   1.635   3.246
 8111SOL    HW225233   5.884   1.644   3.362
 8112SOL     OW25234   0.758   3.549   5.913
 8112SOL    HW125235   0.777   3.459   5.953
 8112SOL    HW225236   0.812   3.561   5.830
 8113SOL     OW25237   5.560   2.857   0.165
 8113SOL    HW125238   5.567   2.946   0.210
 8113SOL    HW225239   5.627   2.850   0.091
 8114SOL     OW25240   1.950   4.469   1.524
 8114SOL    HW125241   1.986   4.380   1.495
 8114SOL    HW225242   2.004   4.504   1.599
 8115SOL     OW25243   2.199   1.111   6.522
 8115SOL    HW125244   2.178   1.158   6.607
 8115SOL    HW225245   2.207   1.178   6.448
 8116SOL     OW25246   3.298   4.222   1.499
 8116SOL    HW125247   3.391   4.229   1.533
 8116SOL    HW225248   3.280   4.128   1.468
 8117SOL     OW25249   3.064   0.068   2.738
 8117SOL    HW125250   3.148   0.108   2.776
 8117SOL    HW225251   3.054   0.095   2.642
 8118SOL     OW25252   6.682   3.089   0.527
 8118SOL    HW125253   6.638   3.059   0.442
 8118SOL    HW225254   6.717   3.182   0.515
 8119SOL     OW25255   6.044   5.860   6.547
 8119SOL    HW125256   6.135   5.885   6.580
 8119SOL    HW225257   5.997   5.941   6.511
 8120SOL     OW25258   2.141   5.984   1.498
 8120SOL    HW125259   2.176   5.982   1.405
 8120SOL    HW225260   2.190   6.054   1.551
 8121SOL     OW25261   1.058   2.897   2.386
 8121SOL    HW125262   1.151   2.866   2.407
 8121SOL    HW225263   1.057   2.997   2.377
 8122SOL     OW25264   0.815   4.090   2.267
 8122SOL    HW125265   0.751   4.013   2.274
 8122SOL    HW225266   0.768   4.170   2.231
 8123SOL     OW25267   0.071   1.852   5.627
 8123SOL    HW125268   0.064   1.892   5.535
 8123SOL    HW225269   0.057   1.753   5.621
 8124SOL     OW25270   5.381   4.925   4.654
 8124SOL    HW125271   5.325   4.858   4.607
 8124SOL    HW225272   5.478   4.906   4.638
 8125SOL     OW25273   1.342   6.474   2.691
 8125SOL    HW125274   1.438   6.498   2.700
 8125SOL    HW225275   1.289   6.520   2.763
 8126SOL     OW25276   3.747   4.965   4.456
 8126SOL    HW125277   3.824   4.997   4.401
 8126SOL    HW225278   3.776   4.950   4.550
 8127SOL     OW25279   3.503   2.689   0.003
 8127SOL    HW125280   3.484   2.715   0.097
 8127SOL    HW225281   3.566   2.756   6.982
 8128SOL     OW25282   3.485   2.794   1.814
 8128SOL    HW125283   3.445   2.812   1.904
 8128SOL    HW225284   3.417   2.814   1.743
 8129SOL     OW25285   1.024   2.683   1.064
 8129SOL    HW125286   0.968   2.668   1.145
 8129SOL    HW225287   0.994   2.622   0.990
 8130SOL     OW25288   1.262   4.938   6.873
 8130SOL    HW125289   1.303   4.965   6.785
 8130SOL    HW225290   1.334   4.904   6.934
 8131SOL     OW25291   2.277   3.762   0.953
 8131SOL    HW125292   2.304   3.775   0.858
 8131SOL    HW225293   2.317   3.835   1.009
 8132SOL     OW25294   0.346   6.816   4.752
 8132SOL    HW125295   0.395   6.745   4.804
 8132SOL    HW225296   0.410   6.864   4.692
 8133SOL     OW25297   3.265   5.294   1.066
 8133SOL    HW125298   3.178   5.275   1.021
 8133SOL    HW225299   3.316   5.361   1.012
 8134SOL     OW25300   6.041   0.955   5.125
 8134SOL    HW125301   6.140   0.950   5.112
 8134SOL    HW225302   6.006   0.864   5.145
 8135SOL     OW25303   2.301   6.848   1.595
 8135SOL    HW125304   2.270   6.800   1.677
 8135SOL    HW225305   2.399   6.864   1.601
 8136SOL     OW25306   4.479   5.143   2.162
 8136SOL    HW125307   4.441   5.082   2.231
 8136SOL    HW225308   4.495   5.233   2.202
 8137SOL     OW25309   3.770   1.885   4.341
 8137SOL    HW125310   3.870   1.874   4.346
 8137SOL    HW225311   3.727   1.835   4.417
 8138SOL     OW25312   5.039   1.045   1.520
 8138SOL    HW125313   5.036   0.965   1.580
 8138SOL    HW225314   5.089   1.119   1.565
 8139SOL     OW25315   1.019   1.632   2.902
 8139SOL    HW125316   0.996   1.703   2.835
 8139SOL    HW225317   0.942   1.617   2.963
 8140SOL     OW25318   3.710   0.917   3.610
 8140SOL    HW125319   3.695   1.000   3.663
 8140SOL    HW225320   3.778   0.860   3.656
 8141SOL     OW25321   4.251   5.053   4.735
 8141SOL    HW125322   4.291   5.092   4.652
 8141SOL    HW225323   4.278   4.957   4.743
 8142SOL     OW25324   6.272   5.495   0.385
 8142SOL    HW125325   6.204   5.549   0.435
 8142SOL    HW225326   6.356   5.548   0.375
 8143SOL     OW25327   6.064   4.086   5.320
 8143SOL    HW125328   6.014   4.166   5.287
 8143SOL    HW225329   6.094   4.101   5.415
 8144SOL     OW25330   5.747   6.578   6.541
 8144SOL    HW125331   5.724   6.487   6.575
 8144SOL    HW225332   5.667   6.637   6.549
 8145SOL     OW25333   6.080   5.836   2.171
 8145SOL    HW125334   6.056   5.925   2.132
 8145SOL    HW225335   6.176   5.816   2.152
 8146SOL     OW25336   3.274   1.249   4.931
 8146SOL    HW125337   3.289   1.205   5.020
 8146SOL    HW225338   3.336   1.326   4.921
 8147SOL     OW25339   4.780   1.848   4.009
 8147SOL    HW125340   4.797   1.793   3.927
 8147SOL    HW225341   4.725   1.927   3.985
 8148SOL     OW25342   5.813   3.568   2.853
 8148SOL    HW125343   5.779   3.477   2.830
 8148SOL    HW225344   5.750   3.637   2.817
 8149SOL     OW25345   4.102   5.096   3.415
 8149SOL    HW125346   4.037   5.085   3.491
 8149SOL    HW225347   4.096   5.189   3.380
 8150SOL     OW25348   0.458   5.555   6.620
 8150SOL    HW125349   0.558   5.550   6.627
 8150SOL    HW225350   0.417   5.511   6.699
 8151SOL     OW25351   1.061   1.914   5.311
 8151SOL    HW125352   1.072   1.878   5.219
 8151SOL    HW225353   1.116   1.860   5.375
 8152SOL     OW25354   1.570   0.664   2.975
 8152SOL    HW125355   1.523   0.679   2.888
 8152SOL    HW225356   1.596   0.753   3.014
 8153SOL     OW25357   2.217   6.364   0.666
 8153SOL    HW125358   2.132   6.415   0.658
 8153SOL    HW225359   2.206   6.273   0.626
 8154SOL     OW25360   1.703   6.583   3.730
 8154SOL    HW125361   1.771   6.626   3.789
 8154SOL    HW225362   1.749   6.537   3.654
 8155SOL     OW25363   2.908   3.422   3.048
 8155SOL    HW125364   2.879   3.515   3.073
 8155SOL    HW225365   2.939   3.375   3.130
 8156SOL     OW25366   6.266   0.084   5.896
 8156SOL    HW125367   6.208   0.163   5.918
 8156SOL    HW225368   6.209   0.007   5.870
 8157SOL     OW25369   6.144   3.814   6.370
 8157SOL    HW125370   6.200   3.893   6.394
 8157SOL    HW225371   6.049   3.830   6.399
 8158SOL     OW25372   1.513   5.187   1.823
 8158SOL    HW125373   1.502   5.286   1.835
 8158SOL    HW225374   1.548   5.146   1.907
 8159SOL     OW25375   1.787   6.179   2.358
 8159SOL    HW125376   1.808   6.270   2.394
 8159SOL    HW225377   1.776   6.185   2.259
 8160SOL     OW25378   4.340   2.377   1.866
 8160SOL    HW125379   4.385   2.465   1.884
 8160SOL    HW225380   4.254   2.392   1.817
 8161SOL     OW25381   5.057   1.320   0.571
 8161SOL    HW125382   4.984   1.274   0.621
 8161SOL    HW225383   5.031   1.330   0.475
 8162SOL     OW25384   5.624   0.504   1.503
 8162SOL    HW125385   5.571   0.532   1.423
 8162SOL    HW225386   5.632   0.581   1.567
 8163SOL     OW25387   2.357   4.197   5.329
 8163SOL    HW125388   2.368   4.110   5.280
 8163SOL    HW225389   2.360   4.181   5.427
 8164SOL     OW25390   4.567   2.610   2.380
 8164SOL    HW125391   4.604   2.590   2.289
 8164SOL    HW225392   4.569   2.709   2.395
 8165SOL     OW25393   2.102   4.652   1.679
 8165SOL    HW125394   2.177   4.696   1.630
 8165SOL    HW225395   2.111   4.668   1.777
 8166SOL     OW25396   2.978   6.887   2.135
 8166SOL    HW125397   2.949   6.800   2.097
 8166SOL    HW225398   2.945   6.962   2.078
 8167SOL     OW25399   6.204   2.521   3.945
 8167SOL    HW125400   6.180   2.535   4.041
 8167SOL    HW225401   6.221   2.609   3.901
 8168SOL     OW25402   3.262   1.314   3.089
 8168SOL    HW125403   3.325   1.366   3.148
 8168SOL    HW225404   3.306   1.228   3.061
 8169SOL     OW25405   4.327   3.721   6.583
 8169SOL    HW125406   4.287   3.777   6.511
 8169SOL    HW225407   4.287   3.629   6.580
 8170SOL     OW25408   0.795   5.512   3.894
 8170SOL    HW125409   0.874   5.451   3.892
 8170SOL    HW225410   0.749   5.511   3.805
 8171SOL     OW25411   0.449   2.017   5.808
 8171SOL    HW125412   0.407   2.100   5.846
 8171SOL    HW225413   0.384   1.941   5.814
 8172SOL     OW25414   0.272   6.527   1.075
 8172SOL    HW125415   0.176   6.499   1.082
 8172SOL    HW225416   0.314   6.480   0.997
 8173SOL     OW25417   4.289   2.190   6.684
 8173SOL    HW125418   4.341   2.209   6.601
 8173SOL    HW225419   4.225   2.266   6.701
 8174SOL     OW25420   5.798   0.566   2.273
 8174SOL    HW125421   5.729   0.581   2.344
 8174SOL    HW225422   5.826   0.654   2.236
 8175SOL     OW25423   0.918   2.964   6.210
 8175SOL    HW125424   1.000   2.942   6.158
 8175SOL    HW225425   0.838   2.956   6.152
 8176SOL     OW25426   2.839   5.587   2.555
 8176SOL    HW125427   2.803   5.578   2.648
 8176SOL    HW225428   2.793   5.662   2.508
 8177SOL     OW25429   0.315   6.294   5.416
 8177SOL    HW125430   0.367   6.226   5.468
 8177SOL    HW225431   0.230   6.253   5.383
 8178SOL     OW25432   2.240   6.442   6.542
 8178SOL    HW125433   2.209   6.514   6.479
 8178SOL    HW225434   2.295   6.483   6.615
 8179SOL     OW25435   3.020   1.866   0.411
 8179SOL    HW125436   3.025   1.768   0.395
 8179SOL    HW225437   3.107   1.909   0.385
 8180SOL     OW25438   5.859   5.988   5.558
 8180SOL    HW125439   5.850   5.915   5.490
 8180SOL    HW225440   5.802   6.066   5.532
 8181SOL     OW25441   2.541   2.325   2.778
 8181SOL    HW125442   2.618   2.321   2.715
 8181SOL    HW225443   2.575   2.340   2.871
 8182SOL     OW25444   3.571   2.577   5.409
 8182SOL    HW125445   3.543   2.503   5.471
 8182SOL    HW225446   3.662   2.558   5.374
 8183SOL     OW25447   1.340   3.415   5.032
 8183SOL    HW125448   1.331   3.475   5.111
 8183SOL    HW225449   1.392   3.462   4.960
 8184SOL     OW25450   6.101   5.852   5.589
 8184SOL    HW125451   6.046   5.935   5.600
 8184SOL    HW225452   6.041   5.772   5.588
 8185SOL     OW25453   2.356   1.516   2.586
 8185SOL    HW125454   2.445   1.544   2.548
 8185SOL    HW225455   2.291   1.591   2.575
 8186SOL     OW25456   3.390   5.128   5.917
 8186SOL    HW125457   3.339   5.063   5.861
 8186SOL    HW225458   3.375   5.221   5.883
 8187SOL     OW25459   1.115   2.166   5.076
 8187SOL    HW125460   1.154   2.228   5.144
 8187SOL    HW225461   1.160   2.077   5.084
 8188SOL     OW25462   5.346   3.393   3.186
 8188SOL    HW125463   5.255   3.416   3.219
 8188SOL    HW225464   5.413   3.416   3.257
 8189SOL     OW25465   6.356   4.040   2.318
 8189SOL    HW125466   6.286   3.970   2.299
 8189SOL    HW225467   6.426   4.002   2.378
 8190SOL     OW25468   4.834   3.699   2.904
 8190SOL    HW125469   4.864   3.615   2.858
 8190SOL    HW225470   4.751   3.681   2.956
 8191SOL     OW25471   0.682   5.097   3.487
 8191SOL    HW125472   0.682   5.000   3.462
 8191SOL    HW225473   0.608   5.144   3.440
 8192SOL     OW25474   1.728   4.590   1.438
 8192SOL    HW125475   1.808   4.533   1.455
 8192SOL    HW225476   1.700   4.580   1.342
 8193SOL     OW25477   3.893   7.016   5.811
 8193SOL    HW125478   3.904   6.948   5.738
 8193SOL    HW225479   3.832   6.980   5.881
 8194SOL     OW25480   0.869   0.207   0.410
 8194SOL    HW125481   0.962   0.228   0.382
 8194SOL    HW225482   0.805   0.268   0.363
 8195SOL     OW25483   6.643   6.721   0.581
 8195SOL    HW125484   6.697   6.802   0.559
 8195SOL    HW225485   6.620   6.672   0.497
 8196SOL     OW25486   2.374   0.103   6.470
 8196SOL    HW125487   2.469   0.074   6.461
 8196SOL    HW225488   2.371   0.199   6.495
 8197SOL     OW25489   0.560   0.017   6.488
 8197SOL    HW125490   0.633   6.970   6.491
 8197SOL    HW225491   0.477   6.998   6.530
 8198SOL     OW25492   3.848   5.969   2.909
 8198SOL    HW125493   3.865   5.874   2.938
 8198SOL    HW225494   3.796   5.968   2.823
 8199SOL     OW25495   6.279   3.673   0.306
 8199SOL    HW125496   6.219   3.628   0.372
 8199SOL    HW225497   6.225   3.727   0.242
 8200SOL     OW25498   5.254   3.984   1.370
 8200SOL    HW125499   5.234   3.914   1.438
 8200SOL    HW225500   5.217   3.956   1.281
 8201SOL     OW25501   6.031   0.601   4.464
 8201SOL    HW125502   6.129   0.595   4.481
 8201SOL    HW225503   5.987   0.649   4.540
 8202SOL     OW25504   1.629   4.332   3.314
 8202SOL    HW125505   1.611   4.383   3.398
 8202SOL    HW225506   1.619   4.393   3.235
 8203SOL     OW25507   5.689   3.422   0.926
 8203SOL    HW125508   5.675   3.327   0.952
 8203SOL    HW225509   5.783   3.434   0.894
 8204SOL     OW25510   3.351   0.217   1.827
 8204SOL    HW125511   3.442   0.179   1.840
 8204SOL    HW225512   3.359   0.306   1.781
 8205SOL     OW25513   6.022   5.075   3.224
 8205SOL    HW125514   6.023   5.165   3.180
 8205SOL    HW225515   5.950   5.074   3.294
 8206SOL     OW25516   4.850   2.155   3.940
 8206SOL    HW125517   4.904   2.232   3.974
 8206SOL    HW225518   4.855   2.152   3.841
 8207SOL     OW25519   2.822   6.173   6.926
 8207SOL    HW125520   2.832   6.271   6.904
 8207SOL    HW225521   2.748   6.135   6.871
 8208SOL     OW25522   1.353   4.495   6.524
 8208SOL    HW125523   1.431   4.512   6.464
 8208SOL    HW225524   1.269   4.493   6.470
 8209SOL     OW25525   0.437   6.736   5.530
 8209SOL    HW125526   0.413   6.752   5.434
 8209SOL    HW225527   0.361   6.691   5.577
 8210SOL     OW25528   2.933   2.133   6.850
 8210SOL    HW125529   2.916   2.048   6.801
 8210SOL    HW225530   2.948   2.113   6.947
 8211SOL     OW25531   2.938   3.470   4.376
 8211SOL    HW125532   2.906   3.419   4.455
 8211SOL    HW225533   3.014   3.530   4.403
 8212SOL     OW25534   3.540   0.110   0.603
 8212SOL    HW125535   3.477   0.075   0.673
 8212SOL    HW225536   3.634   0.102   0.636
 8213SOL     OW25537   4.358   3.962   1.653
 8213SOL    HW125538   4.273   3.990   1.610
 8213SOL    HW225539   4.400   4.041   1.699
 8214SOL     OW25540   4.114   5.433   4.422
 8214SOL    HW125541   4.089   5.462   4.514
 8214SOL    HW225542   4.100   5.508   4.358
 8215SOL     OW25543   3.603   6.414   0.083
 8215SOL    HW125544   3.519   6.445   0.128
 8215SOL    HW225545   3.580   6.378   7.012
 8216SOL     OW25546   5.818   4.568   1.478
 8216SOL    HW125547   5.732   4.609   1.447
 8216SOL    HW225548   5.885   4.640   1.496
 8217SOL     OW25549   2.947   6.443   3.910
 8217SOL    HW125550   2.910   6.385   3.836
 8217SOL    HW225551   2.963   6.535   3.875
 8218SOL     OW25552   2.851   6.943   4.629
 8218SOL    HW125553   2.865   6.847   4.605
 8218SOL    HW225554   2.824   6.950   4.725
 8219SOL     OW25555   3.935   3.003   1.027
 8219SOL    HW125556   4.012   3.064   1.005
 8219SOL    HW225557   3.968   2.910   1.036
 8220SOL     OW25558   4.084   3.750   4.476
 8220SOL    HW125559   4.146   3.788   4.407
 8220SOL    HW225560   3.991   3.751   4.441
 8221SOL     OW25561   5.651   4.080   3.244
 8221SOL    HW125562   5.680   3.991   3.208
 8221SOL    HW225563   5.589   4.124   3.179
 8222SOL     OW25564   6.963   3.056   0.240
 8222SOL    HW125565   6.888   3.007   0.285
 8222SOL    HW225566   0.000   2.991   0.191
 8223SOL     OW25567   1.842   6.180   5.594
 8223SOL    HW125568   1.828   6.206   5.499
 8223SOL    HW225569   1.907   6.243   5.637
 8224SOL     OW25570   5.243   1.728   0.496
 8224SOL    HW125571   5.338   1.756   0.508
 8224SOL    HW225572   5.183   1.806   0.515
 8225SOL     OW25573   5.139   2.016   0.485
 8225SOL    HW125574   5.046   2.029   0.518
 8225SOL    HW225575   5.137   1.993   0.388
 8226SOL     OW25576   4.149   0.085   0.571
 8226SOL    HW125577   4.154   7.008   0.594
 8226SOL    HW225578   4.065   0.103   0.519
 8227SOL     OW25579   4.600   2.518   2.983
 8227SOL    HW125580   4.674   2.472   2.934
 8227SOL    HW225581   4.634   2.552   3.071
 8228SOL     OW25582   2.249   6.992   4.753
 8228SOL    HW125583   2.334   6.989   4.700
 8228SOL    HW225584   2.204   0.060   4.739
 8229SOL     OW25585   4.643   4.556   0.715
 8229SOL    HW125586   4.727   4.501   0.712
 8229SOL    HW225587   4.612   4.564   0.810
 8230SOL     OW25588   5.604   0.887   6.640
 8230SOL    HW125589   5.606   0.986   6.654
 8230SOL    HW225590   5.547   0.844   6.710
 8231SOL     OW25591   2.249   1.984   2.373
 8231SOL    HW125592   2.344   2.007   2.351
 8231SOL    HW225593   2.197   2.068   2.387
 8232SOL     OW25594   3.451   5.636   3.354
 8232SOL    HW125595   3.462   5.609   3.449
 8232SOL    HW225596   3.541   5.647   3.312
 8233SOL     OW25597   0.519   1.146   5.906
 8233SOL    HW125598   0.439   1.147   5.847
 8233SOL    HW225599   0.492   1.122   5.999
 8234SOL     OW25600   0.747   1.936   0.640
 8234SOL    HW125601   0.771   2.025   0.600
 8234SOL    HW225602   0.670   1.947   0.702
 8235SOL     OW25603   0.678   6.750   1.335
 8235SOL    HW125604   0.602   6.688   1.350
 8235SOL    HW225605   0.645   6.844   1.334
 8236SOL     OW25606   0.826   6.607   1.508
 8236SOL    HW125607   0.811   6.626   1.605
 8236SOL    HW225608   0.787   6.680   1.453
 8237SOL     OW25609   4.313   5.037   6.339
 8237SOL    HW125610   4.371   4.956   6.351
 8237SOL    HW225611   4.223   5.019   6.377
 8238SOL     OW25612   0.596   4.849   0.239
 8238SOL    HW125613   0.533   4.900   0.298
 8238SOL    HW225614   0.628   4.767   0.287
 8239SOL     OW25615   1.560   1.853   5.429
 8239SOL    HW125616   1.535   1.757   5.438
 8239SOL    HW225617   1.604   1.884   5.514
 8240SOL     OW25618   3.157   3.370   4.890
 8240SOL    HW125619   3.136   3.301   4.820
 8240SOL    HW225620   3.075   3.389   4.943
 8241SOL     OW25621   2.009   4.268   5.387
 8241SOL    HW125622   2.108   4.285   5.392
 8241SOL    HW225623   1.967   4.335   5.326
 8242SOL     OW25624   0.635   2.917   2.943
 8242SOL    HW125625   0.648   3.004   2.991
 8242SOL    HW225626   0.722   2.868   2.936
 8243SOL     OW25627   1.910   6.093   4.033
 8243SOL    HW125628   1.988   6.090   4.097
 8243SOL    HW225629   1.898   6.187   4.000
 8244SOL     OW25630   0.196   1.594   4.090
 8244SOL    HW125631   0.213   1.683   4.133
 8244SOL    HW225632   0.112   1.600   4.035
 8245SOL     OW25633   5.448   1.654   3.137
 8245SOL    HW125634   5.460   1.713   3.057
 8245SOL    HW225635   5.419   1.563   3.108
 8246SOL     OW25636   1.711   4.713   6.613
 8246SOL    HW125637   1.648   4.790   6.602
 8246SOL    HW225638   1.686   4.660   6.694
 8247SOL     OW25639   3.026   6.022   3.079
 8247SOL    HW125640   2.999   6.076   3.159
 8247SOL    HW225641   3.046   5.928   3.107
 8248SOL     OW25642   6.783   5.433   2.733
 8248SOL    HW125643   6.869   5.404   2.774
 8248SOL    HW225644   6.776   5.398   2.640
 8249SOL     OW25645   3.281   1.068   6.973
 8249SOL    HW125646   3.251   1.161   6.993
 8249SOL    HW225647   3.223   1.003   0.001
 8250SOL     OW25648   1.093   1.544   7.008
 8250SOL    HW125649   1.084   1.592   0.075
 8250SOL    HW225650   1.062   1.603   6.933
 8251SOL     OW25651   1.156   2.714   4.998
 8251SOL    HW125652   1.213   2.786   4.958
 8251SOL    HW225653   1.155   2.635   4.937
 8252SOL     OW25654   1.142   2.080   6.505
 8252SOL    HW125655   1.149   2.037   6.415
 8252SOL    HW225656   1.046   2.093   6.529
 8253SOL     OW25657   4.281   5.831   0.361
 8253SOL    HW125658   4.242   5.884   0.435
 8253SOL    HW225659   4.217   5.830   0.284
 8254SOL     OW25660   5.472   5.146   6.928
 8254SOL    HW125661   5.439   5.053   6.946
 8254SOL    HW225662   5.460   5.167   6.831
 8255SOL     OW25663   2.242   1.063   5.829
 8255SOL    HW125664   2.183   0.994   5.873
 8255SOL    HW225665   2.337   1.044   5.852
 8256SOL     OW25666   1.589   5.141   5.145
 8256SOL    HW125667   1.500   5.125   5.189
 8256SOL    HW225668   1.648   5.192   5.207
 8257SOL     OW25669   5.181   3.979   2.768
 8257SOL    HW125670   5.259   3.956   2.825
 8257SOL    HW225671   5.186   3.929   2.682
 8258SOL     OW25672   6.811   3.654   1.755
 8258SOL    HW125673   6.841   3.558   1.752
 8258SOL    HW225674   6.882   3.712   1.715
 8259SOL     OW25675   5.338   1.440   3.936
 8259SOL    HW125676   5.427   1.474   3.907
 8259SOL    HW225677   5.277   1.517   3.952
 8260SOL     OW25678   4.097   2.197   1.019
 8260SOL    HW125679   4.164   2.129   1.048
 8260SOL    HW225680   4.023   2.152   0.968
 8261SOL     OW25681   5.715   1.286   2.570
 8261SOL    HW125682   5.659   1.225   2.627
 8261SOL    HW225683   5.729   1.372   2.619
 8262SOL     OW25684   5.667   3.808   1.615
 8262SOL    HW125685   5.618   3.896   1.610
 8262SOL    HW225686   5.608   3.740   1.658
 8263SOL     OW25687   6.361   2.053   5.660
 8263SOL    HW125688   6.382   1.978   5.597
 8263SOL    HW225689   6.262   2.058   5.675
 8264SOL     OW25690   3.367   0.153   2.802
 8264SOL    HW125691   3.369   0.185   2.707
 8264SOL    HW225692   3.413   0.220   2.860
 8265SOL     OW25693   4.685   6.455   0.539
 8265SOL    HW125694   4.702   6.554   0.538
 8265SOL    HW225695   4.610   6.433   0.476
 8266SOL     OW25696   3.045   0.826   3.677
 8266SOL    HW125697   3.044   0.903   3.741
 8266SOL    HW225698   2.955   0.785   3.673
 8267SOL     OW25699   1.752   3.505   2.490
 8267SOL    HW125700   1.789   3.474   2.403
 8267SOL    HW225701   1.672   3.561   2.475
 8268SOL     OW25702   3.055   4.585   6.457
 8268SOL    HW125703   3.137   4.631   6.492
 8268SOL    HW225704   3.053   4.490   6.490
 8269SOL     OW25705   6.475   3.418   4.482
 8269SOL    HW125706   6.408   3.477   4.436
 8269SOL    HW225707   6.426   3.342   4.526
 8270SOL     OW25708   3.801   6.446   6.843
 8270SOL    HW125709   3.795   6.495   6.930
 8270SOL    HW225710   3.884   6.474   6.795
 8271SOL     OW25711   3.653   6.231   6.127
 8271SOL    HW125712   3.743   6.195   6.151
 8271SOL    HW225713   3.598   6.160   6.084
 8272SOL     OW25714   0.529   0.365   2.238
 8272SOL    HW125715   0.541   0.430   2.313
 8272SOL    HW225716   0.549   0.409   2.151
 8273SOL     OW25717   3.879   0.778   0.073
 8273SOL    HW125718   3.927   0.795   0.159
 8273SOL    HW225719   3.933   0.718   0.015
 8274SOL     OW25720   5.242   6.261   5.273
 8274SOL    HW125721   5.215   6.251   5.369
 8274SOL    HW225722   5.341   6.271   5.267
 8275SOL     OW25723   5.454   0.195   3.915
 8275SOL    HW125724   5.419   0.139   3.990
 8275SOL    HW225725   5.496   0.277   3.952
 8276SOL     OW25726   6.608   1.702   6.943
 8276SOL    HW125727   6.639   1.680   0.016
 8276SOL    HW225728   6.596   1.801   6.935
 8277SOL     OW25729   1.300   0.021   6.865
 8277SOL    HW125730   1.324   0.075   6.784
 8277SOL    HW225731   1.201   0.023   6.878
 8278SOL     OW25732   2.977   1.319   0.778
 8278SOL    HW125733   3.064   1.329   0.825
 8278SOL    HW225734   2.961   1.222   0.759
 8279SOL     OW25735   3.671   6.088   5.113
 8279SOL    HW125736   3.688   5.992   5.136
 8279SOL    HW225737   3.675   6.143   5.196
 8280SOL     OW25738   5.548   3.902   0.195
 8280SOL    HW125739   5.600   3.967   0.140
 8280SOL    HW225740   5.560   3.810   0.156
 8281SOL     OW25741   2.716   5.367   0.343
 8281SOL    HW125742   2.770   5.287   0.317
 8281SOL    HW225743   2.662   5.346   0.424
 8282SOL     OW25744   2.778   2.874   1.624
 8282SOL    HW125745   2.705   2.806   1.632
 8282SOL    HW225746   2.855   2.847   1.682
 8283SOL     OW25747   0.559   6.710   4.089
 8283SOL    HW125748   0.532   6.772   4.163
 8283SOL    HW225749   0.658   6.714   4.076
 8284SOL     OW25750   3.200   1.751   2.144
 8284SOL    HW125751   3.119   1.707   2.183
 8284SOL    HW225752   3.235   1.819   2.209
 8285SOL     OW25753   2.217   4.623   0.146
 8285SOL    HW125754   2.291   4.675   0.102
 8285SOL    HW225755   2.133   4.633   0.093
 8286SOL     OW25756   5.465   2.415   5.298
 8286SOL    HW125757   5.519   2.373   5.226
 8286SOL    HW225758   5.404   2.484   5.259
 8287SOL     OW25759   1.627   6.845   4.088
 8287SOL    HW125760   1.629   6.923   4.151
 8287SOL    HW225761   1.563   6.777   4.123
 8288SOL     OW25762   1.949   7.012   2.802
 8288SOL    HW125763   1.861   6.965   2.805
 8288SOL    HW225764   1.972   0.015   2.708
 8289SOL     OW25765   6.550   1.111   6.241
 8289SOL    HW125766   6.649   1.120   6.233
 8289SOL    HW225767   6.527   1.067   6.328
 8290SOL     OW25768   4.558   2.783   1.736
 8290SOL    HW125769   4.463   2.776   1.705
 8290SOL    HW225770   4.570   2.870   1.785
 8291SOL     OW25771   4.136   5.613   6.651
 8291SOL    HW125772   4.169   5.545   6.717
 8291SOL    HW225773   4.079   5.568   6.582
 8292SOL     OW25774   0.509   3.372   4.617
 8292SOL    HW125775   0.606   3.353   4.632
 8292SOL    HW225776   0.454   3.308   4.670
 8293SOL     OW25777   3.135   5.057   3.498
 8293SOL    HW125778   3.126   5.056   3.399
 8293SOL    HW225779   3.188   5.137   3.525
 8294SOL     OW25780   4.379   3.569   6.112
 8294SOL    HW125781   4.345   3.642   6.052
 8294SOL    HW225782   4.443   3.607   6.178
 8295SOL     OW25783   5.219   4.942   2.392
 8295SOL    HW125784   5.195   5.023   2.444
 8295SOL    HW225785   5.244   4.868   2.455
 8296SOL     OW25786   3.980   6.838   1.991
 8296SOL    HW125787   4.002   6.756   2.044
 8296SOL    HW225788   4.064   6.885   1.964
 8297SOL     OW25789   5.597   4.536   3.686
 8297SOL    HW125790   5.566   4.465   3.623
 8297SOL    HW225791   5.658   4.599   3.639
 8298SOL     OW25792   6.969   6.893   6.919
 8298SOL    HW125793   6.973   6.816   6.855
 8298SOL    HW225794   6.973   6.857   7.013
 8299SOL     OW25795   0.799   3.711   1.171
 8299SOL    HW125796   0.849   3.644   1.117
 8299SOL    HW225797   0.864   3.770   1.221
 8300SOL     OW25798   5.813   4.891   3.722
 8300SOL    HW125799   5.905   4.852   3.721
 8300SOL    HW225800   5.819   4.990   3.727
 8301SOL     OW25801   5.510   6.783   0.251
 8301SOL    HW125802   5.460   6.724   0.188
 8301SOL    HW225803   5.598   6.742   0.272
 8302SOL     OW25804   3.575   6.989   5.550
 8302SOL    HW125805   3.493   7.003   5.607
 8302SOL    HW225806   3.551   7.000   5.454
 8303SOL     OW25807   0.345   5.231   2.815
 8303SOL    HW125808   0.328   5.313   2.868
 8303SOL    HW225809   0.434   5.192   2.841
 8304SOL     OW25810   6.106   4.652   3.098
 8304SOL    HW125811   6.021   4.625   3.144
 8304SOL    HW225812   6.091   4.738   3.049
 8305SOL     OW25813   5.245   6.436   4.844
 8305SOL    HW125814   5.204   6.444   4.753
 8305SOL    HW225815   5.317   6.505   4.855
 8306SOL     OW25816   6.710   1.729   2.691
 8306SOL    HW125817   6.635   1.794   2.699
 8306SOL    HW225818   6.723   1.682   2.778
 8307SOL     OW25819   1.399   3.155   2.303
 8307SOL    HW125820   1.487   3.199   2.286
 8307SOL    HW225821   1.344   3.212   2.364
 8308SOL     OW25822   1.142   5.045   1.266
 8308SOL    HW125823   1.140   5.060   1.167
 8308SOL    HW225824   1.222   4.991   1.290
 8309SOL     OW25825   6.999   4.763   4.475
 8309SOL    HW125826   7.001   4.856   4.510
 8309SOL    HW225827   6.915   4.717   4.505
 8310SOL     OW25828   1.768   0.320   0.832
 8310SOL    HW125829   1.688   0.302   0.776
 8310SOL    HW225830   1.841   0.360   0.776
 8311SOL     OW25831   5.586   5.627   3.219
 8311SOL    HW125832   5.661   5.607   3.281
 8311SOL    HW225833   5.568   5.725   3.218
 8312SOL     OW25834   5.613   1.538   0.164
 8312SOL    HW125835   5.665   1.490   0.235
 8312SOL    HW225836   5.575   1.472   0.100
 8313SOL     OW25837   5.631   2.868   5.385
 8313SOL    HW125838   5.573   2.786   5.376
 8313SOL    HW225839   5.724   2.840   5.406
 8314SOL     OW25840   4.372   5.888   3.947
 8314SOL    HW125841   4.339   5.911   4.039
 8314SOL    HW225842   4.296   5.857   3.891
 8315SOL     OW25843   3.185   3.613   4.495
 8315SOL    HW125844   3.231   3.573   4.574
 8315SOL    HW225845   3.109   3.669   4.526
 8316SOL     OW25846   2.114   1.963   5.522
 8316SOL    HW125847   2.148   2.047   5.480
 8316SOL    HW225848   2.151   1.954   5.615
 8317SOL     OW25849   1.156   2.274   3.710
 8317SOL    HW125850   1.152   2.217   3.628
 8317SOL    HW225851   1.229   2.342   3.700
 8318SOL     OW25852   4.666   6.920   6.267
 8318SOL    HW125853   4.633   6.957   6.181
 8318SOL    HW225854   4.664   6.992   6.337
 8319SOL     OW25855   2.182   5.659   6.280
 8319SOL    HW125856   2.098   5.605   6.282
 8319SOL    HW225857   2.211   5.679   6.374
 8320SOL     OW25858   3.294   3.379   5.213
 8320SOL    HW125859   3.279   3.370   5.114
 8320SOL    HW225860   3.247   3.461   5.246
 8321SOL     OW25861   0.231   6.748   0.774
 8321SOL    HW125862   0.210   6.796   0.689
 8321SOL    HW225863   0.312   6.691   0.762
 8322SOL     OW25864   0.530   6.570   6.946
 8322SOL    HW125865   0.443   6.574   6.995
 8322SOL    HW225866   0.601   6.531   7.006
 8323SOL     OW25867   5.473   4.425   0.561
 8323SOL    HW125868   5.384   4.427   0.516
 8323SOL    HW225869   5.482   4.506   0.620
 8324SOL     OW25870   4.914   6.026   6.527
 8324SOL    HW125871   4.853   6.087   6.478
 8324SOL    HW225872   4.862   5.947   6.562
 8325SOL     OW25873   1.365   6.135   6.140
 8325SOL    HW125874   1.375   6.189   6.057
 8325SOL    HW225875   1.271   6.139   6.172
 8326SOL     OW25876   1.566   3.017   6.654
 8326SOL    HW125877   1.498   2.947   6.676
 8326SOL    HW225878   1.519   3.101   6.628
 8327SOL     OW25879   1.541   5.969   4.801
 8327SOL    HW125880   1.558   5.895   4.736
 8327SOL    HW225881   1.624   6.024   4.810
 8328SOL     OW25882   0.748   6.058   0.037
 8328SOL    HW125883   0.771   5.996   6.981
 8328SOL    HW225884   0.692   6.134   0.003
 8329SOL     OW25885   1.431   3.203   5.173
 8329SOL    HW125886   1.528   3.211   5.150
 8329SOL    HW225887   1.380   3.278   5.129
 8330SOL     OW25888   3.363   0.999   0.294
 8330SOL    HW125889   3.401   1.073   0.350
 8330SOL    HW225890   3.263   1.002   0.298
 8331SOL     OW25891   1.598   2.531   5.521
 8331SOL    HW125892   1.563   2.609   5.573
 8331SOL    HW225893   1.695   2.519   5.541
 8332SOL     OW25894   6.027   4.786   1.541
 8332SOL    HW125895   6.096   4.713   1.541
 8332SOL    HW225896   5.993   4.800   1.447
 8333SOL     OW25897   1.938   4.108   0.384
 8333SOL    HW125898   1.860   4.139   0.330
 8333SOL    HW225899   1.908   4.038   0.449
 8334SOL     OW25900   2.969   1.962   6.209
 8334SOL    HW125901   3.007   2.053   6.225
 8334SOL    HW225902   2.908   1.964   6.130
 8335SOL     OW25903   5.368   4.916   6.383
 8335SOL    HW125904   5.313   4.834   6.395
 8335SOL    HW225905   5.434   4.924   6.458
 8336SOL     OW25906   0.827   4.191   3.509
 8336SOL    HW125907   0.906   4.131   3.519
 8336SOL    HW225908   0.812   4.241   3.594
 8337SOL     OW25909   0.293   1.246   4.358
 8337SOL    HW125910   0.210   1.210   4.316
 8337SOL    HW225911   0.369   1.183   4.340
 8338SOL     OW25912   3.471   5.376   1.425
 8338SOL    HW125913   3.525   5.441   1.370
 8338SOL    HW225914   3.407   5.426   1.483
 8339SOL     OW25915   5.944   0.537   1.430
 8339SOL    HW125916   5.912   0.530   1.525
 8339SOL    HW225917   5.890   0.604   1.381
 8340SOL     OW25918   6.153   1.952   6.559
 8340SOL    HW125919   6.173   1.919   6.467
 8340SOL    HW225920   6.072   1.906   6.594
 8341SOL     OW25921   3.586   1.138   1.211
 8341SOL    HW125922   3.573   1.077   1.132
 8341SOL    HW225923   3.578   1.233   1.181
 8342SOL     OW25924   4.430   0.484   0.327
 8342SOL    HW125925   4.403   0.416   0.394
 8342SOL    HW225926   4.348   0.527   0.288
 8343SOL     OW25927   5.566   4.261   3.855
 8343SOL    HW125928   5.596   4.256   3.760
 8343SOL    HW225929   5.499   4.189   3.874
 8344SOL     OW25930   0.718   5.357   5.701
 8344SOL    HW125931   0.781   5.286   5.733
 8344SOL    HW225932   0.760   5.447   5.715
 8345SOL     OW25933   5.070   0.750   3.661
 8345SOL    HW125934   5.067   0.657   3.697
 8345SOL    HW225935   5.164   0.785   3.666
 8346SOL     OW25936   5.848   3.476   4.474
 8346SOL    HW125937   5.805   3.394   4.511
 8346SOL    HW225938   5.880   3.534   4.549
 8347SOL     OW25939   2.242   1.336   6.891
 8347SOL    HW125940   2.239   1.435   6.903
 8347SOL    HW225941   2.187   1.309   6.812
 8348SOL     OW25942   3.328   6.088   2.100
 8348SOL    HW125943   3.286   6.012   2.150
 8348SOL    HW225944   3.426   6.070   2.090
 8349SOL     OW25945   6.338   6.018   2.329
 8349SOL    HW125946   6.356   5.927   2.292
 8349SOL    HW225947   6.306   6.078   2.256
 8350SOL     OW25948   1.906   0.889   6.986
 8350SOL    HW125949   1.886   0.805   6.936
 8350SOL    HW225950   2.003   0.891   7.011
 8351SOL     OW25951   0.116   3.645   3.125
 8351SOL    HW125952   0.028   3.597   3.124
 8351SOL    HW225953   0.131   3.684   3.216
 8352SOL     OW25954   2.786   5.928   0.945
 8352SOL    HW125955   2.792   6.016   0.993
 8352SOL    HW225956   2.739   5.862   1.003
 8353SOL     OW25957   1.163   4.963   1.665
 8353SOL    HW125958   1.197   5.055   1.685
 8353SOL    HW225959   1.222   4.920   1.597
 8354SOL     OW25960   3.519   0.445   3.393
 8354SOL    HW125961   3.548   0.354   3.366
 8354SOL    HW225962   3.445   0.476   3.334
 8355SOL     OW25963   2.663   6.565   6.428
 8355SOL    HW125964   2.750   6.516   6.427
 8355SOL    HW225965   2.625   6.567   6.336
 8356SOL     OW25966   1.580   5.226   0.856
 8356SOL    HW125967   1.561   5.311   0.807
 8356SOL    HW225968   1.533   5.150   0.810
 8357SOL     OW25969   4.768   6.663   5.678
 8357SOL    HW125970   4.698   6.594   5.661
 8357SOL    HW225971   4.746   6.746   5.627
 8358SOL     OW25972   1.269   1.049   5.029
 8358SOL    HW125973   1.322   1.090   5.104
 8358SOL    HW225974   1.231   1.122   4.972
 8359SOL     OW25975   3.958   2.074   6.100
 8359SOL    HW125976   4.033   2.039   6.157
 8359SOL    HW225977   3.929   2.164   6.132
 8360SOL     OW25978   4.837   0.370   0.922
 8360SOL    HW125979   4.910   0.389   0.988
 8360SOL    HW225980   4.877   0.342   0.835
 8361SOL     OW25981   4.116   0.921   6.844
 8361SOL    HW125982   4.157   1.002   6.887
 8361SOL    HW225983   4.025   0.944   6.809
 8362SOL     OW25984   6.833   4.546   1.282
 8362SOL    HW125985   6.906   4.586   1.338
 8362SOL    HW225986   6.747   4.594   1.299
 8363SOL     OW25987   1.652   2.892   0.865
 8363SOL    HW125988   1.604   2.806   0.848
 8363SOL    HW225989   1.656   2.947   0.781
 8364SOL     OW25990   0.250   3.835   4.584
 8364SOL    HW125991   0.296   3.748   4.567
 8364SOL    HW225992   0.283   3.904   4.519
 8365SOL     OW25993   1.168   2.152   2.044
 8365SOL    HW125994   1.124   2.134   1.956
 8365SOL    HW225995   1.267   2.145   2.034
 8366SOL     OW25996   5.451   5.131   2.348
 8366SOL    HW125997   5.403   5.219   2.340
 8366SOL    HW225998   5.385   5.057   2.347
 8367SOL     OW25999   2.895   5.678   4.102
 8367SOL    HW126000   2.981   5.636   4.130
 8367SOL    HW226001   2.830   5.606   4.077
 8368SOL     OW26002   6.039   6.452   5.957
 8368SOL    HW126003   6.063   6.458   5.860
 8368SOL    HW226004   5.978   6.527   5.981
 8369SOL     OW26005   2.571   6.634   1.318
 8369SOL    HW126006   2.619   6.698   1.258
 8369SOL    HW226007   2.473   6.646   1.308
 8370SOL     OW26008   2.933   3.962   6.716
 8370SOL    HW126009   2.971   3.902   6.645
 8370SOL    HW226010   3.002   3.978   6.786
 8371SOL     OW26011   2.116   4.421   4.925
 8371SOL    HW126012   2.183   4.397   4.994
 8371SOL    HW226013   2.082   4.513   4.941
 8372SOL     OW26014   1.676   6.505   2.184
 8372SOL    HW126015   1.709   6.596   2.160
 8372SOL    HW226016   1.728   6.470   2.262
 8373SOL     OW26017   6.769   1.722   4.099
 8373SOL    HW126018   6.818   1.795   4.052
 8373SOL    HW226019   6.764   1.641   4.040
 8374SOL     OW26020   0.132   1.489   4.370
 8374SOL    HW126021   0.112   1.391   4.366
 8374SOL    HW226022   0.192   1.514   4.294
 8375SOL     OW26023   3.563   0.925   4.738
 8375SOL    HW126024   3.545   0.950   4.833
 8375SOL    HW226025   3.660   0.940   4.718
 8376SOL     OW26026   2.074   0.746   3.288
 8376SOL    HW126027   2.072   0.836   3.244
 8376SOL    HW226028   1.982   0.707   3.288
 8377SOL     OW26029   4.974   5.382   0.467
 8377SOL    HW126030   4.898   5.396   0.404
 8377SOL    HW226031   5.059   5.377   0.415
 8378SOL     OW26032   5.120   5.947   4.465
 8378SOL    HW126033   5.159   6.027   4.512
 8378SOL    HW226034   5.109   5.872   4.531
 8379SOL     OW26035   5.611   1.592   1.312
 8379SOL    HW126036   5.577   1.521   1.373
 8379SOL    HW226037   5.637   1.672   1.366
 8380SOL     OW26038   6.501   6.022   0.849
 8380SOL    HW126039   6.544   6.016   0.940
 8380SOL    HW226040   6.570   6.051   0.782
 8381SOL     OW26041   0.326   1.230   2.662
 8381SOL    HW126042   0.343   1.299   2.732
 8381SOL    HW226043   0.321   1.273   2.572
 8382SOL     OW26044   1.898   0.725   0.787
 8382SOL    HW126045   1.987   0.743   0.827
 8382SOL    HW226046   1.831   0.711   0.860
 8383SOL     OW26047   2.835   6.793   6.639
 8383SOL    HW126048   2.912   6.773   6.578
 8383SOL    HW226049   2.863   6.861   6.707
 8384SOL     OW26050   0.357   2.961   2.977
 8384SOL    HW126051   0.438   2.902   2.977
 8384SOL    HW226052   0.377   3.045   2.926
 8385SOL     OW26053   4.447   3.019   1.440
 8385SOL    HW126054   4.475   2.924   1.424
 8385SOL    HW226055   4.425   3.032   1.536
 8386SOL     OW26056   2.272   5.996   2.139
 8386SOL    HW126057   2.225   5.943   2.209
 8386SOL    HW226058   2.205   6.039   2.078
 8387SOL     OW26059   1.482   0.855   2.525
 8387SOL    HW126060   1.464   0.953   2.526
 8387SOL    HW226061   1.454   0.817   2.438
 8388SOL     OW26062   4.379   6.332   1.669
 8388SOL    HW126063   4.448   6.310   1.600
 8388SOL    HW226064   4.289   6.304   1.637
 8389SOL     OW26065   0.027   2.478   3.553
 8389SOL    HW126066   0.107   2.533   3.576
 8389SOL    HW226067   0.035   2.445   3.459
 8390SOL     OW26068   3.269   0.012   5.393
 8390SOL    HW126069   3.249   6.943   5.432
 8390SOL    HW226070   3.253   0.010   5.294
 8391SOL     OW26071   5.129   5.920   1.074
 8391SOL    HW126072   5.114   6.017   1.091
 8391SOL    HW226073   5.045   5.869   1.091
 8392SOL     OW26074   6.111   6.659   5.431
 8392SOL    HW126075   6.081   6.607   5.510
 8392SOL    HW226076   6.036   6.669   5.366
 8393SOL     OW26077   6.650   5.893   3.262
 8393SOL    HW126078   6.632   5.943   3.347
 8393SOL    HW226079   6.748   5.889   3.245
 8394SOL     OW26080   0.918   1.839   2.768
 8394SOL    HW126081   0.923   1.929   2.812
 8394SOL    HW226082   0.828   1.828   2.725
 8395SOL     OW26083   0.358   6.334   5.757
 8395SOL    HW126084   0.400   6.246   5.734
 8395SOL    HW226085   0.430   6.401   5.774
 8396SOL     OW26086   5.212   3.706   1.223
 8396SOL    HW126087   5.198   3.792   1.173
 8396SOL    HW226088   5.310   3.690   1.233
 8397SOL     OW26089   1.960   5.337   3.068
 8397SOL    HW126090   2.004   5.353   3.156
 8397SOL    HW226091   2.015   5.275   3.013
 8398SOL     OW26092   4.711   1.961   0.387
 8398SOL    HW126093   4.713   2.028   0.312
 8398SOL    HW226094   4.635   1.981   0.448
 8399SOL     OW26095   5.558   6.095   0.299
 8399SOL    HW126096   5.629   6.093   0.229
 8399SOL    HW226097   5.544   6.002   0.334
 8400SOL     OW26098   6.373   0.301   4.389
 8400SOL    HW126099   6.348   0.386   4.436
 8400SOL    HW226100   6.352   0.309   4.292
 8401SOL     OW26101   3.089   4.716   6.825
 8401SOL    HW126102   3.006   4.691   6.775
 8401SOL    HW226103   3.117   4.641   6.884
 8402SOL     OW26104   4.198   1.692   0.446
 8402SOL    HW126105   4.151   1.636   0.513
 8402SOL    HW226106   4.146   1.694   0.361
 8403SOL     OW26107   1.255   1.917   4.591
 8403SOL    HW126108   1.203   1.996   4.623
 8403SOL    HW226109   1.246   1.908   4.492
 8404SOL     OW26110   4.472   4.771   5.613
 8404SOL    HW126111   4.419   4.771   5.698
 8404SOL    HW226112   4.557   4.820   5.627
 8405SOL     OW26113   0.215   2.897   5.033
 8405SOL    HW126114   0.271   2.814   5.027
 8405SOL    HW226115   0.163   2.896   5.118
 8406SOL     OW26116   5.354   3.529   1.510
 8406SOL    HW126117   5.399   3.552   1.424
 8406SOL    HW226118   5.267   3.578   1.517
 8407SOL     OW26119   5.370   4.125   2.399
 8407SOL    HW126120   5.363   4.127   2.299
 8407SOL    HW226121   5.387   4.217   2.433
 8408SOL     OW26122   4.463   2.450   3.930
 8408SOL    HW126123   4.390   2.436   3.863
 8408SOL    HW226124   4.550   2.463   3.882
 8409SOL     OW26125   0.865   2.698   4.263
 8409SOL    HW126126   0.914   2.611   4.255
 8409SOL    HW226127   0.894   2.760   4.191
 8410SOL     OW26128   3.904   6.635   2.313
 8410SOL    HW126129   3.814   6.624   2.355
 8410SOL    HW226130   3.930   6.550   2.267
 8411SOL     OW26131   1.883   2.802   3.845
 8411SOL    HW126132   1.822   2.781   3.922
 8411SOL    HW226133   1.914   2.896   3.851
 8412SOL     OW26134   6.304   2.648   2.936
 8412SOL    HW126135   6.296   2.548   2.937
 8412SOL    HW226136   6.250   2.686   3.012
 8413SOL     OW26137   3.035   4.085   0.670
 8413SOL    HW126138   3.092   4.166   0.684
 8413SOL    HW226139   2.957   4.109   0.613
 8414SOL     OW26140   4.483   6.367   2.971
 8414SOL    HW126141   4.565   6.330   2.927
 8414SOL    HW226142   4.463   6.315   3.054
 8415SOL     OW26143   6.430   3.497   2.600
 8415SOL    HW126144   6.467   3.404   2.606
 8415SOL    HW226145   6.381   3.518   2.685
 8416SOL     OW26146   5.228   3.887   2.531
 8416SOL    HW126147   5.152   3.885   2.467
 8416SOL    HW226148   5.293   3.958   2.505
 8417SOL     OW26149   2.507   6.193   5.913
 8417SOL    HW126150   2.449   6.112   5.900
 8417SOL    HW226151   2.598   6.175   5.876
 8418SOL     OW26152   5.594   5.719   2.539
 8418SOL    HW126153   5.551   5.740   2.627
 8418SOL    HW226154   5.632   5.626   2.543
 8419SOL     OW26155   4.430   0.274   4.113
 8419SOL    HW126156   4.517   0.259   4.067
 8419SOL    HW226157   4.424   0.369   4.143
 8420SOL     OW26158   3.806   1.572   6.240
 8420SOL    HW126159   3.858   1.554   6.324
 8420SOL    HW226160   3.708   1.570   6.261
 8421SOL     OW26161   2.562   6.651   2.083
 8421SOL    HW126162   2.632   6.589   2.049
 8421SOL    HW226163   2.595   6.746   2.077
 8422SOL     OW26164   3.463   0.042   1.206
 8422SOL    HW126165   3.535   7.013   1.156
 8422SOL    HW226166   3.454   0.002   1.297
 8423SOL     OW26167   3.073   4.387   1.528
 8423SOL    HW126168   3.151   4.325   1.521
 8423SOL    HW226169   3.000   4.343   1.580
 8424SOL     OW26170   3.044   1.931   2.648
 8424SOL    HW126171   3.038   1.992   2.727
 8424SOL    HW226172   2.965   1.945   2.590
 8425SOL     OW26173   5.459   5.186   0.173
 8425SOL    HW126174   5.486   5.179   0.077
 8425SOL    HW226175   5.539   5.170   0.231
 8426SOL     OW26176   3.894   3.564   2.677
 8426SOL    HW126177   3.933   3.480   2.714
 8426SOL    HW226178   3.851   3.545   2.589
 8427SOL     OW26179   2.217   3.818   6.028
 8427SOL    HW126180   2.248   3.911   6.044
 8427SOL    HW226181   2.228   3.764   6.112
 8428SOL     OW26182   6.101   4.410   2.166
 8428SOL    HW126183   6.070   4.500   2.199
 8428SOL    HW226184   6.044   4.339   2.207
 8429SOL     OW26185   1.744   6.432   2.457
 8429SOL    HW126186   1.710   6.375   2.532
 8429SOL    HW226187   1.742   6.528   2.485
 8430SOL     OW26188   4.695   4.497   3.141
 8430SOL    HW126189   4.726   4.411   3.102
 8430SOL    HW226190   4.650   4.551   3.069
 8431SOL     OW26191   3.432   4.239   1.230
 8431SOL    HW126192   3.332   4.241   1.232
 8431SOL    HW226193   3.463   4.159   1.178
 8432SOL     OW26194   4.127   6.208   6.727
 8432SOL    HW126195   4.186   6.253   6.795
 8432SOL    HW226196   4.184   6.151   6.667
 8433SOL     OW26197   0.693   1.427   5.268
 8433SOL    HW126198   0.627   1.490   5.229
 8433SOL    HW226199   0.719   1.359   5.200
 8434SOL     OW26200   5.396   6.502   5.415
 8434SOL    HW126201   5.422   6.416   5.371
 8434SOL    HW226202   5.405   6.577   5.350
 8435SOL     OW26203   4.518   2.271   1.634
 8435SOL    HW126204   4.474   2.279   1.544
 8435SOL    HW226205   4.457   2.309   1.703
 8436SOL     OW26206   3.713   4.513   1.466
 8436SOL    HW126207   3.649   4.499   1.391
 8436SOL    HW226208   3.803   4.478   1.440
 8437SOL     OW26209   0.086   0.917   1.274
 8437SOL    HW126210   0.036   0.831   1.285
 8437SOL    HW226211   0.172   0.912   1.326
 8438SOL     OW26212   1.885   6.733   1.604
 8438SOL    HW126213   1.918   6.826   1.621
 8438SOL    HW226214   1.809   6.736   1.539
 8439SOL     OW26215   6.688   5.883   1.949
 8439SOL    HW126216   6.675   5.953   2.019
 8439SOL    HW226217   6.668   5.922   1.859
 8440SOL     OW26218   0.574   1.565   3.786
 8440SOL    HW126219   0.557   1.645   3.843
 8440SOL    HW226220   0.493   1.507   3.785
 8441SOL     OW26221   4.557   5.590   0.411
 8441SOL    HW126222   4.479   5.529   0.424
 8441SOL    HW226223   4.526   5.677   0.375
 8442SOL     OW26224   2.056   4.121   0.011
 8442SOL    HW126225   2.102   4.047   6.981
 8442SOL    HW226226   2.125   4.179   0.055
 8443SOL     OW26227   1.853   0.927   2.368
 8443SOL    HW126228   1.839   1.018   2.408
 8443SOL    HW226229   1.918   0.876   2.424
 8444SOL     OW26230   4.034   6.994   3.230
 8444SOL    HW126231   4.061   0.019   3.315
 8444SOL    HW226232   4.079   6.906   3.222
 8445SOL     OW26233   3.941   4.856   1.948
 8445SOL    HW126234   3.849   4.844   1.986
 8445SOL    HW226235   3.940   4.931   1.881
 8446SOL     OW26236   6.578   5.196   3.408
 8446SOL    HW126237   6.546   5.171   3.317
 8446SOL    HW226238   6.666   5.152   3.426
 8447SOL     OW26239   5.125   3.256   1.579
 8447SOL    HW126240   5.103   3.202   1.661
 8447SOL    HW226241   5.093   3.350   1.592
 8448SOL     OW26242   0.974   2.728   6.480
 8448SOL    HW126243   1.066   2.691   6.461
 8448SOL    HW226244   0.909   2.690   6.414
 8449SOL     OW26245   1.714   2.538   5.165
 8449SOL    HW126246   1.743   2.600   5.092
 8449SOL    HW226247   1.627   2.570   5.203
 8450SOL     OW26248   2.305   5.121   2.358
 8450SOL    HW126249   2.306   5.195   2.424
 8450SOL    HW226250   2.347   5.040   2.398
 8451SOL     OW26251   3.458   2.958   0.502
 8451SOL    HW126252   3.556   2.976   0.503
 8451SOL    HW226253   3.409   3.041   0.477
 8452SOL     OW26254   6.940   5.715   0.979
 8452SOL    HW126255   0.005   5.722   1.030
 8452SOL    HW226256   6.903   5.806   0.962
 8453SOL     OW26257   0.040   4.624   6.163
 8453SOL    HW126258   6.982   4.666   6.211
 8453SOL    HW226259   0.037   4.651   6.067
 8454SOL     OW26260   1.717   6.964   4.400
 8454SOL    HW126261   1.811   6.995   4.408
 8454SOL    HW226262   1.678   6.997   4.314
 8455SOL     OW26263   5.358   2.104   1.516
 8455SOL    HW126264   5.442   2.082   1.468
 8455SOL    HW226265   5.293   2.147   1.453
 8456SOL     OW26266   5.182   5.814   2.878
 8456SOL    HW126267   5.101   5.794   2.934
 8456SOL    HW226268   5.207   5.732   2.827
 8457SOL     OW26269   0.359   6.347   6.582
 8457SOL    HW126270   0.262   6.362   6.598
 8457SOL    HW226271   0.388   6.264   6.630
 8458SOL     OW26272   1.250   1.361   1.305
 8458SOL    HW126273   1.239   1.337   1.208
 8458SOL    HW226274   1.160   1.365   1.349
 8459SOL     OW26275   2.534   5.456   2.419
 8459SOL    HW126276   2.466   5.440   2.348
 8459SOL    HW226277   2.607   5.515   2.384
 8460SOL     OW26278   4.500   0.867   0.478
 8460SOL    HW126279   4.428   0.833   0.418
 8460SOL    HW226280   4.557   0.932   0.427
 8461SOL     OW26281   5.749   4.271   2.192
 8461SOL    HW126282   5.774   4.183   2.234
 8461SOL    HW226283   5.773   4.269   2.095
 8462SOL     OW26284   2.406   5.080   0.245
 8462SOL    HW126285   2.426   5.066   0.342
 8462SOL    HW226286   2.437   5.000   0.193
 8463SOL     OW26287   6.439   1.411   0.476
 8463SOL    HW126288   6.444   1.392   0.574
 8463SOL    HW226289   6.428   1.325   0.426
 8464SOL     OW26290   0.972   3.476   6.640
 8464SOL    HW126291   1.026   3.538   6.697
 8464SOL    HW226292   1.030   3.403   6.604
 8465SOL     OW26293   4.661   3.331   0.912
 8465SOL    HW126294   4.718   3.357   0.833
 8465SOL    HW226295   4.568   3.363   0.898
 8466SOL     OW26296   6.174   1.387   5.569
 8466SOL    HW126297   6.150   1.478   5.535
 8466SOL    HW226298   6.182   1.324   5.492
 8467SOL     OW26299   3.163   0.841   1.228
 8467SOL    HW126300   3.227   0.833   1.152
 8467SOL    HW226301   3.164   0.757   1.282
 8468SOL     OW26302   6.047   2.985   0.230
 8468SOL    HW126303   6.057   2.886   0.238
 8468SOL    HW226304   6.016   3.022   0.317
 8469SOL     OW26305   4.819   2.872   6.258
 8469SOL    HW126306   4.738   2.889   6.201
 8469SOL    HW226307   4.797   2.891   6.354
 8470SOL     OW26308   1.723   5.077   1.636
 8470SOL    HW126309   1.641   5.118   1.677
 8470SOL    HW226310   1.719   4.978   1.646
 8471SOL     OW26311   3.463   2.054   4.586
 8471SOL    HW126312   3.525   2.080   4.512
 8471SOL    HW226313   3.509   2.062   4.674
 8472SOL     OW26314   5.863   1.100   5.833
 8472SOL    HW126315   5.938   1.038   5.809
 8472SOL    HW226316   5.816   1.130   5.750
 8473SOL     OW26317   4.516   4.589   6.558
 8473SOL    HW126318   4.523   4.496   6.592
 8473SOL    HW226319   4.565   4.651   6.621
 8474SOL     OW26320   3.193   3.948   3.088
 8474SOL    HW126321   3.226   3.854   3.080
 8474SOL    HW226322   3.110   3.959   3.034
 8475SOL     OW26323   0.216   2.501   1.977
 8475SOL    HW126324   0.183   2.440   2.048
 8475SOL    HW226325   0.283   2.565   2.016
 8476SOL     OW26326   6.463   0.124   2.020
 8476SOL    HW126327   6.435   0.177   1.939
 8476SOL    HW226328   6.409   0.153   2.099
 8477SOL     OW26329   5.445   7.011   2.220
 8477SOL    HW126330   5.354   6.987   2.255
 8477SOL    HW226331   5.497   6.928   2.204
 8478SOL     OW26332   6.524   0.310   6.188
 8478SOL    HW126333   6.502   0.272   6.278
 8478SOL    HW226334   6.607   0.266   6.153
 8479SOL     OW26335   1.092   2.246   0.703
 8479SOL    HW126336   0.994   2.239   0.722
 8479SOL    HW226337   1.113   2.193   0.621
 8480SOL     OW26338   4.384   3.761   0.335
 8480SOL    HW126339   4.294   3.798   0.313
 8480SOL    HW226340   4.454   3.824   0.302
 8481SOL     OW26341   4.447   1.509   3.330
 8481SOL    HW126342   4.495   1.435   3.283
 8481SOL    HW226343   4.396   1.564   3.264
 8482SOL     OW26344   4.629   1.013   0.764
 8482SOL    HW126345   4.591   1.098   0.801
 8482SOL    HW226346   4.556   0.962   0.717
 8483SOL     OW26347   3.232   5.457   3.348
 8483SOL    HW126348   3.304   5.520   3.377
 8483SOL    HW226349   3.145   5.505   3.342
 8484SOL     OW26350   5.090   6.151   4.265
 8484SOL    HW126351   5.048   6.114   4.181
 8484SOL    HW226352   5.114   6.076   4.326
 8485SOL     OW26353   3.057   3.068   0.241
 8485SOL    HW126354   3.112   3.150   0.254
 8485SOL    HW226355   3.057   3.014   0.325
 8486SOL     OW26356   0.650   1.742   3.063
 8486SOL    HW126357   0.654   1.725   2.964
 8486SOL    HW226358   0.742   1.759   3.098
 8487SOL     OW26359   5.956   1.654   5.929
 8487SOL    HW126360   5.917   1.595   5.858
 8487SOL    HW226361   5.960   1.604   6.015
 8488SOL     OW26362   4.357   4.731   1.385
 8488SOL    HW126363   4.420   4.770   1.453
 8488SOL    HW226364   4.350   4.793   1.307
 8489SOL     OW26365   5.437   1.355   1.948
 8489SOL    HW126366   5.341   1.340   1.972
 8489SOL    HW226367   5.459   1.452   1.960
 8490SOL     OW26368   2.587   6.976   6.752
 8490SOL    HW126369   2.684   6.987   6.772
 8490SOL    HW226370   2.573   6.892   6.699
 8491SOL     OW26371   3.312   5.854   2.269
 8491SOL    HW126372   3.263   5.770   2.249
 8491SOL    HW226373   3.297   5.879   2.365
 8492SOL     OW26374   6.975   6.331   4.343
 8492SOL    HW126375   0.012   6.251   4.361
 8492SOL    HW226376   0.001   6.413   4.378
 8493SOL     OW26377   4.061   0.673   6.942
 8493SOL    HW126378   4.146   0.620   6.947
 8493SOL    HW226379   4.082   0.769   6.923
 8494SOL     OW26380   6.624   4.993   2.209
 8494SOL    HW126381   6.663   4.916   2.258
 8494SOL    HW226382   6.566   5.046   2.271
 8495SOL     OW26383   6.803   5.585   0.229
 8495SOL    HW126384   6.782   5.495   0.266
 8495SOL    HW226385   6.866   5.576   0.152
 8496SOL     OW26386   5.256   2.781   2.124
 8496SOL    HW126387   5.272   2.744   2.216
 8496SOL    HW226388   5.314   2.733   2.058
 8497SOL     OW26389   6.936   0.738   3.898
 8497SOL    HW126390   6.954   0.696   3.987
 8497SOL    HW226391   6.839   0.729   3.876
 8498SOL     OW26392   4.672   0.491   4.070
 8498SOL    HW126393   4.714   0.532   3.989
 8498SOL    HW226394   4.661   0.560   4.142
 8499SOL     OW26395   6.091   6.778   6.149
 8499SOL    HW126396   6.049   6.832   6.222
 8499SOL    HW226397   6.019   6.739   6.091
 8500SOL     OW26398   1.120   0.380   4.709
 8500SOL    HW126399   1.037   0.359   4.657
 8500SOL    HW226400   1.170   0.295   4.728
 8501SOL     OW26401   0.926   2.162   6.266
 8501SOL    HW126402   0.999   2.097   6.287
 8501SOL    HW226403   0.839   2.112   6.261
 8502SOL     OW26404   1.213   3.125   6.678
 8502SOL    HW126405   1.305   3.153   6.649
 8502SOL    HW226406   1.146   3.187   6.637
 8503SOL     OW26407   5.755   1.149   4.712
 8503SOL    HW126408   5.662   1.179   4.730
 8503SOL    HW226409   5.778   1.073   4.774
 8504SOL     OW26410   1.082   5.950   1.782
 8504SOL    HW126411   1.022   5.996   1.717
 8504SOL    HW226412   1.177   5.974   1.763
 8505SOL     OW26413   4.900   3.246   3.241
 8505SOL    HW126414   4.955   3.194   3.176
 8505SOL    HW226415   4.884   3.338   3.206
 8506SOL     OW26416   2.205   0.254   6.849
 8506SOL    HW126417   2.303   0.235   6.853
 8506SOL    HW226418   2.157   0.193   6.912
 8507SOL     OW26419   3.939   5.753   5.514
 8507SOL    HW126420   3.969   5.679   5.453
 8507SOL    HW226421   3.843   5.775   5.494
 8508SOL     OW26422   3.439   1.444   6.866
 8508SOL    HW126423   3.483   1.364   6.906
 8508SOL    HW226424   3.428   1.515   6.936
 8509SOL     OW26425   5.766   1.922   3.453
 8509SOL    HW126426   5.828   1.858   3.498
 8509SOL    HW226427   5.681   1.875   3.431
 8510SOL     OW26428   6.598   2.064   4.270
 8510SOL    HW126429   6.642   2.131   4.210
 8510SOL    HW226430   6.668   2.009   4.316
 8511SOL     OW26431   5.667   2.647   2.097
 8511SOL    HW126432   5.607   2.584   2.148
 8511SOL    HW226433   5.671   2.619   2.002
 8512SOL     OW26434   2.356   0.086   5.532
 8512SOL    HW126435   2.337   0.070   5.435
 8512SOL    HW226436   2.406   0.009   5.570
 8513SOL     OW26437   4.971   6.376   6.213
 8513SOL    HW126438   5.025   6.328   6.283
 8513SOL    HW226439   4.876   6.382   6.244
 8514SOL     OW26440   2.800   6.222   3.694
 8514SOL    HW126441   2.855   6.159   3.639
 8514SOL    HW226442   2.817   6.205   3.791
 8515SOL     OW26443   5.542   1.591   0.608
 8515SOL    HW126444   5.569   1.581   0.703
 8515SOL    HW226445   5.602   1.535   0.550
 8516SOL     OW26446   6.968   2.201   2.452
 8516SOL    HW126447   6.876   2.239   2.449
 8516SOL    HW226448   0.015   2.273   2.432
 8517SOL     OW26449   1.536   3.842   6.990
 8517SOL    HW126450   1.514   3.926   6.941
 8517SOL    HW226451   1.502   3.763   6.939
 8518SOL     OW26452   3.375   5.520   0.976
 8518SOL    HW126453   3.425   5.576   1.043
 8518SOL    HW226454   3.418   5.529   0.887
 8519SOL     OW26455   1.248   4.681   2.507
 8519SOL    HW126456   1.218   4.682   2.602
 8519SOL    HW226457   1.197   4.751   2.456
 8520SOL     OW26458   3.083   0.401   0.188
 8520SOL    HW126459   3.109   0.343   0.266
 8520SOL    HW226460   3.002   0.455   0.211
 8521SOL     OW26461   1.043   6.839   6.370
 8521SOL    HW126462   0.991   6.755   6.381
 8521SOL    HW226463   1.138   6.823   6.397
 8522SOL     OW26464   1.688   5.938   5.077
 8522SOL    HW126465   1.654   6.023   5.037
 8522SOL    HW226466   1.645   5.860   5.031
 8523SOL     OW26467   1.524   0.301   6.868
 8523SOL    HW126468   1.526   0.255   6.957
 8523SOL    HW226469   1.486   0.238   6.800
 8524SOL     OW26470   1.381   2.593   6.114
 8524SOL    HW126471   1.375   2.495   6.096
 8524SOL    HW226472   1.291   2.635   6.103
 8525SOL     OW26473   5.283   2.859   2.886
 8525SOL    HW126474   5.249   2.808   2.965
 8525SOL    HW226475   5.322   2.794   2.820
 8526SOL     OW26476   2.216   2.885   1.969
 8526SOL    HW126477   2.303   2.850   1.935
 8526SOL    HW226478   2.208   2.983   1.948
 8527SOL     OW26479   4.198   0.172   4.232
 8527SOL    HW126480   4.216   0.188   4.329
 8527SOL    HW226481   4.281   0.191   4.180
 8528SOL     OW26482   5.149   2.449   6.844
 8528SOL    HW126483   5.097   2.531   6.869
 8528SOL    HW226484   5.162   2.393   6.926
 8529SOL     OW26485   0.393   4.504   0.354
 8529SOL    HW126486   0.346   4.592   0.355
 8529SOL    HW226487   0.404   4.472   0.260
 8530SOL     OW26488   1.214   3.212   5.602
 8530SOL    HW126489   1.154   3.265   5.543
 8530SOL    HW226490   1.292   3.179   5.548
 8531SOL     OW26491   4.475   4.804   2.617
 8531SOL    HW126492   4.498   4.730   2.681
 8531SOL    HW226493   4.525   4.790   2.532
 8532SOL     OW26494   1.375   4.226   5.814
 8532SOL    HW126495   1.375   4.196   5.719
 8532SOL    HW226496   1.426   4.160   5.870
 8533SOL     OW26497   3.555   0.403   5.892
 8533SOL    HW126498   3.558   0.498   5.924
 8533SOL    HW226499   3.647   0.364   5.894
 8534SOL     OW26500   1.808   2.711   2.949
 8534SOL    HW126501   1.862   2.626   2.948
 8534SOL    HW226502   1.807   2.750   2.858
 8535SOL     OW26503   0.140   2.700   4.050
 8535SOL    HW126504   0.179   2.687   4.141
 8535SOL    HW226505   0.062   2.639   4.038
 8536SOL     OW26506   0.422   1.415   5.086
 8536SOL    HW126507   0.416   1.434   5.184
 8536SOL    HW226508   0.453   1.497   5.038
 8537SOL     OW26509   5.942   0.486   1.707
 8537SOL    HW126510   5.936   0.467   1.805
 8537SOL    HW226511   6.020   0.439   1.667
 8538SOL     OW26512   6.112   1.272   4.855
 8538SOL    HW126513   6.191   1.268   4.794
 8538SOL    HW226514   6.037   1.318   4.807
 8539SOL     OW26515   6.797   2.886   2.312
 8539SOL    HW126516   6.805   2.954   2.384
 8539SOL    HW226517   6.887   2.845   2.295
 8540SOL     OW26518   4.365   0.094   0.233
 8540SOL    HW126519   4.447   0.126   0.280
 8540SOL    HW226520   4.337   0.161   0.164
 8541SOL     OW26521   3.555   6.671   5.411
 8541SOL    HW126522   3.492   6.639   5.482
 8541SOL    HW226523   3.514   6.659   5.321
 8542SOL     OW26524   0.902   4.964   6.317
 8542SOL    HW126525   0.904   5.046   6.258
 8542SOL    HW226526   0.922   4.883   6.262
 8543SOL     OW26527   2.416   2.158   5.751
 8543SOL    HW126528   2.445   2.199   5.664
 8543SOL    HW226529   2.489   2.169   5.819
 8544SOL     OW26530   5.595   4.462   5.525
 8544SOL    HW126531   5.580   4.390   5.593
 8544SOL    HW226532   5.577   4.552   5.566
 8545SOL     OW26533   3.053   0.727   6.364
 8545SOL    HW126534   2.997   0.670   6.303
 8545SOL    HW226535   3.141   0.745   6.321
 8546SOL     OW26536   5.141   1.013   2.069
 8546SOL    HW126537   5.048   1.012   2.031
 8546SOL    HW226538   5.202   0.960   2.010
 8547SOL     OW26539   5.731   5.767   5.412
 8547SOL    HW126540   5.673   5.709   5.470
 8547SOL    HW226541   5.758   5.716   5.331
 8548SOL     OW26542   0.671   3.481   5.559
 8548SOL    HW126543   0.661   3.394   5.607
 8548SOL    HW226544   0.745   3.533   5.601
 8549SOL     OW26545   2.087   6.961   3.891
 8549SOL    HW126546   2.175   6.956   3.844
 8549SOL    HW226547   2.098   7.012   3.976
 8550SOL     OW26548   6.709   4.135   6.359
 8550SOL    HW126549   6.714   4.168   6.453
 8550SOL    HW226550   6.789   4.167   6.308
 8551SOL     OW26551   1.870   1.170   6.300
 8551SOL    HW126552   1.776   1.158   6.266
 8551SOL    HW226553   1.934   1.160   6.224
 8552SOL     OW26554   3.279   1.775   3.133
 8552SOL    HW126555   3.245   1.841   3.200
 8552SOL    HW226556   3.214   1.700   3.123
 8553SOL     OW26557   5.022   4.305   0.204
 8553SOL    HW126558   5.009   4.264   0.114
 8553SOL    HW226559   4.938   4.353   0.231
 8554SOL     OW26560   2.503   1.192   0.824
 8554SOL    HW126561   2.445   1.233   0.753
 8554SOL    HW226562   2.579   1.253   0.844
 8555SOL     OW26563   3.891   1.416   3.853
 8555SOL    HW126564   3.917   1.391   3.946
 8555SOL    HW226565   3.907   1.338   3.792
 8556SOL     OW26566   1.713   5.646   0.320
 8556SOL    HW126567   1.792   5.708   0.324
 8556SOL    HW226568   1.726   5.571   0.385
 8557SOL     OW26569   6.936   0.789   6.566
 8557SOL    HW126570   6.954   0.698   6.603
 8557SOL    HW226571   7.018   0.823   6.519
 8558SOL     OW26572   3.392   6.098   4.272
 8558SOL    HW126573   3.382   6.114   4.173
 8558SOL    HW226574   3.312   6.049   4.306
 8559SOL     OW26575   1.676   4.592   2.512
 8559SOL    HW126576   1.654   4.684   2.544
 8559SOL    HW226577   1.592   4.545   2.485
 8560SOL     OW26578   2.975   4.735   1.124
 8560SOL    HW126579   2.923   4.784   1.193
 8560SOL    HW226580   3.071   4.731   1.152
 8561SOL     OW26581   4.811   1.113   2.408
 8561SOL    HW126582   4.792   1.202   2.366
 8561SOL    HW226583   4.898   1.079   2.373
 8562SOL     OW26584   5.031   1.973   6.622
 8562SOL    HW126585   4.945   1.923   6.634
 8562SOL    HW226586   5.011   2.066   6.593
 8563SOL     OW26587   2.407   5.147   2.117
 8563SOL    HW126588   2.496   5.101   2.118
 8563SOL    HW226589   2.375   5.159   2.211
 8564SOL     OW26590   4.119   6.955   0.271
 8564SOL    HW126591   4.101   6.912   0.183
 8564SOL    HW226592   4.199   7.013   0.265
 8565SOL     OW26593   1.704   4.886   0.909
 8565SOL    HW126594   1.725   4.863   0.814
 8565SOL    HW226595   1.786   4.920   0.955
 8566SOL     OW26596   3.292   1.242   2.282
 8566SOL    HW126597   3.341   1.163   2.244
 8566SOL    HW226598   3.303   1.243   2.382
 8567SOL     OW26599   1.636   3.105   1.700
 8567SOL    HW126600   1.541   3.128   1.681
 8567SOL    HW226601   1.674   3.051   1.626
 8568SOL     OW26602   5.926   0.564   6.651
 8568SOL    HW126603   5.913   0.609   6.739
 8568SOL    HW226604   5.896   0.624   6.578
 8569SOL     OW26605   3.919   2.208   6.391
 8569SOL    HW126606   3.848   2.219   6.459
 8569SOL    HW226607   3.895   2.260   6.309
 8570SOL     OW26608   1.994   2.422   1.950
 8570SOL    HW126609   1.914   2.380   1.908
 8570SOL    HW226610   1.966   2.500   2.005
 8571SOL     OW26611   1.625   0.901   3.074
 8571SOL    HW126612   1.530   0.928   3.092
 8571SOL    HW226613   1.676   0.980   3.039
 8572SOL     OW26614   2.387   4.590   6.020
 8572SOL    HW126615   2.429   4.569   5.932
 8572SOL    HW226616   2.371   4.688   6.028
 8573SOL     OW26617   3.803   6.342   0.246
 8573SOL    HW126618   3.786   6.397   0.328
 8573SOL    HW226619   3.725   6.352   0.183
 8574SOL     OW26620   5.439   0.783   5.111
 8574SOL    HW126621   5.377   0.717   5.068
 8574SOL    HW226622   5.506   0.815   5.043
 8575SOL     OW26623   3.147   6.139   3.725
 8575SOL    HW126624   3.078   6.108   3.660
 8575SOL    HW226625   3.171   6.234   3.704
 8576SOL     OW26626   1.431   4.672   3.369
 8576SOL    HW126627   1.336   4.649   3.391
 8576SOL    HW226628   1.452   4.641   3.276
 8577SOL     OW26629   1.619   1.911   0.110
 8577SOL    HW126630   1.558   1.837   0.080
 8577SOL    HW226631   1.568   1.996   0.117
 8578SOL     OW26632   6.894   6.612   6.533
 8578SOL    HW126633   6.942   6.609   6.445
 8578SOL    HW226634   6.813   6.670   6.525
 8579SOL     OW26635   2.872   6.465   2.282
 8579SOL    HW126636   2.865   6.495   2.377
 8579SOL    HW226637   2.854   6.367   2.276
 8580SOL     OW26638   2.084   0.576   1.141
 8580SOL    HW126639   2.116   0.581   1.236
 8580SOL    HW226640   1.984   0.563   1.140
 8581SOL     OW26641   3.440   4.829   1.511
 8581SOL    HW126642   3.460   4.878   1.596
 8581SOL    HW226643   3.518   4.838   1.448
 8582SOL     OW26644   3.314   4.781   6.043
 8582SOL    HW126645   3.244   4.741   6.101
 8582SOL    HW226646   3.272   4.820   5.961
 8583SOL     OW26647   4.285   0.865   2.750
 8583SOL    HW126648   4.209   0.833   2.807
 8583SOL    HW226649   4.251   0.888   2.659
 8584SOL     OW26650   6.849   1.493   5.077
 8584SOL    HW126651   6.833   1.481   4.979
 8584SOL    HW226652   6.786   1.561   5.113
 8585SOL     OW26653   5.310   2.848   2.458
 8585SOL    HW126654   5.351   2.924   2.408
 8585SOL    HW226655   5.214   2.869   2.478
 8586SOL     OW26656   6.798   5.909   0.501
 8586SOL    HW126657   6.849   5.994   0.484
 8586SOL    HW226658   6.860   5.831   0.496
 8587SOL     OW26659   0.891   1.717   6.872
 8587SOL    HW126660   0.973   1.730   6.816
 8587SOL    HW226661   0.811   1.712   6.813
 8588SOL     OW26662   2.911   1.690   6.213
 8588SOL    HW126663   2.985   1.738   6.260
 8588SOL    HW226664   2.837   1.670   6.277
 8589SOL     OW26665   6.489   2.512   6.961
 8589SOL    HW126666   6.581   2.528   6.999
 8589SOL    HW226667   6.420   2.539   0.008
 8590SOL     OW26668   1.303   0.566   4.633
 8590SOL    HW126669   1.253   0.515   4.703
 8590SOL    HW226670   1.364   0.505   4.584
 8591SOL     OW26671   0.055   4.020   6.520
 8591SOL    HW126672   7.011   3.971   6.462
 8591SOL    HW226673   0.006   4.086   6.577
 8592SOL     OW26674   0.274   1.695   5.207
 8592SOL    HW126675   0.267   1.615   5.267
 8592SOL    HW226676   0.359   1.744   5.227
 8593SOL     OW26677   4.147   1.392   0.185
 8593SOL    HW126678   4.069   1.336   0.213
 8593SOL    HW226679   4.129   1.488   0.207
 8594SOL     OW26680   6.356   2.797   6.023
 8594SOL    HW126681   6.390   2.889   6.045
 8594SOL    HW226682   6.390   2.771   5.932
 8595SOL     OW26683   6.069   6.900   3.402
 8595SOL    HW126684   6.100   6.832   3.335
 8595SOL    HW226685   6.122   6.984   3.390
 8596SOL     OW26686   0.975   1.188   4.277
 8596SOL    HW126687   0.984   1.159   4.181
 8596SOL    HW226688   0.915   1.125   4.326
 8597SOL     OW26689   5.181   3.526   0.117
 8597SOL    HW126690   5.136   3.459   0.176
 8597SOL    HW226691   5.207   3.606   0.171
 8598SOL     OW26692   5.876   6.292   4.643
 8598SOL    HW126693   5.878   6.374   4.700
 8598SOL    HW226694   5.866   6.319   4.547
 8599SOL     OW26695   0.077   3.475   4.104
 8599SOL    HW126696   6.998   3.480   4.118
 8599SOL    HW226697   0.124   3.493   4.190
 8600SOL     OW26698   4.374   1.638   0.838
 8600SOL    HW126699   4.303   1.706   0.856
 8600SOL    HW226700   4.416   1.657   0.749
 8601SOL     OW26701   0.488   6.196   3.852
 8601SOL    HW126702   0.561   6.146   3.806
 8601SOL    HW226703   0.480   6.164   3.947
 8602SOL     OW26704   2.548   6.295   4.868
 8602SOL    HW126705   2.507   6.383   4.891
 8602SOL    HW226706   2.503   6.222   4.920
 8603SOL     OW26707   0.146   0.204   0.140
 8603SOL    HW126708   0.079   0.144   0.096
 8603SOL    HW226709   0.103   0.292   0.160
 8604SOL     OW26710   0.016   4.366   6.554
 8604SOL    HW126711   0.081   4.348   6.480
 8604SOL    HW226712   0.044   4.317   6.636
 8605SOL     OW26713   6.347   4.902   4.698
 8605SOL    HW126714   6.325   4.981   4.642
 8605SOL    HW226715   6.375   4.826   4.639
 8606SOL     OW26716   1.766   2.357   0.590
 8606SOL    HW126717   1.674   2.355   0.552
 8606SOL    HW226718   1.821   2.285   0.548
 8607SOL     OW26719   2.784   4.230   1.366
 8607SOL    HW126720   2.727   4.149   1.383
 8607SOL    HW226721   2.825   4.260   1.452
 8608SOL     OW26722   1.769   5.059   2.530
 8608SOL    HW126723   1.802   5.057   2.435
 8608SOL    HW226724   1.846   5.078   2.591
 8609SOL     OW26725   4.227   1.777   4.204
 8609SOL    HW126726   4.173   1.696   4.228
 8609SOL    HW226727   4.220   1.792   4.105
 8610SOL     OW26728   6.821   6.410   3.255
 8610SOL    HW126729   6.915   6.443   3.258
 8610SOL    HW226730   6.808   6.351   3.175
 8611SOL     OW26731   3.134   1.457   5.236
 8611SOL    HW126732   3.231   1.473   5.223
 8611SOL    HW226733   3.090   1.542   5.266
 8612SOL     OW26734   3.524   4.029   3.917
 8612SOL    HW126735   3.497   3.935   3.937
 8612SOL    HW226736   3.489   4.090   3.988
 8613SOL     OW26737   4.005   3.020   2.022
 8613SOL    HW126738   4.000   3.020   2.122
 8613SOL    HW226739   4.011   3.114   1.989
 8614SOL     OW26740   1.516   1.537   2.950
 8614SOL    HW126741   1.603   1.491   2.928
 8614SOL    HW226742   1.514   1.626   2.905
 8615SOL     OW26743   3.926   1.609   4.126
 8615SOL    HW126744   4.003   1.597   4.063
 8615SOL    HW226745   3.854   1.663   4.081
 8616SOL     OW26746   5.448   4.449   2.931
 8616SOL    HW126747   5.374   4.516   2.926
 8616SOL    HW226748   5.532   4.494   2.961
 8617SOL     OW26749   2.934   0.351   3.653
 8617SOL    HW126750   2.978   0.353   3.743
 8617SOL    HW226751   2.860   0.284   3.653
 8618SOL     OW26752   5.296   4.516   0.853
 8618SOL    HW126753   5.267   4.604   0.813
 8618SOL    HW226754   5.396   4.512   0.856
 8619SOL     OW26755   4.857   5.225   0.711
 8619SOL    HW126756   4.778   5.270   0.670
 8619SOL    HW226757   4.941   5.261   0.670
 8620SOL     OW26758   2.493   0.820   4.568
 8620SOL    HW126759   2.563   0.749   4.575
 8620SOL    HW226760   2.438   0.822   4.652
 8621SOL     OW26761   5.835   2.957   1.659
 8621SOL    HW126762   5.803   3.002   1.575
 8621SOL    HW226763   5.866   2.864   1.638
 8622SOL     OW26764   6.770   5.151   2.775
 8622SOL    HW126765   6.799   5.243   2.749
 8622SOL    HW226766   6.677   5.154   2.810
 8623SOL     OW26767   1.012   3.576   4.022
 8623SOL    HW126768   1.035   3.635   3.944
 8623SOL    HW226769   0.985   3.486   3.989
 8624SOL     OW26770   3.001   3.815   4.930
 8624SOL    HW126771   3.044   3.878   4.866
 8624SOL    HW226772   2.941   3.866   4.991
 8625SOL     OW26773   4.062   2.686   5.938
 8625SOL    HW126774   3.981   2.704   5.995
 8625SOL    HW226775   4.085   2.769   5.887
 8626SOL     OW26776   3.380   3.717   0.701
 8626SOL    HW126777   3.399   3.689   0.795
 8626SOL    HW226778   3.287   3.692   0.676
 8627SOL     OW26779   1.870   0.495   1.672
 8627SOL    HW126780   1.838   0.431   1.741
 8627SOL    HW226781   1.866   0.452   1.582
 8628SOL     OW26782   0.606   6.541   1.078
 8628SOL    HW126783   0.641   6.610   1.015
 8628SOL    HW226784   0.560   6.587   1.154
 8629SOL     OW26785   0.098   6.573   5.777
 8629SOL    HW126786   0.081   6.527   5.690
 8629SOL    HW226787   0.096   6.672   5.764
 8630SOL     OW26788   4.943   3.416   2.509
 8630SOL    HW126789   4.895   3.329   2.499
 8630SOL    HW226790   4.936   3.468   2.425
 8631SOL     OW26791   2.140   6.740   6.983
 8631SOL    HW126792   2.172   6.776   6.896
 8631SOL    HW226793   2.119   6.643   6.973
 8632SOL     OW26794   5.364   5.389   5.885
 8632SOL    HW126795   5.361   5.436   5.973
 8632SOL    HW226796   5.424   5.309   5.891
 8633SOL     OW26797   5.634   4.584   5.818
 8633SOL    HW126798   5.602   4.605   5.910
 8633SOL    HW226799   5.582   4.638   5.752
 8634SOL     OW26800   4.386   2.764   0.686
 8634SOL    HW126801   4.455   2.836   0.690
 8634SOL    HW226802   4.398   2.701   0.763
 8635SOL     OW26803   5.374   2.635   5.766
 8635SOL    HW126804   5.322   2.672   5.689
 8635SOL    HW226805   5.339   2.673   5.852
 8636SOL     OW26806   4.685   0.033   2.001
 8636SOL    HW126807   4.603   6.995   2.002
 8636SOL    HW226808   4.683   0.095   2.079
 8637SOL     OW26809   1.467   2.142   0.078
 8637SOL    HW126810   1.530   2.181   0.012
 8637SOL    HW226811   1.404   2.213   0.110
 8638SOL     OW26812   4.916   2.392   4.208
 8638SOL    HW126813   4.928   2.419   4.112
 8638SOL    HW226814   4.819   2.398   4.233
 8639SOL     OW26815   3.377   3.989   0.099
 8639SOL    HW126816   3.399   3.915   0.163
 8639SOL    HW226817   3.428   3.975   0.014
 8640SOL     OW26818   3.035   3.281   0.746
 8640SOL    HW126819   3.017   3.299   0.650
 8640SOL    HW226820   2.961   3.227   0.785
 8641SOL     OW26821   4.684   5.989   1.969
 8641SOL    HW126822   4.621   5.911   1.961
 8641SOL    HW226823   4.734   6.000   1.883
 8642SOL     OW26824   0.905   5.888   3.397
 8642SOL    HW126825   0.919   5.791   3.414
 8642SOL    HW226826   0.878   5.902   3.302
 8643SOL     OW26827   3.935   6.268   1.123
 8643SOL    HW126828   3.891   6.287   1.211
 8643SOL    HW226829   4.025   6.311   1.121
 8644SOL     OW26830   6.529   1.929   6.312
 8644SOL    HW126831   6.560   1.835   6.327
 8644SOL    HW226832   6.586   1.971   6.241
 8645SOL     OW26833   5.789   4.275   2.888
 8645SOL    HW126834   5.725   4.299   2.815
 8645SOL    HW226835   5.868   4.336   2.884
 8646SOL     OW26836   6.713   1.930   5.395
 8646SOL    HW126837   6.764   2.015   5.387
 8646SOL    HW226838   6.777   1.855   5.415
 8647SOL     OW26839   2.140   5.509   2.063
 8647SOL    HW126840   2.105   5.593   2.104
 8647SOL    HW226841   2.070   5.470   2.002
 8648SOL     OW26842   5.151   4.772   0.785
 8648SOL    HW126843   5.076   4.837   0.770
 8648SOL    HW226844   5.198   4.795   0.871
 8649SOL     OW26845   5.135   0.152   0.818
 8649SOL    HW126846   5.058   0.215   0.829
 8649SOL    HW226847   5.155   0.139   0.721
 8650SOL     OW26848   2.261   6.406   4.799
 8650SOL    HW126849   2.337   6.454   4.843
 8650SOL    HW226850   2.290   6.373   4.710
 8651SOL     OW26851   3.325   1.688   1.018
 8651SOL    HW126852   3.301   1.591   1.015
 8651SOL    HW226853   3.255   1.738   1.069
 8652SOL     OW26854   1.316   2.604   3.341
 8652SOL    HW126855   1.386   2.659   3.386
 8652SOL    HW226856   1.357   2.545   3.273
 8653SOL     OW26857   6.631   1.681   6.382
 8653SOL    HW126858   6.691   1.627   6.323
 8653SOL    HW226859   6.687   1.735   6.445
 8654SOL     OW26860   0.157   4.616   1.941
 8654SOL    HW126861   0.068   4.573   1.925
 8654SOL    HW226862   0.166   4.638   2.038
 8655SOL     OW26863   0.308   0.397   4.626
 8655SOL    HW126864   0.253   0.480   4.634
 8655SOL    HW226865   0.349   0.374   4.714
 8656SOL     OW26866   5.291   0.139   1.056
 8656SOL    HW126867   5.345   0.056   1.071
 8656SOL    HW226868   5.246   0.133   0.966
 8657SOL     OW26869   4.525   1.113   3.042
 8657SOL    HW126870   4.450   1.067   3.088
 8657SOL    HW226871   4.497   1.141   2.950
 8658SOL     OW26872   6.600   4.106   0.878
 8658SOL    HW126873   6.524   4.105   0.943
 8658SOL    HW226874   6.609   4.198   0.840
 8659SOL     OW26875   3.531   1.048   2.809
 8659SOL    HW126876   3.568   0.967   2.764
 8659SOL    HW226877   3.594   1.125   2.797
 8660SOL     OW26878   6.589   3.851   1.760
 8660SOL    HW126879   6.606   3.904   1.844
 8660SOL    HW226880   6.573   3.755   1.783
 8661SOL     OW26881   6.673   3.974   2.842
 8661SOL    HW126882   6.609   4.027   2.787
 8661SOL    HW226883   6.754   3.951   2.787
 8662SOL     OW26884   2.212   4.266   3.114
 8662SOL    HW126885   2.136   4.260   3.179
 8662SOL    HW226886   2.205   4.351   3.063
 8663SOL     OW26887   4.069   5.707   2.524
 8663SOL    HW126888   4.144   5.740   2.467
 8663SOL    HW226889   3.989   5.689   2.466
 8664SOL     OW26890   3.467   5.758   3.885
 8664SOL    HW126891   3.499   5.698   3.811
 8664SOL    HW226892   3.464   5.706   3.971
 8665SOL     OW26893   5.116   3.253   6.974
 8665SOL    HW126894   5.130   3.276   6.877
 8665SOL    HW226895   5.204   3.244   7.020
 8666SOL     OW26896   4.467   6.826   2.439
 8666SOL    HW126897   4.425   6.741   2.410
 8666SOL    HW226898   4.493   6.819   2.536
 8667SOL     OW26899   5.080   2.258   3.051
 8667SOL    HW126900   5.145   2.207   3.107
 8667SOL    HW226901   4.987   2.228   3.072
 8668SOL     OW26902   5.268   2.554   4.835
 8668SOL    HW126903   5.260   2.570   4.737
 8668SOL    HW226904   5.323   2.471   4.851
 8669SOL     OW26905   6.499   5.902   5.942
 8669SOL    HW126906   6.433   5.859   6.004
 8669SOL    HW226907   6.549   5.831   5.892
 8670SOL     OW26908   6.471   4.181   6.231
 8670SOL    HW126909   6.474   4.272   6.189
 8670SOL    HW226910   6.556   4.164   6.280
 8671SOL     OW26911   0.130   2.802   2.774
 8671SOL    HW126912   0.078   2.724   2.808
 8671SOL    HW226913   0.208   2.819   2.834
 8672SOL     OW26914   0.572   0.956   3.298
 8672SOL    HW126915   0.586   0.994   3.207
 8672SOL    HW226916   0.629   1.005   3.364
 8673SOL     OW26917   0.510   1.761   1.630
 8673SOL    HW126918   0.573   1.687   1.653
 8673SOL    HW226919   0.416   1.733   1.653
 8674SOL     OW26920   6.931   3.989   3.923
 8674SOL    HW126921   6.943   3.896   3.959
 8674SOL    HW226922   6.914   3.984   3.824
 8675SOL     OW26923   3.361   2.260   5.363
 8675SOL    HW126924   3.378   2.164   5.339
 8675SOL    HW226925   3.308   2.304   5.291
 8676SOL     OW26926   5.452   1.090   0.786
 8676SOL    HW126927   5.482   1.156   0.717
 8676SOL    HW226928   5.362   1.054   0.762
 8677SOL     OW26929   2.575   6.604   6.150
 8677SOL    HW126930   2.610   6.510   6.139
 8677SOL    HW226931   2.625   6.665   6.089
 8678SOL     OW26932   1.640   2.256   0.941
 8678SOL    HW126933   1.627   2.203   0.858
 8678SOL    HW226934   1.731   2.239   0.979
 8679SOL     OW26935   1.284   1.855   5.498
 8679SOL    HW126936   1.250   1.762   5.509
 8679SOL    HW226937   1.379   1.852   5.468
 8680SOL     OW26938   6.694   1.048   0.201
 8680SOL    HW126939   6.696   0.958   0.160
 8680SOL    HW226940   6.691   1.118   0.130
 8681SOL     OW26941   5.543   6.494   1.582
 8681SOL    HW126942   5.578   6.402   1.596
 8681SOL    HW226943   5.502   6.502   1.492
 8682SOL     OW26944   1.750   0.716   1.017
 8682SOL    HW126945   1.652   0.719   1.035
 8682SOL    HW226946   1.799   0.766   1.089
 8683SOL     OW26947   1.516   4.208   4.236
 8683SOL    HW126948   1.471   4.252   4.159
 8683SOL    HW226949   1.489   4.252   4.322
 8684SOL     OW26950   1.348   3.838   4.152
 8684SOL    HW126951   1.262   3.886   4.168
 8684SOL    HW226952   1.330   3.747   4.113
 8685SOL     OW26953   5.141   2.014   5.012
 8685SOL    HW126954   5.053   2.047   4.977
 8685SOL    HW226955   5.159   1.922   4.978
 8686SOL     OW26956   1.279   5.731   2.741
 8686SOL    HW126957   1.222   5.650   2.757
 8686SOL    HW226958   1.319   5.761   2.828
 8687SOL     OW26959   5.088   4.297   5.833
 8687SOL    HW126960   5.131   4.276   5.921
 8687SOL    HW226961   5.131   4.379   5.795
 8688SOL     OW26962   0.529   3.851   5.698
 8688SOL    HW126963   0.519   3.791   5.619
 8688SOL    HW226964   0.462   3.925   5.694
 8689SOL     OW26965   3.699   3.628   0.132
 8689SOL    HW126966   3.796   3.614   0.151
 8689SOL    HW226967   3.652   3.540   0.134
 8690SOL     OW26968   1.556   2.603   3.111
 8690SOL    HW126969   1.515   2.693   3.093
 8690SOL    HW226970   1.640   2.593   3.058
 8691SOL     OW26971   3.264   2.618   5.302
 8691SOL    HW126972   3.238   2.537   5.250
 8691SOL    HW226973   3.361   2.613   5.327
 8692SOL     OW26974   4.451   1.904   5.132
 8692SOL    HW126975   4.432   1.824   5.076
 8692SOL    HW226976   4.528   1.884   5.193
 8693SOL     OW26977   6.387   6.849   6.101
 8693SOL    HW126978   6.319   6.786   6.138
 8693SOL    HW226979   6.365   6.942   6.130
 8694SOL     OW26980   5.828   3.576   4.751
 8694SOL    HW126981   5.845   3.673   4.767
 8694SOL    HW226982   5.883   3.522   4.815
 8695SOL     OW26983   3.915   4.318   6.364
 8695SOL    HW126984   3.905   4.413   6.394
 8695SOL    HW226985   3.979   4.271   6.425
 8696SOL     OW26986   2.862   4.640   6.113
 8696SOL    HW126987   2.777   4.657   6.161
 8696SOL    HW226988   2.858   4.552   6.067
 8697SOL     OW26989   1.801   3.774   5.567
 8697SOL    HW126990   1.818   3.821   5.653
 8697SOL    HW226991   1.862   3.810   5.496
 8698SOL     OW26992   5.497   5.382   5.621
 8698SOL    HW126993   5.405   5.348   5.634
 8698SOL    HW226994   5.563   5.308   5.631
 8699SOL     OW26995   1.337   2.810   6.469
 8699SOL    HW126996   1.283   2.728   6.448
 8699SOL    HW226997   1.321   2.837   6.564
 8700SOL     OW26998   1.210   0.253   4.345
 8700SOL    HW126999   1.114   0.273   4.324
 8700SOL    HW227000   1.215   0.207   4.434
 8701SOL     OW27001   0.531   2.509   0.553
 8701SOL    HW127002   0.469   2.558   0.491
 8701SOL    HW227003   0.600   2.460   0.500
 8702SOL     OW27004   5.149   5.011   1.927
 8702SOL    HW127005   5.233   4.982   1.882
 8702SOL    HW227006   5.085   5.046   1.858
 8703SOL     OW27007   2.190   5.666   1.055
 8703SOL    HW127008   2.131   5.651   0.976
 8703SOL    HW227009   2.137   5.703   1.131
 8704SOL     OW27010   1.136   0.466   5.148
 8704SOL    HW127011   1.067   0.525   5.190
 8704SOL    HW227012   1.227   0.500   5.171
 8705SOL     OW27013   4.054   2.339   6.674
 8705SOL    HW127014   4.072   2.420   6.731
 8705SOL    HW227015   3.992   2.278   6.723
 8706SOL     OW27016   4.703   3.037   6.474
 8706SOL    HW127017   4.675   3.118   6.423
 8706SOL    HW227018   4.722   3.061   6.569
 8707SOL     OW27019   1.657   2.009   5.197
 8707SOL    HW127020   1.628   2.104   5.207
 8707SOL    HW227021   1.642   1.960   5.283
 8708SOL     OW27022   6.032   2.701   0.261
 8708SOL    HW127023   5.934   2.704   0.281
 8708SOL    HW227024   6.049   2.637   0.186
 8709SOL     OW27025   6.115   6.884   5.841
 8709SOL    HW127026   6.191   6.842   5.791
 8709SOL    HW227027   6.095   6.831   5.923
 8710SOL     OW27028   2.376   1.095   3.485
 8710SOL    HW127029   2.410   1.071   3.576
 8710SOL    HW227030   2.282   1.128   3.493
 8711SOL     OW27031   1.572   1.056   1.360
 8711SOL    HW127032   1.492   0.996   1.366
 8711SOL    HW227033   1.576   1.115   1.440
 8712SOL     OW27034   1.780   4.150   5.898
 8712SOL    HW127035   1.811   4.209   5.823
 8712SOL    HW227036   1.680   4.156   5.905
 8713SOL     OW27037   0.025   4.153   1.633
 8713SOL    HW127038   6.970   4.119   1.576
 8713SOL    HW227039   7.009   4.185   1.721
 8714SOL     OW27040   0.272   5.778   6.734
 8714SOL    HW127041   0.308   5.699   6.684
 8714SOL    HW227042   0.294   5.862   6.686
 8715SOL     OW27043   2.098   3.438   1.496
 8715SOL    HW127044   2.173   3.405   1.437
 8715SOL    HW227045   2.017   3.381   1.481
 8716SOL     OW27046   6.758   6.813   2.131
 8716SOL    HW127047   6.793   6.901   2.097
 8716SOL    HW227048   6.725   6.758   2.055
 8717SOL     OW27049   2.854   4.085   0.467
 8717SOL    HW127050   2.754   4.094   0.474
 8717SOL    HW227051   2.876   4.008   0.407
 8718SOL     OW27052   2.169   4.522   6.171
 8718SOL    HW127053   2.262   4.540   6.139
 8718SOL    HW227054   2.134   4.601   6.220
 8719SOL     OW27055   3.681   0.651   5.707
 8719SOL    HW127056   3.661   0.725   5.643
 8719SOL    HW227057   3.673   0.564   5.660
 8720SOL     OW27058   6.843   5.233   4.903
 8720SOL    HW127059   6.848   5.134   4.891
 8720SOL    HW227060   6.921   5.264   4.958
 8721SOL     OW27061   0.274   0.503   6.497
 8721SOL    HW127062   0.315   0.416   6.525
 8721SOL    HW227063   0.192   0.485   6.442
 8722SOL     OW27064   3.152   1.057   1.386
 8722SOL    HW127065   3.125   0.987   1.320
 8722SOL    HW227066   3.159   1.146   1.340
 8723SOL     OW27067   4.194   0.372   2.669
 8723SOL    HW127068   4.285   0.365   2.709
 8723SOL    HW227069   4.198   0.350   2.572
 8724SOL     OW27070   4.091   1.066   4.341
 8724SOL    HW127071   4.052   1.146   4.296
 8724SOL    HW227072   4.030   0.988   4.328
 8725SOL     OW27073   0.226   6.618   3.642
 8725SOL    HW127074   0.277   6.534   3.624
 8725SOL    HW227075   0.220   6.633   3.740
 8726SOL     OW27076   0.066   0.705   0.931
 8726SOL    HW127077   0.161   0.733   0.946
 8726SOL    HW227078   0.065   0.619   0.879
 8727SOL     OW27079   4.602   6.182   6.018
 8727SOL    HW127080   4.646   6.105   5.971
 8727SOL    HW227081   4.512   6.154   6.050
 8728SOL     OW27082   6.666   0.162   3.884
 8728SOL    HW127083   6.720   0.137   3.965
 8728SOL    HW227084   6.675   0.260   3.867
 8729SOL     OW27085   4.302   5.795   6.434
 8729SOL    HW127086   4.235   5.735   6.478
 8729SOL    HW227087   4.274   5.890   6.445
 8730SOL     OW27088   4.680   5.242   1.455
 8730SOL    HW127089   4.746   5.167   1.448
 8730SOL    HW227090   4.675   5.290   1.368
 8731SOL     OW27091   0.068   1.680   3.376
 8731SOL    HW127092   0.089   1.703   3.281
 8731SOL    HW227093   0.095   1.585   3.394
 8732SOL     OW27094   5.932   6.963   0.232
 8732SOL    HW127095   5.956   6.981   0.137
 8732SOL    HW227096   5.955   6.869   0.255
 8733SOL     OW27097   6.182   5.131   2.086
 8733SOL    HW127098   6.216   5.211   2.037
 8733SOL    HW227099   6.082   5.133   2.087
 8734SOL     OW27100   6.894   3.863   2.683
 8734SOL    HW127101   6.961   3.809   2.733
 8734SOL    HW227102   6.844   3.805   2.619
 8735SOL     OW27103   0.273   3.562   5.415
 8735SOL    HW127104   0.196   3.572   5.478
 8735SOL    HW227105   0.274   3.470   5.377
 8736SOL     OW27106   1.431   6.125   3.929
 8736SOL    HW127107   1.423   6.042   3.985
 8736SOL    HW227108   1.526   6.153   3.924
 8737SOL     OW27109   1.590   6.602   6.852
 8737SOL    HW127110   1.676   6.628   6.896
 8737SOL    HW227111   1.573   6.505   6.869
 8738SOL     OW27112   1.576   2.728   3.450
 8738SOL    HW127113   1.537   2.807   3.497
 8738SOL    HW227114   1.619   2.757   3.365
 8739SOL     OW27115   5.074   4.060   5.669
 8739SOL    HW127116   5.115   4.082   5.580
 8739SOL    HW227117   5.053   4.144   5.718
 8740SOL     OW27118   2.954   0.565   4.892
 8740SOL    HW127119   2.870   0.619   4.897
 8740SOL    HW227120   2.969   0.517   4.978
 8741SOL     OW27121   1.035   0.323   2.593
 8741SOL    HW127122   1.044   0.340   2.692
 8741SOL    HW227123   1.126   0.314   2.553
 8742SOL     OW27124   3.009   1.653   2.325
 8742SOL    HW127125   3.076   1.605   2.382
 8742SOL    HW227126   2.979   1.736   2.372
 8743SOL     OW27127   0.380   2.192   1.476
 8743SOL    HW127128   0.304   2.253   1.499
 8743SOL    HW227129   0.453   2.245   1.432
 8744SOL     OW27130   3.260   4.524   5.773
 8744SOL    HW127131   3.269   4.525   5.872
 8744SOL    HW227132   3.238   4.431   5.743
 8745SOL     OW27133   5.526   0.991   6.358
 8745SOL    HW127134   5.593   1.058   6.326
 8745SOL    HW227135   5.560   0.946   6.441
 8746SOL     OW27136   4.885   5.491   5.069
 8746SOL    HW127137   4.958   5.512   5.134
 8746SOL    HW227138   4.824   5.422   5.108
 8747SOL     OW27139   0.248   0.704   2.122
 8747SOL    HW127140   0.164   0.651   2.135
 8747SOL    HW227141   0.307   0.657   2.056
 8748SOL     OW27142   6.426   1.991   3.625
 8748SOL    HW127143   6.463   2.020   3.713
 8748SOL    HW227144   6.465   2.048   3.552
 8749SOL     OW27145   2.973   1.342   3.622
 8749SOL    HW127146   2.988   1.355   3.720
 8749SOL    HW227147   2.909   1.412   3.589
 8750SOL     OW27148   4.014   3.683   7.014
 8750SOL    HW127149   4.027   3.757   6.948
 8750SOL    HW227150   4.047   3.711   0.084
 8751SOL     OW27151   1.709   6.151   0.838
 8751SOL    HW127152   1.742   6.085   0.770
 8751SOL    HW227153   1.614   6.175   0.818
 8752SOL     OW27154   5.983   3.114   6.177
 8752SOL    HW127155   5.976   3.083   6.082
 8752SOL    HW227156   6.029   3.202   6.180
 8753SOL     OW27157   2.527   2.434   0.854
 8753SOL    HW127158   2.590   2.356   0.847
 8753SOL    HW227159   2.538   2.477   0.943
 8754SOL     OW27160   1.819   4.947   6.765
 8754SOL    HW127161   1.852   4.882   6.833
 8754SOL    HW227162   1.762   4.899   6.698
 8755SOL     OW27163   6.905   2.642   1.567
 8755SOL    HW127164   6.848   2.653   1.649
 8755SOL    HW227165   6.988   2.697   1.577
 8756SOL     OW27166   2.204   1.830   1.648
 8756SOL    HW127167   2.276   1.881   1.600
 8756SOL    HW227168   2.227   1.733   1.648
 8757SOL     OW27169   5.525   6.027   5.362
 8757SOL    HW127170   5.569   5.971   5.292
 8757SOL    HW227171   5.538   5.986   5.452
 8758SOL     OW27172   3.578   5.217   5.049
 8758SOL    HW127173   3.526   5.249   4.970
 8758SOL    HW227174   3.662   5.271   5.058
 8759SOL     OW27175   5.981   0.738   0.345
 8759SOL    HW127176   5.955   0.787   0.428
 8759SOL    HW227177   5.963   0.796   0.265
 8760SOL     OW27178   2.799   2.311   4.053
 8760SOL    HW127179   2.896   2.300   4.076
 8760SOL    HW227180   2.789   2.381   3.982
 8761SOL     OW27181   5.755   1.509   2.739
 8761SOL    HW127182   5.697   1.582   2.705
 8761SOL    HW227183   5.729   1.486   2.833
 8762SOL     OW27184   2.533   5.192   3.168
 8762SOL    HW127185   2.528   5.092   3.174
 8762SOL    HW227186   2.519   5.220   3.074
 8763SOL     OW27187   0.689   0.820   6.924
 8763SOL    HW127188   0.681   0.919   6.941
 8763SOL    HW227189   0.781   0.790   6.946
 8764SOL     OW27190   2.736   5.026   5.173
 8764SOL    HW127191   2.685   4.996   5.092
 8764SOL    HW227192   2.820   5.072   5.144
 8765SOL     OW27193   5.020   0.209   4.431
 8765SOL    HW127194   4.976   0.280   4.376
 8765SOL    HW227195   5.068   0.251   4.508
 8766SOL     OW27196   4.736   5.979   5.914
 8766SOL    HW127197   4.830   5.994   5.945
 8766SOL    HW227198   4.737   5.922   5.831
 8767SOL     OW27199   2.076   1.687   4.138
 8767SOL    HW127200   2.051   1.692   4.234
 8767SOL    HW227201   2.175   1.686   4.128
 8768SOL     OW27202   6.402   1.605   6.538
 8768SOL    HW127203   6.305   1.588   6.521
 8768SOL    HW227204   6.451   1.608   6.451
 8769SOL     OW27205   6.672   6.854   0.209
 8769SOL    HW127206   6.628   6.919   0.271
 8769SOL    HW227207   6.666   6.888   0.116
 8770SOL     OW27208   5.477   3.370   0.637
 8770SOL    HW127209   5.386   3.338   0.662
 8770SOL    HW227210   5.501   3.450   0.693
 8771SOL     OW27211   0.633   3.089   0.301
 8771SOL    HW127212   0.675   3.179   0.289
 8771SOL    HW227213   0.659   3.029   0.225
 8772SOL     OW27214   6.687   6.808   4.299
 8772SOL    HW127215   6.660   6.712   4.297
 8772SOL    HW227216   6.704   6.840   4.206
 8773SOL     OW27217   0.037   1.197   4.285
 8773SOL    HW127218   7.017   1.213   4.376
 8773SOL    HW227219   7.014   1.117   4.244
 8774SOL     OW27220   1.536   1.686   0.507
 8774SOL    HW127221   1.540   1.780   0.542
 8774SOL    HW227222   1.448   1.671   0.462
 8775SOL     OW27223   5.742   2.435   4.179
 8775SOL    HW127224   5.648   2.467   4.188
 8775SOL    HW227225   5.787   2.484   4.104
 8776SOL     OW27226   4.192   2.706   0.475
 8776SOL    HW127227   4.173   2.792   0.428
 8776SOL    HW227228   4.266   2.719   0.541
 8777SOL     OW27229   6.938   1.921   2.983
 8777SOL    HW127230   0.016   1.906   2.973
 8777SOL    HW227231   6.922   2.013   3.019
 8778SOL     OW27232   3.060   4.924   0.002
 8778SOL    HW127233   2.966   4.953   0.020
 8778SOL    HW227234   3.060   4.832   6.984
 8779SOL     OW27235   4.364   4.994   3.496
 8779SOL    HW127236   4.382   4.945   3.411
 8779SOL    HW227237   4.283   5.052   3.484
 8780SOL     OW27238   6.427   4.916   4.020
 8780SOL    HW127239   6.377   4.905   4.106
 8780SOL    HW227240   6.379   4.868   3.946
 8781SOL     OW27241   3.239   0.426   2.034
 8781SOL    HW127242   3.293   0.373   1.968
 8781SOL    HW227243   3.186   0.495   1.985
 8782SOL     OW27244   4.704   2.213   0.731
 8782SOL    HW127245   4.790   2.219   0.681
 8782SOL    HW227246   4.633   2.175   0.671
 8783SOL     OW27247   5.180   3.732   4.663
 8783SOL    HW127248   5.260   3.774   4.619
 8783SOL    HW227249   5.135   3.671   4.598
 8784SOL     OW27250   5.498   1.375   1.517
 8784SOL    HW127251   5.558   1.299   1.489
 8784SOL    HW227252   5.404   1.342   1.526
 8785SOL     OW27253   0.351   5.474   5.579
 8785SOL    HW127254   0.362   5.400   5.512
 8785SOL    HW227255   0.416   5.547   5.559
 8786SOL     OW27256   4.606   2.001   3.016
 8786SOL    HW127257   4.562   2.041   2.936
 8786SOL    HW227258   4.540   1.993   3.090
 8787SOL     OW27259   3.837   6.409   0.921
 8787SOL    HW127260   3.900   6.485   0.911
 8787SOL    HW227261   3.857   6.360   1.006
 8788SOL     OW27262   0.968   0.105   3.776
 8788SOL    HW127263   0.987   0.183   3.837
 8788SOL    HW227264   0.923   0.138   3.694
 8789SOL     OW27265   6.915   2.431   6.386
 8789SOL    HW127266   6.847   2.455   6.455
 8789SOL    HW227267   6.886   2.350   6.336
 8790SOL     OW27268   4.936   3.490   5.764
 8790SOL    HW127269   4.891   3.408   5.728
 8790SOL    HW227270   4.895   3.514   5.852
 8791SOL     OW27271   3.880   5.756   4.943
 8791SOL    HW127272   3.813   5.755   5.018
 8791SOL    HW227273   3.935   5.840   4.950
 8792SOL     OW27274   4.985   4.840   1.662
 8792SOL    HW127275   5.062   4.781   1.687
 8792SOL    HW227276   4.900   4.803   1.701
 8793SOL     OW27277   0.028   5.801   4.337
 8793SOL    HW127278   0.112   5.757   4.368
 8793SOL    HW227279   0.022   5.797   4.238
 8794SOL     OW27280   6.949   1.153   2.375
 8794SOL    HW127281   7.016   1.079   2.364
 8794SOL    HW227282   6.988   1.225   2.433
 8795SOL     OW27283   1.169   5.925   6.517
 8795SOL    HW127284   1.237   5.959   6.582
 8795SOL    HW227285   1.192   5.956   6.425
 8796SOL     OW27286   6.621   3.649   3.590
 8796SOL    HW127287   6.706   3.601   3.566
 8796SOL    HW227288   6.632   3.692   3.679
 8797SOL     OW27289   4.707   0.198   3.964
 8797SOL    HW127290   4.764   0.130   4.010
 8797SOL    HW227291   4.750   0.288   3.972
 8798SOL     OW27292   3.302   6.730   5.895
 8798SOL    HW127293   3.268   6.821   5.869
 8798SOL    HW227294   3.343   6.686   5.816
 8799SOL     OW27295   0.840   4.376   1.764
 8799SOL    HW127296   0.847   4.471   1.794
 8799SOL    HW227297   0.930   4.333   1.770
 8800SOL     OW27298   7.007   5.254   5.115
 8800SOL    HW127299   7.002   5.321   5.190
 8800SOL    HW227300   0.049   5.180   5.141
 8801SOL     OW27301   5.600   3.120   5.272
 8801SOL    HW127302   5.507   3.152   5.252
 8801SOL    HW227303   5.596   3.040   5.331
 8802SOL     OW27304   1.357   6.870   6.398
 8802SOL    HW127305   1.321   6.851   6.490
 8802SOL    HW227306   1.354   6.787   6.343
 8803SOL     OW27307   6.220   6.589   6.568
 8803SOL    HW127308   6.226   6.504   6.620
 8803SOL    HW227309   6.211   6.567   6.471
 8804SOL     OW27310   1.629   6.311   2.715
 8804SOL    HW127311   1.564   6.258   2.771
 8804SOL    HW227312   1.599   6.406   2.710
 8805SOL     OW27313   5.505   5.081   3.767
 8805SOL    HW127314   5.563   5.002   3.785
 8805SOL    HW227315   5.489   5.131   3.852
 8806SOL     OW27316   2.015   0.137   0.885
 8806SOL    HW127317   2.041   0.200   0.958
 8806SOL    HW227318   1.933   0.171   0.839
 8807SOL     OW27319   4.763   3.183   1.410
 8807SOL    HW127320   4.813   3.097   1.423
 8807SOL    HW227321   4.743   3.195   1.312
 8808SOL     OW27322   1.933   2.780   0.023
 8808SOL    HW127323   1.910   2.690   0.061
 8808SOL    HW227324   1.870   2.802   6.969
 8809SOL     OW27325   0.259   4.033   3.216
 8809SOL    HW127326   0.177   4.048   3.161
 8809SOL    HW227327   0.336   4.083   3.175
 8810SOL     OW27328   0.956   0.962   5.213
 8810SOL    HW127329   0.988   1.057   5.208
 8810SOL    HW227330   0.997   0.910   5.138
 8811SOL     OW27331   3.862   5.557   1.960
 8811SOL    HW127332   3.942   5.499   1.942
 8811SOL    HW227333   3.780   5.500   1.965
 8812SOL     OW27334   4.229   1.330   6.483
 8812SOL    HW127335   4.323   1.330   6.448
 8812SOL    HW227336   4.185   1.244   6.458
 8813SOL     OW27337   2.059   3.833   3.136
 8813SOL    HW127338   2.109   3.805   3.218
 8813SOL    HW227339   2.119   3.886   3.076
 8814SOL     OW27340   5.226   0.860   5.831
 8814SOL    HW127341   5.324   0.875   5.846
 8814SOL    HW227342   5.176   0.877   5.916
 8815SOL     OW27343   5.540   1.202   0.063
 8815SOL    HW127344   5.567   1.105   0.063
 8815SOL    HW227345   5.445   1.210   0.094
 8816SOL     OW27346   1.244   5.914   4.635
 8816SOL    HW127347   1.199   6.003   4.628
 8816SOL    HW227348   1.194   5.856   4.700
 8817SOL     OW27349   1.860   2.596   3.327
 8817SOL    HW127350   1.914   2.679   3.339
 8817SOL    HW227351   1.801   2.605   3.247
 8818SOL     OW27352   1.178   0.387   5.447
 8818SOL    HW127353   1.104   0.323   5.431
 8818SOL    HW227354   1.192   0.444   5.366
 8819SOL     OW27355   5.194   4.722   6.455
 8819SOL    HW127356   5.108   4.771   6.473
 8819SOL    HW227357   5.179   4.653   6.384
 8820SOL     OW27358   3.259   0.524   5.294
 8820SOL    HW127359   3.272   0.532   5.393
 8820SOL    HW227360   3.329   0.578   5.246
 8821SOL     OW27361   6.622   4.507   6.656
 8821SOL    HW127362   6.591   4.493   6.750
 8821SOL    HW227363   6.545   4.539   6.601
 8822SOL     OW27364   6.881   0.436   4.078
 8822SOL    HW127365   6.947   0.471   4.144
 8822SOL    HW227366   6.799   0.405   4.126
 8823SOL     OW27367   4.124   1.497   2.672
 8823SOL    HW127368   4.123   1.576   2.733
 8823SOL    HW227369   4.152   1.415   2.723
 8824SOL     OW27370   1.565   0.793   1.481
 8824SOL    HW127371   1.491   0.829   1.537
 8824SOL    HW227372   1.646   0.850   1.492
 8825SOL     OW27373   0.097   6.269   0.326
 8825SOL    HW127374   0.184   6.309   0.295
 8825SOL    HW227375   0.085   6.180   0.283
 8826SOL     OW27376   1.603   3.839   0.904
 8826SOL    HW127377   1.562   3.852   0.814
 8826SOL    HW227378   1.575   3.913   0.965
 8827SOL     OW27379   4.771   0.508   2.774
 8827SOL    HW127380   4.730   0.572   2.710
 8827SOL    HW227381   4.701   0.477   2.839
 8828SOL     OW27382   3.667   2.098   5.943
 8828SOL    HW127383   3.699   2.184   5.901
 8828SOL    HW227384   3.682   2.102   6.042
 8829SOL     OW27385   6.368   0.980   1.935
 8829SOL    HW127386   6.409   1.044   1.870
 8829SOL    HW227387   6.319   0.908   1.885
 8830SOL     OW27388   2.673   0.464   3.323
 8830SOL    HW127389   2.688   0.399   3.249
 8830SOL    HW227390   2.614   0.539   3.291
 8831SOL     OW27391   0.243   3.026   1.895
 8831SOL    HW127392   0.293   3.054   1.813
 8831SOL    HW227393   0.234   3.104   1.957
 8832SOL     OW27394   5.841   0.939   4.872
 8832SOL    HW127395   5.928   0.943   4.822
 8832SOL    HW227396   5.855   0.974   4.965
 8833SOL     OW27397   4.909   2.723   1.283
 8833SOL    HW127398   4.974   2.656   1.320
 8833SOL    HW227399   4.874   2.691   1.195
 8834SOL     OW27400   5.426   4.052   5.507
 8834SOL    HW127401   5.335   4.092   5.498
 8834SOL    HW227402   5.426   3.986   5.582
 8835SOL     OW27403   0.454   0.491   6.227
 8835SOL    HW127404   0.373   0.493   6.167
 8835SOL    HW227405   0.425   0.471   6.321
 8836SOL     OW27406   4.660   2.098   1.335
 8836SOL    HW127407   4.698   2.066   1.421
 8836SOL    HW227408   4.562   2.079   1.332
 8837SOL     OW27409   4.165   6.829   0.534
 8837SOL    HW127410   4.146   6.863   0.442
 8837SOL    HW227411   4.233   6.756   0.530
 8838SOL     OW27412   1.376   3.849   3.171
 8838SOL    HW127413   1.456   3.830   3.114
 8838SOL    HW227414   1.362   3.773   3.235
 8839SOL     OW27415   4.998   5.630   3.012
 8839SOL    HW127416   4.924   5.662   2.953
 8839SOL    HW227417   4.964   5.622   3.106
 8840SOL     OW27418   7.006   0.664   1.355
 8840SOL    HW127419   6.955   0.597   1.303
 8840SOL    HW227420   6.969   0.671   1.448
 8841SOL     OW27421   3.679   0.391   1.099
 8841SOL    HW127422   3.696   0.490   1.100
 8841SOL    HW227423   3.626   0.367   1.018
 8842SOL     OW27424   3.836   3.519   4.613
 8842SOL    HW127425   3.933   3.495   4.612
 8842SOL    HW227426   3.784   3.455   4.556
 8843SOL     OW27427   2.726   5.831   6.691
 8843SOL    HW127428   2.789   5.788   6.755
 8843SOL    HW227429   2.663   5.761   6.655
 8844SOL     OW27430   3.641   2.270   6.481
 8844SOL    HW127431   3.554   2.223   6.498
 8844SOL    HW227432   3.666   2.324   6.561
 8845SOL     OW27433   6.601   4.279   1.932
 8845SOL    HW127434   6.597   4.194   1.983
 8845SOL    HW227435   6.683   4.330   1.959
 8846SOL     OW27436   5.788   4.240   5.178
 8846SOL    HW127437   5.710   4.238   5.241
 8846SOL    HW227438   5.855   4.307   5.209
 8847SOL     OW27439   2.696   1.391   3.878
 8847SOL    HW127440   2.705   1.395   3.778
 8847SOL    HW227441   2.630   1.459   3.909
 8848SOL     OW27442   4.168   1.488   0.665
 8848SOL    HW127443   4.124   1.427   0.731
 8848SOL    HW227444   4.253   1.446   0.633
 8849SOL     OW27445   2.996   4.859   4.381
 8849SOL    HW127446   3.046   4.924   4.324
 8849SOL    HW227447   3.034   4.860   4.474
 8850SOL     OW27448   3.162   0.761   1.662
 8850SOL    HW127449   3.216   0.835   1.704
 8850SOL    HW227450   3.194   0.745   1.569
 8851SOL     OW27451   7.002   4.983   2.077
 8851SOL    HW127452   7.002   4.950   2.171
 8851SOL    HW227453   6.925   5.046   2.063
 8852SOL     OW27454   4.333   2.301   4.629
 8852SOL    HW127455   4.358   2.223   4.687
 8852SOL    HW227456   4.246   2.281   4.584
 8853SOL     OW27457   4.228   1.815   5.741
 8853SOL    HW127458   4.298   1.855   5.681
 8853SOL    HW227459   4.271   1.782   5.825
 8854SOL     OW27460   1.145   1.739   6.768
 8854SOL    HW127461   1.166   1.760   6.672
 8854SOL    HW227462   1.200   1.798   6.827
 8855SOL     OW27463   6.228   5.654   0.040
 8855SOL    HW127464   6.182   5.601   0.111
 8855SOL    HW227465   6.272   5.734   0.081
 8856SOL     OW27466   5.823   1.127   4.449
 8856SOL    HW127467   5.737   1.118   4.400
 8856SOL    HW227468   5.806   1.153   4.544
 8857SOL     OW27469   0.009   2.786   4.862
 8857SOL    HW127470   0.084   2.819   4.920
 8857SOL    HW227471   0.021   2.821   4.769
 8858SOL     OW27472   0.191   3.889   6.718
 8858SOL    HW127473   0.118   3.833   6.757
 8858SOL    HW227474   0.151   3.953   6.652
 8859SOL     OW27475   2.929   5.121   5.490
 8859SOL    HW127476   3.013   5.085   5.447
 8859SOL    HW227477   2.860   5.137   5.420
 8860SOL     OW27478   1.459   2.521   1.497
 8860SOL    HW127479   1.401   2.511   1.416
 8860SOL    HW227480   1.430   2.456   1.567
 8861SOL     OW27481   3.250   3.630   6.999
 8861SOL    HW127482   3.207   3.560   6.941
 8861SOL    HW227483   3.349   3.614   7.002
 8862SOL     OW27484   6.400   2.567   4.306
 8862SOL    HW127485   6.466   2.556   4.232
 8862SOL    HW227486   6.410   2.491   4.371
 8863SOL     OW27487   2.302   5.236   5.038
 8863SOL    HW127488   2.273   5.166   4.973
 8863SOL    HW227489   2.308   5.325   4.992
 8864SOL     OW27490   0.722   2.374   6.190
 8864SOL    HW127491   0.683   2.336   6.106
 8864SOL    HW227492   0.759   2.300   6.247
 8865SOL     OW27493   3.027   2.259   6.269
 8865SOL    HW127494   3.058   2.272   6.363
 8865SOL    HW227495   3.031   2.346   6.220
 8866SOL     OW27496   3.856   6.951   4.259
 8866SOL    HW127497   3.907   6.974   4.176
 8866SOL    HW227498   3.858   0.009   4.321
 8867SOL     OW27499   0.370   3.293   3.783
 8867SOL    HW127500   0.378   3.382   3.740
 8867SOL    HW227501   0.276   3.260   3.777
 8868SOL     OW27502   3.935   3.465   0.523
 8868SOL    HW127503   3.923   3.405   0.602
 8868SOL    HW227504   4.028   3.503   0.524
 8869SOL     OW27505   5.973   3.086   4.246
 8869SOL    HW127506   6.018   3.160   4.296
 8869SOL    HW227507   6.022   3.000   4.263
 8870SOL     OW27508   4.572   1.246   1.309
 8870SOL    HW127509   4.575   1.345   1.316
 8870SOL    HW227510   4.631   1.217   1.233
 8871SOL     OW27511   1.768   2.370   4.859
 8871SOL    HW127512   1.793   2.320   4.777
 8871SOL    HW227513   1.844   2.367   4.924
 8872SOL     OW27514   1.654   3.615   3.969
 8872SOL    HW127515   1.635   3.519   3.951
 8872SOL    HW227516   1.747   3.637   3.942
 8873SOL     OW27517   7.004   6.041   4.846
 8873SOL    HW127518   0.027   6.131   4.833
 8873SOL    HW227519   6.988   5.999   4.758
 8874SOL     OW27520   2.442   1.016   0.376
 8874SOL    HW127521   2.395   0.937   0.337
 8874SOL    HW227522   2.436   1.012   0.476
 8875SOL     OW27523   1.697   2.410   4.440
 8875SOL    HW127524   1.691   2.498   4.487
 8875SOL    HW227525   1.606   2.383   4.408
 8876SOL     OW27526   1.617   0.081   4.201
 8876SOL    HW127527   1.700   0.117   4.159
 8876SOL    HW227528   1.537   0.120   4.156
 8877SOL     OW27529   2.656   6.974   4.890
 8877SOL    HW127530   2.603   6.997   4.808
 8877SOL    HW227531   2.664   6.874   4.897
 8878SOL     OW27532   5.903   4.284   6.679
 8878SOL    HW127533   5.868   4.375   6.660
 8878SOL    HW227534   5.943   4.245   6.597
 8879SOL     OW27535   4.439   5.950   4.449
 8879SOL    HW127536   4.531   5.932   4.414
 8879SOL    HW227537   4.444   6.021   4.519
 8880SOL     OW27538   0.477   5.326   5.383
 8880SOL    HW127539   0.565   5.340   5.428
 8880SOL    HW227540   0.490   5.318   5.284
 8881SOL     OW27541   6.579   0.365   1.635
 8881SOL    HW127542   6.552   0.331   1.545
 8881SOL    HW227543   6.568   0.465   1.637
 8882SOL     OW27544   5.524   1.991   6.772
 8882SOL    HW127545   5.430   1.958   6.762
 8882SOL    HW227546   5.571   1.936   6.841
 8883SOL     OW27547   6.871   1.039   5.848
 8883SOL    HW127548   6.890   1.116   5.910
 8883SOL    HW227549   6.818   0.969   5.897
 8884SOL     OW27550   6.535   0.397   5.913
 8884SOL    HW127551   6.443   0.379   5.879
 8884SOL    HW227552   6.536   0.385   6.013
 8885SOL     OW27553   5.137   4.346   1.699
 8885SOL    HW127554   5.201   4.407   1.652
 8885SOL    HW227555   5.137   4.367   1.797
 8886SOL     OW27556   3.020   6.843   6.990
 8886SOL    HW127557   3.013   6.914   0.040
 8886SOL    HW227558   3.051   6.885   6.904
 8887SOL     OW27559   2.369   1.058   1.038
 8887SOL    HW127560   2.467   1.074   1.038
 8887SOL    HW227561   2.347   0.983   1.101
 8888SOL     OW27562   2.739   1.441   2.550
 8888SOL    HW127563   2.675   1.455   2.475
 8888SOL    HW227564   2.698   1.475   2.635
 8889SOL     OW27565   3.895   0.712   5.510
 8889SOL    HW127566   3.916   0.626   5.557
 8889SOL    HW227567   3.841   0.692   5.428
 8890SOL     OW27568   0.980   4.906   4.254
 8890SOL    HW127569   0.908   4.849   4.294
 8890SOL    HW227570   1.026   4.957   4.326
 8891SOL     OW27571   3.717   1.935   6.646
 8891SOL    HW127572   3.708   1.891   6.735
 8891SOL    HW227573   3.657   1.889   6.580
 8892SOL     OW27574   1.028   5.847   2.425
 8892SOL    HW127575   1.098   5.899   2.474
 8892SOL    HW227576   1.006   5.893   2.339
 8893SOL     OW27577   0.761   1.228   1.142
 8893SOL    HW127578   0.673   1.239   1.097
 8893SOL    HW227579   0.779   1.131   1.158
 8894SOL     OW27580   4.049   2.792   6.383
 8894SOL    HW127581   4.078   2.747   6.467
 8894SOL    HW227582   4.120   2.782   6.313
 8895SOL     OW27583   0.369   6.281   2.633
 8895SOL    HW127584   0.416   6.267   2.545
 8895SOL    HW227585   0.283   6.330   2.617
 8896SOL     OW27586   1.601   3.648   5.288
 8896SOL    HW127587   1.684   3.659   5.232
 8896SOL    HW227588   1.626   3.610   5.377
 8897SOL     OW27589   1.701   2.428   1.347
 8897SOL    HW127590   1.723   2.484   1.267
 8897SOL    HW227591   1.603   2.406   1.347
 8898SOL     OW27592   5.463   4.158   4.544
 8898SOL    HW127593   5.392   4.092   4.522
 8898SOL    HW227594   5.490   4.148   4.640
 8899SOL     OW27595   1.811   4.121   6.915
 8899SOL    HW127596   1.885   4.121   6.982
 8899SOL    HW227597   1.741   4.186   6.942
 8900SOL     OW27598   5.500   2.235   3.533
 8900SOL    HW127599   5.520   2.332   3.525
 8900SOL    HW227600   5.489   2.196   3.442
 8901SOL     OW27601   1.743   0.022   3.032
 8901SOL    HW127602   1.735   0.121   3.032
 8901SOL    HW227603   1.840   7.017   3.028
 8902SOL     OW27604   1.585   5.424   6.154
 8902SOL    HW127605   1.558   5.375   6.236
 8902SOL    HW227606   1.648   5.368   6.100
 8903SOL     OW27607   1.522   1.262   3.264
 8903SOL    HW127608   1.566   1.251   3.175
 8903SOL    HW227609   1.541   1.353   3.300
 8904SOL     OW27610   1.580   6.368   3.072
 8904SOL    HW127611   1.569   6.364   3.171
 8904SOL    HW227612   1.595   6.463   3.044
 8905SOL     OW27613   2.776   4.005   5.361
 8905SOL    HW127614   2.751   4.084   5.418
 8905SOL    HW227615   2.693   3.959   5.329
 8906SOL     OW27616   0.709   5.849   5.744
 8906SOL    HW127617   0.752   5.827   5.656
 8906SOL    HW227618   0.638   5.782   5.764
 8907SOL     OW27619   3.317   2.776   5.698
 8907SOL    HW127620   3.232   2.824   5.676
 8907SOL    HW227621   3.391   2.810   5.640
 8908SOL     OW27622   0.596   2.433   1.036
 8908SOL    HW127623   0.518   2.476   1.081
 8908SOL    HW227624   0.650   2.384   1.105
 8909SOL     OW27625   2.701   0.277   6.572
 8909SOL    HW127626   2.662   0.266   6.663
 8909SOL    HW227627   2.699   0.189   6.524
 8910SOL     OW27628   3.609   4.184   6.958
 8910SOL    HW127629   3.705   4.171   6.932
 8910SOL    HW227630   3.577   4.105   7.010
 8911SOL     OW27631   3.431   2.112   3.730
 8911SOL    HW127632   3.345   2.146   3.767
 8911SOL    HW227633   3.414   2.031   3.674
 8912SOL     OW27634   5.228   2.974   5.859
 8912SOL    HW127635   5.171   2.939   5.933
 8912SOL    HW227636   5.204   3.069   5.839
 8913SOL     OW27637   5.246   3.996   0.836
 8913SOL    HW127638   5.297   4.055   0.775
 8913SOL    HW227639   5.148   4.008   0.821
 8914SOL     OW27640   4.046   2.187   4.662
 8914SOL    HW127641   4.080   2.181   4.568
 8914SOL    HW227642   3.964   2.130   4.672
 8915SOL     OW27643   1.154   4.787   2.120
 8915SOL    HW127644   1.101   4.869   2.139
 8915SOL    HW227645   1.121   4.712   2.177
 8916SOL     OW27646   6.577   3.393   1.966
 8916SOL    HW127647   6.660   3.344   1.994
 8916SOL    HW227648   6.504   3.375   2.031
 8917SOL     OW27649   6.172   5.519   6.621
 8917SOL    HW127650   6.130   5.481   6.703
 8917SOL    HW227651   6.162   5.619   6.622
 8918SOL     OW27652   4.730   5.283   6.380
 8918SOL    HW127653   4.631   5.273   6.391
 8918SOL    HW227654   4.751   5.380   6.366
 8919SOL     OW27655   2.330   4.817   0.904
 8919SOL    HW127656   2.406   4.801   0.967
 8919SOL    HW227657   2.336   4.753   0.828
 8920SOL     OW27658   6.377   5.823   5.607
 8920SOL    HW127659   6.277   5.826   5.606
 8920SOL    HW227660   6.412   5.910   5.641
 8921SOL     OW27661   1.557   0.234   3.779
 8921SOL    HW127662   1.629   0.280   3.830
 8921SOL    HW227663   1.579   0.137   3.769
 8922SOL     OW27664   6.766   4.222   6.614
 8922SOL    HW127665   6.845   4.184   6.664
 8922SOL    HW227666   6.736   4.305   6.659
 8923SOL     OW27667   2.574   4.261   5.760
 8923SOL    HW127668   2.618   4.346   5.731
 8923SOL    HW227669   2.596   4.243   5.856
 8924SOL     OW27670   2.816   4.944   5.731
 8924SOL    HW127671   2.796   5.029   5.778
 8924SOL    HW227672   2.867   4.963   5.647
 8925SOL     OW27673   6.418   6.490   1.981
 8925SOL    HW127674   6.449   6.530   1.895
 8925SOL    HW227675   6.497   6.455   2.032
 8926SOL     OW27676   5.738   1.449   1.034
 8926SOL    HW127677   5.729   1.455   1.133
 8926SOL    HW227678   5.726   1.354   1.005
 8927SOL     OW27679   2.551   1.714   5.235
 8927SOL    HW127680   2.496   1.699   5.317
 8927SOL    HW227681   2.525   1.801   5.193
 8928SOL     OW27682   0.032   6.915   5.290
 8928SOL    HW127683   0.077   6.827   5.277
 8928SOL    HW227684   0.101   6.987   5.298
 8929SOL     OW27685   6.055   4.004   3.443
 8929SOL    HW127686   6.086   4.092   3.409
 8929SOL    HW227687   6.025   4.013   3.537
 8930SOL     OW27688   0.721   4.892   4.866
 8930SOL    HW127689   0.635   4.853   4.835
 8930SOL    HW227690   0.743   4.854   4.956
 8931SOL     OW27691   5.073   0.813   0.773
 8931SOL    HW127692   4.977   0.835   0.790
 8931SOL    HW227693   5.113   0.884   0.714
 8932SOL     OW27694   6.687   0.539   6.847
 8932SOL    HW127695   6.773   0.527   6.797
 8932SOL    HW227696   6.669   0.636   6.859
 8933SOL     OW27697   1.423   6.487   5.632
 8933SOL    HW127698   1.393   6.391   5.633
 8933SOL    HW227699   1.517   6.494   5.665
 8934SOL     OW27700   4.015   6.390   3.001
 8934SOL    HW127701   4.002   6.421   3.095
 8934SOL    HW227702   3.961   6.447   2.939
 8935SOL     OW27703   5.555   2.476   3.398
 8935SOL    HW127704   5.476   2.510   3.348
 8935SOL    HW227705   5.638   2.494   3.346
 8936SOL     OW27706   1.473   4.643   2.244
 8936SOL    HW127707   1.394   4.646   2.305
 8936SOL    HW227708   1.442   4.641   2.149
 8937SOL     OW27709   5.103   6.717   5.269
 8937SOL    HW127710   5.088   6.636   5.326
 8937SOL    HW227711   5.145   6.689   5.182
 8938SOL     OW27712   5.915   0.258   1.363
 8938SOL    HW127713   5.825   0.215   1.368
 8938SOL    HW227714   5.914   0.342   1.417
 8939SOL     OW27715   0.114   3.382   3.849
 8939SOL    HW127716   0.141   3.462   3.795
 8939SOL    HW227717   0.126   3.402   3.946
 8940SOL     OW27718   5.930   2.266   0.406
 8940SOL    HW127719   5.930   2.198   0.479
 8940SOL    HW227720   5.843   2.315   0.406
 8941SOL     OW27721   4.152   2.971   1.775
 8941SOL    HW127722   4.150   2.875   1.745
 8941SOL    HW227723   4.114   2.977   1.867
 8942SOL     OW27724   5.707   4.206   4.438
 8942SOL    HW127725   5.687   4.284   4.377
 8942SOL    HW227726   5.622   4.171   4.476
 8943SOL     OW27727   4.609   4.295   0.075
 8943SOL    HW127728   4.564   4.238   0.144
 8943SOL    HW227729   4.686   4.343   0.116
 8944SOL     OW27730   5.633   5.619   4.726
 8944SOL    HW127731   5.713   5.568   4.759
 8944SOL    HW227732   5.570   5.556   4.681
 8945SOL     OW27733   5.567   4.438   4.053
 8945SOL    HW127734   5.570   4.373   3.977
 8945SOL    HW227735   5.472   4.469   4.066
 8946SOL     OW27736   4.913   1.112   5.251
 8946SOL    HW127737   4.847   1.094   5.178
 8946SOL    HW227738   4.987   1.169   5.216
 8947SOL     OW27739   1.996   5.396   6.853
 8947SOL    HW127740   2.049   5.420   6.934
 8947SOL    HW227741   2.012   5.299   6.830
 8948SOL     OW27742   5.740   0.968   2.840
 8948SOL    HW127743   5.704   1.035   2.905
 8948SOL    HW227744   5.826   1.002   2.802
 8949SOL     OW27745   3.642   6.453   0.744
 8949SOL    HW127746   3.712   6.424   0.809
 8949SOL    HW227747   3.577   6.514   0.789
 8950SOL     OW27748   3.614   3.395   0.649
 8950SOL    HW127749   3.654   3.485   0.665
 8950SOL    HW227750   3.549   3.374   0.722
 8951SOL     OW27751   1.982   1.685   4.381
 8951SOL    HW127752   2.009   1.767   4.432
 8951SOL    HW227753   1.919   1.631   4.437
 8952SOL     OW27754   1.819   3.805   4.384
 8952SOL    HW127755   1.861   3.786   4.295
 8952SOL    HW227756   1.725   3.837   4.370
 8953SOL     OW27757   1.245   4.257   1.257
 8953SOL    HW127758   1.235   4.198   1.177
 8953SOL    HW227759   1.159   4.304   1.275
 8954SOL     OW27760   2.332   5.055   5.417
 8954SOL    HW127761   2.401   5.118   5.380
 8954SOL    HW227762   2.374   4.966   5.434
 8955SOL     OW27763   6.139   2.347   4.471
 8955SOL    HW127764   6.039   2.350   4.471
 8955SOL    HW227765   6.175   2.425   4.419
 8956SOL     OW27766   0.589   5.681   6.986
 8956SOL    HW127767   0.571   5.590   6.949
 8956SOL    HW227768   0.509   5.713   0.017
 8957SOL     OW27769   6.895   6.188   3.076
 8957SOL    HW127770   6.992   6.169   3.089
 8957SOL    HW227771   6.855   6.117   3.018
 8958SOL     OW27772   1.763   2.937   5.035
 8958SOL    HW127773   1.859   2.951   5.061
 8958SOL    HW227774   1.755   2.856   4.978
 8959SOL     OW27775   6.728   2.383   2.540
 8959SOL    HW127776   6.789   2.383   2.619
 8959SOL    HW227777   6.714   2.477   2.508
 8960SOL     OW27778   5.557   4.669   3.266
 8960SOL    HW127779   5.536   4.602   3.337
 8960SOL    HW227780   5.567   4.760   3.307
 8961SOL     OW27781   1.720   1.145   5.400
 8961SOL    HW127782   1.762   1.129   5.311
 8961SOL    HW227783   1.641   1.085   5.411
 8962SOL     OW27784   6.876   5.812   2.311
 8962SOL    HW127785   6.790   5.779   2.350
 8962SOL    HW227786   6.904   5.750   2.237
 8963SOL     OW27787   4.878   6.930   5.169
 8963SOL    HW127788   4.907   7.018   5.206
 8963SOL    HW227789   4.923   6.856   5.220
 8964SOL     OW27790   1.405   3.251   4.244
 8964SOL    HW127791   1.342   3.209   4.310
 8964SOL    HW227792   1.485   3.288   4.293
 8965SOL     OW27793   4.077   5.618   6.344
 8965SOL    HW127794   4.087   5.677   6.264
 8965SOL    HW227795   3.997   5.646   6.397
 8966SOL     OW27796   4.027   5.564   5.342
 8966SOL    HW127797   4.028   5.572   5.242
 8966SOL    HW227798   4.014   5.469   5.368
 8967SOL     OW27799   2.871   6.949   3.994
 8967SOL    HW127800   2.877   7.016   3.920
 8967SOL    HW227801   2.942   6.880   3.983
 8968SOL     OW27802   3.676   5.380   2.084
 8968SOL    HW127803   3.600   5.377   2.148
 8968SOL    HW227804   3.653   5.329   2.001
 8969SOL     OW27805   1.028   0.789   2.783
 8969SOL    HW127806   0.968   0.856   2.826
 8969SOL    HW227807   1.123   0.820   2.789
 8970SOL     OW27808   1.551   0.450   4.128
 8970SOL    HW127809   1.608   0.434   4.048
 8970SOL    HW227810   1.555   0.546   4.154
 8971SOL     OW27811   3.334   4.724   0.423
 8971SOL    HW127812   3.303   4.769   0.339
 8971SOL    HW227813   3.434   4.722   0.424
 8972SOL     OW27814   6.397   3.725   6.935
 8972SOL    HW127815   6.355   3.802   6.984
 8972SOL    HW227816   6.364   3.723   6.841
 8973SOL     OW27817   1.385   2.282   3.469
 8973SOL    HW127818   1.374   2.321   3.378
 8973SOL    HW227819   1.388   2.356   3.537
 8974SOL     OW27820   2.120   4.360   4.476
 8974SOL    HW127821   2.055   4.284   4.473
 8974SOL    HW227822   2.184   4.346   4.552
 8975SOL     OW27823   0.063   5.545   5.847
 8975SOL    HW127824   7.000   5.555   5.901
 8975SOL    HW227825   0.107   5.634   5.835
 8976SOL     OW27826   6.131   6.658   2.230
 8976SOL    HW127827   6.188   6.584   2.266
 8976SOL    HW227828   6.049   6.619   2.189
 8977SOL     OW27829   6.642   4.842   5.885
 8977SOL    HW127830   6.678   4.756   5.921
 8977SOL    HW227831   6.558   4.824   5.834
 8978SOL     OW27832   5.792   6.018   6.510
 8978SOL    HW127833   5.813   6.113   6.488
 8978SOL    HW227834   5.809   6.001   6.607
 8979SOL     OW27835   1.484   4.973   4.923
 8979SOL    HW127836   1.525   5.023   5.000
 8979SOL    HW227837   1.445   5.038   4.858
 8980SOL     OW27838   3.609   7.018   6.796
 8980SOL    HW127839   3.572   0.017   6.705
 8980SOL    HW227840   3.583   0.072   6.858
 8981SOL     OW27841   4.577   3.289   6.734
 8981SOL    HW127842   4.565   3.328   6.826
 8981SOL    HW227843   4.487   3.266   6.696
 8982SOL     OW27844   0.335   1.988   1.661
 8982SOL    HW127845   0.349   2.075   1.614
 8982SOL    HW227846   0.424   1.950   1.687
 8983SOL     OW27847   1.420   6.806   1.947
 8983SOL    HW127848   1.344   6.780   1.887
 8983SOL    HW227849   1.502   6.755   1.920
 8984SOL     OW27850   0.032   0.643   4.139
 8984SOL    HW127851   0.013   0.659   4.236
 8984SOL    HW227852   0.129   0.622   4.128
 8985SOL     OW27853   5.077   1.978   1.139
 8985SOL    HW127854   5.019   1.933   1.070
 8985SOL    HW227855   5.023   2.045   1.189
 8986SOL     OW27856   6.751   4.700   0.585
 8986SOL    HW127857   6.762   4.606   0.551
 8986SOL    HW227858   6.705   4.755   0.515
 8987SOL     OW27859   2.125   0.008   1.888
 8987SOL    HW127860   2.103   6.942   1.935
 8987SOL    HW227861   2.224   0.012   1.872
 8988SOL     OW27862   2.077   6.114   1.980
 8988SOL    HW127863   1.980   6.105   2.005
 8988SOL    HW227864   2.103   6.211   1.982
 8989SOL     OW27865   5.350   1.824   2.920
 8989SOL    HW127866   5.277   1.758   2.902
 8989SOL    HW227867   5.389   1.855   2.833
 8990SOL     OW27868   3.292   0.767   2.140
 8990SOL    HW127869   3.228   0.783   2.065
 8990SOL    HW227870   3.242   0.732   2.220
 8991SOL     OW27871   1.633   1.366   0.793
 8991SOL    HW127872   1.645   1.396   0.698
 8991SOL    HW227873   1.582   1.279   0.793
 8992SOL     OW27874   1.177   4.040   6.481
 8992SOL    HW127875   1.086   4.018   6.515
 8992SOL    HW227876   1.221   4.103   6.545
 8993SOL     OW27877   6.127   3.759   4.183
 8993SOL    HW127878   6.118   3.848   4.227
 8993SOL    HW227879   6.117   3.769   4.084
 8994SOL     OW27880   1.125   5.394   2.823
 8994SOL    HW127881   1.175   5.452   2.887
 8994SOL    HW227882   1.180   5.381   2.740
 8995SOL     OW27883   2.044   3.930   4.893
 8995SOL    HW127884   2.109   4.002   4.915
 8995SOL    HW227885   1.955   3.971   4.871
 8996SOL     OW27886   1.048   3.648   1.801
 8996SOL    HW127887   0.948   3.653   1.805
 8996SOL    HW227888   1.075   3.564   1.754
 8997SOL     OW27889   4.118   2.130   5.392
 8997SOL    HW127890   4.116   2.180   5.478
 8997SOL    HW227891   4.105   2.032   5.410
 8998SOL     OW27892   0.544   1.590   5.997
 8998SOL    HW127893   0.626   1.636   6.032
 8998SOL    HW227894   0.569   1.500   5.962
 8999SOL     OW27895   6.348   0.853   5.236
 8999SOL    HW127896   6.368   0.869   5.333
 8999SOL    HW227897   6.317   0.759   5.224
 9000SOL     OW27898   2.677   4.350   0.556
 9000SOL    HW127899   2.665   4.253   0.537
 9000SOL    HW227900   2.775   4.371   0.559
 9001SOL     OW27901   1.649   4.587   3.496
 9001SOL    HW127902   1.575   4.623   3.439
 9001SOL    HW227903   1.647   4.631   3.585
 9002SOL     OW27904   5.038   4.598   6.226
 9002SOL    HW127905   5.027   4.584   6.128
 9002SOL    HW227906   4.965   4.658   6.259
 9003SOL     OW27907   5.581   2.824   5.670
 9003SOL    HW127908   5.546   2.858   5.583
 9003SOL    HW227909   5.513   2.762   5.711
 9004SOL     OW27910   4.252   5.630   0.615
 9004SOL    HW127911   4.232   5.543   0.571
 9004SOL    HW227912   4.349   5.652   0.604
 9005SOL     OW27913   4.663   1.967   3.362
 9005SOL    HW127914   4.584   1.973   3.301
 9005SOL    HW227915   4.664   1.876   3.405
 9006SOL     OW27916   1.728   6.459   0.717
 9006SOL    HW127917   1.655   6.443   0.650
 9006SOL    HW227918   1.743   6.376   0.771
 9007SOL     OW27919   2.999   6.557   4.760
 9007SOL    HW127920   3.004   6.461   4.731
 9007SOL    HW227921   3.070   6.575   4.828
 9008SOL     OW27922   6.657   4.570   2.555
 9008SOL    HW127923   6.612   4.636   2.615
 9008SOL    HW227924   6.593   4.498   2.531
 9009SOL     OW27925   3.717   6.311   1.328
 9009SOL    HW127926   3.784   6.271   1.390
 9009SOL    HW227927   3.698   6.405   1.356
 9010SOL     OW27928   1.404   5.953   5.239
 9010SOL    HW127929   1.359   6.038   5.266
 9010SOL    HW227930   1.484   5.937   5.297
 9011SOL     OW27931   4.076   2.136   1.363
 9011SOL    HW127932   4.067   2.050   1.313
 9011SOL    HW227933   4.042   2.124   1.456
 9012SOL     OW27934   6.650   5.636   1.351
 9012SOL    HW127935   6.739   5.636   1.306
 9012SOL    HW227936   6.661   5.615   1.448
 9013SOL     OW27937   4.832   6.275   3.697
 9013SOL    HW127938   4.871   6.184   3.702
 9013SOL    HW227939   4.856   6.327   3.779
 9014SOL     OW27940   3.376   1.129   0.843
 9014SOL    HW127941   3.384   1.121   0.743
 9014SOL    HW227942   3.331   1.047   0.879
 9015SOL     OW27943   6.725   1.072   5.621
 9015SOL    HW127944   6.781   1.051   5.701
 9015SOL    HW227945   6.779   1.124   5.555
 9016SOL     OW27946   6.957   6.406   6.032
 9016SOL    HW127947   0.028   6.372   6.006
 9016SOL    HW227948   6.906   6.431   5.950
 9017SOL     OW27949   0.248   4.059   3.701
 9017SOL    HW127950   0.325   4.011   3.744
 9017SOL    HW227951   0.193   4.104   3.772
 9018SOL     OW27952   3.499   2.352   5.608
 9018SOL    HW127953   3.417   2.331   5.662
 9018SOL    HW227954   3.511   2.281   5.538
 9019SOL     OW27955   1.992   6.969   0.462
 9019SOL    HW127956   1.922   6.944   0.528
 9019SOL    HW227957   2.083   6.953   0.502
 9020SOL     OW27958   0.361   5.013   3.036
 9020SOL    HW127959   0.458   5.030   3.019
 9020SOL    HW227960   0.352   4.940   3.104
 9021SOL     OW27961   6.513   6.045   5.432
 9021SOL    HW127962   6.481   6.135   5.460
 9021SOL    HW227963   6.552   6.050   5.340
 9022SOL     OW27964   3.148   1.016   6.730
 9022SOL    HW127965   3.197   0.984   6.648
 9022SOL    HW227966   3.215   1.051   6.796
 9023SOL     OW27967   3.740   2.898   2.953
 9023SOL    HW127968   3.687   2.959   2.894
 9023SOL    HW227969   3.763   2.815   2.903
 9024SOL     OW27970   1.767   7.014   6.863
 9024SOL    HW127971   1.729   0.045   6.786
 9024SOL    HW227972   1.694   6.968   6.912
 9025SOL     OW27973   6.236   4.299   1.143
 9025SOL    HW127974   6.170   4.344   1.083
 9025SOL    HW227975   6.195   4.216   1.182
 9026SOL     OW27976   3.444   2.999   5.586
 9026SOL    HW127977   3.507   3.046   5.649
 9026SOL    HW227978   3.399   3.067   5.527
 9027SOL     OW27979   2.380   2.751   2.950
 9027SOL    HW127980   2.362   2.783   3.043
 9027SOL    HW227981   2.342   2.816   2.884
 9028SOL     OW27982   2.599   4.659   4.708
 9028SOL    HW127983   2.645   4.743   4.681
 9028SOL    HW227984   2.655   4.610   4.775
 9029SOL     OW27985   5.185   5.291   3.664
 9029SOL    HW127986   5.199   5.205   3.713
 9029SOL    HW227987   5.189   5.275   3.565
 9030SOL     OW27988   2.984   1.527   1.884
 9030SOL    HW127989   3.043   1.460   1.839
 9030SOL    HW227990   2.989   1.515   1.983
 9031SOL     OW27991   2.238   0.711   0.095
 9031SOL    HW127992   2.197   0.619   0.092
 9031SOL    HW227993   2.322   0.708   0.149
 9032SOL     OW27994   1.378   1.465   1.984
 9032SOL    HW127995   1.333   1.482   2.071
 9032SOL    HW227996   1.355   1.538   1.919
 9033SOL     OW27997   0.523   3.056   2.523
 9033SOL    HW127998   0.505   3.040   2.426
 9033SOL    HW227999   0.597   2.996   2.553
 9034SOL     OW28000   3.067   0.244   5.961
 9034SOL    HW128001   3.046   0.264   6.057
 9034SOL    HW228002   3.059   0.328   5.907
 9035SOL     OW28003   6.907   1.175   4.514
 9035SOL    HW128004   6.882   1.235   4.590
 9035SOL    HW228005   6.829   1.117   4.490
 9036SOL     OW28006   1.284   2.392   4.838
 9036SOL    HW128007   1.326   2.368   4.926
 9036SOL    HW228008   1.186   2.402   4.850
 9037SOL     OW28009   1.837   3.910   5.789
 9037SOL    HW128010   1.913   3.871   5.840
 9037SOL    HW228011   1.820   4.004   5.820
 9038SOL     OW28012   5.461   6.684   5.183
 9038SOL    HW128013   5.447   6.593   5.145
 9038SOL    HW228014   5.559   6.706   5.181
 9039SOL     OW28015   2.289   5.594   5.738
 9039SOL    HW128016   2.261   5.512   5.689
 9039SOL    HW228017   2.362   5.572   5.802
 9040SOL     OW28018   1.863   0.804   1.800
 9040SOL    HW128019   1.900   0.712   1.789
 9040SOL    HW228020   1.808   0.827   1.719
 9041SOL     OW28021   1.635   3.320   0.314
 9041SOL    HW128022   1.649   3.372   0.230
 9041SOL    HW228023   1.723   3.292   0.351
 9042SOL     OW28024   3.021   5.386   3.622
 9042SOL    HW128025   2.970   5.415   3.703
 9042SOL    HW228026   2.979   5.303   3.584
 9043SOL     OW28027   6.570   2.000   6.673
 9043SOL    HW128028   6.549   2.078   6.614
 9043SOL    HW228029   6.505   1.927   6.656
 9044SOL     OW28030   6.273   5.249   0.092
 9044SOL    HW128031   6.316   5.168   0.054
 9044SOL    HW228032   6.268   5.241   0.192
 9045SOL     OW28033   3.594   6.279   4.069
 9045SOL    HW128034   3.607   6.190   4.024
 9045SOL    HW228035   3.560   6.265   4.162
 9046SOL     OW28036   3.140   3.843   5.583
 9046SOL    HW128037   3.109   3.749   5.599
 9046SOL    HW228038   3.062   3.905   5.590
 9047SOL     OW28039   1.108   4.522   4.634
 9047SOL    HW128040   1.059   4.609   4.639
 9047SOL    HW228041   1.139   4.507   4.540
 9048SOL     OW28042   1.381   3.261   4.638
 9048SOL    HW128043   1.300   3.317   4.620
 9048SOL    HW228044   1.452   3.283   4.570
 9049SOL     OW28045   5.257   5.750   6.142
 9049SOL    HW128046   5.243   5.740   6.043
 9049SOL    HW228047   5.279   5.845   6.163
 9050SOL     OW28048   0.150   5.819   5.840
 9050SOL    HW128049   0.054   5.847   5.835
 9050SOL    HW228050   0.174   5.802   5.936
 9051SOL     OW28051   5.226   6.550   5.858
 9051SOL    HW128052   5.288   6.487   5.810
 9051SOL    HW228053   5.278   6.604   5.924
 9052SOL     OW28054   2.749   5.497   4.488
 9052SOL    HW128055   2.715   5.408   4.519
 9052SOL    HW228056   2.721   5.512   4.393
 9053SOL     OW28057   2.784   1.542   3.525
 9053SOL    HW128058   2.749   1.570   3.436
 9053SOL    HW228059   2.718   1.567   3.597
 9054SOL     OW28060   3.672   0.269   1.564
 9054SOL    HW128061   3.705   0.198   1.626
 9054SOL    HW228062   3.626   0.227   1.486
 9055SOL     OW28063   1.195   1.583   4.111
 9055SOL    HW128064   1.200   1.485   4.128
 9055SOL    HW228065   1.125   1.624   4.170
 9056SOL     OW28066   5.630   1.143   3.025
 9056SOL    HW128067   5.555   1.114   3.085
 9056SOL    HW228068   5.637   1.243   3.027
 9057SOL     OW28069   4.629   6.335   6.687
 9057SOL    HW128070   4.583   6.288   6.762
 9057SOL    HW228071   4.633   6.275   6.607
 9058SOL     OW28072   1.648   2.994   5.267
 9058SOL    HW128073   1.684   2.976   5.176
 9058SOL    HW228074   1.720   3.029   5.326
 9059SOL     OW28075   0.090   1.174   3.365
 9059SOL    HW128076   0.188   1.156   3.371
 9059SOL    HW228077   0.041   1.113   3.427
 9060SOL     OW28078   0.701   4.903   1.476
 9060SOL    HW128079   0.784   4.882   1.423
 9060SOL    HW228080   0.683   5.001   1.473
 9061SOL     OW28081   6.013   4.217   2.374
 9061SOL    HW128082   5.923   4.173   2.378
 9061SOL    HW228083   6.042   4.244   2.466
 9062SOL     OW28084   0.644   5.490   2.948
 9062SOL    HW128085   0.651   5.589   2.953
 9062SOL    HW228086   0.698   5.456   2.871
 9063SOL     OW28087   4.448   1.641   1.942
 9063SOL    HW128088   4.367   1.594   1.907
 9063SOL    HW228089   4.423   1.734   1.968
 9064SOL     OW28090   1.109   5.411   3.461
 9064SOL    HW128091   1.184   5.399   3.396
 9064SOL    HW228092   1.134   5.483   3.527
 9065SOL     OW28093   2.589   4.503   5.386
 9065SOL    HW128094   2.607   4.418   5.434
 9065SOL    HW228095   2.657   4.571   5.412
 9066SOL     OW28096   5.020   5.041   4.907
 9066SOL    HW128097   5.047   5.014   4.815
 9066SOL    HW228098   4.923   5.063   4.909
 9067SOL     OW28099   1.406   6.352   4.365
 9067SOL    HW128100   1.427   6.333   4.269
 9067SOL    HW228101   1.328   6.415   4.371
 9068SOL     OW28102   5.057   6.698   5.701
 9068SOL    HW128103   5.118   6.665   5.773
 9068SOL    HW228104   4.976   6.640   5.696
 9069SOL     OW28105   5.316   1.893   1.262
 9069SOL    HW128106   5.222   1.925   1.248
 9069SOL    HW228107   5.328   1.805   1.216
 9070SOL     OW28108   1.148   2.200   5.842
 9070SOL    HW128109   1.118   2.108   5.816
 9070SOL    HW228110   1.095   2.231   5.921
 9071SOL     OW28111   4.977   2.296   5.934
 9071SOL    HW128112   5.003   2.375   5.878
 9071SOL    HW228113   5.014   2.308   6.026
 9072SOL     OW28114   5.087   1.064   2.384
 9072SOL    HW128115   5.142   1.043   2.465
 9072SOL    HW228116   5.135   1.034   2.302
 9073SOL     OW28117   4.615   1.568   5.670
 9073SOL    HW128118   4.604   1.537   5.576
 9073SOL    HW228119   4.697   1.526   5.709
 9074SOL     OW28120   1.485   0.382   1.656
 9074SOL    HW128121   1.579   0.400   1.687
 9074SOL    HW228122   1.482   0.294   1.610
 9075SOL     OW28123   5.787   6.367   0.801
 9075SOL    HW128124   5.778   6.446   0.741
 9075SOL    HW228125   5.794   6.397   0.896
 9076SOL     OW28126   6.625   0.476   2.531
 9076SOL    HW128127   6.563   0.466   2.454
 9076SOL    HW228128   6.716   0.443   2.506
 9077SOL     OW28129   6.378   1.485   6.157
 9077SOL    HW128130   6.316   1.554   6.193
 9077SOL    HW228131   6.383   1.493   6.057
 9078SOL     OW28132   5.149   6.061   6.902
 9078SOL    HW128133   5.105   5.977   6.934
 9078SOL    HW228134   5.087   6.110   6.840
 9079SOL     OW28135   1.825   0.996   6.501
 9079SOL    HW128136   1.853   1.071   6.442
 9079SOL    HW228137   1.758   1.029   6.568
 9080SOL     OW28138   5.807   3.589   1.509
 9080SOL    HW128139   5.783   3.686   1.499
 9080SOL    HW228140   5.798   3.563   1.605
 9081SOL     OW28141   4.429   1.762   6.910
 9081SOL    HW128142   4.429   1.856   6.876
 9081SOL    HW228143   4.439   1.698   6.834
 9082SOL     OW28144   3.405   5.776   5.804
 9082SOL    HW128145   3.436   5.701   5.862
 9082SOL    HW228146   3.386   5.741   5.712
 9083SOL     OW28147   4.008   5.379   6.565
 9083SOL    HW128148   4.009   5.347   6.470
 9083SOL    HW228149   4.036   5.304   6.626
 9084SOL     OW28150   6.867   2.096   5.917
 9084SOL    HW128151   6.878   2.128   5.823
 9084SOL    HW228152   6.933   2.143   5.976
 9085SOL     OW28153   1.984   4.906   0.176
 9085SOL    HW128154   1.889   4.928   0.157
 9085SOL    HW228155   2.029   4.874   0.093
 9086SOL     OW28156   6.993   4.563   1.032
 9086SOL    HW128157   6.948   4.570   1.121
 9086SOL    HW228158   0.055   4.622   1.032
 9087SOL     OW28159   6.192   1.223   2.012
 9087SOL    HW128160   6.153   1.131   2.013
 9087SOL    HW228161   6.162   1.273   2.093
 9088SOL     OW28162   6.640   6.508   0.725
 9088SOL    HW128163   6.692   6.546   0.802
 9088SOL    HW228164   6.617   6.582   0.661
 9089SOL     OW28165   5.178   5.486   3.876
 9089SOL    HW128166   5.188   5.432   3.793
 9089SOL    HW228167   5.263   5.536   3.894
 9090SOL     OW28168   5.769   6.310   5.162
 9090SOL    HW128169   5.831   6.336   5.237
 9090SOL    HW228170   5.822   6.265   5.090
 9091SOL     OW28171   2.264   1.760   1.266
 9091SOL    HW128172   2.169   1.770   1.237
 9091SOL    HW228173   2.274   1.677   1.320
 9092SOL     OW28174   1.782   0.270   6.032
 9092SOL    HW128175   1.812   0.344   5.972
 9092SOL    HW228176   1.701   0.299   6.082
 9093SOL     OW28177   2.375   4.650   0.675
 9093SOL    HW128178   2.452   4.713   0.688
 9093SOL    HW228179   2.351   4.648   0.578
 9094SOL     OW28180   6.828   4.843   1.479
 9094SOL    HW128181   6.828   4.929   1.428
 9094SOL    HW228182   6.737   4.801   1.473
 9095SOL     OW28183   3.367   3.102   6.881
 9095SOL    HW128184   3.292   3.041   6.857
 9095SOL    HW228185   3.454   3.056   6.868
 9096SOL     OW28186   5.361   2.380   2.951
 9096SOL    HW128187   5.406   2.291   2.949
 9096SOL    HW228188   5.347   2.413   2.857
 9097SOL     OW28189   0.590   4.940   6.318
 9097SOL    HW128190   0.552   4.927   6.409
 9097SOL    HW228191   0.672   4.997   6.324
 9098SOL     OW28192   3.799   3.821   2.664
 9098SOL    HW128193   3.770   3.834   2.569
 9098SOL    HW228194   3.826   3.725   2.677
 9099SOL     OW28195   2.672   3.634   1.046
 9099SOL    HW128196   2.684   3.554   1.104
 9099SOL    HW228197   2.613   3.611   0.969
 9100SOL     OW28198   0.394   2.746   0.793
 9100SOL    HW128199   0.309   2.713   0.753
 9100SOL    HW228200   0.453   2.782   0.721
 9101SOL     OW28201   1.973   2.173   1.572
 9101SOL    HW128202   1.940   2.163   1.479
 9101SOL    HW228203   1.899   2.204   1.631
 9102SOL     OW28204   3.371   5.416   2.459
 9102SOL    HW128205   3.325   5.489   2.509
 9102SOL    HW228206   3.458   5.450   2.423
 9103SOL     OW28207   0.628   3.939   0.514
 9103SOL    HW128208   0.711   3.969   0.467
 9103SOL    HW228209   0.649   3.922   0.611
 9104SOL     OW28210   4.475   6.983   1.241
 9104SOL    HW128211   4.534   6.971   1.161
 9104SOL    HW228212   4.504   6.919   1.313
 9105SOL     OW28213   1.411   2.066   6.129
 9105SOL    HW128214   1.465   2.065   6.214
 9105SOL    HW228215   1.472   2.053   6.051
 9106SOL     OW28216   5.757   4.825   0.684
 9106SOL    HW128217   5.663   4.856   0.676
 9106SOL    HW228218   5.819   4.898   0.656
 9107SOL     OW28219   4.537   0.338   1.329
 9107SOL    HW128220   4.457   0.377   1.284
 9107SOL    HW228221   4.579   0.271   1.268
 9108SOL     OW28222   4.553   5.125   5.284
 9108SOL    HW128223   4.518   5.036   5.252
 9108SOL    HW228224   4.604   5.111   5.369
 9109SOL     OW28225   3.345   1.679   3.791
 9109SOL    HW128226   3.340   1.581   3.805
 9109SOL    HW228227   3.278   1.725   3.850
 9110SOL     OW28228   1.837   4.104   3.415
 9110SOL    HW128229   1.884   4.121   3.501
 9110SOL    HW228230   1.759   4.165   3.406
 9111SOL     OW28231   3.335   4.011   1.712
 9111SOL    HW128232   3.322   3.942   1.783
 9111SOL    HW228233   3.376   3.968   1.631
 9112SOL     OW28234   6.913   4.571   2.252
 9112SOL    HW128235   7.001   4.590   2.207
 9112SOL    HW228236   6.926   4.499   2.320
 9113SOL     OW28237   4.665   6.723   0.521
 9113SOL    HW128238   4.733   6.761   0.459
 9113SOL    HW228239   4.636   6.794   0.586
 9114SOL     OW28240   2.528   4.783   1.556
 9114SOL    HW128241   2.557   4.839   1.634
 9114SOL    HW228242   2.604   4.727   1.525
 9115SOL     OW28243   1.346   4.760   4.994
 9115SOL    HW128244   1.396   4.847   4.996
 9115SOL    HW228245   1.403   4.688   5.031
 9116SOL     OW28246   0.263   1.666   6.312
 9116SOL    HW128247   0.186   1.635   6.368
 9116SOL    HW228248   0.304   1.588   6.265
 9117SOL     OW28249   6.954   2.862   6.815
 9117SOL    HW128250   0.025   2.904   6.824
 9117SOL    HW228251   6.964   2.764   6.799
 9118SOL     OW28252   6.737   6.613   1.523
 9118SOL    HW128253   6.663   6.677   1.507
 9118SOL    HW228254   6.816   6.640   1.468
 9119SOL     OW28255   6.370   0.072   1.551
 9119SOL    HW128256   6.429   0.112   1.481
 9119SOL    HW228257   6.274   0.084   1.526
 9120SOL     OW28258   5.657   1.479   6.117
 9120SOL    HW128259   5.699   1.543   6.182
 9120SOL    HW228260   5.615   1.530   6.042
 9121SOL     OW28261   0.430   1.831   6.151
 9121SOL    HW128262   0.368   1.775   6.207
 9121SOL    HW228263   0.475   1.772   6.083
 9122SOL     OW28264   1.784   2.844   2.713
 9122SOL    HW128265   1.861   2.898   2.747
 9122SOL    HW228266   1.798   2.821   2.617
 9123SOL     OW28267   2.506   5.670   6.672
 9123SOL    HW128268   2.436   5.702   6.608
 9123SOL    HW228269   2.470   5.673   6.765
 9124SOL     OW28270   6.991   5.807   5.496
 9124SOL    HW128271   6.921   5.877   5.480
 9124SOL    HW228272   0.057   5.836   5.454
 9125SOL     OW28273   4.775   4.010   4.044
 9125SOL    HW128274   4.711   4.074   4.002
 9125SOL    HW228275   4.821   3.958   3.971
 9126SOL     OW28276   5.960   0.473   2.066
 9126SOL    HW128277   6.024   0.402   2.096
 9126SOL    HW228278   5.909   0.507   2.144
 9127SOL     OW28279   5.148   0.380   6.317
 9127SOL    HW128280   5.150   0.396   6.218
 9127SOL    HW228281   5.138   0.283   6.335
 9128SOL     OW28282   3.397   1.999   5.254
 9128SOL    HW128283   3.357   1.911   5.230
 9128SOL    HW228284   3.496   1.993   5.247
 9129SOL     OW28285   1.733   1.801   6.336
 9129SOL    HW128286   1.673   1.745   6.394
 9129SOL    HW228287   1.816   1.825   6.386
 9130SOL     OW28288   5.902   5.023   0.569
 9130SOL    HW128289   5.956   4.976   0.500
 9130SOL    HW228290   5.956   5.098   0.607
 9131SOL     OW28291   0.411   4.506   4.380
 9131SOL    HW128292   0.447   4.469   4.465
 9131SOL    HW228293   0.363   4.433   4.330
 9132SOL     OW28294   6.682   3.271   4.641
 9132SOL    HW128295   6.611   3.329   4.602
 9132SOL    HW228296   6.730   3.223   4.568
 9133SOL     OW28297   2.047   4.113   1.408
 9133SOL    HW128298   2.085   4.052   1.338
 9133SOL    HW228299   2.084   4.205   1.395
 9134SOL     OW28300   3.195   6.735   0.148
 9134SOL    HW128301   3.167   6.656   0.203
 9134SOL    HW228302   3.116   6.773   0.101
 9135SOL     OW28303   6.408   6.711   3.304
 9135SOL    HW128304   6.412   6.721   3.403
 9135SOL    HW228305   6.371   6.620   3.282
 9136SOL     OW28306   4.965   5.439   5.673
 9136SOL    HW128307   4.982   5.350   5.631
 9136SOL    HW228308   5.053   5.482   5.694
 9137SOL     OW28309   4.515   1.100   1.749
 9137SOL    HW128310   4.590   1.039   1.726
 9137SOL    HW228311   4.551   1.180   1.798
 9138SOL     OW28312   5.638   4.709   6.512
 9138SOL    HW128313   5.593   4.706   6.602
 9138SOL    HW228314   5.718   4.768   6.517
 9139SOL     OW28315   3.415   0.870   5.942
 9139SOL    HW128316   3.409   0.771   5.958
 9139SOL    HW228317   3.349   0.896   5.871
 9140SOL     OW28318   6.676   2.491   2.869
 9140SOL    HW128319   6.621   2.480   2.787
 9140SOL    HW228320   6.636   2.561   2.928
 9141SOL     OW28321   5.240   0.198   5.781
 9141SOL    HW128322   5.243   0.256   5.862
 9141SOL    HW228323   5.208   0.106   5.806
 9142SOL     OW28324   0.727   2.829   6.067
 9142SOL    HW128325   0.792   2.815   5.993
 9142SOL    HW228326   0.635   2.806   6.034
 9143SOL     OW28327   4.254   3.429   0.464
 9143SOL    HW128328   4.271   3.334   0.488
 9143SOL    HW228329   4.302   3.488   0.529
 9144SOL     OW28330   2.195   5.348   5.607
 9144SOL    HW128331   2.214   5.379   5.514
 9144SOL    HW228332   2.131   5.271   5.604
 9145SOL     OW28333   0.764   4.402   0.217
 9145SOL    HW128334   0.677   4.358   0.197
 9145SOL    HW228335   0.790   4.382   0.312
 9146SOL     OW28336   5.451   2.519   1.037
 9146SOL    HW128337   5.508   2.444   1.071
 9146SOL    HW228338   5.376   2.481   0.983
 9147SOL     OW28339   4.465   5.528   3.938
 9147SOL    HW128340   4.473   5.627   3.948
 9147SOL    HW228341   4.438   5.505   3.845
 9148SOL     OW28342   4.957   6.035   3.530
 9148SOL    HW128343   5.039   6.083   3.500
 9148SOL    HW228344   4.876   6.081   3.493
 9149SOL     OW28345   5.090   3.285   4.345
 9149SOL    HW128346   5.098   3.192   4.308
 9149SOL    HW228347   5.159   3.299   4.416
 9150SOL     OW28348   4.954   6.925   3.332
 9150SOL    HW128349   5.015   6.935   3.411
 9150SOL    HW228350   4.955   7.009   3.278
 9151SOL     OW28351   1.382   4.004   2.125
 9151SOL    HW128352   1.373   4.076   2.194
 9151SOL    HW228353   1.291   3.971   2.099
 9152SOL     OW28354   2.401   6.262   3.387
 9152SOL    HW128355   2.375   6.166   3.373
 9152SOL    HW228356   2.353   6.319   3.321
 9153SOL     OW28357   1.602   2.241   6.645
 9153SOL    HW128358   1.685   2.243   6.590
 9153SOL    HW228359   1.549   2.159   6.622
 9154SOL     OW28360   2.718   5.716   0.058
 9154SOL    HW128361   2.782   5.715   7.002
 9154SOL    HW228362   2.743   5.789   0.122
 9155SOL     OW28363   2.230   3.727   6.271
 9155SOL    HW128364   2.221   3.790   6.348
 9155SOL    HW228365   2.193   3.638   6.296
 9156SOL     OW28366   3.429   2.176   1.189
 9156SOL    HW128367   3.515   2.181   1.239
 9156SOL    HW228368   3.430   2.241   1.113
 9157SOL     OW28369   5.630   4.366   4.884
 9157SOL    HW128370   5.630   4.280   4.834
 9157SOL    HW228371   5.650   4.350   4.980
 9158SOL     OW28372   0.191   3.756   4.846
 9158SOL    HW128373   0.219   3.780   4.754
 9158SOL    HW228374   0.272   3.740   4.903
 9159SOL     OW28375   0.352   5.471   2.963
 9159SOL    HW128376   0.308   5.561   2.973
 9159SOL    HW228377   0.450   5.484   2.947
 9160SOL     OW28378   0.909   6.744   6.106
 9160SOL    HW128379   0.989   6.771   6.054
 9160SOL    HW228380   0.845   6.820   6.113
 9161SOL     OW28381   4.891   3.985   4.671
 9161SOL    HW128382   4.938   3.907   4.712
 9161SOL    HW228383   4.945   4.068   4.686
 9162SOL     OW28384   5.088   3.041   3.073
 9162SOL    HW128385   5.156   3.078   3.009
 9162SOL    HW228386   5.015   2.996   3.021
 9163SOL     OW28387   2.740   2.382   3.761
 9163SOL    HW128388   2.656   2.435   3.744
 9163SOL    HW228389   2.797   2.382   3.679
 9164SOL     OW28390   2.687   0.743   6.448
 9164SOL    HW128391   2.619   0.670   6.455
 9164SOL    HW228392   2.643   0.826   6.413
 9165SOL     OW28393   5.831   0.746   6.496
 9165SOL    HW128394   5.893   0.823   6.481
 9165SOL    HW228395   5.752   0.777   6.548
 9166SOL     OW28396   4.300   5.811   0.953
 9166SOL    HW128397   4.248   5.896   0.944
 9166SOL    HW228398   4.387   5.831   0.998
 9167SOL     OW28399   1.347   3.709   5.827
 9167SOL    HW128400   1.376   3.618   5.856
 9167SOL    HW228401   1.425   3.757   5.786
 9168SOL     OW28402   2.357   0.237   5.791
 9168SOL    HW128403   2.436   0.214   5.734
 9168SOL    HW228404   2.279   0.179   5.766
 9169SOL     OW28405   0.465   0.855   5.017
 9169SOL    HW128406   0.429   0.910   4.942
 9169SOL    HW228407   0.564   0.850   5.011
 9170SOL     OW28408   6.952   4.900   0.009
 9170SOL    HW128409   6.885   4.860   6.966
 9170SOL    HW228410   0.023   4.863   7.008
 9171SOL     OW28411   2.942   5.414   6.914
 9171SOL    HW128412   3.025   5.462   6.887
 9171SOL    HW228413   2.966   5.329   6.962
 9172SOL     OW28414   3.779   1.144   4.472
 9172SOL    HW128415   3.867   1.169   4.432
 9172SOL    HW228416   3.709   1.144   4.401
 9173SOL     OW28417   6.001   4.643   4.913
 9173SOL    HW128418   5.990   4.612   4.818
 9173SOL    HW228419   5.916   4.682   4.946
 9174SOL     OW28420   6.302   4.185   0.085
 9174SOL    HW128421   6.352   4.204   0.170
 9174SOL    HW228422   6.366   4.157   0.014
 9175SOL     OW28423   2.678   6.086   5.712
 9175SOL    HW128424   2.731   6.074   5.628
 9175SOL    HW228425   2.580   6.078   5.692
 9176SOL     OW28426   1.937   1.269   5.514
 9176SOL    HW128427   1.944   1.357   5.465
 9176SOL    HW228428   1.855   1.220   5.483
 9177SOL     OW28429   1.193   3.809   4.571
 9177SOL    HW128430   1.112   3.824   4.514
 9177SOL    HW228431   1.264   3.766   4.516
 9178SOL     OW28432   2.172   5.344   1.095
 9178SOL    HW128433   2.174   5.400   1.177
 9178SOL    HW228434   2.099   5.276   1.102
 9179SOL     OW28435   2.679   4.998   4.169
 9179SOL    HW128436   2.711   4.908   4.198
 9179SOL    HW228437   2.749   5.040   4.111
 9180SOL     OW28438   6.282   2.275   3.834
 9180SOL    HW128439   6.235   2.200   3.787
 9180SOL    HW228440   6.215   2.336   3.876
 9181SOL     OW28441   4.459   2.369   2.743
 9181SOL    HW128442   4.557   2.386   2.732
 9181SOL    HW228443   4.434   2.382   2.839
 9182SOL     OW28444   2.069   6.395   2.182
 9182SOL    HW128445   2.091   6.391   2.084
 9182SOL    HW228446   2.082   6.489   2.214
 9183SOL     OW28447   5.241   6.344   0.559
 9183SOL    HW128448   5.268   6.297   0.475
 9183SOL    HW228449   5.175   6.287   0.609
 9184SOL     OW28450   5.710   0.304   0.449
 9184SOL    HW128451   5.707   0.355   0.535
 9184SOL    HW228452   5.632   0.241   0.445
 9185SOL     OW28453   4.109   0.694   5.153
 9185SOL    HW128454   4.167   0.612   5.159
 9185SOL    HW228455   4.102   0.722   5.058
 9186SOL     OW28456   6.464   0.481   4.705
 9186SOL    HW128457   6.527   0.533   4.763
 9186SOL    HW228458   6.416   0.414   4.761
 9187SOL     OW28459   2.186   6.714   1.823
 9187SOL    HW128460   2.140   6.626   1.814
 9187SOL    HW228461   2.176   6.748   1.917
 9188SOL     OW28462   2.428   6.938   1.122
 9188SOL    HW128463   2.439   6.859   1.183
 9188SOL    HW228464   2.331   6.952   1.104
 9189SOL     OW28465   5.262   5.614   2.701
 9189SOL    HW128466   5.245   5.522   2.735
 9189SOL    HW228467   5.230   5.622   2.607
 9190SOL     OW28468   1.965   5.557   0.201
 9190SOL    HW128469   2.002   5.605   0.281
 9190SOL    HW228470   2.041   5.518   0.148
 9191SOL     OW28471   6.520   0.388   5.525
 9191SOL    HW128472   6.493   0.428   5.437
 9191SOL    HW228473   6.613   0.416   5.547
 9192SOL     OW28474   0.535   4.399   4.604
 9192SOL    HW128475   0.633   4.390   4.620
 9192SOL    HW228476   0.486   4.396   4.691
 9193SOL     OW28477   3.879   3.747   0.367
 9193SOL    HW128478   3.830   3.663   0.391
 9193SOL    HW228479   3.813   3.821   0.355
 9194SOL     OW28480   3.408   0.618   4.010
 9194SOL    HW128481   3.357   0.671   3.942
 9194SOL    HW228482   3.355   0.537   4.036
 9195SOL     OW28483   1.824   2.257   4.630
 9195SOL    HW128484   1.764   2.301   4.564
 9195SOL    HW228485   1.818   2.158   4.621
 9196SOL     OW28486   4.671   1.447   4.784
 9196SOL    HW128487   4.731   1.373   4.816
 9196SOL    HW228488   4.582   1.439   4.828
 9197SOL     OW28489   2.330   3.863   1.512
 9197SOL    HW128490   2.276   3.816   1.441
 9197SOL    HW228491   2.342   3.959   1.486
 9198SOL     OW28492   6.844   5.346   5.361
 9198SOL    HW128493   6.756   5.357   5.316
 9198SOL    HW228494   6.862   5.248   5.375
 9199SOL     OW28495   0.487   3.884   6.342
 9199SOL    HW128496   0.552   3.959   6.353
 9199SOL    HW228497   0.478   3.862   6.245
 9200SOL     OW28498   2.471   0.481   1.047
 9200SOL    HW128499   2.514   0.391   1.058
 9200SOL    HW228500   2.438   0.490   0.953
 9201SOL     OW28501   1.387   2.766   6.742
 9201SOL    HW128502   1.454   2.749   6.815
 9201SOL    HW228503   1.306   2.711   6.758
 9202SOL     OW28504   2.023   6.893   3.123
 9202SOL    HW128505   2.050   6.808   3.078
 9202SOL    HW228506   2.080   6.968   3.089
 9203SOL     OW28507   0.152   5.204   0.347
 9203SOL    HW128508   0.160   5.104   0.347
 9203SOL    HW228509   0.129   5.235   0.440
 9204SOL     OW28510   4.918   1.713   0.009
 9204SOL    HW128511   4.989   1.698   0.078
 9204SOL    HW228512   4.828   1.706   0.052
 9205SOL     OW28513   6.797   4.255   2.953
 9205SOL    HW128514   6.710   4.210   2.935
 9205SOL    HW228515   6.871   4.204   2.909
 9206SOL     OW28516   3.448   6.165   0.531
 9206SOL    HW128517   3.462   6.199   0.437
 9206SOL    HW228518   3.448   6.065   0.531
 9207SOL     OW28519   4.393   5.431   0.083
 9207SOL    HW128520   4.335   5.408   0.161
 9207SOL    HW228521   4.343   5.414   7.018
 9208SOL     OW28522   6.075   4.221   4.057
 9208SOL    HW128523   6.113   4.154   3.994
 9208SOL    HW228524   6.097   4.195   4.151
 9209SOL     OW28525   2.906   1.613   6.852
 9209SOL    HW128526   2.897   1.544   6.923
 9209SOL    HW228527   2.920   1.569   6.764
 9210SOL     OW28528   6.288   1.415   2.824
 9210SOL    HW128529   6.237   1.435   2.740
 9210SOL    HW228530   6.329   1.324   2.817
 9211SOL     OW28531   0.125   2.972   4.003
 9211SOL    HW128532   0.203   3.016   4.047
 9211SOL    HW228533   0.132   2.873   4.014
 9212SOL     OW28534   3.828   5.316   4.044
 9212SOL    HW128535   3.756   5.267   4.094
 9212SOL    HW228536   3.849   5.401   4.093
 9213SOL     OW28537   5.851   3.075   5.590
 9213SOL    HW128538   5.928   3.106   5.646
 9213SOL    HW228539   5.879   2.998   5.534
 9214SOL     OW28540   0.254   5.548   6.196
 9214SOL    HW128541   0.282   5.517   6.287
 9214SOL    HW228542   0.200   5.631   6.204
 9215SOL     OW28543   1.176   1.235   0.405
 9215SOL    HW128544   1.089   1.198   0.373
 9215SOL    HW228545   1.161   1.299   0.480
 9216SOL     OW28546   2.683   7.013   3.591
 9216SOL    HW128547   2.692   0.029   3.499
 9216SOL    HW228548   2.607   0.038   3.638
 9217SOL     OW28549   0.472   1.076   6.455
 9217SOL    HW128550   0.489   1.174   6.462
 9217SOL    HW228551   0.476   1.035   6.546
 9218SOL     OW28552   3.515   6.710   0.570
 9218SOL    HW128553   3.573   6.680   0.494
 9218SOL    HW228554   3.501   6.809   0.564
 9219SOL     OW28555   1.033   2.836   0.774
 9219SOL    HW128556   0.997   2.745   0.792
 9219SOL    HW228557   0.962   2.892   0.730
 9220SOL     OW28558   3.328   6.638   1.284
 9220SOL    HW128559   3.301   6.592   1.369
 9220SOL    HW228560   3.366   6.570   1.221
 9221SOL     OW28561   3.263   0.092   4.334
 9221SOL    HW128562   3.339   0.051   4.385
 9221SOL    HW228563   3.276   0.191   4.328
 9222SOL     OW28564   2.478   0.943   6.458
 9222SOL    HW128565   2.396   0.944   6.402
 9222SOL    HW228566   2.452   0.936   6.555
 9223SOL     OW28567   1.276   2.965   4.999
 9223SOL    HW128568   1.225   3.039   5.043
 9223SOL    HW228569   1.351   2.936   5.058
 9224SOL     OW28570   2.833   5.451   3.799
 9224SOL    HW128571   2.749   5.481   3.753
 9224SOL    HW228572   2.813   5.429   3.894
 9225SOL     OW28573   3.188   6.774   6.363
 9225SOL    HW128574   3.160   6.694   6.416
 9225SOL    HW228575   3.110   6.808   6.311
 9226SOL     OW28576   4.792   6.309   1.445
 9226SOL    HW128577   4.840   6.382   1.396
 9226SOL    HW228578   4.823   6.308   1.541
 9227SOL     OW28579   0.989   5.209   3.192
 9227SOL    HW128580   1.017   5.170   3.105
 9227SOL    HW228581   1.063   5.266   3.228
 9228SOL     OW28582   1.655   1.279   6.066
 9228SOL    HW128583   1.707   1.336   6.002
 9228SOL    HW228584   1.622   1.198   6.019
 9229SOL     OW28585   1.559   5.322   3.737
 9229SOL    HW128586   1.583   5.280   3.649
 9229SOL    HW228587   1.557   5.252   3.808
 9230SOL     OW28588   5.675   0.433   3.221
 9230SOL    HW128589   5.685   0.336   3.245
 9230SOL    HW228590   5.736   0.455   3.146
 9231SOL     OW28591   1.601   3.148   4.052
 9231SOL    HW128592   1.530   3.188   4.111
 9231SOL    HW228593   1.629   3.059   4.089
 9232SOL     OW28594   3.823   5.103   0.648
 9232SOL    HW128595   3.859   5.034   0.586
 9232SOL    HW228596   3.741   5.068   0.694
 9233SOL     OW28597   5.732   5.400   1.479
 9233SOL    HW128598   5.718   5.446   1.391
 9233SOL    HW228599   5.823   5.358   1.480
 9234SOL     OW28600   2.675   5.541   3.368
 9234SOL    HW128601   2.672   5.514   3.272
 9234SOL    HW228602   2.597   5.501   3.417
 9235SOL     OW28603   1.923   1.820   3.210
 9235SOL    HW128604   1.886   1.910   3.190
 9235SOL    HW228605   1.868   1.776   3.281
 9236SOL     OW28606   3.374   4.040   5.517
 9236SOL    HW128607   3.454   4.061   5.461
 9236SOL    HW228608   3.339   3.949   5.493
 9237SOL     OW28609   1.377   4.332   4.037
 9237SOL    HW128610   1.293   4.346   4.088
 9237SOL    HW228611   1.361   4.349   3.940
 9238SOL     OW28612   4.798   2.570   6.394
 9238SOL    HW128613   4.712   2.596   6.349
 9238SOL    HW228614   4.821   2.637   6.464
 9239SOL     OW28615   0.167   3.997   1.073
 9239SOL    HW128616   0.160   4.068   1.004
 9239SOL    HW228617   0.103   3.923   1.051
 9240SOL     OW28618   5.134   1.467   0.860
 9240SOL    HW128619   5.154   1.390   0.800
 9240SOL    HW228620   5.045   1.507   0.835
 9241SOL     OW28621   0.079   5.216   6.601
 9241SOL    HW128622   0.026   5.293   6.638
 9241SOL    HW228623   0.176   5.236   6.607
 9242SOL     OW28624   0.106   6.006   1.268
 9242SOL    HW128625   0.039   5.937   1.295
 9242SOL    HW228626   0.060   6.093   1.254
 9243SOL     OW28627   0.265   6.050   4.148
 9243SOL    HW128628   0.199   6.012   4.082
 9243SOL    HW228629   0.358   6.035   4.115
 9244SOL     OW28630   4.593   5.565   6.782
 9244SOL    HW128631   4.590   5.468   6.758
 9244SOL    HW228632   4.614   5.575   6.879
 9245SOL     OW28633   1.209   5.456   2.571
 9245SOL    HW128634   1.237   5.527   2.507
 9245SOL    HW228635   1.123   5.415   2.541
 9246SOL     OW28636   6.832   5.347   3.712
 9246SOL    HW128637   6.879   5.263   3.685
 9246SOL    HW228638   6.737   5.344   3.681
 9247SOL     OW28639   1.303   0.038   3.199
 9247SOL    HW128640   1.252   7.019   3.275
 9247SOL    HW228641   1.372   0.102   3.234
 9248SOL     OW28642   2.815   2.504   5.998
 9248SOL    HW128643   2.911   2.501   5.971
 9248SOL    HW228644   2.761   2.450   5.933
 9249SOL     OW28645   5.813   1.860   4.948
 9249SOL    HW128646   5.846   1.855   4.854
 9249SOL    HW228647   5.757   1.780   4.968
 9250SOL     OW28648   4.959   4.023   4.301
 9250SOL    HW128649   4.981   3.944   4.359
 9250SOL    HW228650   4.900   3.993   4.226
 9251SOL     OW28651   3.575   1.285   3.457
 9251SOL    HW128652   3.631   1.240   3.527
 9251SOL    HW228653   3.607   1.258   3.366
 9252SOL     OW28654   6.932   0.313   4.675
 9252SOL    HW128655   6.923   0.329   4.577
 9252SOL    HW228656   7.019   0.270   4.694
 9253SOL     OW28657   2.633   6.311   6.140
 9253SOL    HW128658   2.602   6.264   6.223
 9253SOL    HW228659   2.605   6.259   6.060
 9254SOL     OW28660   6.005   4.104   1.136
 9254SOL    HW128661   5.956   4.069   1.216
 9254SOL    HW228662   6.011   4.031   1.067
 9255SOL     OW28663   4.883   3.085   0.184
 9255SOL    HW128664   4.787   3.110   0.177
 9255SOL    HW228665   4.932   3.153   0.239
 9256SOL     OW28666   4.143   4.782   2.159
 9256SOL    HW128667   4.186   4.851   2.100
 9256SOL    HW228668   4.051   4.764   2.127
 9257SOL     OW28669   0.958   3.976   2.601
 9257SOL    HW128670   1.012   4.050   2.561
 9257SOL    HW228671   1.019   3.914   2.650
 9258SOL     OW28672   3.694   3.410   3.786
 9258SOL    HW128673   3.692   3.400   3.885
 9258SOL    HW228674   3.632   3.343   3.745
 9259SOL     OW28675   1.018   2.316   0.983
 9259SOL    HW128676   1.063   2.227   0.992
 9259SOL    HW228677   0.938   2.308   0.924
 9260SOL     OW28678   4.752   2.967   5.890
 9260SOL    HW128679   4.769   2.889   5.830
 9260SOL    HW228680   4.670   2.949   5.945
 9261SOL     OW28681   3.863   0.100   6.772
 9261SOL    HW128682   3.770   0.063   6.781
 9261SOL    HW228683   3.860   0.199   6.765
 9262SOL     OW28684   5.846   1.637   5.475
 9262SOL    HW128685   5.846   1.713   5.410
 9262SOL    HW228686   5.915   1.653   5.545
 9263SOL     OW28687   5.517   4.307   1.286
 9263SOL    HW128688   5.500   4.214   1.320
 9263SOL    HW228689   5.482   4.314   1.192
 9264SOL     OW28690   6.573   3.375   0.161
 9264SOL    HW128691   6.478   3.375   0.129
 9264SOL    HW228692   6.635   3.366   0.083
 9265SOL     OW28693   2.575   1.713   0.489
 9265SOL    HW128694   2.659   1.760   0.517
 9265SOL    HW228695   2.502   1.733   0.554
 9266SOL     OW28696   2.563   6.456   2.827
 9266SOL    HW128697   2.489   6.490   2.768
 9266SOL    HW228698   2.540   6.473   2.923
 9267SOL     OW28699   0.233   4.096   4.380
 9267SOL    HW128700   0.186   4.182   4.362
 9267SOL    HW228701   0.332   4.112   4.385
 9268SOL     OW28702   0.410   6.513   3.288
 9268SOL    HW128703   0.435   6.597   3.240
 9268SOL    HW228704   0.487   6.485   3.347
 9269SOL     OW28705   2.646   2.075   0.129
 9269SOL    HW128706   2.614   2.097   0.221
 9269SOL    HW228707   2.621   2.149   0.066
 9270SOL     OW28708   6.896   6.806   5.503
 9270SOL    HW128709   6.824   6.872   5.481
 9270SOL    HW228710   6.970   6.814   5.436
 9271SOL     OW28711   1.498   6.519   0.927
 9271SOL    HW128712   1.574   6.579   0.901
 9271SOL    HW228713   1.531   6.424   0.930
 9272SOL     OW28714   2.615   3.935   5.868
 9272SOL    HW128715   2.714   3.916   5.871
 9272SOL    HW228716   2.590   3.966   5.777
 9273SOL     OW28717   4.667   5.452   3.632
 9273SOL    HW128718   4.594   5.413   3.576
 9273SOL    HW228719   4.683   5.547   3.605
 9274SOL     OW28720   5.217   2.348   0.072
 9274SOL    HW128721   5.312   2.370   0.048
 9274SOL    HW228722   5.181   2.419   0.133
 9275SOL     OW28723   1.080   1.347   6.802
 9275SOL    HW128724   1.150   1.388   6.744
 9275SOL    HW228725   1.045   1.415   6.866
 9276SOL     OW28726   3.456   5.345   4.846
 9276SOL    HW128727   3.527   5.384   4.787
 9276SOL    HW228728   3.368   5.348   4.799
 9277SOL     OW28729   3.467   3.742   0.211
 9277SOL    HW128730   3.523   3.684   0.153
 9277SOL    HW228731   3.486   3.722   0.307
 9278SOL     OW28732   1.170   1.912   3.771
 9278SOL    HW128733   1.219   1.965   3.702
 9278SOL    HW228734   1.218   1.825   3.786
 9279SOL     OW28735   4.033   0.306   2.421
 9279SOL    HW128736   4.024   0.238   2.349
 9279SOL    HW228737   4.080   0.387   2.385
 9280SOL     OW28738   1.223   6.598   3.700
 9280SOL    HW128739   1.178   6.513   3.729
 9280SOL    HW228740   1.198   6.618   3.605
 9281SOL     OW28741   2.391   2.611   0.679
 9281SOL    HW128742   2.294   2.623   0.699
 9281SOL    HW228743   2.429   2.539   0.738
 9282SOL     OW28744   4.951   1.897   4.506
 9282SOL    HW128745   5.042   1.917   4.543
 9282SOL    HW228746   4.918   1.812   4.547
 9283SOL     OW28747   6.481   2.441   2.676
 9283SOL    HW128748   6.493   2.535   2.645
 9283SOL    HW228749   6.535   2.380   2.618
 9284SOL     OW28750   3.834   4.612   0.612
 9284SOL    HW128751   3.798   4.519   0.620
 9284SOL    HW228752   3.794   4.669   0.684
 9285SOL     OW28753   6.691   2.930   6.707
 9285SOL    HW128754   6.780   2.916   6.751
 9285SOL    HW228755   6.687   3.022   6.669
 9286SOL     OW28756   5.721   6.756   5.260
 9286SOL    HW128757   5.722   6.855   5.250
 9286SOL    HW228758   5.796   6.716   5.208
 9287SOL     OW28759   2.845   5.514   1.360
 9287SOL    HW128760   2.749   5.536   1.375
 9287SOL    HW228761   2.869   5.432   1.413
 9288SOL     OW28762   3.971   1.807   5.804
 9288SOL    HW128763   3.962   1.769   5.896
 9288SOL    HW228764   4.054   1.771   5.761
 9289SOL     OW28765   5.067   2.841   2.561
 9289SOL    HW128766   5.054   2.744   2.584
 9289SOL    HW228767   5.060   2.895   2.645
 9290SOL     OW28768   4.125   2.199   4.924
 9290SOL    HW128769   4.168   2.281   4.961
 9290SOL    HW228770   4.093   2.217   4.831
 9291SOL     OW28771   1.703   0.161   5.063
 9291SOL    HW128772   1.722   0.205   5.151
 9291SOL    HW228773   1.701   0.062   5.074
 9292SOL     OW28774   0.197   3.012   6.066
 9292SOL    HW128775   0.115   3.015   6.010
 9292SOL    HW228776   0.251   3.096   6.052
 9293SOL     OW28777   5.441   4.167   0.748
 9293SOL    HW128778   5.457   4.219   0.664
 9293SOL    HW228779   5.528   4.133   0.783
 9294SOL     OW28780   4.041   5.939   0.148
 9294SOL    HW128781   3.974   5.985   0.207
 9294SOL    HW228782   4.010   5.945   0.053
 9295SOL     OW28783   4.788   2.206   3.044
 9295SOL    HW128784   4.730   2.124   3.045
 9295SOL    HW228785   4.757   2.268   2.973
 9296SOL     OW28786   6.378   6.479   5.622
 9296SOL    HW128787   6.417   6.418   5.692
 9296SOL    HW228788   6.447   6.546   5.595
 9297SOL     OW28789   0.265   0.607   1.320
 9297SOL    HW128790   0.286   0.594   1.223
 9297SOL    HW228791   0.167   0.597   1.335
 9298SOL     OW28792   2.417   5.976   5.671
 9298SOL    HW128793   2.323   5.961   5.704
 9298SOL    HW228794   2.431   5.926   5.586
 9299SOL     OW28795   1.702   3.101   3.729
 9299SOL    HW128796   1.790   3.076   3.769
 9299SOL    HW228797   1.631   3.098   3.800
 9300SOL     OW28798   6.738   5.089   5.172
 9300SOL    HW128799   6.792   5.151   5.114
 9300SOL    HW228800   6.644   5.086   5.139
 9301SOL     OW28801   5.219   4.656   3.004
 9301SOL    HW128802   5.151   4.590   2.971
 9301SOL    HW228803   5.211   4.666   3.103
 9302SOL     OW28804   2.449   2.527   3.362
 9302SOL    HW128805   2.365   2.566   3.400
 9302SOL    HW228806   2.460   2.557   3.268
 9303SOL     OW28807   3.998   6.667   0.740
 9303SOL    HW128808   4.006   6.703   0.833
 9303SOL    HW228809   4.068   6.709   0.682
 9304SOL     OW28810   3.765   4.336   0.623
 9304SOL    HW128811   3.722   4.365   0.537
 9304SOL    HW228812   3.703   4.355   0.699
 9305SOL     OW28813   5.583   1.964   1.184
 9305SOL    HW128814   5.657   1.909   1.223
 9305SOL    HW228815   5.495   1.922   1.206
 9306SOL     OW28816   0.004   4.710   4.200
 9306SOL    HW128817   0.020   4.728   4.297
 9306SOL    HW228818   6.996   4.795   4.155
 9307SOL     OW28819   1.473   2.295   1.130
 9307SOL    HW128820   1.414   2.374   1.111
 9307SOL    HW228821   1.543   2.288   1.058
 9308SOL     OW28822   0.409   3.545   1.077
 9308SOL    HW128823   0.453   3.568   0.990
 9308SOL    HW228824   0.478   3.512   1.142
 9309SOL     OW28825   4.099   4.442   5.917
 9309SOL    HW128826   4.182   4.468   5.965
 9309SOL    HW228827   4.039   4.522   5.908
 9310SOL     OW28828   4.146   6.531   6.048
 9310SOL    HW128829   4.125   6.629   6.058
 9310SOL    HW228830   4.066   6.485   6.010
 9311SOL     OW28831   5.594   3.935   0.465
 9311SOL    HW128832   5.651   4.012   0.435
 9311SOL    HW228833   5.574   3.876   0.387
 9312SOL     OW28834   1.625   4.472   6.780
 9312SOL    HW128835   1.632   4.548   6.844
 9312SOL    HW228836   1.554   4.409   6.811
 9313SOL     OW28837   6.595   0.755   2.558
 9313SOL    HW128838   6.670   0.820   2.546
 9313SOL    HW228839   6.630   0.662   2.552
 9314SOL     OW28840   3.728   5.456   6.686
 9314SOL    HW128841   3.714   5.391   6.760
 9314SOL    HW228842   3.824   5.454   6.658
 9315SOL     OW28843   0.201   0.462   5.590
 9315SOL    HW128844   0.228   0.557   5.607
 9315SOL    HW228845   0.140   0.430   5.662
 9316SOL     OW28846   3.990   5.804   4.516
 9316SOL    HW128847   3.975   5.800   4.417
 9316SOL    HW228848   3.919   5.751   4.562
 9317SOL     OW28849   6.025   5.286   3.061
 9317SOL    HW128850   6.123   5.301   3.053
 9317SOL    HW228851   5.988   5.258   2.972
 9318SOL     OW28852   0.554   0.821   6.424
 9318SOL    HW128853   0.511   0.909   6.405
 9318SOL    HW228854   0.546   0.762   6.343
 9319SOL     OW28855   1.180   3.147   6.345
 9319SOL    HW128856   1.226   3.067   6.305
 9319SOL    HW228857   1.081   3.131   6.347
 9320SOL     OW28858   3.815   2.332   5.874
 9320SOL    HW128859   3.893   2.379   5.831
 9320SOL    HW228860   3.731   2.380   5.852
 9321SOL     OW28861   5.958   0.192   3.091
 9321SOL    HW128862   5.983   0.272   3.036
 9321SOL    HW228863   5.860   0.175   3.082
 9322SOL     OW28864   0.209   6.416   6.197
 9322SOL    HW128865   0.233   6.491   6.135
 9322SOL    HW228866   0.288   6.356   6.209
 9323SOL     OW28867   1.163   1.159   6.138
 9323SOL    HW128868   1.211   1.246   6.150
 9323SOL    HW228869   1.071   1.166   6.177
 9324SOL     OW28870   1.202   4.985   0.674
 9324SOL    HW128871   1.138   4.978   0.598
 9324SOL    HW228872   1.293   4.955   0.645
 9325SOL     OW28873   5.315   1.715   0.820
 9325SOL    HW128874   5.388   1.674   0.766
 9325SOL    HW228875   5.261   1.643   0.864
 9326SOL     OW28876   2.617   7.004   0.718
 9326SOL    HW128877   2.546   0.053   0.733
 9326SOL    HW228878   2.614   6.937   0.792
 9327SOL     OW28879   4.758   6.996   3.524
 9327SOL    HW128880   4.810   0.008   3.603
 9327SOL    HW228881   4.821   6.972   3.450
 9328SOL     OW28882   3.761   1.519   0.079
 9328SOL    HW128883   3.773   1.436   0.025
 9328SOL    HW228884   3.840   1.532   0.139
 9329SOL     OW28885   6.660   3.241   3.142
 9329SOL    HW128886   6.604   3.159   3.134
 9329SOL    HW228887   6.745   3.219   3.190
 9330SOL     OW28888   0.007   6.599   0.876
 9330SOL    HW128889   6.994   6.584   0.783
 9330SOL    HW228890   0.080   6.668   0.875
 9331SOL     OW28891   6.993   0.945   0.243
 9331SOL    HW128892   6.949   0.966   0.330
 9331SOL    HW228893   6.933   0.974   0.168
 9332SOL     OW28894   2.965   3.801   3.606
 9332SOL    HW128895   2.934   3.812   3.511
 9332SOL    HW228896   2.914   3.728   3.650
 9333SOL     OW28897   6.016   3.788   0.660
 9333SOL    HW128898   6.013   3.694   0.695
 9333SOL    HW228899   6.022   3.787   0.560
 9334SOL     OW28900   2.880   0.091   3.769
 9334SOL    HW128901   2.807   0.047   3.716
 9334SOL    HW228902   2.969   0.068   3.730
 9335SOL     OW28903   1.530   1.679   6.494
 9335SOL    HW128904   1.529   1.665   6.593
 9335SOL    HW228905   1.441   1.654   6.456
 9336SOL     OW28906   2.902   6.385   6.111
 9336SOL    HW128907   2.945   6.383   6.201
 9336SOL    HW228908   2.807   6.354   6.117
 9337SOL     OW28909   5.379   0.782   2.493
 9337SOL    HW128910   5.429   0.735   2.565
 9337SOL    HW228911   5.307   0.723   2.458
 9338SOL     OW28912   4.163   0.569   2.354
 9338SOL    HW128913   4.222   0.636   2.399
 9338SOL    HW228914   4.067   0.590   2.375
 9339SOL     OW28915   5.478   6.940   1.060
 9339SOL    HW128916   5.553   7.006   1.063
 9339SOL    HW228917   5.514   6.849   1.081
 9340SOL     OW28918   5.167   3.653   5.834
 9340SOL    HW128919   5.101   3.579   5.821
 9340SOL    HW228920   5.119   3.738   5.850
 9341SOL     OW28921   1.322   5.711   6.591
 9341SOL    HW128922   1.277   5.727   6.503
 9341SOL    HW228923   1.317   5.795   6.646
 9342SOL     OW28924   1.707   6.956   5.419
 9342SOL    HW128925   1.800   6.943   5.453
 9342SOL    HW228926   1.698   0.028   5.380
 9343SOL     OW28927   6.417   5.654   4.988
 9343SOL    HW128928   6.390   5.585   5.054
 9343SOL    HW228929   6.409   5.616   4.895
 9344SOL     OW28930   4.709   6.408   1.050
 9344SOL    HW128931   4.759   6.392   0.965
 9344SOL    HW228932   4.636   6.475   1.034
 9345SOL     OW28933   6.690   2.755   2.075
 9345SOL    HW128934   6.606   2.705   2.095
 9345SOL    HW228935   6.736   2.777   2.161
 9346SOL     OW28936   6.167   0.617   1.288
 9346SOL    HW128937   6.102   0.583   1.355
 9346SOL    HW228938   6.260   0.601   1.321
 9347SOL     OW28939   1.610   6.068   1.262
 9347SOL    HW128940   1.551   5.990   1.241
 9347SOL    HW228941   1.677   6.043   1.332
 9348SOL     OW28942   3.776   5.744   0.552
 9348SOL    HW128943   3.824   5.828   0.577
 9348SOL    HW228944   3.841   5.670   0.539
 9349SOL     OW28945   1.154   6.579   2.483
 9349SOL    HW128946   1.238   6.542   2.523
 9349SOL    HW228947   1.144   6.675   2.508
 9350SOL     OW28948   0.484   2.311   6.405
 9350SOL    HW128949   0.469   2.338   6.500
 9350SOL    HW228950   0.467   2.389   6.345
 9351SOL     OW28951   3.282   2.433   0.070
 9351SOL    HW128952   3.229   2.503   0.118
 9351SOL    HW228953   3.228   2.350   0.063
 9352SOL     OW28954   2.743   4.436   0.135
 9352SOL    HW128955   2.830   4.429   0.183
 9352SOL    HW228956   2.692   4.516   0.169
 9353SOL     OW28957   0.573   5.920   1.971
 9353SOL    HW128958   0.667   5.888   1.985
 9353SOL    HW228959   0.515   5.842   1.948
 9354SOL     OW28960   6.049   2.480   6.823
 9354SOL    HW128961   5.966   2.427   6.805
 9354SOL    HW228962   6.126   2.439   6.773
 9355SOL     OW28963   0.591   1.690   5.184
 9355SOL    HW128964   0.636   1.751   5.249
 9355SOL    HW228965   0.616   1.715   5.091
 9356SOL     OW28966   4.376   6.911   2.004
 9356SOL    HW128967   4.399   6.923   1.907
 9356SOL    HW228968   4.429   6.835   2.042
 9357SOL     OW28969   0.963   1.993   6.839
 9357SOL    HW128970   0.934   1.903   6.871
 9357SOL    HW228971   0.998   2.046   6.917
 9358SOL     OW28972   1.068   3.408   2.212
 9358SOL    HW128973   1.048   3.311   2.227
 9358SOL    HW228974   1.120   3.419   2.127
 9359SOL     OW28975   2.303   6.617   6.058
 9359SOL    HW128976   2.395   6.607   6.096
 9359SOL    HW228977   2.282   6.539   5.999
 9360SOL     OW28978   1.501   0.384   6.456
 9360SOL    HW128979   1.523   0.476   6.488
 9360SOL    HW228980   1.404   0.378   6.434
 9361SOL     OW28981   2.376   6.362   4.081
 9361SOL    HW128982   2.371   6.417   4.165
 9361SOL    HW228983   2.408   6.270   4.104
 9362SOL     OW28984   2.088   0.326   2.171
 9362SOL    HW128985   2.085   0.262   2.248
 9362SOL    HW228986   2.030   0.405   2.190
 9363SOL     OW28987   2.909   5.346   2.715
 9363SOL    HW128988   2.965   5.403   2.655
 9363SOL    HW228989   2.846   5.405   2.767
 9364SOL     OW28990   1.979   1.805   1.485
 9364SOL    HW128991   2.014   1.715   1.458
 9364SOL    HW228992   2.038   1.844   1.556
 9365SOL     OW28993   3.339   1.806   4.220
 9365SOL    HW128994   3.306   1.784   4.312
 9365SOL    HW228995   3.363   1.903   4.215
 9366SOL     OW28996   3.273   5.796   0.589
 9366SOL    HW128997   3.360   5.809   0.541
 9366SOL    HW228998   3.272   5.852   0.672
 9367SOL     OW28999   6.064   0.623   1.015
 9367SOL    HW129000   6.083   0.624   1.113
 9367SOL    HW229001   5.966   0.632   1.000
 9368SOL     OW29002   3.579   0.745   2.694
 9368SOL    HW129003   3.614   0.746   2.601
 9368SOL    HW229004   3.504   0.811   2.702
 9369SOL     OW29005   1.859   5.450   6.512
 9369SOL    HW129006   1.873   5.480   6.417
 9369SOL    HW229007   1.843   5.529   6.570
 9370SOL     OW29008   5.010   2.128   4.241
 9370SOL    HW129009   5.106   2.138   4.214
 9370SOL    HW229010   4.966   2.218   4.242
 9371SOL     OW29011   3.904   6.174   1.462
 9371SOL    HW129012   3.906   6.087   1.413
 9371SOL    HW229013   3.892   6.157   1.560
 9372SOL     OW29014   4.910   6.479   1.251
 9372SOL    HW129015   4.875   6.564   1.292
 9372SOL    HW229016   4.843   6.444   1.186
 9373SOL     OW29017   6.840   1.192   0.875
 9373SOL    HW129018   6.896   1.257   0.824
 9373SOL    HW229019   6.899   1.129   0.926
 9374SOL     OW29020   0.722   4.943   5.516
 9374SOL    HW129021   0.623   4.928   5.519
 9374SOL    HW229022   0.742   5.036   5.548
 9375SOL     OW29023   0.534   1.794   6.843
 9375SOL    HW129024   0.440   1.790   6.809
 9375SOL    HW229025   0.585   1.715   6.810
 9376SOL     OW29026   2.064   3.720   2.064
 9376SOL    HW129027   2.123   3.764   2.132
 9376SOL    HW229028   2.112   3.643   2.023
 9377SOL     OW29029   2.350   6.641   3.093
 9377SOL    HW129030   2.348   6.736   3.125
 9377SOL    HW229031   2.362   6.639   2.994
 9378SOL     OW29032   3.114   0.351   3.435
 9378SOL    HW129033   3.197   0.382   3.481
 9378SOL    HW229034   3.040   0.343   3.501
 9379SOL     OW29035   4.291   6.771   4.656
 9379SOL    HW129036   4.196   6.754   4.630
 9379SOL    HW229037   4.299   6.768   4.756
 9380SOL     OW29038   5.009   5.856   6.989
 9380SOL    HW129039   4.994   5.833   0.065
 9380SOL    HW229040   4.965   5.788   6.931
 9381SOL     OW29041   5.482   2.305   4.425
 9381SOL    HW129042   5.456   2.328   4.331
 9381SOL    HW229043   5.526   2.215   4.427
 9382SOL     OW29044   3.282   0.125   4.691
 9382SOL    HW129045   3.221   0.057   4.650
 9382SOL    HW229046   3.294   0.201   4.628
 9383SOL     OW29047   4.774   4.129   3.390
 9383SOL    HW129048   4.788   4.125   3.489
 9383SOL    HW229049   4.842   4.189   3.348
 9384SOL     OW29050   1.792   0.476   2.128
 9384SOL    HW129051   1.775   0.569   2.160
 9384SOL    HW229052   1.755   0.465   2.036
 9385SOL     OW29053   4.082   1.511   3.203
 9385SOL    HW129054   4.003   1.536   3.259
 9385SOL    HW229055   4.101   1.414   3.216
 9386SOL     OW29056   4.169   6.225   6.050
 9386SOL    HW129057   4.069   6.217   6.050
 9386SOL    HW229058   4.194   6.322   6.059
 9387SOL     OW29059   2.869   2.365   0.002
 9387SOL    HW129060   2.769   2.376   0.008
 9387SOL    HW229061   2.893   2.339   6.928
 9388SOL     OW29062   2.088   6.069   4.824
 9388SOL    HW129063   2.094   6.120   4.910
 9388SOL    HW229064   2.078   6.132   4.748
 9389SOL     OW29065   2.888   4.782   1.546
 9389SOL    HW129066   2.836   4.709   1.592
 9389SOL    HW229067   2.986   4.768   1.562
 9390SOL     OW29068   5.163   5.004   5.351
 9390SOL    HW129069   5.092   4.961   5.296
 9390SOL    HW229070   5.227   5.052   5.291
 9391SOL     OW29071   2.204   5.830   4.578
 9391SOL    HW129072   2.121   5.859   4.531
 9391SOL    HW229073   2.182   5.808   4.673
 9392SOL     OW29074   6.138   4.287   2.603
 9392SOL    HW129075   6.215   4.275   2.541
 9392SOL    HW229076   6.171   4.320   2.692
 9393SOL     OW29077   2.698   6.709   5.927
 9393SOL    HW129078   2.790   6.679   5.905
 9393SOL    HW229079   2.687   6.806   5.904
 9394SOL     OW29080   4.389   0.220   0.963
 9394SOL    HW129081   4.291   0.199   0.970
 9394SOL    HW229082   4.405   0.315   0.990
 9395SOL     OW29083   1.994   2.027   0.907
 9395SOL    HW129084   2.081   1.978   0.897
 9395SOL    HW229085   2.000   2.115   0.859
 9396SOL     OW29086   0.557   6.590   6.398
 9396SOL    HW129087   0.526   6.585   6.492
 9396SOL    HW229088   0.627   6.520   6.382
 9397SOL     OW29089   4.013   1.194   5.869
 9397SOL    HW129090   3.996   1.287   5.839
 9397SOL    HW229091   4.033   1.193   5.967
 9398SOL     OW29092   0.322   1.308   6.953
 9398SOL    HW129093   0.345   1.246   0.007
 9398SOL    HW229094   0.277   1.258   6.879
 9399SOL     OW29095   1.666   2.662   3.746
 9399SOL    HW129096   1.759   2.699   3.757
 9399SOL    HW229097   1.663   2.603   3.666
 9400SOL     OW29098   5.947   1.318   0.725
 9400SOL    HW129099   6.040   1.290   0.748
 9400SOL    HW229100   5.883   1.279   0.791
 9401SOL     OW29101   0.355   2.010   3.086
 9401SOL    HW129102   0.385   2.076   3.017
 9401SOL    HW229103   0.382   1.918   3.057
 9402SOL     OW29104   1.584   6.041   3.605
 9402SOL    HW129105   1.513   6.044   3.675
 9402SOL    HW229106   1.544   6.010   3.518
 9403SOL     OW29107   6.349   2.496   1.831
 9403SOL    HW129108   6.264   2.443   1.835
 9403SOL    HW229109   6.332   2.584   1.787
 9404SOL     OW29110   2.158   3.480   1.060
 9404SOL    HW129111   2.076   3.475   1.117
 9404SOL    HW229112   2.132   3.504   0.967
 9405SOL     OW29113   0.730   5.384   5.393
 9405SOL    HW129114   0.732   5.384   5.493
 9405SOL    HW229115   0.783   5.307   5.358
 9406SOL     OW29116   0.102   3.246   0.098
 9406SOL    HW129117   0.033   3.174   0.100
 9406SOL    HW229118   0.060   3.333   0.124
 9407SOL     OW29119   1.171   5.212   5.705
 9407SOL    HW129120   1.116   5.199   5.623
 9407SOL    HW229121   1.144   5.144   5.774
 9408SOL     OW29122   6.875   4.504   4.728
 9408SOL    HW129123   6.819   4.521   4.648
 9408SOL    HW229124   6.943   4.434   4.708
 9409SOL     OW29125   6.810   5.203   2.063
 9409SOL    HW129126   6.893   5.246   2.027
 9409SOL    HW229127   6.785   5.247   2.149
 9410SOL     OW29128   3.988   0.737   1.300
 9410SOL    HW129129   4.016   0.806   1.367
 9410SOL    HW229130   4.069   0.698   1.257
 9411SOL     OW29131   3.059   3.111   3.140
 9411SOL    HW129132   3.009   3.054   3.205
 9411SOL    HW229133   3.088   3.195   3.186
 9412SOL     OW29134   5.942   6.425   1.376
 9412SOL    HW129135   5.863   6.392   1.324
 9412SOL    HW229136   5.956   6.522   1.356
 9413SOL     OW29137   4.464   4.527   2.733
 9413SOL    HW129138   4.374   4.523   2.777
 9413SOL    HW229139   4.454   4.510   2.635
 9414SOL     OW29140   1.583   2.115   4.306
 9414SOL    HW129141   1.643   2.059   4.248
 9414SOL    HW229142   1.521   2.168   4.249
 9415SOL     OW29143   3.949   1.458   2.466
 9415SOL    HW129144   3.974   1.539   2.414
 9415SOL    HW229145   4.009   1.450   2.546
 9416SOL     OW29146   6.319   4.966   6.079
 9416SOL    HW129147   6.231   4.918   6.070
 9416SOL    HW229148   6.374   4.922   6.150
 9417SOL     OW29149   3.931   6.098   1.749
 9417SOL    HW129150   3.977   6.010   1.739
 9417SOL    HW229151   3.832   6.084   1.751
 9418SOL     OW29152   3.144   2.134   4.429
 9418SOL    HW129153   3.195   2.048   4.435
 9418SOL    HW229154   3.144   2.179   4.518
 9419SOL     OW29155   1.986   2.944   6.085
 9419SOL    HW129156   2.058   2.886   6.046
 9419SOL    HW229157   1.910   2.950   6.021
 9420SOL     OW29158   6.418   4.155   6.858
 9420SOL    HW129159   6.333   4.102   6.860
 9420SOL    HW229160   6.490   4.101   6.815
 9421SOL     OW29161   3.719   6.339   5.471
 9421SOL    HW129162   3.674   6.299   5.551
 9421SOL    HW229163   3.653   6.347   5.396
 9422SOL     OW29164   2.843   6.053   4.753
 9422SOL    HW129165   2.834   6.150   4.776
 9422SOL    HW229166   2.917   6.040   4.687
 9423SOL     OW29167   4.788   4.719   3.579
 9423SOL    HW129168   4.788   4.676   3.489
 9423SOL    HW229169   4.882   4.743   3.605
 9424SOL     OW29170   5.787   0.125   4.655
 9424SOL    HW129171   5.704   0.070   4.651
 9424SOL    HW229172   5.827   0.132   4.563
 9425SOL     OW29173   6.912   5.058   0.980
 9425SOL    HW129174   6.842   5.020   0.920
 9425SOL    HW229175   6.905   5.158   0.981
 9426SOL     OW29176   6.911   2.003   0.139
 9426SOL    HW129177   6.974   1.936   0.102
 9426SOL    HW229178   6.958   2.090   0.153
 9427SOL     OW29179   4.769   4.836   2.997
 9427SOL    HW129180   4.745   4.744   2.966
 9427SOL    HW229181   4.699   4.870   3.059
 9428SOL     OW29182   6.860   6.545   5.531
 9428SOL    HW129183   6.836   6.526   5.626
 9428SOL    HW229184   6.870   6.643   5.518
 9429SOL     OW29185   2.395   2.216   3.847
 9429SOL    HW129186   2.333   2.139   3.835
 9429SOL    HW229187   2.445   2.232   3.762
 9430SOL     OW29188   0.943   2.042   4.471
 9430SOL    HW129189   1.009   2.073   4.539
 9430SOL    HW229190   0.880   2.117   4.449
 9431SOL     OW29191   0.794   4.753   5.098
 9431SOL    HW129192   0.764   4.741   5.193
 9431SOL    HW229193   0.892   4.768   5.096
 9432SOL     OW29194   6.600   1.217   3.851
 9432SOL    HW129195   6.694   1.220   3.817
 9432SOL    HW229196   6.552   1.300   3.825
 9433SOL     OW29197   4.778   5.673   2.205
 9433SOL    HW129198   4.773   5.624   2.292
 9433SOL    HW229199   4.853   5.636   2.150
 9434SOL     OW29200   4.838   5.051   4.550
 9434SOL    HW129201   4.905   4.984   4.580
 9434SOL    HW229202   4.876   5.105   4.475
 9435SOL     OW29203   0.132   2.765   1.620
 9435SOL    HW129204   0.175   2.681   1.588
 9435SOL    HW229205   0.199   2.819   1.671
 9436SOL     OW29206   1.699   0.533   2.748
 9436SOL    HW129207   1.680   0.534   2.846
 9436SOL    HW229208   1.772   0.467   2.728
 9437SOL     OW29209   6.195   6.149   5.054
 9437SOL    HW129210   6.160   6.234   5.093
 9437SOL    HW229211   6.194   6.078   5.124
 9438SOL     OW29212   4.738   5.988   2.693
 9438SOL    HW129213   4.760   6.086   2.695
 9438SOL    HW229214   4.677   5.969   2.616
 9439SOL     OW29215   1.196   3.123   0.829
 9439SOL    HW129216   1.240   3.057   0.767
 9439SOL    HW229217   1.160   3.074   0.908
 9440SOL     OW29218   2.447   5.329   3.399
 9440SOL    HW129219   2.477   5.290   3.312
 9440SOL    HW229220   2.386   5.264   3.445
 9441SOL     OW29221   0.705   5.956   4.674
 9441SOL    HW129222   0.749   5.915   4.594
 9441SOL    HW229223   0.769   5.956   4.751
 9442SOL     OW29224   4.410   3.239   0.762
 9442SOL    HW129225   4.393   3.205   0.670
 9442SOL    HW229226   4.463   3.172   0.814
 9443SOL     OW29227   2.117   4.581   3.164
 9443SOL    HW129228   2.081   4.573   3.071
 9443SOL    HW229229   2.041   4.589   3.228
 9444SOL     OW29230   0.760   4.549   6.233
 9444SOL    HW129231   0.688   4.615   6.210
 9444SOL    HW229232   0.750   4.468   6.174
 9445SOL     OW29233   0.425   1.145   3.987
 9445SOL    HW129234   0.365   1.224   3.997
 9445SOL    HW229235   0.512   1.163   4.033
 9446SOL     OW29236   6.302   5.313   3.048
 9446SOL    HW129237   6.353   5.369   2.983
 9446SOL    HW229238   6.360   5.240   3.082
 9447SOL     OW29239   4.828   4.190   1.727
 9447SOL    HW129240   4.913   4.142   1.708
 9447SOL    HW229241   4.844   4.263   1.793
 9448SOL     OW29242   6.192   0.634   5.168
 9448SOL    HW129243   6.204   0.618   5.070
 9448SOL    HW229244   6.095   0.651   5.187
 9449SOL     OW29245   5.627   6.860   1.349
 9449SOL    HW129246   5.531   6.881   1.370
 9449SOL    HW229247   5.673   6.828   1.431
 9450SOL     OW29248   1.325   5.384   3.303
 9450SOL    HW129249   1.323   5.296   3.256
 9450SOL    HW229250   1.416   5.424   3.294
 9451SOL     OW29251   3.360   5.584   6.242
 9451SOL    HW129252   3.264   5.571   6.219
 9451SOL    HW229253   3.397   5.658   6.186
 9452SOL     OW29254   6.546   3.894   0.292
 9452SOL    HW129255   6.470   3.831   0.278
 9452SOL    HW229256   6.546   3.926   0.387
 9453SOL     OW29257   4.995   5.647   2.040
 9453SOL    HW129258   4.926   5.591   1.994
 9453SOL    HW229259   5.086   5.625   2.003
 9454SOL     OW29260   5.717   4.297   0.446
 9454SOL    HW129261   5.751   4.253   0.529
 9454SOL    HW229262   5.631   4.344   0.466
 9455SOL     OW29263   3.441   1.916   1.684
 9455SOL    HW129264   3.495   1.908   1.768
 9455SOL    HW229265   3.461   1.838   1.625
 9456SOL     OW29266   6.649   2.987   1.868
 9456SOL    HW129267   6.596   3.000   1.952
 9456SOL    HW229268   6.623   2.900   1.826
 9457SOL     OW29269   0.180   6.151   4.411
 9457SOL    HW129270   0.194   6.114   4.320
 9457SOL    HW229271   0.260   6.130   4.468
 9458SOL     OW29272   6.729   3.318   6.967
 9458SOL    HW129273   6.689   3.409   6.958
 9458SOL    HW229274   6.820   3.316   6.925
 9459SOL     OW29275   4.542   4.851   5.298
 9459SOL    HW129276   4.623   4.803   5.264
 9459SOL    HW229277   4.478   4.785   5.337
 9460SOL     OW29278   1.559   1.962   3.110
 9460SOL    HW129279   1.656   1.983   3.092
 9460SOL    HW229280   1.544   1.956   3.209
 9461SOL     OW29281   1.632   2.044   2.494
 9461SOL    HW129282   1.641   2.055   2.395
 9461SOL    HW229283   1.548   2.088   2.525
 9462SOL     OW29284   1.173   1.344   4.383
 9462SOL    HW129285   1.269   1.336   4.355
 9462SOL    HW229286   1.116   1.288   4.323
 9463SOL     OW29287   5.325   5.137   1.558
 9463SOL    HW129288   5.271   5.221   1.558
 9463SOL    HW229289   5.421   5.159   1.543
 9464SOL     OW29290   1.050   1.180   1.989
 9464SOL    HW129291   1.060   1.237   1.907
 9464SOL    HW229292   0.965   1.128   1.984
 9465SOL     OW29293   6.486   4.421   1.166
 9465SOL    HW129294   6.575   4.378   1.150
 9465SOL    HW229295   6.414   4.351   1.160
 9466SOL     OW29296   3.851   4.824   5.866
 9466SOL    HW129297   3.770   4.876   5.838
 9466SOL    HW229298   3.823   4.732   5.896
 9467SOL     OW29299   1.872   3.886   0.849
 9467SOL    HW129300   1.780   3.874   0.886
 9467SOL    HW229301   1.865   3.911   0.752
 9468SOL     OW29302   6.333   1.734   0.150
 9468SOL    HW129303   6.415   1.712   0.098
 9468SOL    HW229304   6.358   1.757   0.244
 9469SOL     OW29305   1.174   6.358   1.616
 9469SOL    HW129306   1.117   6.278   1.635
 9469SOL    HW229307   1.129   6.416   1.548
 9470SOL     OW29308   3.776   4.055   0.701
 9470SOL    HW129309   3.794   4.046   0.799
 9470SOL    HW229310   3.767   4.152   0.678
 9471SOL     OW29311   6.205   3.586   5.403
 9471SOL    HW129312   6.153   3.511   5.441
 9471SOL    HW229313   6.229   3.651   5.475
 9472SOL     OW29314   1.745   2.901   5.949
 9472SOL    HW129315   1.672   2.967   5.966
 9472SOL    HW229316   1.707   2.809   5.942
 9473SOL     OW29317   2.895   4.559   0.932
 9473SOL    HW129318   2.914   4.631   0.998
 9473SOL    HW229319   2.963   4.487   0.941
 9474SOL     OW29320   5.626   3.196   0.498
 9474SOL    HW129321   5.572   3.254   0.559
 9474SOL    HW229322   5.705   3.160   0.548
 9475SOL     OW29323   4.789   3.699   6.307
 9475SOL    HW129324   4.822   3.758   6.381
 9475SOL    HW229325   4.839   3.720   6.223
 9476SOL     OW29326   3.730   4.146   6.535
 9476SOL    HW129327   3.764   4.194   6.455
 9476SOL    HW229328   3.703   4.053   6.509
 9477SOL     OW29329   1.755   4.292   0.606
 9477SOL    HW129330   1.727   4.255   0.517
 9477SOL    HW229331   1.847   4.332   0.597
 9478SOL     OW29332   5.548   3.134   0.242
 9478SOL    HW129333   5.600   3.147   0.158
 9478SOL    HW229334   5.604   3.160   0.321
 9479SOL     OW29335   4.071   0.700   2.079
 9479SOL    HW129336   4.026   0.747   2.003
 9479SOL    HW229337   4.003   0.679   2.149
 9480SOL     OW29338   6.710   0.861   0.498
 9480SOL    HW129339   6.621   0.819   0.512
 9480SOL    HW229340   6.708   0.918   0.416
 9481SOL     OW29341   4.146   0.308   3.635
 9481SOL    HW129342   4.110   0.222   3.597
 9481SOL    HW229343   4.102   0.385   3.590
 9482SOL     OW29344   6.439   6.184   0.242
 9482SOL    HW129345   6.371   6.173   0.170
 9482SOL    HW229346   6.493   6.266   0.225
 9483SOL     OW29347   6.621   0.003   0.459
 9483SOL    HW129348   6.634   0.102   0.460
 9483SOL    HW229349   6.543   6.998   0.517
 9484SOL     OW29350   4.028   5.555   5.066
 9484SOL    HW129351   3.991   5.635   5.017
 9484SOL    HW229352   4.122   5.539   5.037
 9485SOL     OW29353   6.857   1.159   0.448
 9485SOL    HW129354   6.918   1.230   0.413
 9485SOL    HW229355   6.786   1.140   0.380
 9486SOL     OW29356   5.151   6.210   0.129
 9486SOL    HW129357   5.167   6.154   0.048
 9486SOL    HW229358   5.063   6.185   0.169
 9487SOL     OW29359   3.287   2.924   3.140
 9487SOL    HW129360   3.329   2.885   3.058
 9487SOL    HW229361   3.202   2.969   3.115
 9488SOL     OW29362   1.702   0.945   0.686
 9488SOL    HW129363   1.645   0.886   0.629
 9488SOL    HW229364   1.785   0.895   0.713
 9489SOL     OW29365   5.495   3.452   0.327
 9489SOL    HW129366   5.512   3.369   0.380
 9489SOL    HW229367   5.549   3.527   0.364
 9490SOL     OW29368   5.411   4.053   3.968
 9490SOL    HW129369   5.322   4.065   3.925
 9490SOL    HW229370   5.436   3.956   3.968
 9491SOL     OW29371   5.055   6.224   2.673
 9491SOL    HW129372   5.138   6.263   2.715
 9491SOL    HW229373   5.071   6.128   2.650
 9492SOL     OW29374   4.970   2.968   4.185
 9492SOL    HW129375   4.924   2.958   4.273
 9492SOL    HW229376   5.069   2.956   4.198
 9493SOL     OW29377   4.144   6.571   2.110
 9493SOL    HW129378   4.236   6.554   2.072
 9493SOL    HW229379   4.152   6.628   2.191
 9494SOL     OW29380   5.481   2.391   2.073
 9494SOL    HW129381   5.473   2.401   2.172
 9494SOL    HW229382   5.490   2.295   2.050
 9495SOL     OW29383   0.482   1.620   2.326
 9495SOL    HW129384   0.518   1.698   2.274
 9495SOL    HW229385   0.383   1.625   2.329
 9496SOL     OW29386   5.039   2.132   2.630
 9496SOL    HW129387   5.104   2.080   2.576
 9496SOL    HW229388   4.967   2.070   2.663
 9497SOL     OW29389   5.072   4.590   4.877
 9497SOL    HW129390   4.998   4.643   4.835
 9497SOL    HW229391   5.156   4.605   4.826
 9498SOL     OW29392   0.729   5.465   3.643
 9498SOL    HW129393   0.803   5.400   3.655
 9498SOL    HW229394   0.641   5.417   3.649
 9499SOL     OW29395   6.489   5.769   5.349
 9499SOL    HW129396   6.399   5.726   5.345
 9499SOL    HW229397   6.490   5.840   5.419
 9500SOL     OW29398   3.925   1.695   0.815
 9500SOL    HW129399   3.974   1.609   0.808
 9500SOL    HW229400   3.893   1.707   0.909
 9501SOL     OW29401   1.942   3.239   5.227
 9501SOL    HW129402   2.011   3.227   5.155
 9501SOL    HW229403   1.853   3.257   5.186
 9502SOL     OW29404   5.290   4.796   5.092
 9502SOL    HW129405   5.323   4.852   5.016
 9502SOL    HW229406   5.191   4.784   5.085
 9503SOL     OW29407   0.507   2.723   0.112
 9503SOL    HW129408   0.569   2.801   0.114
 9503SOL    HW229409   0.560   2.638   0.104
 9504SOL     OW29410   5.850   5.081   2.410
 9504SOL    HW129411   5.798   5.166   2.409
 9504SOL    HW229412   5.796   5.009   2.455
 9505SOL     OW29413   4.416   5.365   5.269
 9505SOL    HW129414   4.340   5.367   5.204
 9505SOL    HW229415   4.456   5.274   5.273
 9506SOL     OW29416   3.040   1.253   1.208
 9506SOL    HW129417   2.988   1.169   1.221
 9506SOL    HW229418   2.977   1.329   1.188
 9507SOL     OW29419   4.869   0.456   2.247
 9507SOL    HW129420   4.934   0.499   2.185
 9507SOL    HW229421   4.895   0.361   2.263
 9508SOL     OW29422   5.263   1.920   3.169
 9508SOL    HW129423   5.287   1.907   3.073
 9508SOL    HW229424   5.253   1.831   3.213
 9509SOL     OW29425   5.837   0.817   3.484
 9509SOL    HW129426   5.844   0.915   3.469
 9509SOL    HW229427   5.854   0.796   3.580
 9510SOL     OW29428   1.407   2.440   3.662
 9510SOL    HW129429   1.408   2.526   3.712
 9510SOL    HW229430   1.501   2.405   3.655
 9511SOL     OW29431   1.642   1.404   0.494
 9511SOL    HW129432   1.601   1.495   0.487
 9511SOL    HW229433   1.724   1.400   0.436
 9512SOL     OW29434   6.289   1.777   1.199
 9512SOL    HW129435   6.191   1.798   1.195
 9512SOL    HW229436   6.317   1.728   1.117
 9513SOL     OW29437   4.343   5.073   6.066
 9513SOL    HW129438   4.338   5.067   6.166
 9513SOL    HW229439   4.258   5.111   6.031
 9514SOL     OW29440   3.621   2.996   6.897
 9514SOL    HW129441   3.643   3.052   6.977
 9514SOL    HW229442   3.689   3.013   6.826
 9515SOL     OW29443   0.593   5.206   3.762
 9515SOL    HW129444   0.592   5.174   3.857
 9515SOL    HW229445   0.639   5.139   3.705
 9516SOL     OW29446   0.090   4.152   0.876
 9516SOL    HW129447   0.131   4.139   0.786
 9516SOL    HW229448   0.028   4.231   0.874
 9517SOL     OW29449   1.002   5.231   0.645
 9517SOL    HW129450   1.080   5.189   0.600
 9517SOL    HW229451   0.936   5.161   0.672
 9518SOL     OW29452   0.934   1.135   0.298
 9518SOL    HW129453   0.943   1.197   0.220
 9518SOL    HW229454   0.837   1.126   0.323
 9519SOL     OW29455   1.130   3.139   5.323
 9519SOL    HW129456   1.223   3.109   5.300
 9519SOL    HW229457   1.122   3.237   5.303
 9520SOL     OW29458   3.258   6.994   1.960
 9520SOL    HW129459   3.174   7.017   2.009
 9520SOL    HW229460   3.286   0.051   1.902
 9521SOL     OW29461   5.495   5.261   4.018
 9521SOL    HW129462   5.446   5.242   4.102
 9521SOL    HW229463   5.547   5.346   4.029
 9522SOL     OW29464   3.588   5.789   0.834
 9522SOL    HW129465   3.565   5.715   0.771
 9522SOL    HW229466   3.684   5.813   0.824
 9523SOL     OW29467   3.691   5.958   4.631
 9523SOL    HW129468   3.633   6.025   4.677
 9523SOL    HW229469   3.786   5.988   4.634
 9524SOL     OW29470   4.551   3.035   0.912
 9524SOL    HW129471   4.587   2.942   0.912
 9524SOL    HW229472   4.627   3.100   0.909
 9525SOL     OW29473   3.837   0.537   6.243
 9525SOL    HW129474   3.836   0.622   6.296
 9525SOL    HW229475   3.845   0.558   6.146
 9526SOL     OW29476   5.430   5.219   1.907
 9526SOL    HW129477   5.517   5.216   1.857
 9526SOL    HW229478   5.380   5.134   1.891
 9527SOL     OW29479   6.408   2.000   1.685
 9527SOL    HW129480   6.435   2.012   1.780
 9527SOL    HW229481   6.308   1.988   1.680
 9528SOL     OW29482   6.431   0.998   2.498
 9528SOL    HW129483   6.453   0.912   2.544
 9528SOL    HW229484   6.487   1.007   2.416
 9529SOL     OW29485   0.510   3.678   5.480
 9529SOL    HW129486   0.566   3.602   5.514
 9529SOL    HW229487   0.423   3.643   5.446
 9530SOL     OW29488   1.011   2.425   4.268
 9530SOL    HW129489   1.095   2.426   4.323
 9530SOL    HW229490   1.032   2.393   4.176
 9531SOL     OW29491   3.429   6.067   2.583
 9531SOL    HW129492   3.440   6.127   2.503
 9531SOL    HW229493   3.477   6.108   2.662
 9532SOL     OW29494   2.339   0.618   1.956
 9532SOL    HW129495   2.337   0.532   2.007
 9532SOL    HW229496   2.258   0.624   1.898
 9533SOL     OW29497   2.301   0.741   5.336
 9533SOL    HW129498   2.229   0.810   5.323
 9533SOL    HW229499   2.267   0.652   5.306
 9534SOL     OW29500   4.614   2.221   4.737
 9534SOL    HW129501   4.661   2.279   4.670
 9534SOL    HW229502   4.642   2.126   4.724
 9535SOL     OW29503   2.070   1.637   5.625
 9535SOL    HW129504   2.141   1.707   5.629
 9535SOL    HW229505   2.036   1.629   5.531
 9536SOL     OW29506   2.532   6.501   5.798
 9536SOL    HW129507   2.447   6.457   5.827
 9536SOL    HW229508   2.552   6.578   5.859
 9537SOL     OW29509   2.845   6.717   0.943
 9537SOL    HW129510   2.935   6.673   0.943
 9537SOL    HW229511   2.823   6.750   0.852
 9538SOL     OW29512   6.442   3.190   3.856
 9538SOL    HW129513   6.419   3.125   3.784
 9538SOL    HW229514   6.412   3.155   3.944
 9539SOL     OW29515   0.501   5.063   1.158
 9539SOL    HW129516   0.511   4.975   1.204
 9539SOL    HW229517   0.581   5.120   1.178
 9540SOL     OW29518   5.090   4.177   4.715
 9540SOL    HW129519   5.115   4.149   4.622
 9540SOL    HW229520   5.171   4.174   4.774
 9541SOL     OW29521   1.755   1.900   3.837
 9541SOL    HW129522   1.847   1.919   3.801
 9541SOL    HW229523   1.699   1.982   3.831
 9542SOL     OW29524   5.034   3.529   4.548
 9542SOL    HW129525   4.981   3.482   4.618
 9542SOL    HW229526   5.047   3.469   4.469
 9543SOL     OW29527   5.013   2.564   2.631
 9543SOL    HW129528   4.934   2.529   2.580
 9543SOL    HW229529   5.035   2.499   2.704
 9544SOL     OW29530   3.219   1.858   1.864
 9544SOL    HW129531   3.258   1.812   1.944
 9544SOL    HW229532   3.288   1.862   1.792
 9545SOL     OW29533   0.369   6.929   4.120
 9545SOL    HW129534   0.346   6.883   4.034
 9545SOL    HW229535   0.411   7.018   4.099
 9546SOL     OW29536   2.781   4.881   0.856
 9546SOL    HW129537   2.709   4.865   0.789
 9546SOL    HW229538   2.868   4.847   0.819
 9547SOL     OW29539   6.583   6.521   3.143
 9547SOL    HW129540   6.620   6.597   3.089
 9547SOL    HW229541   6.650   6.495   3.213
 9548SOL     OW29542   4.921   6.477   3.067
 9548SOL    HW129543   4.940   6.407   3.137
 9548SOL    HW229544   4.901   6.564   3.112
 9549SOL     OW29545   2.347   6.091   0.639
 9549SOL    HW129546   2.359   6.000   0.600
 9549SOL    HW229547   2.432   6.120   0.684
 9550SOL     OW29548   0.930   1.604   0.451
 9550SOL    HW129549   0.926   1.622   0.352
 9550SOL    HW229550   1.020   1.628   0.486
 9551SOL     OW29551   2.377   6.084   4.981
 9551SOL    HW129552   2.364   6.073   4.882
 9551SOL    HW229553   2.304   6.140   5.019
 9552SOL     OW29554   0.867   5.638   3.492
 9552SOL    HW129555   0.801   5.573   3.528
 9552SOL    HW229556   0.958   5.615   3.526
 9553SOL     OW29557   5.796   4.771   5.042
 9553SOL    HW129558   5.711   4.719   5.035
 9553SOL    HW229559   5.777   4.869   5.031
 9554SOL     OW29560   2.171   1.545   1.700
 9554SOL    HW129561   2.104   1.501   1.760
 9554SOL    HW229562   2.263   1.510   1.722
 9555SOL     OW29563   6.660   2.421   0.264
 9555SOL    HW129564   6.691   2.327   0.245
 9555SOL    HW229565   6.562   2.428   0.247
 9556SOL     OW29566   0.837   1.663   1.492
 9556SOL    HW129567   0.800   1.717   1.417
 9556SOL    HW229568   0.763   1.635   1.553
 9557SOL     OW29569   5.081   2.549   1.422
 9557SOL    HW129570   5.108   2.630   1.474
 9557SOL    HW229571   5.159   2.486   1.417
 9558SOL     OW29572   6.337   5.243   2.320
 9558SOL    HW129573   6.274   5.284   2.385
 9558SOL    HW229574   6.286   5.191   2.252
 9559SOL     OW29575   6.662   2.567   2.361
 9559SOL    HW129576   6.610   2.508   2.299
 9559SOL    HW229577   6.751   2.588   2.321
 9560SOL     OW29578   3.008   1.398   3.886
 9560SOL    HW129579   2.975   1.364   3.974
 9560SOL    HW229580   3.019   1.498   3.891
 9561SOL     OW29581   4.238   0.037   1.351
 9561SOL    HW129582   4.146   0.002   1.336
 9561SOL    HW229583   4.303   7.004   1.296
 9562SOL     OW29584   6.148   5.642   3.060
 9562SOL    HW129585   6.110   5.609   2.973
 9562SOL    HW229586   6.222   5.706   3.042
 9563SOL     OW29587   0.010   5.754   6.625
 9563SOL    HW129588   6.957   5.773   6.692
 9563SOL    HW229589   0.099   5.756   6.670
 9564SOL     OW29590   2.303   6.888   6.784
 9564SOL    HW129591   2.273   6.888   6.689
 9564SOL    HW229592   2.392   6.933   6.792
 9565SOL     OW29593   4.217   6.303   4.587
 9565SOL    HW129594   4.299   6.352   4.557
 9565SOL    HW229595   4.235   6.260   4.676
 9566SOL     OW29596   3.113   4.747   5.217
 9566SOL    HW129597   3.179   4.701   5.276
 9566SOL    HW229598   3.047   4.681   5.182
 9567SOL     OW29599   6.258   5.559   5.801
 9567SOL    HW129600   6.347   5.516   5.816
 9567SOL    HW229601   6.269   5.644   5.752
 9568SOL     OW29602   5.073   3.604   6.894
 9568SOL    HW129603   5.096   3.700   6.912
 9568SOL    HW229604   5.097   3.549   6.974
 9569SOL     OW29605   6.246   0.315   0.775
 9569SOL    HW129606   6.166   0.363   0.811
 9569SOL    HW229607   6.222   0.267   0.691
 9570SOL     OW29608   0.474   0.325   6.596
 9570SOL    HW129609   0.489   0.256   6.666
 9570SOL    HW229610   0.538   0.310   6.520
 9571SOL     OW29611   2.163   3.915   0.263
 9571SOL    HW129612   2.150   3.985   0.333
 9571SOL    HW229613   2.247   3.935   0.212
 9572SOL     OW29614   0.957   4.446   0.705
 9572SOL    HW129615   1.023   4.502   0.755
 9572SOL    HW229616   0.960   4.352   0.740
 9573SOL     OW29617   6.694   1.929   1.633
 9573SOL    HW129618   6.596   1.951   1.642
 9573SOL    HW229619   6.710   1.835   1.664
 9574SOL     OW29620   2.471   1.974   5.214
 9574SOL    HW129621   2.526   2.032   5.153
 9574SOL    HW229622   2.380   2.013   5.223
 9575SOL     OW29623   5.241   1.254   1.549
 9575SOL    HW129624   5.213   1.261   1.453
 9575SOL    HW229625   5.198   1.328   1.601
 9576SOL     OW29626   3.500   1.345   5.396
 9576SOL    HW129627   3.438   1.346   5.475
 9576SOL    HW229628   3.594   1.357   5.427
 9577SOL     OW29629   0.147   6.161   3.134
 9577SOL    HW129630   0.116   6.156   3.229
 9577SOL    HW229631   0.193   6.249   3.119
 9578SOL     OW29632   5.825   3.436   1.906
 9578SOL    HW129633   5.744   3.413   1.961
 9578SOL    HW229634   5.841   3.364   1.839
 9579SOL     OW29635   0.992   6.291   2.966
 9579SOL    HW129636   0.914   6.312   2.906
 9579SOL    HW229637   0.959   6.272   3.058
 9580SOL     OW29638   4.442   4.000   6.021
 9580SOL    HW129639   4.500   4.063   5.969
 9580SOL    HW229640   4.479   3.989   6.114
 9581SOL     OW29641   1.552   4.946   6.598
 9581SOL    HW129642   1.572   5.026   6.541
 9581SOL    HW229643   1.456   4.921   6.589
 9582SOL     OW29644   4.397   4.694   4.452
 9582SOL    HW129645   4.431   4.612   4.408
 9582SOL    HW229646   4.403   4.771   4.389
 9583SOL     OW29647   2.414   4.571   2.069
 9583SOL    HW129648   2.363   4.625   2.001
 9583SOL    HW229649   2.366   4.486   2.087
 9584SOL     OW29650   6.374   5.956   6.309
 9584SOL    HW129651   6.383   5.858   6.329
 9584SOL    HW229652   6.277   5.981   6.303
 9585SOL     OW29653   0.140   6.735   4.204
 9585SOL    HW129654   0.134   6.695   4.295
 9585SOL    HW229655   0.205   6.812   4.205
 9586SOL     OW29656   5.404   3.675   2.592
 9586SOL    HW129657   5.328   3.732   2.562
 9586SOL    HW229658   5.416   3.599   2.527
 9587SOL     OW29659   4.729   6.313   2.896
 9587SOL    HW129660   4.787   6.383   2.936
 9587SOL    HW229661   4.733   6.230   2.953
 9588SOL     OW29662   0.124   0.465   3.110
 9588SOL    HW129663   0.202   0.496   3.164
 9588SOL    HW229664   0.051   0.534   3.114
 9589SOL     OW29665   2.197   1.526   5.908
 9589SOL    HW129666   2.167   1.600   5.968
 9589SOL    HW229667   2.119   1.471   5.881
 9590SOL     OW29668   6.769   4.351   4.929
 9590SOL    HW129669   6.790   4.422   4.861
 9590SOL    HW229670   6.827   4.272   4.912
 9591SOL     OW29671   1.595   4.286   2.146
 9591SOL    HW129672   1.656   4.298   2.068
 9591SOL    HW229673   1.505   4.326   2.126
 9592SOL     OW29674   4.851   5.060   2.139
 9592SOL    HW129675   4.839   5.107   2.051
 9592SOL    HW229676   4.939   5.012   2.139
 9593SOL     OW29677   1.763   2.610   4.170
 9593SOL    HW129678   1.797   2.551   4.244
 9593SOL    HW229679   1.825   2.689   4.160
 9594SOL     OW29680   5.919   6.569   2.056
 9594SOL    HW129681   5.830   6.532   2.081
 9594SOL    HW229682   5.907   6.640   1.986
 9595SOL     OW29683   0.698   4.102   4.649
 9595SOL    HW129684   0.790   4.093   4.688
 9595SOL    HW229685   0.630   4.082   4.720
 9596SOL     OW29686   4.496   5.632   3.112
 9596SOL    HW129687   4.537   5.581   3.187
 9596SOL    HW229688   4.527   5.595   3.024
 9597SOL     OW29689   2.072   3.934   1.178
 9597SOL    HW129690   1.994   3.896   1.129
 9597SOL    HW229691   2.153   3.932   1.120
 9598SOL     OW29692   1.067   5.830   5.645
 9598SOL    HW129693   1.152   5.804   5.690
 9598SOL    HW229694   1.028   5.910   5.690
 9599SOL     OW29695   5.198   1.849   4.397
 9599SOL    HW129696   5.220   1.938   4.357
 9599SOL    HW229697   5.113   1.815   4.358
 9600SOL     OW29698   1.390   6.047   0.096
 9600SOL    HW129699   1.316   5.982   0.114
 9600SOL    HW229700   1.467   5.999   0.053
 9601SOL     OW29701   0.730   5.861   6.309
 9601SOL    HW129702   0.670   5.817   6.242
 9601SOL    HW229703   0.825   5.837   6.289
 9602SOL     OW29704   1.136   5.835   0.505
 9602SOL    HW129705   1.183   5.859   0.419
 9602SOL    HW229706   1.136   5.914   0.566
 9603SOL     OW29707   1.286   4.622   4.049
 9603SOL    HW129708   1.195   4.641   4.086
 9603SOL    HW229709   1.354   4.630   4.121
 9604SOL     OW29710   7.011   6.871   0.539
 9604SOL    HW129711   0.016   6.968   0.545
 9604SOL    HW229712   6.921   6.857   0.582
 9605SOL     OW29713   2.176   5.824   6.678
 9605SOL    HW129714   2.221   5.807   6.766
 9605SOL    HW229715   2.157   5.736   6.633
 9606SOL     OW29716   7.014   6.897   4.564
 9606SOL    HW129717   6.919   6.903   4.534
 9606SOL    HW229718   0.034   6.811   4.532
 9607SOL     OW29719   0.148   3.119   1.399
 9607SOL    HW129720   0.080   3.132   1.471
 9607SOL    HW229721   0.121   3.042   1.341
 9608SOL     OW29722   6.741   6.358   2.850
 9608SOL    HW129723   6.686   6.306   2.915
 9608SOL    HW229724   6.835   6.322   2.848
 9609SOL     OW29725   2.090   2.077   3.452
 9609SOL    HW129726   2.165   2.081   3.386
 9609SOL    HW229727   2.006   2.108   3.409
 9610SOL     OW29728   3.402   2.194   6.064
 9610SOL    HW129729   3.478   2.198   6.128
 9610SOL    HW229730   3.428   2.141   5.983
 9611SOL     OW29731   5.749   6.064   0.942
 9611SOL    HW129732   5.738   6.126   0.864
 9611SOL    HW229733   5.839   6.079   0.984
 9612SOL     OW29734   5.350   3.711   2.865
 9612SOL    HW129735   5.254   3.692   2.845
 9612SOL    HW229736   5.404   3.696   2.782
 9613SOL     OW29737   5.415   6.442   5.664
 9613SOL    HW129738   5.501   6.487   5.687
 9613SOL    HW229739   5.393   6.459   5.568
 9614SOL     OW29740   2.990   3.083   2.193
 9614SOL    HW129741   3.024   3.127   2.110
 9614SOL    HW229742   2.891   3.073   2.187
 9615SOL     OW29743   0.940   6.032   4.100
 9615SOL    HW129744   0.917   5.937   4.077
 9615SOL    HW229745   1.040   6.040   4.107
 9616SOL     OW29746   2.310   3.319   1.371
 9616SOL    HW129747   2.263   3.235   1.397
 9616SOL    HW229748   2.358   3.305   1.285
 9617SOL     OW29749   0.918   3.500   2.541
 9617SOL    HW129750   0.945   3.480   2.635
 9617SOL    HW229751   0.889   3.596   2.535
 9618SOL     OW29752   3.991   4.887   0.675
 9618SOL    HW129753   4.041   4.898   0.762
 9618SOL    HW229754   4.031   4.811   0.623
 9619SOL     OW29755   1.672   6.797   1.147
 9619SOL    HW129756   1.738   6.723   1.141
 9619SOL    HW229757   1.652   6.831   1.055
 9620SOL     OW29758   3.547   1.698   0.070
 9620SOL    HW129759   3.462   1.646   0.079
 9620SOL    HW229760   3.620   1.638   0.038
 9621SOL     OW29761   1.360   2.329   1.665
 9621SOL    HW129762   1.381   2.329   1.763
 9621SOL    HW229763   1.394   2.245   1.623
 9622SOL     OW29764   0.104   6.422   5.554
 9622SOL    HW129765   0.057   6.424   5.466
 9622SOL    HW229766   0.192   6.376   5.543
 9623SOL     OW29767   4.655   6.466   6.115
 9623SOL    HW129768   4.647   6.384   6.059
 9623SOL    HW229769   4.700   6.538   6.062
 9624SOL     OW29770   4.970   5.269   5.277
 9624SOL    HW129771   4.887   5.252   5.224
 9624SOL    HW229772   5.044   5.211   5.242
 9625SOL     OW29773   4.463   3.583   5.601
 9625SOL    HW129774   4.469   3.544   5.509
 9625SOL    HW229775   4.464   3.510   5.669
 9626SOL     OW29776   2.218   2.267   5.962
 9626SOL    HW129777   2.127   2.285   5.925
 9626SOL    HW229778   2.259   2.190   5.914
 9627SOL     OW29779   0.281   5.488   6.824
 9627SOL    HW129780   0.289   5.421   6.897
 9627SOL    HW229781   0.191   5.481   6.782
 9628SOL     OW29782   6.111   1.549   6.326
 9628SOL    HW129783   6.111   1.476   6.258
 9628SOL    HW229784   6.057   1.522   6.405
 9629SOL     OW29785   0.739   5.532   4.601
 9629SOL    HW129786   0.671   5.460   4.589
 9629SOL    HW229787   0.774   5.560   4.512
 9630SOL     OW29788   5.961   6.886   5.614
 9630SOL    HW129789   6.032   6.936   5.564
 9630SOL    HW229790   5.982   6.887   5.712
 9631SOL     OW29791   3.503   0.213   0.894
 9631SOL    HW129792   3.421   0.155   0.896
 9631SOL    HW229793   3.583   0.155   0.880
 9632SOL     OW29794   3.249   5.194   2.343
 9632SOL    HW129795   3.232   5.112   2.397
 9632SOL    HW229796   3.251   5.274   2.403
 9633SOL     OW29797   3.583   3.056   2.761
 9633SOL    HW129798   3.564   3.153   2.777
 9633SOL    HW229799   3.623   3.044   2.670
 9634SOL     OW29800   5.754   4.696   3.541
 9634SOL    HW129801   5.848   4.669   3.524
 9634SOL    HW229802   5.752   4.778   3.599
 9635SOL     OW29803   1.358   5.352   4.062
 9635SOL    HW129804   1.347   5.263   4.017
 9635SOL    HW229805   1.453   5.381   4.055
 9636SOL     OW29806   4.927   3.897   3.807
 9636SOL    HW129807   4.895   3.832   3.737
 9636SOL    HW229808   5.001   3.855   3.859
 9637SOL     OW29809   2.124   3.478   6.992
 9637SOL    HW129810   2.194   3.410   6.972
 9637SOL    HW229811   2.035   3.445   6.960
 9638SOL     OW29812   5.885   5.430   5.428
 9638SOL    HW129813   5.804   5.407   5.375
 9638SOL    HW229814   5.963   5.375   5.397
 9639SOL     OW29815   4.120   1.897   2.280
 9639SOL    HW129816   4.215   1.893   2.309
 9639SOL    HW229817   4.091   1.993   2.272
 9640SOL     OW29818   4.726   0.449   3.225
 9640SOL    HW129819   4.706   0.514   3.298
 9640SOL    HW229820   4.731   0.357   3.263
 9641SOL     OW29821   6.887   3.522   3.107
 9641SOL    HW129822   6.809   3.463   3.129
 9641SOL    HW229823   6.855   3.605   3.061
 9642SOL     OW29824   1.426   0.416   4.451
 9642SOL    HW129825   1.366   0.354   4.401
 9642SOL    HW229826   1.520   0.400   4.423
 9643SOL     OW29827   4.615   4.821   4.602
 9643SOL    HW129828   4.663   4.906   4.578
 9643SOL    HW229829   4.537   4.808   4.540
 9644SOL     OW29830   2.034   5.483   4.102
 9644SOL    HW129831   2.118   5.536   4.093
 9644SOL    HW229832   2.038   5.403   4.042
 9645SOL     OW29833   0.646   4.724   5.898
 9645SOL    HW129834   0.608   4.715   5.990
 9645SOL    HW229835   0.574   4.750   5.834
 9646SOL     OW29836   3.981   5.304   6.312
 9646SOL    HW129837   4.039   5.345   6.242
 9646SOL    HW229838   3.891   5.348   6.311
 9647SOL     OW29839   6.900   7.010   3.671
 9647SOL    HW129840   6.809   6.970   3.674
 9647SOL    HW229841   6.963   6.948   3.624
 9648SOL     OW29842   4.111   2.571   1.033
 9648SOL    HW129843   4.035   2.562   0.968
 9648SOL    HW229844   4.175   2.495   1.019
 9649SOL     OW29845   0.917   5.719   6.857
 9649SOL    HW129846   0.841   5.684   6.803
 9649SOL    HW229847   0.916   5.819   6.854
 9650SOL     OW29848   6.750   4.623   4.511
 9650SOL    HW129849   6.664   4.641   4.558
 9650SOL    HW229850   6.733   4.575   4.425
 9651SOL     OW29851   4.196   1.839   0.015
 9651SOL    HW129852   4.123   1.815   6.971
 9651SOL    HW229853   4.284   1.812   6.995
 9652SOL     OW29854   0.108   3.865   0.187
 9652SOL    HW129855   0.129   3.806   0.265
 9652SOL    HW229856   0.032   3.926   0.211
 9653SOL     OW29857   4.313   4.475   6.137
 9653SOL    HW129858   4.322   4.428   6.225
 9653SOL    HW229859   4.376   4.435   6.071
 9654SOL     OW29860   3.153   3.473   2.957
 9654SOL    HW129861   3.124   3.497   2.865
 9654SOL    HW229862   3.074   3.444   3.011
 9655SOL     OW29863   4.078   1.157   1.481
 9655SOL    HW129864   4.002   1.188   1.424
 9655SOL    HW229865   4.164   1.196   1.446
 9656SOL     OW29866   5.881   3.685   0.185
 9656SOL    HW129867   5.936   3.733   0.116
 9656SOL    HW229868   5.786   3.682   0.156
 9657SOL     OW29869   6.523   4.361   3.849
 9657SOL    HW129870   6.458   4.341   3.923
 9657SOL    HW229871   6.499   4.449   3.807
 9658SOL     OW29872   4.780   2.347   2.812
 9658SOL    HW129873   4.879   2.340   2.817
 9658SOL    HW229874   4.749   2.317   2.721
 9659SOL     OW29875   2.652   3.325   6.981
 9659SOL    HW129876   2.714   3.393   6.942
 9659SOL    HW229877   2.681   3.233   6.954
 9660SOL     OW29878   1.526   5.866   1.830
 9660SOL    HW129879   1.455   5.935   1.817
 9660SOL    HW229880   1.607   5.890   1.776
 9661SOL     OW29881   4.546   3.980   0.994
 9661SOL    HW129882   4.645   3.971   0.978
 9661SOL    HW229883   4.501   3.894   0.971
 9662SOL     OW29884   5.543   5.444   6.276
 9662SOL    HW129885   5.479   5.398   6.337
 9662SOL    HW229886   5.603   5.504   6.329
 9663SOL     OW29887   0.846   5.343   2.828
 9663SOL    HW129888   0.835   5.305   2.920
 9663SOL    HW229889   0.936   5.387   2.821
 9664SOL     OW29890   5.069   4.547   2.537
 9664SOL    HW129891   5.084   4.465   2.593
 9664SOL    HW229892   5.007   4.524   2.461
 9665SOL     OW29893   6.630   5.967   6.369
 9665SOL    HW129894   6.533   5.946   6.356
 9665SOL    HW229895   6.643   6.066   6.368
 9666SOL     OW29896   6.243   3.954   6.989
 9666SOL    HW129897   6.227   4.025   0.037
 9666SOL    HW229898   6.158   3.935   6.940
 9667SOL     OW29899   6.092   6.076   6.310
 9667SOL    HW129900   6.097   6.143   6.235
 9667SOL    HW229901   6.084   6.124   6.397
 9668SOL     OW29902   1.063   0.503   6.244
 9668SOL    HW129903   0.973   0.470   6.273
 9668SOL    HW229904   1.078   0.478   6.148
 9669SOL     OW29905   3.963   0.389   0.210
 9669SOL    HW129906   3.961   0.405   0.308
 9669SOL    HW229907   4.047   0.340   0.186
 9670SOL     OW29908   6.955   0.209   6.931
 9670SOL    HW129909   7.009   0.154   6.868
 9670SOL    HW229910   6.902   0.276   6.880
 9671SOL     OW29911   0.939   5.250   7.000
 9671SOL    HW129912   0.916   5.330   6.944
 9671SOL    HW229913   1.039   5.244   7.010
 9672SOL     OW29914   1.086   3.590   3.581
 9672SOL    HW129915   1.043   3.504   3.608
 9672SOL    HW229916   1.113   3.586   3.485
 9673SOL     OW29917   2.044   3.639   0.532
 9673SOL    HW129918   1.986   3.596   0.462
 9673SOL    HW229919   2.067   3.571   0.602
 9674SOL     OW29920   2.773   6.533   4.114
 9674SOL    HW129921   2.812   6.604   4.173
 9674SOL    HW229922   2.836   6.513   4.039
 9675SOL     OW29923   5.622   3.307   6.960
 9675SOL    HW129924   5.554   3.361   7.010
 9675SOL    HW229925   5.713   3.327   6.996
 9676SOL     OW29926   0.354   3.053   0.002
 9676SOL    HW129927   0.261   3.024   0.023
 9676SOL    HW229928   0.402   3.076   0.086
 9677SOL     OW29929   0.241   4.709   1.137
 9677SOL    HW129930   0.202   4.801   1.129
 9677SOL    HW229931   0.329   4.714   1.184
 9678SOL     OW29932   3.433   3.641   5.201
 9678SOL    HW129933   3.344   3.644   5.246
 9678SOL    HW229934   3.500   3.693   5.254
 9679SOL     OW29935   1.557   1.806   4.392
 9679SOL    HW129936   1.487   1.758   4.445
 9679SOL    HW229937   1.548   1.904   4.407
 9680SOL     OW29938   4.871   6.268   1.797
 9680SOL    HW129939   4.961   6.305   1.820
 9680SOL    HW229940   4.804   6.297   1.866
 9681SOL     OW29941   1.747   1.399   1.580
 9681SOL    HW129942   1.787   1.477   1.627
 9681SOL    HW229943   1.647   1.406   1.581
 9682SOL     OW29944   4.654   5.591   5.630
 9682SOL    HW129945   4.687   5.509   5.585
 9682SOL    HW229946   4.686   5.592   5.725
 9683SOL     OW29947   3.164   6.805   2.790
 9683SOL    HW129948   3.149   6.867   2.713
 9683SOL    HW229949   3.219   6.851   2.860
 9684SOL     OW29950   0.314   3.210   5.494
 9684SOL    HW129951   0.291   3.253   5.581
 9684SOL    HW229952   0.263   3.254   5.421
 9685SOL     OW29953   4.028   4.170   1.232
 9685SOL    HW129954   4.075   4.234   1.170
 9685SOL    HW229955   3.935   4.203   1.250
 9686SOL     OW29956   6.471   1.717   5.595
 9686SOL    HW129957   6.391   1.669   5.560
 9686SOL    HW229958   6.505   1.780   5.524
 9687SOL     OW29959   5.977   1.466   2.888
 9687SOL    HW129960   5.899   1.503   2.837
 9687SOL    HW229961   6.053   1.531   2.883
 9688SOL     OW29962   0.478   4.502   1.126
 9688SOL    HW129963   0.439   4.553   1.049
 9688SOL    HW229964   0.512   4.414   1.093
 9689SOL     OW29965   2.254   6.058   1.243
 9689SOL    HW129966   2.286   6.070   1.149
 9689SOL    HW229967   2.262   6.144   1.292
 9690SOL     OW29968   6.355   5.613   4.723
 9690SOL    HW129969   6.302   5.694   4.698
 9690SOL    HW229970   6.406   5.581   4.642
 9691SOL     OW29971   2.940   3.765   1.929
 9691SOL    HW129972   2.961   3.683   1.983
 9691SOL    HW229973   2.892   3.739   1.846
 9692SOL     OW29974   5.124   4.304   1.056
 9692SOL    HW129975   5.155   4.305   1.151
 9692SOL    HW229976   5.139   4.394   1.016
 9693SOL     OW29977   5.280   3.453   4.782
 9693SOL    HW129978   5.237   3.543   4.783
 9693SOL    HW229979   5.379   3.462   4.784
 9694SOL     OW29980   2.903   6.917   2.510
 9694SOL    HW129981   2.865   6.984   2.574
 9694SOL    HW229982   2.997   6.942   2.489
 9695SOL     OW29983   0.825   2.428   2.904
 9695SOL    HW129984   0.827   2.516   2.858
 9695SOL    HW229985   0.732   2.409   2.936
 9696SOL     OW29986   5.068   2.504   3.221
 9696SOL    HW129987   4.986   2.447   3.219
 9696SOL    HW229988   5.094   2.529   3.127
 9697SOL     OW29989   0.781   6.700   0.935
 9697SOL    HW129990   0.855   6.663   0.878
 9697SOL    HW229991   0.816   6.777   0.989
 9698SOL     OW29992   6.350   3.692   1.675
 9698SOL    HW129993   6.295   3.776   1.673
 9698SOL    HW229994   6.422   3.698   1.606
 9699SOL     OW29995   1.366   5.726   0.689
 9699SOL    HW129996   1.402   5.728   0.596
 9699SOL    HW229997   1.266   5.728   0.687
 9700SOL     OW29998   5.449   0.025   5.122
 9700SOL    HW129999   5.474   6.963   5.070
 9700SOL    HW230000   5.437   0.001   5.218
 9701SOL     OW30001   4.318   3.469   6.426
 9701SOL    HW130002   4.379   3.549   6.418
 9701SOL    HW230003   4.254   3.469   6.350
 9702SOL     OW30004   3.880   3.685   1.971
 9702SOL    HW130005   3.932   3.654   1.891
 9702SOL    HW230006   3.934   3.752   2.022
 9703SOL     OW30007   6.546   4.239   4.826
 9703SOL    HW130008   6.473   4.230   4.895
 9703SOL    HW230009   6.621   4.292   4.864
 9704SOL     OW30010   1.880   3.979   2.665
 9704SOL    HW130011   1.861   3.884   2.691
 9704SOL    HW230012   1.808   4.038   2.700
 9705SOL     OW30013   6.034   3.315   5.846
 9705SOL    HW130014   5.979   3.322   5.763
 9705SOL    HW230015   5.978   3.275   5.919
 9706SOL     OW30016   0.741   1.544   2.465
 9706SOL    HW130017   0.701   1.629   2.431
 9706SOL    HW230018   0.720   1.470   2.401
 9707SOL     OW30019   1.071   4.435   2.486
 9707SOL    HW130020   0.981   4.446   2.528
 9707SOL    HW230021   1.136   4.497   2.530
 9708SOL     OW30022   2.308   0.241   1.774
 9708SOL    HW130023   2.255   0.256   1.857
 9708SOL    HW230024   2.369   0.162   1.787
 9709SOL     OW30025   5.089   2.088   1.533
 9709SOL    HW130026   5.043   2.060   1.617
 9709SOL    HW230027   5.187   2.067   1.539
 9710SOL     OW30028   6.780   5.653   3.436
 9710SOL    HW130029   6.873   5.635   3.405
 9710SOL    HW230030   6.742   5.731   3.385
 9711SOL     OW30031   3.727   0.949   0.823
 9711SOL    HW130032   3.648   0.966   0.764
 9711SOL    HW230033   3.791   0.890   0.776
 9712SOL     OW30034   5.699   1.995   6.578
 9712SOL    HW130035   5.637   1.976   6.654
 9712SOL    HW230036   5.785   1.946   6.591
 9713SOL     OW30037   0.692   6.619   3.069
 9713SOL    HW130038   0.774   6.648   3.119
 9713SOL    HW230039   0.712   6.620   2.971
 9714SOL     OW30040   2.390   4.358   3.916
 9714SOL    HW130041   2.349   4.274   3.952
 9714SOL    HW230042   2.479   4.373   3.959
 9715SOL     OW30043   6.696   3.548   6.458
 9715SOL    HW130044   6.698   3.529   6.360
 9715SOL    HW230045   6.609   3.516   6.496
 9716SOL     OW30046   2.174   5.013   6.972
 9716SOL    HW130047   2.168   5.058   0.042
 9716SOL    HW230048   2.140   5.074   6.901
 9717SOL     OW30049   3.781   1.919   5.372
 9717SOL    HW130050   3.776   1.884   5.278
 9717SOL    HW230051   3.717   1.867   5.429
 9718SOL     OW30052   3.776   3.002   6.643
 9718SOL    HW130053   3.762   2.919   6.589
 9718SOL    HW230054   3.874   3.018   6.654
 9719SOL     OW30055   4.826   0.086   5.544
 9719SOL    HW130056   4.855   0.121   5.633
 9719SOL    HW230057   4.894   0.021   5.511
 9720SOL     OW30058   2.014   3.248   3.105
 9720SOL    HW130059   2.074   3.262   3.027
 9720SOL    HW230060   2.018   3.151   3.132
 9721SOL     OW30061   0.632   1.055   0.167
 9721SOL    HW130062   0.611   1.123   0.237
 9721SOL    HW230063   0.681   0.978   0.209
 9722SOL     OW30064   4.112   2.794   5.338
 9722SOL    HW130065   4.117   2.706   5.291
 9722SOL    HW230066   4.035   2.846   5.303
 9723SOL     OW30067   6.794   6.881   4.967
 9723SOL    HW130068   6.764   6.840   5.053
 9723SOL    HW230069   6.728   6.950   4.938
 9724SOL     OW30070   1.440   5.334   6.925
 9724SOL    HW130071   1.465   5.407   6.862
 9724SOL    HW230072   1.515   5.267   6.930
 9725SOL     OW30073   4.160   5.361   5.635
 9725SOL    HW130074   4.226   5.428   5.600
 9725SOL    HW230075   4.206   5.272   5.644
 9726SOL     OW30076   6.842   1.272   4.099
 9726SOL    HW130077   6.877   1.283   4.006
 9726SOL    HW230078   6.918   1.266   4.163
 9727SOL     OW30079   0.356   1.193   0.709
 9727SOL    HW130080   0.341   1.255   0.632
 9727SOL    HW230081   0.409   1.114   0.679
 9728SOL     OW30082   4.678   1.578   5.055
 9728SOL    HW130083   4.706   1.668   5.088
 9728SOL    HW230084   4.759   1.522   5.039
 9729SOL     OW30085   0.596   5.218   2.574
 9729SOL    HW130086   0.690   5.192   2.552
 9729SOL    HW230087   0.533   5.161   2.521
 9730SOL     OW30088   0.462   3.808   2.876
 9730SOL    HW130089   0.382   3.868   2.883
 9730SOL    HW230090   0.433   3.714   2.865
 9731SOL     OW30091   5.507   3.388   2.004
 9731SOL    HW130092   5.467   3.297   1.994
 9731SOL    HW230093   5.538   3.421   1.915
 9732SOL     OW30094   1.878   2.944   3.104
 9732SOL    HW130095   1.851   2.848   3.092
 9732SOL    HW230096   1.921   2.977   3.020
 9733SOL     OW30097   6.389   4.765   2.193
 9733SOL    HW130098   6.325   4.817   2.250
 9733SOL    HW230099   6.429   4.826   2.125
 9734SOL     OW30100   6.188   6.252   6.105
 9734SOL    HW130101   6.253   6.235   6.031
 9734SOL    HW230102   6.111   6.305   6.069
 9735SOL     OW30103   0.425   2.982   0.935
 9735SOL    HW130104   0.358   3.050   0.906
 9735SOL    HW230105   0.397   2.892   0.901
 9736SOL     OW30106   5.340   1.583   4.769
 9736SOL    HW130107   5.407   1.604   4.697
 9736SOL    HW230108   5.360   1.493   4.807
 9737SOL     OW30109   5.867   2.979   2.879
 9737SOL    HW130110   5.839   3.012   2.788
 9737SOL    HW230111   5.799   3.006   2.947
 9738SOL     OW30112   2.246   6.153   1.669
 9738SOL    HW130113   2.333   6.120   1.633
 9738SOL    HW230114   2.260   6.198   1.756
 9739SOL     OW30115   5.665   0.397   6.832
 9739SOL    HW130116   5.724   0.424   6.756
 9739SOL    HW230117   5.706   0.319   6.880
 9740SOL     OW30118   6.085   0.434   2.790
 9740SOL    HW130119   6.073   0.525   2.828
 9740SOL    HW230120   6.133   0.376   2.855
 9741SOL     OW30121   2.656   1.551   4.681
 9741SOL    HW130122   2.687   1.484   4.749
 9741SOL    HW230123   2.563   1.579   4.703
 9742SOL     OW30124   3.944   1.790   6.130
 9742SOL    HW130125   3.893   1.875   6.119
 9742SOL    HW230126   3.885   1.720   6.171
 9743SOL     OW30127   4.910   3.685   4.215
 9743SOL    HW130128   4.876   3.733   4.296
 9743SOL    HW230129   4.845   3.612   4.189
 9744SOL     OW30130   1.541   0.746   3.525
 9744SOL    HW130131   1.465   0.797   3.484
 9744SOL    HW230132   1.561   0.665   3.469
 9745SOL     OW30133   0.070   0.333   5.797
 9745SOL    HW130134   7.010   0.295   5.750
 9745SOL    HW230135   0.125   0.259   5.834
 9746SOL     OW30136   4.444   5.278   6.418
 9746SOL    HW130137   4.395   5.352   6.372
 9746SOL    HW230138   4.393   5.193   6.409
 9747SOL     OW30139   2.337   1.966   2.857
 9747SOL    HW130140   2.340   1.942   2.954
 9747SOL    HW230141   2.389   2.050   2.841
 9748SOL     OW30142   1.421   1.090   3.754
 9748SOL    HW130143   1.509   1.062   3.792
 9748SOL    HW230144   1.350   1.026   3.783
 9749SOL     OW30145   6.560   1.202   1.877
 9749SOL    HW130146   6.474   1.225   1.832
 9749SOL    HW230147   6.580   1.270   1.948
 9750SOL     OW30148   6.563   3.011   4.386
 9750SOL    HW130149   6.563   3.098   4.336
 9750SOL    HW230150   6.475   2.966   4.373
 9751SOL     OW30151   2.917   0.332   1.677
 9751SOL    HW130152   2.942   0.427   1.696
 9751SOL    HW230153   2.983   0.271   1.721
 9752SOL     OW30154   3.441   3.352   6.743
 9752SOL    HW130155   3.407   3.259   6.756
 9752SOL    HW230156   3.365   3.416   6.743
 9753SOL     OW30157   0.011   6.392   5.277
 9753SOL    HW130158   6.973   6.312   5.261
 9753SOL    HW230159   6.975   6.475   5.279
 9754SOL     OW30160   3.154   1.070   1.793
 9754SOL    HW130161   3.207   1.149   1.763
 9754SOL    HW230162   3.062   1.075   1.752
 9755SOL     OW30163   3.233   4.618   0.649
 9755SOL    HW130164   3.144   4.651   0.680
 9755SOL    HW230165   3.267   4.676   0.575
 9756SOL     OW30166   5.894   0.397   5.858
 9756SOL    HW130167   5.920   0.356   5.771
 9756SOL    HW230168   5.970   0.390   5.923
 9757SOL     OW30169   5.237   4.318   3.886
 9757SOL    HW130170   5.174   4.350   3.957
 9757SOL    HW230171   5.287   4.396   3.848
 9758SOL     OW30172   1.929   0.211   1.935
 9758SOL    HW130173   2.008   0.150   1.929
 9758SOL    HW230174   1.900   0.220   2.030
 9759SOL     OW30175   6.847   1.046   1.300
 9759SOL    HW130176   6.943   1.020   1.291
 9759SOL    HW230177   6.833   1.095   1.387
 9760SOL     OW30178   4.256   1.139   0.102
 9760SOL    HW130179   4.207   1.222   0.129
 9760SOL    HW230180   4.306   1.157   0.017
 9761SOL     OW30181   1.251   2.085   1.026
 9761SOL    HW130182   1.278   2.075   1.122
 9761SOL    HW230183   1.182   2.015   1.004
 9762SOL     OW30184   2.598   1.654   5.764
 9762SOL    HW130185   2.662   1.632   5.838
 9762SOL    HW230186   2.522   1.588   5.765
 9763SOL     OW30187   6.406   1.006   0.646
 9763SOL    HW130188   6.424   0.917   0.687
 9763SOL    HW230189   6.492   1.052   0.626
 9764SOL     OW30190   6.799   2.399   2.037
 9764SOL    HW130191   6.857   2.460   1.983
 9764SOL    HW230192   6.712   2.385   1.990
 9765SOL     OW30193   6.385   0.327   1.860
 9765SOL    HW130194   6.338   0.416   1.858
 9765SOL    HW230195   6.474   0.336   1.816
 9766SOL     OW30196   2.284   2.138   4.769
 9766SOL    HW130197   2.362   2.179   4.816
 9766SOL    HW230198   2.290   2.038   4.777
 9767SOL     OW30199   2.167   3.097   5.550
 9767SOL    HW130200   2.259   3.064   5.530
 9767SOL    HW230201   2.129   3.045   5.626
 9768SOL     OW30202   5.634   3.156   1.287
 9768SOL    HW130203   5.723   3.115   1.306
 9768SOL    HW230204   5.645   3.252   1.263
 9769SOL     OW30205   3.048   1.883   5.078
 9769SOL    HW130206   3.114   1.922   5.143
 9769SOL    HW230207   2.989   1.956   5.043
 9770SOL     OW30208   2.876   2.608   6.390
 9770SOL    HW130209   2.794   2.564   6.356
 9770SOL    HW230210   2.954   2.580   6.334
 9771SOL     OW30211   2.897   6.520   2.547
 9771SOL    HW130212   2.994   6.498   2.551
 9771SOL    HW230213   2.867   6.557   2.635
 9772SOL     OW30214   1.329   0.243   1.206
 9772SOL    HW130215   1.332   0.300   1.288
 9772SOL    HW230216   1.292   0.153   1.229
 9773SOL     OW30217   5.344   4.513   2.208
 9773SOL    HW130218   5.325   4.435   2.268
 9773SOL    HW230219   5.421   4.492   2.148
 9774SOL     OW30220   1.246   5.368   5.173
 9774SOL    HW130221   1.276   5.277   5.201
 9774SOL    HW230222   1.175   5.360   5.102
 9775SOL     OW30223   2.301   1.337   3.891
 9775SOL    HW130224   2.363   1.394   3.944
 9775SOL    HW230225   2.214   1.384   3.878
 9776SOL     OW30226   2.146   5.423   0.063
 9776SOL    HW130227   2.164   5.335   0.108
 9776SOL    HW230228   2.230   5.457   0.021
 9777SOL     OW30229   4.553   0.924   5.280
 9777SOL    HW130230   4.461   0.888   5.268
 9777SOL    HW230231   4.548   1.013   5.326
 9778SOL     OW30232   0.347   3.615   4.259
 9778SOL    HW130233   0.432   3.636   4.211
 9778SOL    HW230234   0.281   3.689   4.245
 9779SOL     OW30235   2.087   0.921   3.862
 9779SOL    HW130236   2.054   0.828   3.879
 9779SOL    HW230237   2.080   0.975   3.946
 9780SOL     OW30238   1.096   2.378   1.624
 9780SOL    HW130239   1.053   2.336   1.704
 9780SOL    HW230240   1.191   2.345   1.616
 9781SOL     OW30241   2.122   2.417   3.615
 9781SOL    HW130242   2.177   2.334   3.610
 9781SOL    HW230243   2.035   2.403   3.568
 9782SOL     OW30244   6.729   2.372   1.325
 9782SOL    HW130245   6.776   2.449   1.282
 9782SOL    HW230246   6.778   2.287   1.307
 9783SOL     OW30247   3.622   1.115   3.225
 9783SOL    HW130248   3.550   1.099   3.157
 9783SOL    HW230249   3.705   1.068   3.197
 9784SOL     OW30250   1.515   1.448   6.291
 9784SOL    HW130251   1.558   1.439   6.381
 9784SOL    HW230252   1.564   1.392   6.225
 9785SOL     OW30253   0.467   3.298   5.084
 9785SOL    HW130254   0.388   3.256   5.041
 9785SOL    HW230255   0.546   3.237   5.075
 9786SOL     OW30256   2.124   4.056   0.756
 9786SOL    HW130257   2.162   4.125   0.818
 9786SOL    HW230258   2.042   4.016   0.797
 9787SOL     OW30259   3.177   3.559   3.385
 9787SOL    HW130260   3.214   3.591   3.297
 9787SOL    HW230261   3.243   3.578   3.458
 9788SOL     OW30262   5.186   6.848   2.089
 9788SOL    HW130263   5.220   6.769   2.140
 9788SOL    HW230264   5.107   6.887   2.137
 9789SOL     OW30265   3.830   1.073   6.248
 9789SOL    HW130266   3.759   1.124   6.296
 9789SOL    HW230267   3.795   1.043   6.159
 9790SOL     OW30268   0.323   4.712   4.208
 9790SOL    HW130269   0.246   4.665   4.166
 9790SOL    HW230270   0.360   4.656   4.282
 9791SOL     OW30271   1.293   6.659   0.843
 9791SOL    HW130272   1.332   6.703   0.762
 9791SOL    HW230273   1.349   6.579   0.868
 9792SOL     OW30274   4.158   6.430   0.397
 9792SOL    HW130275   4.204   6.350   0.360
 9792SOL    HW230276   4.103   6.403   0.477
 9793SOL     OW30277   5.373   1.037   3.265
 9793SOL    HW130278   5.323   0.953   3.244
 9793SOL    HW230279   5.313   1.115   3.249
 9794SOL     OW30280   4.532   4.778   4.881
 9794SOL    HW130281   4.526   4.798   4.783
 9794SOL    HW230282   4.515   4.681   4.896
 9795SOL     OW30283   1.612   3.872   3.028
 9795SOL    HW130284   1.656   3.821   2.954
 9795SOL    HW230285   1.682   3.920   3.081
 9796SOL     OW30286   3.820   3.638   3.462
 9796SOL    HW130287   3.826   3.610   3.558
 9796SOL    HW230288   3.756   3.580   3.413
 9797SOL     OW30289   3.032   6.022   6.843
 9797SOL    HW130290   3.116   6.050   6.889
 9797SOL    HW230291   2.956   6.079   6.873
 9798SOL     OW30292   0.887   3.828   0.299
 9798SOL    HW130293   0.813   3.849   0.236
 9798SOL    HW230294   0.901   3.906   0.361
 9799SOL     OW30295   2.955   0.513   6.798
 9799SOL    HW130296   3.013   0.592   6.777
 9799SOL    HW230297   2.859   0.540   6.789
 9800SOL     OW30298   6.617   3.538   4.867
 9800SOL    HW130299   6.554   3.460   4.863
 9800SOL    HW230300   6.646   3.561   4.774
 9801SOL     OW30301   6.272   6.289   6.755
 9801SOL    HW130302   6.247   6.363   6.817
 9801SOL    HW230303   6.369   6.297   6.732
 9802SOL     OW30304   3.937   4.721   0.264
 9802SOL    HW130305   4.015   4.763   0.218
 9802SOL    HW230306   3.912   4.776   0.344
 9803SOL     OW30307   0.958   3.800   6.805
 9803SOL    HW130308   0.863   3.824   6.784
 9803SOL    HW230309   0.960   3.744   6.888
 9804SOL     OW30310   7.007   5.799   2.569
 9804SOL    HW130311   0.070   5.853   2.560
 9804SOL    HW230312   6.964   5.789   2.479
 9805SOL     OW30313   0.876   6.238   3.822
 9805SOL    HW130314   0.864   6.176   3.744
 9805SOL    HW230315   0.866   6.187   3.907
 9806SOL     OW30316   3.522   1.918   6.260
 9806SOL    HW130317   3.539   1.870   6.347
 9806SOL    HW230318   3.485   1.853   6.193
 9807SOL     OW30319   3.410   3.589   2.036
 9807SOL    HW130320   3.371   3.680   2.022
 9807SOL    HW230321   3.490   3.577   1.978
 9808SOL     OW30322   4.438   5.808   2.771
 9808SOL    HW130323   4.457   5.905   2.789
 9808SOL    HW230324   4.340   5.792   2.778
 9809SOL     OW30325   6.903   3.088   1.201
 9809SOL    HW130326   6.814   3.042   1.206
 9809SOL    HW230327   6.912   3.136   1.114
 9810SOL     OW30328   2.643   1.491   6.834
 9810SOL    HW130329   2.630   1.530   6.925
 9810SOL    HW230330   2.726   1.530   6.793
 9811SOL     OW30331   6.349   3.861   3.824
 9811SOL    HW130332   6.413   3.882   3.898
 9811SOL    HW230333   6.390   3.886   3.736
 9812SOL     OW30334   3.292   6.300   5.278
 9812SOL    HW130335   3.391   6.294   5.270
 9812SOL    HW230336   3.254   6.343   5.196
 9813SOL     OW30337   4.974   2.177   1.311
 9813SOL    HW130338   5.005   2.145   1.401
 9813SOL    HW230339   4.879   2.206   1.317
 9814SOL     OW30340   5.702   1.170   0.302
 9814SOL    HW130341   5.801   1.184   0.303
 9814SOL    HW230342   5.661   1.224   0.228
 9815SOL     OW30343   4.447   2.168   4.955
 9815SOL    HW130344   4.512   2.193   4.883
 9815SOL    HW230345   4.422   2.072   4.945
 9816SOL     OW30346   1.714   6.844   0.112
 9816SOL    HW130347   1.629   6.865   0.064
 9816SOL    HW230348   1.766   6.775   0.061
 9817SOL     OW30349   6.973   6.750   3.263
 9817SOL    HW130350   6.875   6.746   3.283
 9817SOL    HW230351   6.987   6.757   3.165
 9818SOL     OW30352   6.813   2.389   4.359
 9818SOL    HW130353   6.878   2.465   4.366
 9818SOL    HW230354   6.836   2.332   4.281
 9819SOL     OW30355   3.726   1.173   3.688
 9819SOL    HW130356   3.674   1.180   3.772
 9819SOL    HW230357   3.824   1.184   3.708
 9820SOL     OW30358   4.576   3.821   5.661
 9820SOL    HW130359   4.642   3.868   5.603
 9820SOL    HW230360   4.539   3.742   5.612
 9821SOL     OW30361   5.979   5.674   0.173
 9821SOL    HW130362   5.882   5.698   0.184
 9821SOL    HW230363   5.988   5.574   0.173
 9822SOL     OW30364   0.731   6.699   2.802
 9822SOL    HW130365   0.678   6.663   2.726
 9822SOL    HW230366   0.689   6.784   2.836
 9823SOL     OW30367   3.048   0.814   2.005
 9823SOL    HW130368   3.011   0.897   2.046
 9823SOL    HW230369   2.999   0.794   1.920
 9824SOL     OW30370   1.362   4.331   4.960
 9824SOL    HW130371   1.423   4.271   5.011
 9824SOL    HW230372   1.273   4.288   4.951
 9825SOL     OW30373   3.887   4.915   5.365
 9825SOL    HW130374   3.889   4.904   5.464
 9825SOL    HW230375   3.816   4.856   5.326
 9826SOL     OW30376   4.178   7.009   5.865
 9826SOL    HW130377   4.080   7.000   5.884
 9826SOL    HW230378   4.200   6.960   5.781
 9827SOL     OW30379   0.887   3.736   4.736
 9827SOL    HW130380   0.953   3.666   4.764
 9827SOL    HW230381   0.802   3.724   4.787
 9828SOL     OW30382   3.744   2.399   6.886
 9828SOL    HW130383   3.757   2.489   6.844
 9828SOL    HW230384   3.684   2.407   6.965
 9829SOL     OW30385   1.888   5.853   0.293
 9829SOL    HW130386   1.953   5.866   0.368
 9829SOL    HW230387   1.938   5.833   0.208
 9830SOL     OW30388   5.926   1.484   1.637
 9830SOL    HW130389   5.878   1.571   1.650
 9830SOL    HW230390   5.879   1.412   1.687
 9831SOL     OW30391   0.154   0.085   1.733
 9831SOL    HW130392   0.187   0.179   1.727
 9831SOL    HW230393   0.163   0.052   1.827
 9832SOL     OW30394   4.329   5.382   1.677
 9832SOL    HW130395   4.335   5.367   1.775
 9832SOL    HW230396   4.240   5.351   1.643
 9833SOL     OW30397   3.621   3.786   5.336
 9833SOL    HW130398   3.654   3.792   5.430
 9833SOL    HW230399   3.592   3.876   5.304
 9834SOL     OW30400   1.077   3.753   5.085
 9834SOL    HW130401   1.137   3.686   5.129
 9834SOL    HW230402   1.129   3.836   5.064
 9835SOL     OW30403   5.151   1.186   4.477
 9835SOL    HW130404   5.202   1.256   4.426
 9835SOL    HW230405   5.053   1.196   4.458
 9836SOL     OW30406   5.117   4.565   3.670
 9836SOL    HW130407   5.097   4.663   3.670
 9836SOL    HW230408   5.208   4.550   3.709
 9837SOL     OW30409   2.404   6.668   4.666
 9837SOL    HW130410   2.373   6.660   4.761
 9837SOL    HW230411   2.326   6.657   4.605
 9838SOL     OW30412   0.831   6.388   5.864
 9838SOL    HW130413   0.889   6.336   5.801
 9838SOL    HW230414   0.885   6.413   5.944
 9839SOL     OW30415   0.078   1.325   1.562
 9839SOL    HW130416   0.094   1.336   1.464
 9839SOL    HW230417   0.028   1.239   1.577
 9840SOL     OW30418   6.646   0.383   0.902
 9840SOL    HW130419   6.577   0.328   0.950
 9840SOL    HW230420   6.621   0.480   0.910
 9841SOL     OW30421   1.529   3.997   4.587
 9841SOL    HW130422   1.614   4.035   4.626
 9841SOL    HW230423   1.541   3.983   4.489
 9842SOL     OW30424   3.041   3.247   2.598
 9842SOL    HW130425   3.036   3.168   2.537
 9842SOL    HW230426   3.016   3.219   2.691
 9843SOL     OW30427   7.007   1.887   1.722
 9843SOL    HW130428   6.935   1.878   1.654
 9843SOL    HW230429   6.968   1.879   1.814
 9844SOL     OW30430   4.954   0.203   2.610
 9844SOL    HW130431   4.975   0.117   2.656
 9844SOL    HW230432   4.858   0.226   2.623
 9845SOL     OW30433   2.212   1.980   3.818
 9845SOL    HW130434   2.173   1.987   3.909
 9845SOL    HW230435   2.139   1.979   3.750
 9846SOL     OW30436   3.027   3.953   3.324
 9846SOL    HW130437   3.074   3.973   3.238
 9846SOL    HW230438   3.012   3.855   3.332
 9847SOL     OW30439   1.756   3.681   6.927
 9847SOL    HW130440   1.683   3.743   6.956
 9847SOL    HW230441   1.717   3.608   6.870
 9848SOL     OW30442   4.409   2.825   6.954
 9848SOL    HW130443   4.358   2.752   6.999
 9848SOL    HW230444   4.421   2.803   6.857
 9849SOL     OW30445   6.488   0.137   6.425
 9849SOL    HW130446   6.425   0.183   6.487
 9849SOL    HW230447   6.437   0.077   6.364
 9850SOL     OW30448   3.988   6.921   2.389
 9850SOL    HW130449   4.086   6.923   2.367
 9850SOL    HW230450   3.947   6.838   2.350
 9851SOL     OW30451   5.193   1.468   5.237
 9851SOL    HW130452   5.218   1.430   5.326
 9851SOL    HW230453   5.268   1.452   5.172
 9852SOL     OW30454   4.907   1.657   3.821
 9852SOL    HW130455   4.925   1.724   3.750
 9852SOL    HW230456   4.898   1.566   3.780
 9853SOL     OW30457   5.794   3.944   2.735
 9853SOL    HW130458   5.792   4.036   2.775
 9853SOL    HW230459   5.823   3.951   2.639
 9854SOL     OW30460   5.363   5.427   4.294
 9854SOL    HW130461   5.423   5.400   4.369
 9854SOL    HW230462   5.393   5.514   4.257
 9855SOL     OW30463   0.741   4.039   1.460
 9855SOL    HW130464   0.705   4.131   1.469
 9855SOL    HW230465   0.676   3.973   1.499
 9856SOL     OW30466   3.509   3.675   0.467
 9856SOL    HW130467   3.428   3.693   0.523
 9856SOL    HW230468   3.588   3.660   0.527
 9857SOL     OW30469   5.306   2.899   3.201
 9857SOL    HW130470   5.281   2.829   3.267
 9857SOL    HW230471   5.227   2.958   3.183
 9858SOL     OW30472   5.182   1.276   2.074
 9858SOL    HW130473   5.251   1.269   2.145
 9858SOL    HW230474   5.142   1.186   2.057
 9859SOL     OW30475   6.262   0.749   1.742
 9859SOL    HW130476   6.271   0.768   1.644
 9859SOL    HW230477   6.201   0.671   1.755
 9860SOL     OW30478   0.319   0.821   2.482
 9860SOL    HW130479   0.409   0.798   2.446
 9860SOL    HW230480   0.273   0.737   2.513
 9861SOL     OW30481   4.380   6.149   4.194
 9861SOL    HW130482   4.477   6.132   4.182
 9861SOL    HW230483   4.335   6.063   4.221
 9862SOL     OW30484   1.668   3.066   0.235
 9862SOL    HW130485   1.660   3.000   0.310
 9862SOL    HW230486   1.644   3.158   0.268
 9863SOL     OW30487   3.044   0.235   3.197
 9863SOL    HW130488   3.090   0.270   3.115
 9863SOL    HW230489   3.080   0.282   3.277
 9864SOL     OW30490   4.438   5.350   3.418
 9864SOL    HW130491   4.460   5.259   3.382
 9864SOL    HW230492   4.375   5.341   3.494
 9865SOL     OW30493   0.387   0.158   3.279
 9865SOL    HW130494   0.458   0.189   3.342
 9865SOL    HW230495   0.326   0.094   3.325
 9866SOL     OW30496   4.898   3.790   4.465
 9866SOL    HW130497   4.963   3.719   4.491
 9866SOL    HW230498   4.888   3.855   4.540
 9867SOL     OW30499   4.522   1.260   0.871
 9867SOL    HW130500   4.560   1.347   0.901
 9867SOL    HW230501   4.489   1.268   0.777
 9868SOL     OW30502   6.738   4.315   0.027
 9868SOL    HW130503   6.827   4.271   0.030
 9868SOL    HW230504   6.667   4.250   0.052
 9869SOL     OW30505   2.202   4.016   2.975
 9869SOL    HW130506   2.266   4.093   2.980
 9869SOL    HW230507   2.203   3.978   2.883
 9870SOL     OW30508   4.667   4.714   2.436
 9870SOL    HW130509   4.627   4.626   2.412
 9870SOL    HW230510   4.692   4.763   2.352
 9871SOL     OW30511   2.327   0.524   5.828
 9871SOL    HW130512   2.258   0.529   5.900
 9871SOL    HW230513   2.334   0.430   5.794
 9872SOL     OW30514   3.038   4.830   3.060
 9872SOL    HW130515   2.943   4.799   3.059
 9872SOL    HW230516   3.070   4.839   3.155
 9873SOL     OW30517   1.935   2.899   0.253
 9873SOL    HW130518   1.937   2.877   0.155
 9873SOL    HW230519   1.852   2.951   0.273
 9874SOL     OW30520   0.445   2.726   3.284
 9874SOL    HW130521   0.435   2.686   3.193
 9874SOL    HW230522   0.433   2.825   3.278
 9875SOL     OW30523   0.212   0.604   2.605
 9875SOL    HW130524   0.242   0.630   2.697
 9875SOL    HW230525   0.238   0.509   2.587
 9876SOL     OW30526   6.294   0.261   2.541
 9876SOL    HW130527   6.217   0.201   2.519
 9876SOL    HW230528   6.367   0.206   2.583
 9877SOL     OW30529   3.320   0.270   2.545
 9877SOL    HW130530   3.327   0.364   2.578
 9877SOL    HW230531   3.276   0.269   2.455
 9878SOL     OW30532   1.478   5.555   5.922
 9878SOL    HW130533   1.535   5.629   5.885
 9878SOL    HW230534   1.530   5.504   5.990
 9879SOL     OW30535   4.633   5.411   4.609
 9879SOL    HW130536   4.563   5.463   4.561
 9879SOL    HW230537   4.722   5.455   4.596
 9880SOL     OW30538   0.830   2.116   5.535
 9880SOL    HW130539   0.845   2.129   5.437
 9880SOL    HW230540   0.800   2.202   5.576
 9881SOL     OW30541   0.729   2.657   4.750
 9881SOL    HW130542   0.708   2.674   4.846
 9881SOL    HW230543   0.803   2.591   4.743
 9882SOL     OW30544   1.203   2.717   4.345
 9882SOL    HW130545   1.209   2.620   4.322
 9882SOL    HW230546   1.274   2.767   4.296
 9883SOL     OW30547   1.609   0.570   1.342
 9883SOL    HW130548   1.592   0.650   1.400
 9883SOL    HW230549   1.702   0.537   1.357
 9884SOL     OW30550   4.505   0.734   3.803
 9884SOL    HW130551   4.488   0.765   3.710
 9884SOL    HW230552   4.456   0.648   3.819
 9885SOL     OW30553   6.091   4.088   4.949
 9885SOL    HW130554   6.043   4.030   5.016
 9885SOL    HW230555   6.087   4.045   4.859
 9886SOL     OW30556   1.149   4.706   2.762
 9886SOL    HW130557   1.195   4.691   2.849
 9886SOL    HW230558   1.110   4.798   2.760
 9887SOL     OW30559   3.547   1.225   6.994
 9887SOL    HW130560   3.623   1.161   6.983
 9887SOL    HW230561   3.461   1.179   6.974
 9888SOL     OW30562   0.395   3.489   0.341
 9888SOL    HW130563   0.355   3.412   0.291
 9888SOL    HW230564   0.463   3.534   0.283
 9889SOL     OW30565   6.534   5.136   0.439
 9889SOL    HW130566   6.535   5.036   0.438
 9889SOL    HW230567   6.461   5.170   0.379
 9890SOL     OW30568   1.826   2.607   1.149
 9890SOL    HW130569   1.846   2.678   1.081
 9890SOL    HW230570   1.905   2.596   1.209
 9891SOL     OW30571   5.718   2.578   0.255
 9891SOL    HW130572   5.641   2.641   0.262
 9891SOL    HW230573   5.724   2.523   0.338
 9892SOL     OW30574   6.820   4.833   0.249
 9892SOL    HW130575   6.824   4.735   0.267
 9892SOL    HW230576   6.892   4.858   0.184
 9893SOL     OW30577   2.491   0.672   0.635
 9893SOL    HW130578   2.468   0.750   0.693
 9893SOL    HW230579   2.569   0.697   0.576
 9894SOL     OW30580   1.560   1.687   0.841
 9894SOL    HW130581   1.634   1.751   0.866
 9894SOL    HW230582   1.595   1.594   0.842
 9895SOL     OW30583   5.428   3.664   4.579
 9895SOL    HW130584   5.387   3.640   4.491
 9895SOL    HW230585   5.498   3.596   4.603
 9896SOL     OW30586   6.701   6.931   6.971
 9896SOL    HW130587   6.788   6.937   6.921
 9896SOL    HW230588   6.631   6.893   6.911
 9897SOL     OW30589   5.763   5.451   3.672
 9897SOL    HW130590   5.664   5.440   3.678
 9897SOL    HW230591   5.795   5.507   3.749
 9898SOL     OW30592   3.083   6.271   5.938
 9898SOL    HW130593   3.047   6.191   5.888
 9898SOL    HW230594   3.012   6.305   6.000
 9899SOL     OW30595   0.747   5.552   0.852
 9899SOL    HW130596   0.820   5.544   0.784
 9899SOL    HW230597   0.781   5.599   0.933
 9900SOL     OW30598   1.334   4.166   3.493
 9900SOL    HW130599   1.398   4.150   3.569
 9900SOL    HW230600   1.379   4.143   3.407
 9901SOL     OW30601   2.954   2.091   5.413
 9901SOL    HW130602   2.983   2.181   5.380
 9901SOL    HW230603   2.865   2.068   5.373
 9902SOL     OW30604   2.129   4.793   6.773
 9902SOL    HW130605   2.119   4.881   6.726
 9902SOL    HW230606   2.206   4.743   6.733
 9903SOL     OW30607   5.124   1.604   3.547
 9903SOL    HW130608   5.213   1.566   3.573
 9903SOL    HW230609   5.051   1.549   3.587
 9904SOL     OW30610   0.747   3.281   6.536
 9904SOL    HW130611   0.764   3.375   6.507
 9904SOL    HW230612   0.752   3.220   6.457
 9905SOL     OW30613   3.807   1.236   0.940
 9905SOL    HW130614   3.719   1.238   0.989
 9905SOL    HW230615   3.842   1.143   0.938
 9906SOL     OW30616   3.795   3.109   2.532
 9906SOL    HW130617   3.812   3.047   2.456
 9906SOL    HW230618   3.776   3.201   2.497
 9907SOL     OW30619   6.731   0.580   1.471
 9907SOL    HW130620   6.656   0.646   1.473
 9907SOL    HW230621   6.791   0.595   1.550
 9908SOL     OW30622   5.390   2.528   3.201
 9908SOL    HW130623   5.390   2.490   3.108
 9908SOL    HW230624   5.317   2.595   3.210
 9909SOL     OW30625   3.877   6.571   3.749
 9909SOL    HW130626   3.785   6.609   3.760
 9909SOL    HW230627   3.899   6.513   3.828
 9910SOL     OW30628   1.223   3.933   2.406
 9910SOL    HW130629   1.156   4.006   2.413
 9910SOL    HW230630   1.178   3.848   2.377
 9911SOL     OW30631   3.994   0.231   2.138
 9911SOL    HW130632   3.915   0.181   2.174
 9911SOL    HW230633   4.057   0.167   2.094
 9912SOL     OW30634   4.383   2.046   1.300
 9912SOL    HW130635   4.308   2.080   1.355
 9912SOL    HW230636   4.356   2.046   1.203
 9913SOL     OW30637   6.166   3.873   6.695
 9913SOL    HW130638   6.140   3.777   6.695
 9913SOL    HW230639   6.101   3.925   6.639
 9914SOL     OW30640   0.299   3.212   4.688
 9914SOL    HW130641   0.283   3.213   4.787
 9914SOL    HW230642   0.216   3.245   4.641
 9915SOL     OW30643   4.799   1.112   3.010
 9915SOL    HW130644   4.837   1.132   2.920
 9915SOL    HW230645   4.699   1.104   3.003
 9916SOL     OW30646   2.157   2.656   2.585
 9916SOL    HW130647   2.218   2.718   2.536
 9916SOL    HW230648   2.210   2.585   2.631
 9917SOL     OW30649   6.604   3.533   6.859
 9917SOL    HW130650   6.545   3.464   6.816
 9917SOL    HW230651   6.549   3.591   6.919
 9918SOL     OW30652   4.404   1.801   2.728
 9918SOL    HW130653   4.335   1.817   2.657
 9918SOL    HW230654   4.381   1.855   2.809
 9919SOL     OW30655   6.479   6.315   0.994
 9919SOL    HW130656   6.407   6.316   1.063
 9919SOL    HW230657   6.439   6.296   0.904
 9920SOL     OW30658   4.765   1.331   2.250
 9920SOL    HW130659   4.832   1.395   2.289
 9920SOL    HW230660   4.788   1.313   2.155
 9921SOL     OW30661   4.848   5.667   5.860
 9921SOL    HW130662   4.881   5.593   5.803
 9921SOL    HW230663   4.784   5.631   5.928
 9922SOL     OW30664   0.836   5.519   0.323
 9922SOL    HW130665   0.739   5.544   0.322
 9922SOL    HW230666   0.876   5.535   0.232
 9923SOL     OW30667   4.538   5.035   6.944
 9923SOL    HW130668   4.623   5.020   6.892
 9923SOL    HW230669   4.480   5.100   6.894
 9924SOL     OW30670   0.038   2.542   4.730
 9924SOL    HW130671   0.020   2.620   4.790
 9924SOL    HW230672   0.027   2.457   4.783
 9925SOL     OW30673   6.663   3.781   3.817
 9925SOL    HW130674   6.652   3.790   3.916
 9925SOL    HW230675   6.650   3.870   3.773
 9926SOL     OW30676   2.297   3.843   6.913
 9926SOL    HW130677   2.216   3.792   6.884
 9926SOL    HW230678   2.317   3.914   6.845
 9927SOL     OW30679   5.889   0.164   2.521
 9927SOL    HW130680   5.969   0.104   2.511
 9927SOL    HW230681   5.853   0.186   2.430
 9928SOL     OW30682   4.821   4.695   1.327
 9928SOL    HW130683   4.902   4.644   1.298
 9928SOL    HW230684   4.756   4.633   1.371
 9929SOL     OW30685   2.307   5.474   4.884
 9929SOL    HW130686   2.238   5.489   4.955
 9929SOL    HW230687   2.387   5.532   4.902
 9930SOL     OW30688   6.312   0.276   4.803
 9930SOL    HW130689   6.350   0.259   4.893
 9930SOL    HW230690   6.214   0.257   4.803
 9931SOL     OW30691   0.725   4.476   4.876
 9931SOL    HW130692   0.627   4.494   4.866
 9931SOL    HW230693   0.739   4.400   4.939
 9932SOL     OW30694   1.591   6.552   6.427
 9932SOL    HW130695   1.597   6.645   6.392
 9932SOL    HW230696   1.557   6.491   6.355
 9933SOL     OW30697   2.300   5.007   2.691
 9933SOL    HW130698   2.374   4.966   2.637
 9933SOL    HW230699   2.291   5.103   2.666
 9934SOL     OW30700   5.770   2.274   5.864
 9934SOL    HW130701   5.689   2.332   5.876
 9934SOL    HW230702   5.741   2.179   5.851
 9935SOL     OW30703   2.752   0.686   0.537
 9935SOL    HW130704   2.823   0.665   0.605
 9935SOL    HW230705   2.794   0.726   0.456
 9936SOL     OW30706   0.008   5.360   4.707
 9936SOL    HW130707   6.965   5.295   4.750
 9936SOL    HW230708   7.014   5.451   4.748
 9937SOL     OW30709   6.395   2.390   5.588
 9937SOL    HW130710   6.398   2.436   5.677
 9937SOL    HW230711   6.462   2.316   5.588
 9938SOL     OW30712   6.711   6.266   3.457
 9938SOL    HW130713   6.773   6.316   3.396
 9938SOL    HW230714   6.616   6.286   3.432
 9939SOL     OW30715   3.052   2.912   0.747
 9939SOL    HW130716   2.986   2.850   0.789
 9939SOL    HW230717   3.054   2.998   0.797
 9940SOL     OW30718   0.336   0.805   0.996
 9940SOL    HW130719   0.395   0.806   1.077
 9940SOL    HW230720   0.301   0.898   0.979
 9941SOL     OW30721   2.935   3.697   5.199
 9941SOL    HW130722   2.970   3.713   5.107
 9941SOL    HW230723   2.927   3.784   5.248
 9942SOL     OW30724   2.096   6.552   2.748
 9942SOL    HW130725   2.126   6.516   2.659
 9942SOL    HW230726   2.054   6.479   2.802
 9943SOL     OW30727   0.522   6.003   5.893
 9943SOL    HW130728   0.601   5.964   5.846
 9943SOL    HW230729   0.440   5.991   5.836
 9944SOL     OW30730   2.030   4.498   5.905
 9944SOL    HW130731   2.079   4.515   5.990
 9944SOL    HW230732   1.932   4.507   5.920
 9945SOL     OW30733   6.677   5.264   6.968
 9945SOL    HW130734   6.618   5.309   0.015
 9945SOL    HW230735   6.760   5.319   6.954
 9946SOL     OW30736   5.446   1.118   5.098
 9946SOL    HW130737   5.375   1.062   5.055
 9946SOL    HW230738   5.526   1.122   5.038
 9947SOL     OW30739   6.728   3.746   5.945
 9947SOL    HW130740   6.727   3.830   5.999
 9947SOL    HW230741   6.750   3.768   5.850
 9948SOL     OW30742   4.837   4.531   5.066
 9948SOL    HW130743   4.757   4.522   5.006
 9948SOL    HW230744   4.920   4.538   5.010
 9949SOL     OW30745   5.483   5.001   3.270
 9949SOL    HW130746   5.387   4.981   3.290
 9949SOL    HW230747   5.509   4.957   3.184
 9950SOL     OW30748   5.533   6.287   5.293
 9950SOL    HW130749   5.604   6.325   5.234
 9950SOL    HW230750   5.550   6.189   5.308
 9951SOL     OW30751   5.914   1.981   3.918
 9951SOL    HW130752   5.974   1.915   3.963
 9951SOL    HW230753   5.947   2.074   3.935
 9952SOL     OW30754   6.290   3.595   0.876
 9952SOL    HW130755   6.299   3.592   0.975
 9952SOL    HW230756   6.380   3.583   0.833
 9953SOL     OW30757   6.510   2.353   3.735
 9953SOL    HW130758   6.419   2.322   3.762
 9953SOL    HW230759   6.555   2.282   3.681
 9954SOL     OW30760   5.776   6.505   5.521
 9954SOL    HW130761   5.808   6.567   5.593
 9954SOL    HW230762   5.755   6.557   5.439
 9955SOL     OW30763   6.740   5.092   4.614
 9955SOL    HW130764   6.693   5.004   4.601
 9955SOL    HW230765   6.674   5.167   4.604
 9956SOL     OW30766   1.118   0.022   1.905
 9956SOL    HW130767   1.098   6.984   1.826
 9956SOL    HW230768   1.066   7.009   1.984
 9957SOL     OW30769   6.257   5.473   3.275
 9957SOL    HW130770   6.248   5.433   3.183
 9957SOL    HW230771   6.178   5.532   3.293
 9958SOL     OW30772   3.579   4.777   0.512
 9958SOL    HW130773   3.673   4.742   0.518
 9958SOL    HW230774   3.544   4.792   0.604
 9959SOL     OW30775   4.175   3.664   5.804
 9959SOL    HW130776   4.271   3.676   5.829
 9959SOL    HW230777   4.168   3.642   5.707
 9960SOL     OW30778   6.888   0.793   2.721
 9960SOL    HW130779   6.958   0.824   2.785
 9960SOL    HW230780   6.921   0.711   2.673
 9961SOL     OW30781   2.153   5.839   3.996
 9961SOL    HW130782   2.194   5.896   4.066
 9961SOL    HW230783   2.197   5.749   3.996
 9962SOL     OW30784   5.614   6.221   4.775
 9962SOL    HW130785   5.710   6.227   4.747
 9962SOL    HW230786   5.609   6.178   4.865
 9963SOL     OW30787   3.412   2.303   0.926
 9963SOL    HW130788   3.356   2.227   0.893
 9963SOL    HW230789   3.498   2.306   0.874
 9964SOL     OW30790   4.824   5.547   4.223
 9964SOL    HW130791   4.915   5.527   4.186
 9964SOL    HW230792   4.831   5.563   4.322
 9965SOL     OW30793   3.809   6.579   0.048
 9965SOL    HW130794   3.894   6.570   0.101
 9965SOL    HW230795   3.735   6.532   0.096
 9966SOL     OW30796   1.264   5.202   1.715
 9966SOL    HW130797   1.355   5.188   1.752
 9966SOL    HW230798   1.262   5.286   1.660
 9967SOL     OW30799   0.982   5.728   1.591
 9967SOL    HW130800   0.893   5.772   1.602
 9967SOL    HW230801   0.970   5.629   1.592
 9968SOL     OW30802   3.611   3.805   1.981
 9968SOL    HW130803   3.696   3.856   1.971
 9968SOL    HW230804   3.624   3.711   1.947
 9969SOL     OW30805   1.438   3.546   2.825
 9969SOL    HW130806   1.512   3.611   2.842
 9969SOL    HW230807   1.374   3.584   2.758
 9970SOL     OW30808   5.280   4.694   2.000
 9970SOL    HW130809   5.289   4.638   2.082
 9970SOL    HW230810   5.214   4.767   2.017
 9971SOL     OW30811   1.405   4.476   1.169
 9971SOL    HW130812   1.372   4.412   1.238
 9971SOL    HW230813   1.396   4.570   1.204
 9972SOL     OW30814   6.210   4.883   2.798
 9972SOL    HW130815   6.150   4.917   2.871
 9972SOL    HW230816   6.296   4.852   2.837
 9973SOL     OW30817   5.838   0.816   4.142
 9973SOL    HW130818   5.918   0.756   4.149
 9973SOL    HW230819   5.867   0.906   4.108
 9974SOL     OW30820   1.373   0.766   3.753
 9974SOL    HW130821   1.409   0.719   3.834
 9974SOL    HW230822   1.441   0.761   3.679
 9975SOL     OW30823   0.126   2.889   0.134
 9975SOL    HW130824   0.151   2.874   0.230
 9975SOL    HW230825   0.146   2.807   0.082
 9976SOL     OW30826   0.998   6.926   5.454
 9976SOL    HW130827   0.968   7.005   5.400
 9976SOL    HW230828   1.092   6.940   5.484
 9977SOL     OW30829   6.292   4.684   5.027
 9977SOL    HW130830   6.368   4.725   4.976
 9977SOL    HW230831   6.296   4.584   5.018
 9978SOL     OW30832   0.559   3.053   4.591
 9978SOL    HW130833   0.472   3.101   4.608
 9978SOL    HW230834   0.594   3.079   4.501
 9979SOL     OW30835   5.863   3.871   4.748
 9979SOL    HW130836   5.855   3.919   4.836
 9979SOL    HW230837   5.791   3.901   4.687
 9980SOL     OW30838   3.568   0.271   6.876
 9980SOL    HW130839   3.481   0.272   6.926
 9980SOL    HW230840   3.639   0.312   6.932
 9981SOL     OW30841   3.279   1.281   3.792
 9981SOL    HW130842   3.185   1.313   3.781
 9981SOL    HW230843   3.319   1.263   3.702
 9982SOL     OW30844   6.867   6.242   3.936
 9982SOL    HW130845   6.951   6.258   3.988
 9982SOL    HW230846   6.891   6.205   3.846
 9983SOL     OW30847   6.798   0.934   2.492
 9983SOL    HW130848   6.840   0.899   2.576
 9983SOL    HW230849   6.815   1.033   2.485
 9984SOL     OW30850   3.089   1.699   6.566
 9984SOL    HW130851   2.999   1.713   6.523
 9984SOL    HW230852   3.086   1.728   6.661
 9985SOL     OW30853   1.777   0.945   1.582
 9985SOL    HW130854   1.753   1.042   1.576
 9985SOL    HW230855   1.864   0.929   1.535
 9986SOL     OW30856   5.630   4.120   4.798
 9986SOL    HW130857   5.572   4.044   4.766
 9986SOL    HW230858   5.688   4.088   4.873
 9987SOL     OW30859   5.989   3.559   6.199
 9987SOL    HW130860   5.918   3.561   6.129
 9987SOL    HW230861   6.076   3.534   6.157
 9988SOL     OW30862   6.682   6.740   5.180
 9988SOL    HW130863   6.648   6.657   5.224
 9988SOL    HW230864   6.623   6.817   5.205
 9989SOL     OW30865   7.015   3.745   5.025
 9989SOL    HW130866   0.058   3.727   5.100
 9989SOL    HW230867   0.043   3.736   4.937
 9990SOL     OW30868   0.882   4.714   2.990
 9990SOL    HW130869   0.837   4.625   2.984
 9990SOL    HW230870   0.839   4.777   2.925
 9991SOL     OW30871   3.222   2.135   4.019
 9991SOL    HW130872   3.304   2.139   4.076
 9991SOL    HW230873   3.141   2.146   4.076
 9992SOL     OW30874   5.938   5.586   6.319
 9992SOL    HW130875   5.928   5.584   6.419
 9992SOL    HW230876   5.990   5.667   6.292
 9993SOL     OW30877   1.774   1.704   1.122
 9993SOL    HW130878   1.747   1.789   1.077
 9993SOL    HW230879   1.755   1.711   1.220
 9994SOL     OW30880   6.047   4.682   3.474
 9994SOL    HW130881   5.997   4.674   3.388
 9994SOL    HW230882   6.131   4.735   3.459
 9995SOL     OW30883   5.624   1.097   4.279
 9995SOL    HW130884   5.590   1.150   4.202
 9995SOL    HW230885   5.692   1.032   4.248
 9996SOL     OW30886   3.816   4.429   0.011
 9996SOL    HW130887   3.772   4.364   6.969
 9996SOL    HW230888   3.748   4.465   0.075
 9997SOL     OW30889   2.842   0.647   5.459
 9997SOL    HW130890   2.803   0.701   5.534
 9997SOL    HW230891   2.931   0.686   5.434
 9998SOL     OW30892   5.817   5.361   5.708
 9998SOL    HW130893   5.852   5.364   5.614
 9998SOL    HW230894   5.876   5.414   5.768
 9999SOL     OW30895   6.295   2.599   5.455
 9999SOL    HW130896   6.230   2.650   5.511
 9999SOL    HW230897   6.346   2.535   5.512
10000SOL     OW30898   0.065   2.226   6.703
10000SOL    HW130899   0.047   2.237   6.800
10000SOL    HW230900   0.154   2.183   6.690
10001SOL     OW30901   4.822   0.678   2.392
10001SOL    HW130902   4.833   0.589   2.347
10001SOL    HW230903   4.819   0.750   2.323
10002SOL     OW30904   1.235   0.287   1.805
10002SOL    HW130905   1.206   0.199   1.843
10002SOL    HW230906   1.323   0.313   1.844
10003SOL     OW30907   3.843   2.092   3.068
10003SOL    HW130908   3.909   2.130   3.004
10003SOL    HW230909   3.787   2.023   3.021
10004SOL     OW30910   0.278   2.420   3.085
10004SOL    HW130911   0.230   2.450   3.168
10004SOL    HW230912   0.370   2.389   3.109
10005SOL     OW30913   4.970   0.325   3.955
10005SOL    HW130914   4.984   0.253   3.886
10005SOL    HW230915   4.946   0.410   3.910
10006SOL     OW30916   4.103   6.684   4.114
10006SOL    HW130917   4.127   6.680   4.017
10006SOL    HW230918   4.075   6.593   4.145
10007SOL     OW30919   0.294   3.419   4.422
10007SOL    HW130920   0.357   3.393   4.496
10007SOL    HW230921   0.340   3.484   4.361
10008SOL     OW30922   3.202   0.671   4.535
10008SOL    HW130923   3.143   0.708   4.464
10008SOL    HW230924   3.297   0.696   4.517
10009SOL     OW30925   2.204   3.971   2.204
10009SOL    HW130926   2.284   4.031   2.204
10009SOL    HW230927   2.138   4.003   2.135
10010SOL     OW30928   1.543   2.033   6.375
10010SOL    HW130929   1.624   1.981   6.348
10010SOL    HW230930   1.512   2.001   6.465
10011SOL     OW30931   6.296   6.780   5.655
10011SOL    HW130932   6.240   6.726   5.592
10011SOL    HW230933   6.392   6.764   5.637
10012SOL     OW30934   6.125   1.457   4.098
10012SOL    HW130935   6.056   1.409   4.045
10012SOL    HW230936   6.084   1.493   4.182
10013SOL     OW30937   0.335   0.690   2.828
10013SOL    HW130938   0.358   0.610   2.883
10013SOL    HW230939   0.413   0.752   2.824
10014SOL     OW30940   0.109   4.903   6.257
10014SOL    HW130941   0.177   4.941   6.194
10014SOL    HW230942   0.025   4.883   6.206
10015SOL     OW30943   1.915   4.762   6.924
10015SOL    HW130944   1.999   4.760   6.869
10015SOL    HW230945   1.911   4.682   6.983
10016SOL     OW30946   2.489   1.011   5.917
10016SOL    HW130947   2.552   1.001   5.994
10016SOL    HW230948   2.482   0.923   5.869
10017SOL     OW30949   2.030   2.038   4.772
10017SOL    HW130950   2.109   2.100   4.775
10017SOL    HW230951   1.990   2.032   4.864
10018SOL     OW30952   4.934   0.765   5.423
10018SOL    HW130953   4.912   0.862   5.436
10018SOL    HW230954   5.010   0.740   5.482
10019SOL     OW30955   1.333   0.790   3.368
10019SOL    HW130956   1.239   0.768   3.396
10019SOL    HW230957   1.332   0.869   3.307
10020SOL     OW30958   0.591   3.193   0.901
10020SOL    HW130959   0.510   3.136   0.915
10020SOL    HW230960   0.596   3.220   0.805
10021SOL     OW30961   0.193   3.531   1.254
10021SOL    HW130962   0.130   3.563   1.184
10021SOL    HW230963   0.277   3.497   1.211
10022SOL     OW30964   1.172   1.988   6.246
10022SOL    HW130965   1.124   1.908   6.211
10022SOL    HW230966   1.239   2.019   6.179
10023SOL     OW30967   6.997   3.224   0.921
10023SOL    HW130968   6.967   3.262   0.834
10023SOL    HW230969   0.033   3.292   0.969
10024SOL     OW30970   1.500   4.088   3.687
10024SOL    HW130971   1.555   4.171   3.695
10024SOL    HW230972   1.457   4.067   3.775
10025SOL     OW30973   1.501   1.126   0.742
10025SOL    HW130974   1.424   1.103   0.683
10025SOL    HW230975   1.564   1.049   0.746
10026SOL     OW30976   6.351   0.924   3.528
10026SOL    HW130977   6.285   0.859   3.566
10026SOL    HW230978   6.391   0.886   3.445
10027SOL     OW30979   5.070   3.545   5.024
10027SOL    HW130980   4.973   3.547   5.001
10027SOL    HW230981   5.096   3.632   5.066
10028SOL     OW30982   2.045   1.392   0.616
10028SOL    HW130983   2.027   1.476   0.565
10028SOL    HW230984   1.970   1.328   0.601
10029SOL     OW30985   5.928   1.077   4.101
10029SOL    HW130986   5.916   1.139   4.024
10029SOL    HW230987   6.025   1.055   4.111
10030SOL     OW30988   1.375   0.556   3.945
10030SOL    HW130989   1.294   0.503   3.919
10030SOL    HW230990   1.421   0.511   4.022
10031SOL     OW30991   6.566   4.682   3.972
10031SOL    HW130992   6.574   4.782   3.973
10031SOL    HW230993   6.477   4.656   3.935
10032SOL     OW30994   3.227   1.444   4.623
10032SOL    HW130995   3.173   1.440   4.707
10032SOL    HW230996   3.248   1.351   4.592
10033SOL     OW30997   5.859   3.217   5.317
10033SOL    HW130998   5.777   3.167   5.343
10033SOL    HW230999   5.933   3.153   5.296
10034SOL     OW31000   5.620   0.797   5.319
10034SOL    HW131001   5.564   0.784   5.237
10034SOL    HW231002   5.584   0.740   5.393
10035SOL     OW31003   0.522   5.482   1.538
10035SOL    HW131004   0.498   5.403   1.593
10035SOL    HW231005   0.555   5.452   1.449
10036SOL     OW31006   6.684   1.487   0.349
10036SOL    HW131007   6.588   1.491   0.378
10036SOL    HW231008   6.742   1.475   0.430
10037SOL     OW31009   0.527   0.184   6.813
10037SOL    HW131010   0.477   0.228   6.887
10037SOL    HW231011   0.625   0.198   6.826
10038SOL     OW31012   6.457   6.628   1.043
10038SOL    HW131013   6.552   6.660   1.049
10038SOL    HW231014   6.454   6.542   0.993
10039SOL     OW31015   3.640   0.188   3.767
10039SOL    HW131016   3.627   0.182   3.866
10039SOL    HW231017   3.717   0.249   3.748
10040SOL     OW31018   6.751   2.915   1.380
10040SOL    HW131019   6.671   2.967   1.411
10040SOL    HW231020   6.830   2.939   1.437
10041SOL     OW31021   1.957   6.285   0.055
10041SOL    HW131022   2.007   6.268   0.140
10041SOL    HW231023   1.859   6.273   0.071
10042SOL     OW31024   6.274   2.783   2.705
10042SOL    HW131025   6.259   2.732   2.790
10042SOL    HW231026   6.315   2.723   2.637
10043SOL     OW31027   0.071   1.523   5.949
10043SOL    HW131028   0.062   1.614   5.991
10043SOL    HW231029   0.144   1.525   5.881
10044SOL     OW31030   3.316   2.034   5.581
10044SOL    HW131031   3.414   2.033   5.600
10044SOL    HW231032   3.301   2.046   5.483
10045SOL     OW31033   3.759   0.956   0.437
10045SOL    HW131034   3.732   1.021   0.367
10045SOL    HW231035   3.686   0.946   0.504
10046SOL     OW31036   2.000   5.151   1.131
10046SOL    HW131037   2.055   5.068   1.124
10046SOL    HW231038   1.933   5.141   1.205
10047SOL     OW31039   0.813   3.438   0.770
10047SOL    HW131040   0.751   3.383   0.714
10047SOL    HW231041   0.863   3.501   0.711
10048SOL     OW31042   5.809   5.621   2.828
10048SOL    HW131043   5.760   5.573   2.755
10048SOL    HW231044   5.828   5.559   2.903
10049SOL     OW31045   6.964   0.765   5.831
10049SOL    HW131046   7.016   0.838   5.875
10049SOL    HW231047   6.999   0.749   5.739
10050SOL     OW31048   6.684   3.182   6.611
10050SOL    HW131049   6.622   3.253   6.643
10050SOL    HW231050   6.777   3.220   6.604
10051SOL     OW31051   1.969   3.411   3.766
10051SOL    HW131052   1.937   3.413   3.671
10051SOL    HW231053   1.939   3.494   3.813
10052SOL     OW31054   1.276   6.683   3.213
10052SOL    HW131055   1.307   6.764   3.164
10052SOL    HW231056   1.275   6.604   3.151
10053SOL     OW31057   5.601   5.441   4.978
10053SOL    HW131058   5.620   5.533   4.944
10053SOL    HW231059   5.504   5.434   5.001
10054SOL     OW31060   5.757   4.003   5.043
10054SOL    HW131061   5.772   4.092   5.085
10054SOL    HW231062   5.803   3.933   5.098
10055SOL     OW31063   0.575   2.062   6.537
10055SOL    HW131064   0.537   1.973   6.511
10055SOL    HW231065   0.566   2.125   6.460
10056SOL     OW31066   6.384   2.606   3.607
10056SOL    HW131067   6.437   2.531   3.645
10056SOL    HW231068   6.299   2.570   3.568
10057SOL     OW31069   6.407   4.894   5.464
10057SOL    HW131070   6.497   4.931   5.442
10057SOL    HW231071   6.337   4.964   5.446
10058SOL     OW31072   6.725   3.879   5.443
10058SOL    HW131073   6.770   3.945   5.382
10058SOL    HW231074   6.751   3.786   5.416
10059SOL     OW31075   6.301   0.620   0.047
10059SOL    HW131076   6.235   0.546   0.057
10059SOL    HW231077   6.259   0.696   7.017
10060SOL     OW31078   2.482   2.156   1.993
10060SOL    HW131079   2.483   2.240   2.047
10060SOL    HW231080   2.572   2.141   1.953
10061SOL     OW31081   3.575   0.211   3.231
10061SOL    HW131082   3.544   0.116   3.230
10061SOL    HW231083   3.673   0.215   3.212
10062SOL     OW31084   6.631   0.037   4.449
10062SOL    HW131085   6.643   6.970   4.401
10062SOL    HW231086   6.547   0.033   4.503
10063SOL     OW31087   1.972   2.585   5.339
10063SOL    HW131088   1.873   2.599   5.332
10063SOL    HW231089   2.015   2.668   5.374
10064SOL     OW31090   2.963   0.075   0.655
10064SOL    HW131091   3.044   0.041   0.608
10064SOL    HW231092   2.927   0.155   0.607
10065SOL     OW31093   0.927   1.718   1.917
10065SOL    HW131094   0.909   1.621   1.900
10065SOL    HW231095   0.995   1.751   1.853
10066SOL     OW31096   6.807   3.452   3.787
10066SOL    HW131097   6.723   3.418   3.745
10066SOL    HW231098   6.829   3.397   3.868
10067SOL     OW31099   7.005   2.960   5.879
10067SOL    HW131100   6.955   2.917   5.804
10067SOL    HW231101   6.945   2.969   5.958
10068SOL     OW31102   2.136   3.340   2.872
10068SOL    HW131103   2.137   3.338   2.772
10068SOL    HW231104   2.112   3.432   2.902
10069SOL     OW31105   2.841   5.288   0.648
10069SOL    HW131106   2.873   5.382   0.659
10069SOL    HW231107   2.767   5.271   0.713
10070SOL     OW31108   4.092   6.539   6.375
10070SOL    HW131109   4.148   6.620   6.395
10070SOL    HW231110   4.150   6.466   6.341
10071SOL     OW31111   5.998   6.884   4.149
10071SOL    HW131112   6.065   6.823   4.190
10071SOL    HW231113   6.010   6.884   4.049
10072SOL     OW31114   6.214   2.952   1.852
10072SOL    HW131115   6.151   3.029   1.852
10072SOL    HW231116   6.229   2.920   1.946
10073SOL     OW31117   6.595   4.886   4.459
10073SOL    HW131118   6.656   4.839   4.396
10073SOL    HW231119   6.521   4.930   4.407
10074SOL     OW31120   1.033   4.951   0.448
10074SOL    HW131121   0.966   4.986   0.382
10074SOL    HW231122   1.033   4.851   0.446
10075SOL     OW31123   1.473   3.456   1.795
10075SOL    HW131124   1.477   3.519   1.717
10075SOL    HW231125   1.541   3.484   1.863
10076SOL     OW31126   5.065   5.505   4.146
10076SOL    HW131127   5.086   5.442   4.221
10076SOL    HW231128   5.114   5.477   4.064
10077SOL     OW31129   4.869   3.366   6.975
10077SOL    HW131130   4.958   3.321   6.975
10077SOL    HW231131   4.872   3.445   6.914
10078SOL     OW31132   6.343   5.922   4.900
10078SOL    HW131133   6.438   5.948   4.880
10078SOL    HW231134   6.343   5.844   4.962
10079SOL     OW31135   4.769   2.902   3.998
10079SOL    HW131136   4.837   2.910   4.072
10079SOL    HW231137   4.686   2.861   4.034
10080SOL     OW31138   5.029   1.603   5.442
10080SOL    HW131139   4.965   1.529   5.423
10080SOL    HW231140   5.083   1.622   5.360
10081SOL     OW31141   1.464   4.105   0.484
10081SOL    HW131142   1.523   4.158   0.423
10081SOL    HW231143   1.409   4.042   0.429
10082SOL     OW31144   0.960   4.696   1.054
10082SOL    HW131145   0.936   4.604   1.088
10082SOL    HW231146   1.036   4.689   0.990
10083SOL     OW31147   3.523   4.871   3.027
10083SOL    HW131148   3.426   4.873   3.054
10083SOL    HW231149   3.580   4.881   3.108
10084SOL     OW31150   1.225   1.267   5.384
10084SOL    HW131151   1.161   1.283   5.308
10084SOL    HW231152   1.311   1.313   5.364
10085SOL     OW31153   5.453   0.161   0.443
10085SOL    HW131154   5.392   0.121   0.511
10085SOL    HW231155   5.422   0.253   0.420
10086SOL     OW31156   5.851   6.567   3.468
10086SOL    HW131157   5.867   6.563   3.370
10086SOL    HW231158   5.753   6.560   3.486
10087SOL     OW31159   1.012   6.466   5.514
10087SOL    HW131160   0.977   6.551   5.475
10087SOL    HW231161   1.034   6.402   5.440
10088SOL     OW31162   6.676   2.941   0.980
10088SOL    HW131163   6.699   2.844   0.978
10088SOL    HW231164   6.632   2.967   0.895
10089SOL     OW31165   3.553   1.450   1.648
10089SOL    HW131166   3.500   1.394   1.711
10089SOL    HW231167   3.651   1.439   1.668
10090SOL     OW31168   2.792   6.495   2.947
10090SOL    HW131169   2.837   6.580   2.918
10090SOL    HW231170   2.704   6.486   2.899
10091SOL     OW31171   6.696   4.478   5.708
10091SOL    HW131172   6.757   4.457   5.632
10091SOL    HW231173   6.647   4.395   5.735
10092SOL     OW31174   0.733   2.202   3.715
10092SOL    HW131175   0.724   2.242   3.806
10092SOL    HW231176   0.729   2.274   3.646
10093SOL     OW31177   4.917   4.650   6.685
10093SOL    HW131178   4.844   4.660   6.753
10093SOL    HW231179   4.914   4.727   6.622
10094SOL     OW31180   3.293   1.344   1.161
10094SOL    HW131181   3.347   1.371   1.241
10094SOL    HW231182   3.202   1.315   1.190
10095SOL     OW31183   4.476   2.705   5.567
10095SOL    HW131184   4.381   2.675   5.577
10095SOL    HW231185   4.485   2.760   5.484
10096SOL     OW31186   6.083   2.627   1.994
10096SOL    HW131187   6.154   2.692   2.022
10096SOL    HW231188   6.085   2.548   2.056
10097SOL     OW31189   0.239   1.007   0.081
10097SOL    HW131190   0.334   0.982   0.097
10097SOL    HW231191   0.184   0.984   0.162
10098SOL     OW31192   2.674   5.483   3.113
10098SOL    HW131193   2.758   5.514   3.069
10098SOL    HW231194   2.653   5.389   3.085
10099SOL     OW31195   0.325   5.216   2.024
10099SOL    HW131196   0.409   5.185   2.068
10099SOL    HW231197   0.301   5.153   1.950
10100SOL     OW31198   4.692   5.216   4.279
10100SOL    HW131199   4.619   5.149   4.265
10100SOL    HW231200   4.672   5.298   4.226
10101SOL     OW31201   0.063   2.890   1.259
10101SOL    HW131202   7.016   2.964   1.253
10101SOL    HW231203   0.017   2.807   1.290
10102SOL     OW31204   0.030   5.415   2.844
10102SOL    HW131205   0.129   5.407   2.845
10102SOL    HW231206   7.015   5.402   2.937
10103SOL     OW31207   0.119   5.889   6.381
10103SOL    HW131208   0.068   5.867   6.464
10103SOL    HW231209   0.214   5.857   6.391
10104SOL     OW31210   2.125   0.759   4.905
10104SOL    HW131211   2.039   0.769   4.854
10104SOL    HW231212   2.104   0.741   5.001
10105SOL     OW31213   3.481   1.022   5.000
10105SOL    HW131214   3.484   1.109   5.047
10105SOL    HW231215   3.393   0.978   5.017
10106SOL     OW31216   5.422   4.662   1.514
10106SOL    HW131217   5.490   4.675   1.442
10106SOL    HW231218   5.344   4.721   1.497
10107SOL     OW31219   5.532   4.828   0.093
10107SOL    HW131220   5.613   4.855   0.146
10107SOL    HW231221   5.562   4.786   0.006
10108SOL     OW31222   2.352   2.399   6.613
10108SOL    HW131223   2.287   2.394   6.537
10108SOL    HW231224   2.395   2.489   6.615
10109SOL     OW31225   0.819   2.363   1.204
10109SOL    HW131226   0.830   2.460   1.227
10109SOL    HW231227   0.876   2.341   1.125
10110SOL     OW31228   5.945   5.594   2.211
10110SOL    HW131229   5.989   5.684   2.208
10110SOL    HW231230   5.856   5.598   2.165
10111SOL     OW31231   1.094   2.406   1.343
10111SOL    HW131232   1.078   2.406   1.441
10111SOL    HW231233   1.023   2.460   1.297
10112SOL     OW31234   0.456   2.115   2.045
10112SOL    HW131235   0.488   2.187   1.984
10112SOL    HW231236   0.419   2.039   1.991
10113SOL     OW31237   0.103   0.820   6.390
10113SOL    HW131238   0.123   0.902   6.337
10113SOL    HW231239   0.069   0.749   6.328
10114SOL     OW31240   5.701   2.390   1.258
10114SOL    HW131241   5.795   2.370   1.230
10114SOL    HW231242   5.692   2.487   1.277
10115SOL     OW31243   3.439   2.745   6.233
10115SOL    HW131244   3.485   2.768   6.319
10115SOL    HW231245   3.507   2.711   6.168
10116SOL     OW31246   0.091   0.420   5.344
10116SOL    HW131247   0.069   0.509   5.306
10116SOL    HW231248   0.137   0.432   5.432
10117SOL     OW31249   6.151   5.109   3.699
10117SOL    HW131250   6.203   5.184   3.659
10117SOL    HW231251   6.054   5.135   3.705
10118SOL     OW31252   4.179   5.299   3.602
10118SOL    HW131253   4.096   5.289   3.658
10118SOL    HW231254   4.259   5.281   3.658
10119SOL     OW31255   6.817   6.042   5.765
10119SOL    HW131256   6.750   6.064   5.835
10119SOL    HW231257   6.878   6.120   5.751
10120SOL     OW31258   2.207   3.022   3.630
10120SOL    HW131259   2.288   2.985   3.675
10120SOL    HW231260   2.170   3.098   3.684
10121SOL     OW31261   6.446   5.151   0.721
10121SOL    HW131262   6.430   5.248   0.742
10121SOL    HW231263   6.499   5.143   0.637
10122SOL     OW31264   1.542   0.419   3.568
10122SOL    HW131265   1.458   0.442   3.519
10122SOL    HW231266   1.524   0.348   3.635
10123SOL     OW31267   6.710   5.049   6.651
10123SOL    HW131268   6.773   5.070   6.577
10123SOL    HW231269   6.745   4.971   6.703
10124SOL     OW31270   2.176   5.187   2.928
10124SOL    HW131271   2.230   5.232   2.857
10124SOL    HW231272   2.232   5.117   2.973
10125SOL     OW31273   1.836   0.531   5.096
10125SOL    HW131274   1.766   0.511   5.164
10125SOL    HW231275   1.812   0.487   5.009
10126SOL     OW31276   6.516   6.302   5.771
10126SOL    HW131277   6.503   6.334   5.864
10126SOL    HW231278   6.495   6.204   5.766
10127SOL     OW31279   2.875   6.885   5.311
10127SOL    HW131280   2.877   6.984   5.325
10127SOL    HW231281   2.878   6.839   5.400
10128SOL     OW31282   2.777   3.031   0.175
10128SOL    HW131283   2.726   3.018   0.261
10128SOL    HW231284   2.872   3.055   0.196
10129SOL     OW31285   6.241   1.440   4.453
10129SOL    HW131286   6.147   1.406   4.447
10129SOL    HW231287   6.284   1.436   4.363
10130SOL     OW31288   0.854   1.400   4.456
10130SOL    HW131289   0.831   1.472   4.390
10130SOL    HW231290   0.900   1.325   4.409
10131SOL     OW31291   2.104   6.662   4.048
10131SOL    HW131292   2.161   6.629   3.973
10131SOL    HW231293   2.012   6.681   4.014
10132SOL     OW31294   6.102   0.086   1.530
10132SOL    HW131295   6.015   0.104   1.483
10132SOL    HW231296   6.086   0.079   1.629
10133SOL     OW31297   5.248   6.578   0.673
10133SOL    HW131298   5.251   6.486   0.635
10133SOL    HW231299   5.323   6.632   0.635
10134SOL     OW31300   6.766   6.900   2.615
10134SOL    HW131301   6.763   6.810   2.571
10134SOL    HW231302   6.726   6.893   2.706
10135SOL     OW31303   6.099   0.971   3.351
10135SOL    HW131304   6.101   0.965   3.451
10135SOL    HW231305   6.004   0.980   3.320
10136SOL     OW31306   4.860   2.317   3.269
10136SOL    HW131307   4.889   2.234   3.316
10136SOL    HW231308   4.823   2.294   3.179
10137SOL     OW31309   6.462   5.115   5.137
10137SOL    HW131310   6.389   5.091   5.201
10137SOL    HW231311   6.438   5.200   5.090
10138SOL     OW31312   0.080   2.478   1.204
10138SOL    HW131313   0.053   2.551   1.268
10138SOL    HW231314   0.060   2.389   1.245
10139SOL     OW31315   2.931   2.920   6.748
10139SOL    HW131316   2.934   2.918   6.649
10139SOL    HW231317   2.842   2.952   6.779
10140SOL     OW31318   1.132   6.494   5.767
10140SOL    HW131319   1.225   6.496   5.728
10140SOL    HW231320   1.068   6.465   5.696
10141SOL     OW31321   1.957   2.464   4.338
10141SOL    HW131322   1.881   2.454   4.403
10141SOL    HW231323   1.986   2.559   4.335
10142SOL     OW31324   4.776   6.645   3.453
10142SOL    HW131325   4.691   6.698   3.446
10142SOL    HW231326   4.822   6.644   3.364
10143SOL     OW31327   5.379   2.927   6.523
10143SOL    HW131328   5.360   2.905   6.619
10143SOL    HW231329   5.330   3.010   6.497
10144SOL     OW31330   3.281   6.626   0.685
10144SOL    HW131331   3.272   6.541   0.633
10144SOL    HW231332   3.374   6.661   0.675
10145SOL     OW31333   5.325   0.090   6.165
10145SOL    HW131334   5.240   0.121   6.209
10145SOL    HW231335   5.342   0.145   6.084
10146SOL     OW31336   0.404   2.696   5.011
10146SOL    HW131337   0.462   2.737   4.941
10146SOL    HW231338   0.444   2.610   5.041
10147SOL     OW31339   4.280   5.569   5.480
10147SOL    HW131340   4.229   5.621   5.411
10147SOL    HW231341   4.366   5.537   5.441
10148SOL     OW31342   0.853   4.065   0.438
10148SOL    HW131343   0.934   4.090   0.384
10148SOL    HW231344   0.795   4.145   0.450
10149SOL     OW31345   3.871   3.660   0.885
10149SOL    HW131346   3.858   3.582   0.946
10149SOL    HW231347   3.951   3.644   0.827
10150SOL     OW31348   4.567   4.519   1.023
10150SOL    HW131349   4.512   4.509   1.105
10150SOL    HW231350   4.605   4.429   0.998
10151SOL     OW31351   6.034   0.449   6.095
10151SOL    HW131352   6.030   0.356   6.133
10151SOL    HW231353   5.956   0.501   6.127
10152SOL     OW31354   4.390   0.126   2.520
10152SOL    HW131355   4.300   0.097   2.551
10152SOL    HW231356   4.450   0.046   2.511
10153SOL     OW31357   4.893   4.493   2.325
10153SOL    HW131358   4.823   4.428   2.297
10153SOL    HW231359   4.877   4.580   2.280
10154SOL     OW31360   4.871   5.279   5.914
10154SOL    HW131361   4.784   5.231   5.926
10154SOL    HW231362   4.870   5.327   5.826
10155SOL     OW31363   4.391   1.680   4.451
10155SOL    HW131364   4.408   1.693   4.353
10155SOL    HW231365   4.317   1.615   4.463
10156SOL     OW31366   4.031   1.669   0.240
10156SOL    HW131367   3.968   1.727   0.292
10156SOL    HW231368   4.077   1.725   0.170
10157SOL     OW31369   0.468   4.230   1.714
10157SOL    HW131370   0.424   4.299   1.773
10157SOL    HW231371   0.398   4.182   1.661
10158SOL     OW31372   5.861   5.185   0.115
10158SOL    HW131373   5.865   5.122   0.037
10158SOL    HW231374   5.793   5.151   0.181
10159SOL     OW31375   3.335   3.098   1.980
10159SOL    HW131376   3.257   3.146   1.940
10159SOL    HW231377   3.397   3.165   2.022
10160SOL     OW31378   0.274   4.560   2.441
10160SOL    HW131379   0.270   4.601   2.532
10160SOL    HW231380   0.369   4.536   2.419
10161SOL     OW31381   5.419   3.305   5.125
10161SOL    HW131382   5.443   3.224   5.071
10161SOL    HW231383   5.321   3.321   5.118
10162SOL     OW31384   1.720   2.545   1.639
10162SOL    HW131385   1.774   2.517   1.559
10162SOL    HW231386   1.623   2.536   1.619
10163SOL     OW31387   2.735   5.391   4.914
10163SOL    HW131388   2.735   5.298   4.876
10163SOL    HW231389   2.761   5.387   5.010
10164SOL     OW31390   0.791   1.492   3.934
10164SOL    HW131391   0.710   1.492   3.875
10164SOL    HW231392   0.856   1.561   3.902
10165SOL     OW31393   0.794   3.577   4.321
10165SOL    HW131394   0.836   3.488   4.309
10165SOL    HW231395   0.737   3.598   4.241
10166SOL     OW31396   2.372   6.507   1.933
10166SOL    HW131397   2.425   6.426   1.906
10166SOL    HW231398   2.427   6.565   1.992
10167SOL     OW31399   2.215   1.750   6.753
10167SOL    HW131400   2.231   1.712   6.844
10167SOL    HW231401   2.199   1.848   6.759
10168SOL     OW31402   0.055   0.362   6.406
10168SOL    HW131403   7.012   0.325   6.475
10168SOL    HW231404   0.082   0.290   6.343
10169SOL     OW31405   5.058   4.440   4.053
10169SOL    HW131406   5.002   4.417   3.973
10169SOL    HW231407   5.062   4.539   4.064
10170SOL     OW31408   5.329   5.583   0.001
10170SOL    HW131409   5.241   5.584   0.048
10170SOL    HW231410   5.392   5.647   0.046
10171SOL     OW31411   2.050   4.671   5.015
10171SOL    HW131412   2.117   4.718   4.958
10171SOL    HW231413   1.972   4.731   5.031
10172SOL     OW31414   6.509   0.517   2.996
10172SOL    HW131415   6.471   0.610   2.988
10172SOL    HW231416   6.466   0.458   2.928
10173SOL     OW31417   3.422   3.421   4.416
10173SOL    HW131418   3.395   3.506   4.370
10173SOL    HW231419   3.369   3.345   4.379
10174SOL     OW31420   4.661   4.924   1.366
10174SOL    HW131421   4.593   4.940   1.438
10174SOL    HW231422   4.716   4.844   1.389
10175SOL     OW31423   0.322   0.258   4.400
10175SOL    HW131424   0.298   0.301   4.487
10175SOL    HW231425   0.364   0.326   4.340
10176SOL     OW31426   6.839   1.150   4.952
10176SOL    HW131427   6.869   1.229   4.900
10176SOL    HW231428   6.917   1.108   4.998
10177SOL     OW31429   2.880   1.036   3.569
10177SOL    HW131430   2.904   1.133   3.562
10177SOL    HW231431   2.849   1.016   3.662
10178SOL     OW31432   0.508   1.633   1.190
10178SOL    HW131433   0.572   1.612   1.116
10178SOL    HW231434   0.430   1.683   1.154
10179SOL     OW31435   1.316   4.309   0.275
10179SOL    HW131436   1.349   4.350   0.360
10179SOL    HW231437   1.285   4.382   0.214
10180SOL     OW31438   3.933   6.397   5.949
10180SOL    HW131439   3.946   6.341   5.867
10180SOL    HW231440   3.838   6.389   5.980
10181SOL     OW31441   6.005   3.248   2.930
10181SOL    HW131442   6.059   3.169   2.904
10181SOL    HW231443   5.912   3.239   2.895
10182SOL     OW31444   4.333   0.923   1.418
10182SOL    HW131445   4.350   1.021   1.427
10182SOL    HW231446   4.246   0.909   1.369
10183SOL     OW31447   5.843   0.858   5.589
10183SOL    HW131448   5.768   0.847   5.524
10183SOL    HW231449   5.839   0.785   5.657
10184SOL     OW31450   5.077   1.936   5.954
10184SOL    HW131451   5.040   1.993   5.880
10184SOL    HW231452   5.145   1.988   6.005
10185SOL     OW31453   3.672   5.604   1.381
10185SOL    HW131454   3.650   5.629   1.475
10185SOL    HW231455   3.727   5.676   1.339
10186SOL     OW31456   3.581   3.073   6.433
10186SOL    HW131457   3.481   3.079   6.439
10186SOL    HW231458   3.613   2.991   6.480
10187SOL     OW31459   2.279   4.479   5.602
10187SOL    HW131460   2.279   4.529   5.516
10187SOL    HW231461   2.335   4.528   5.669
10188SOL     OW31462   3.025   0.041   6.338
10188SOL    HW131463   3.035   0.054   6.437
10188SOL    HW231464   3.103   0.082   6.291
10189SOL     OW31465   1.658   1.959   5.671
10189SOL    HW131466   1.705   1.873   5.692
10189SOL    HW231467   1.724   2.034   5.675
10190SOL     OW31468   4.279   4.692   0.969
10190SOL    HW131469   4.379   4.695   0.979
10190SOL    HW231470   4.236   4.709   1.057
10191SOL     OW31471   5.184   6.811   6.959
10191SOL    HW131472   5.118   6.886   6.947
10191SOL    HW231473   5.142   6.725   6.929
10192SOL     OW31474   1.605   1.427   4.369
10192SOL    HW131475   1.532   1.363   4.348
10192SOL    HW231476   1.657   1.448   4.286
10193SOL     OW31477   3.941   3.526   3.715
10193SOL    HW131478   3.859   3.472   3.737
10193SOL    HW231479   4.008   3.515   3.788
10194SOL     OW31480   2.753   0.388   2.747
10194SOL    HW131481   2.853   0.379   2.747
10194SOL    HW231482   2.728   0.480   2.718
10195SOL     OW31483   5.075   6.759   3.002
10195SOL    HW131484   5.049   6.795   2.913
10195SOL    HW231485   4.994   6.725   3.050
10196SOL     OW31486   6.061   3.282   4.456
10196SOL    HW131487   5.991   3.354   4.461
10196SOL    HW231488   6.037   3.208   4.519
10197SOL     OW31489   5.619   1.421   2.314
10197SOL    HW131490   5.661   1.362   2.383
10197SOL    HW231491   5.690   1.464   2.258
10198SOL     OW31492   2.453   0.146   0.832
10198SOL    HW131493   2.465   0.241   0.805
10198SOL    HW231494   2.479   0.135   0.927
10199SOL     OW31495   1.154   1.661   0.594
10199SOL    HW131496   1.110   1.724   0.657
10199SOL    HW231497   1.215   1.599   0.645
10200SOL     OW31498   5.752   4.354   5.851
10200SOL    HW131499   5.788   4.303   5.773
10200SOL    HW231500   5.694   4.428   5.818
10201SOL     OW31501   1.600   4.864   2.630
10201SOL    HW131502   1.661   4.940   2.611
10201SOL    HW231503   1.513   4.878   2.582
10202SOL     OW31504   0.768   2.520   2.575
10202SOL    HW131505   0.721   2.535   2.662
10202SOL    HW231506   0.750   2.426   2.544
10203SOL     OW31507   0.736   3.407   2.104
10203SOL    HW131508   0.774   3.364   2.022
10203SOL    HW231509   0.649   3.364   2.127
10204SOL     OW31510   3.366   5.194   4.225
10204SOL    HW131511   3.388   5.212   4.128
10204SOL    HW231512   3.421   5.118   4.258
10205SOL     OW31513   4.404   1.114   2.764
10205SOL    HW131514   4.380   1.017   2.759
10205SOL    HW231515   4.423   1.148   2.672
10206SOL     OW31516   4.695   0.145   6.374
10206SOL    HW131517   4.754   0.188   6.306
10206SOL    HW231518   4.622   0.208   6.400
10207SOL     OW31519   4.267   1.008   3.228
10207SOL    HW131520   4.224   0.984   3.142
10207SOL    HW231521   4.325   0.932   3.259
10208SOL     OW31522   5.980   3.663   5.256
10208SOL    HW131523   5.898   3.668   5.313
10208SOL    HW231524   6.053   3.618   5.307
10209SOL     OW31525   5.369   7.017   6.752
10209SOL    HW131526   5.271   7.002   6.767
10209SOL    HW231527   5.388   7.010   6.654
10210SOL     OW31528   4.565   5.713   2.009
10210SOL    HW131529   4.583   5.684   1.916
10210SOL    HW231530   4.645   5.695   2.066
10211SOL     OW31531   3.577   6.173   4.882
10211SOL    HW131532   3.490   6.125   4.866
10211SOL    HW231533   3.620   6.138   4.965
10212SOL     OW31534   6.430   6.319   5.056
10212SOL    HW131535   6.424   6.389   4.985
10212SOL    HW231536   6.338   6.292   5.084
10213SOL     OW31537   5.557   0.964   3.472
10213SOL    HW131538   5.508   0.964   3.385
10213SOL    HW231539   5.593   0.872   3.490
10214SOL     OW31540   6.937   0.245   2.034
10214SOL    HW131541   6.899   0.158   2.001
10214SOL    HW231542   7.019   0.227   2.088
10215SOL     OW31543   3.666   2.281   0.371
10215SOL    HW131544   3.723   2.340   0.314
10215SOL    HW231545   3.715   2.260   0.456
10216SOL     OW31546   5.050   0.526   2.049
10216SOL    HW131547   5.059   0.436   2.007
10216SOL    HW231548   4.996   0.585   1.990
10217SOL     OW31549   3.030   1.464   5.530
10217SOL    HW131550   3.033   1.538   5.598
10217SOL    HW231551   3.027   1.504   5.439
10218SOL     OW31552   2.170   2.641   0.830
10218SOL    HW131553   2.093   2.580   0.845
10218SOL    HW231554   2.198   2.682   0.917
10219SOL     OW31555   0.959   3.864   0.602
10219SOL    HW131556   0.923   3.954   0.577
10219SOL    HW231557   0.960   3.855   0.701
10220SOL     OW31558   4.327   1.997   1.031
10220SOL    HW131559   4.290   1.953   0.949
10220SOL    HW231560   4.425   2.012   1.019
10221SOL     OW31561   3.410   0.666   5.135
10221SOL    HW131562   3.337   0.715   5.088
10221SOL    HW231563   3.491   0.724   5.140
10222SOL     OW31564   1.781   5.211   6.093
10222SOL    HW131565   1.832   5.168   6.168
10222SOL    HW231566   1.724   5.142   6.048
10223SOL     OW31567   6.423   4.630   0.172
10223SOL    HW131568   6.407   4.729   0.177
10223SOL    HW231569   6.336   4.583   0.154
10224SOL     OW31570   2.180   6.664   4.486
10224SOL    HW131571   2.150   6.757   4.468
10224SOL    HW231572   2.137   6.601   4.421
10225SOL     OW31573   5.711   5.972   4.488
10225SOL    HW131574   5.773   5.977   4.566
10225SOL    HW231575   5.725   6.051   4.428
10226SOL     OW31576   6.793   2.420   0.849
10226SOL    HW131577   6.788   2.409   0.750
10226SOL    HW231578   6.708   2.460   0.883
10227SOL     OW31579   5.600   5.908   6.361
10227SOL    HW131580   5.595   5.810   6.383
10227SOL    HW231581   5.680   5.948   6.407
10228SOL     OW31582   0.572   3.660   3.153
10228SOL    HW131583   0.653   3.711   3.124
10228SOL    HW231584   0.497   3.678   3.090
10229SOL     OW31585   2.047   0.772   2.074
10229SOL    HW131586   2.045   0.743   1.978
10229SOL    HW231587   2.071   0.869   2.079
10230SOL     OW31588   6.625   6.536   4.288
10230SOL    HW131589   6.548   6.485   4.325
10230SOL    HW231590   6.683   6.475   4.234
10231SOL     OW31591   4.444   6.435   4.548
10231SOL    HW131592   4.422   6.518   4.600
10231SOL    HW231593   4.442   6.456   4.450
10232SOL     OW31594   3.827   2.032   4.634
10232SOL    HW131595   3.749   2.045   4.696
10232SOL    HW231596   3.821   1.942   4.591
10233SOL     OW31597   4.683   1.218   5.602
10233SOL    HW131598   4.584   1.203   5.600
10233SOL    HW231599   4.730   1.134   5.576
10234SOL     OW31600   5.743   6.283   1.239
10234SOL    HW131601   5.690   6.324   1.166
10234SOL    HW231602   5.685   6.269   1.319
10235SOL     OW31603   5.182   1.769   6.281
10235SOL    HW131604   5.266   1.734   6.239
10235SOL    HW231605   5.109   1.703   6.270
10236SOL     OW31606   2.414   6.225   2.737
10236SOL    HW131607   2.485   6.159   2.711
10236SOL    HW231608   2.458   6.305   2.778
10237SOL     OW31609   0.187   2.529   3.317
10237SOL    HW131610   0.166   2.624   3.291
10237SOL    HW231611   0.264   2.528   3.380
10238SOL     OW31612   4.654   4.805   4.318
10238SOL    HW131613   4.754   4.803   4.311
10238SOL    HW231614   4.618   4.712   4.307
10239SOL     OW31615   0.110   4.197   3.911
10239SOL    HW131616   0.032   4.135   3.902
10239SOL    HW231617   0.088   4.269   3.977
10240SOL     OW31618   6.956   3.735   3.989
10240SOL    HW131619   0.028   3.700   4.006
10240SOL    HW231620   6.892   3.658   3.983
10241SOL     OW31621   2.087   1.185   3.445
10241SOL    HW131622   2.041   1.273   3.450
10241SOL    HW231623   2.035   1.117   3.498
10242SOL     OW31624   0.443   6.294   6.285
10242SOL    HW131625   0.430   6.314   6.382
10242SOL    HW231626   0.538   6.267   6.270
10243SOL     OW31627   0.840   5.662   2.530
10243SOL    HW131628   0.757   5.708   2.563
10243SOL    HW231629   0.912   5.730   2.515
10244SOL     OW31630   1.805   6.327   6.814
10244SOL    HW131631   1.893   6.321   6.768
10244SOL    HW231632   1.755   6.241   6.801
10245SOL     OW31633   2.004   2.315   6.875
10245SOL    HW131634   1.957   2.376   6.938
10245SOL    HW231635   2.103   2.325   6.886
10246SOL     OW31636   4.112   3.525   4.597
10246SOL    HW131637   4.207   3.518   4.628
10246SOL    HW231638   4.096   3.615   4.558
10247SOL     OW31639   1.254   5.555   5.648
10247SOL    HW131640   1.266   5.493   5.726
10247SOL    HW231641   1.160   5.550   5.614
10248SOL     OW31642   4.656   0.551   2.114
10248SOL    HW131643   4.669   0.649   2.109
10248SOL    HW231644   4.727   0.510   2.172
10249SOL     OW31645   3.522   1.343   0.251
10249SOL    HW131646   3.570   1.279   0.311
10249SOL    HW231647   3.528   1.311   0.156
10250SOL     OW31648   6.650   0.240   0.308
10250SOL    HW131649   6.654   0.229   0.209
10250SOL    HW231650   6.727   0.296   0.339
10251SOL     OW31651   3.711   4.715   6.853
10251SOL    HW131652   3.683   4.643   6.789
10251SOL    HW231653   3.634   4.776   6.871
10252SOL     OW31654   6.472   5.220   1.818
10252SOL    HW131655   6.494   5.288   1.748
10252SOL    HW231656   6.381   5.236   1.854
10253SOL     OW31657   3.260   4.990   6.478
10253SOL    HW131658   3.304   4.903   6.502
10253SOL    HW231659   3.271   5.008   6.380
10254SOL     OW31660   2.563   2.184   4.810
10254SOL    HW131661   2.571   2.120   4.887
10254SOL    HW231662   2.598   2.139   4.727
10255SOL     OW31663   3.020   5.777   3.239
10255SOL    HW131664   2.983   5.698   3.289
10255SOL    HW231665   3.107   5.805   3.282
10256SOL     OW31666   5.955   6.066   6.841
10256SOL    HW131667   5.993   5.980   6.876
10256SOL    HW231668   5.997   6.143   6.889
10257SOL     OW31669   1.559   6.312   6.278
10257SOL    HW131670   1.598   6.359   6.199
10257SOL    HW231671   1.509   6.231   6.248
10258SOL     OW31672   4.068   1.205   3.263
10258SOL    HW131673   4.150   1.147   3.255
10258SOL    HW231674   4.058   1.235   3.358
10259SOL     OW31675   0.638   3.408   3.096
10259SOL    HW131676   0.597   3.497   3.114
10259SOL    HW231677   0.729   3.404   3.138
10260SOL     OW31678   0.209   6.833   1.381
10260SOL    HW131679   0.164   6.863   1.465
10260SOL    HW231680   0.236   6.913   1.327
10261SOL     OW31681   2.044   6.644   1.383
10261SOL    HW131682   2.088   6.556   1.401
10261SOL    HW231683   1.992   6.672   1.464
10262SOL     OW31684   2.100   5.173   5.254
10262SOL    HW131685   2.178   5.171   5.191
10262SOL    HW231686   2.122   5.118   5.335
10263SOL     OW31687   5.944   2.093   6.163
10263SOL    HW131688   5.900   2.035   6.094
10263SOL    HW231689   5.876   2.120   6.231
10264SOL     OW31690   0.368   6.994   6.798
10264SOL    HW131691   0.381   6.934   6.876
10264SOL    HW231692   0.437   0.046   6.798
10265SOL     OW31693   4.570   1.723   2.486
10265SOL    HW131694   4.553   1.773   2.571
10265SOL    HW231695   4.493   1.661   2.469
10266SOL     OW31696   3.650   4.315   6.120
10266SOL    HW131697   3.639   4.224   6.159
10266SOL    HW231698   3.742   4.348   6.138
10267SOL     OW31699   6.243   1.851   6.319
10267SOL    HW131700   6.216   1.807   6.233
10267SOL    HW231701   6.339   1.877   6.314
10268SOL     OW31702   6.521   4.940   1.577
10268SOL    HW131703   6.495   4.894   1.492
10268SOL    HW231704   6.469   4.900   1.653
10269SOL     OW31705   2.699   2.764   6.082
10269SOL    HW131706   2.749   2.681   6.060
10269SOL    HW231707   2.762   2.842   6.084
10270SOL     OW31708   2.370   6.341   1.232
10270SOL    HW131709   2.333   6.311   1.144
10270SOL    HW231710   2.465   6.310   1.241
10271SOL     OW31711   4.030   5.026   1.036
10271SOL    HW131712   4.073   4.988   0.954
10271SOL    HW231713   4.052   5.123   1.044
10272SOL     OW31714   1.188   0.898   6.092
10272SOL    HW131715   1.203   0.836   6.168
10272SOL    HW231716   1.186   0.993   6.125
10273SOL     OW31717   4.267   5.911   4.958
10273SOL    HW131718   4.186   5.957   4.994
10273SOL    HW231719   4.240   5.850   4.883
10274SOL     OW31720   2.040   6.352   5.728
10274SOL    HW131721   2.008   6.405   5.806
10274SOL    HW231722   2.079   6.266   5.760
10275SOL     OW31723   0.961   6.376   1.962
10275SOL    HW131724   1.053   6.377   2.003
10275SOL    HW231725   0.916   6.463   1.979
10276SOL     OW31726   6.678   6.324   6.156
10276SOL    HW131727   6.654   6.371   6.241
10276SOL    HW231728   6.776   6.332   6.140
10277SOL     OW31729   1.919   5.488   3.529
10277SOL    HW131730   1.869   5.560   3.482
10277SOL    HW231731   1.949   5.419   3.463
10278SOL     OW31732   5.893   0.677   5.780
10278SOL    HW131733   5.910   0.729   5.863
10278SOL    HW231734   5.871   0.583   5.803
10279SOL     OW31735   3.563   6.526   3.425
10279SOL    HW131736   3.639   6.476   3.465
10279SOL    HW231737   3.596   6.582   3.348
10280SOL     OW31738   2.697   3.288   6.644
10280SOL    HW131739   2.753   3.240   6.712
10280SOL    HW231740   2.752   3.310   6.564
10281SOL     OW31741   4.180   6.847   3.455
10281SOL    HW131742   4.165   6.760   3.502
10281SOL    HW231743   4.269   6.846   3.411
10282SOL     OW31744   0.915   2.464   4.673
10282SOL    HW131745   0.997   2.515   4.649
10282SOL    HW231746   0.934   2.404   4.752
10283SOL     OW31747   0.710   3.435   6.215
10283SOL    HW131748   0.616   3.432   6.248
10283SOL    HW231749   0.761   3.505   6.265
10284SOL     OW31750   5.259   3.539   6.181
10284SOL    HW131751   5.216   3.472   6.121
10284SOL    HW231752   5.328   3.493   6.237
10285SOL     OW31753   5.934   0.275   1.004
10285SOL    HW131754   5.953   0.351   0.943
10285SOL    HW231755   5.958   0.300   1.098
10286SOL     OW31756   4.707   0.908   3.870
10286SOL    HW131757   4.690   0.924   3.967
10286SOL    HW231758   4.640   0.844   3.834
10287SOL     OW31759   2.745   5.827   1.967
10287SOL    HW131760   2.679   5.777   2.023
10287SOL    HW231761   2.773   5.769   1.890
10288SOL     OW31762   4.759   6.346   4.375
10288SOL    HW131763   4.725   6.269   4.320
10288SOL    HW231764   4.683   6.406   4.399
10289SOL     OW31765   2.970   1.086   1.602
10289SOL    HW131766   2.926   1.172   1.576
10289SOL    HW231767   3.032   1.057   1.529
10290SOL     OW31768   3.156   3.773   2.312
10290SOL    HW131769   3.148   3.699   2.245
10290SOL    HW231770   3.123   3.858   2.272
10291SOL     OW31771   3.663   0.231   6.174
10291SOL    HW131772   3.689   0.230   6.077
10291SOL    HW231773   3.583   0.289   6.186
10292SOL     OW31774   0.255   1.345   4.042
10292SOL    HW131775   0.182   1.295   4.090
10292SOL    HW231776   0.242   1.443   4.057
10293SOL     OW31777   2.648   6.031   3.048
10293SOL    HW131778   2.722   6.024   2.981
10293SOL    HW231779   2.673   5.979   3.130
10294SOL     OW31780   5.745   1.296   3.673
10294SOL    HW131781   5.826   1.256   3.630
10294SOL    HW231782   5.662   1.257   3.631
10295SOL     OW31783   1.037   4.984   5.502
10295SOL    HW131784   0.963   4.917   5.497
10295SOL    HW231785   1.125   4.936   5.499
10296SOL     OW31786   5.987   1.861   0.913
10296SOL    HW131787   5.914   1.924   0.938
10296SOL    HW231788   5.983   1.780   0.972
10297SOL     OW31789   1.923   5.267   4.274
10297SOL    HW131790   1.969   5.189   4.230
10297SOL    HW231791   1.944   5.351   4.224
10298SOL     OW31792   5.443   3.220   3.743
10298SOL    HW131793   5.443   3.319   3.758
10298SOL    HW231794   5.535   3.190   3.720
10299SOL     OW31795   4.672   4.857   2.210
10299SOL    HW131796   4.592   4.837   2.153
10299SOL    HW231797   4.702   4.951   2.195
10300SOL     OW31798   1.863   4.802   2.792
10300SOL    HW131799   1.960   4.788   2.769
10300SOL    HW231800   1.810   4.805   2.707
10301SOL     OW31801   5.753   1.682   1.762
10301SOL    HW131802   5.727   1.591   1.794
10301SOL    HW231803   5.708   1.702   1.675
10302SOL     OW31804   2.038   5.291   3.393
10302SOL    HW131805   2.129   5.301   3.432
10302SOL    HW231806   2.022   5.195   3.369
10303SOL     OW31807   3.288   2.789   0.612
10303SOL    HW131808   3.341   2.854   0.557
10303SOL    HW231809   3.202   2.831   0.639
10304SOL     OW31810   6.091   6.650   3.684
10304SOL    HW131811   6.187   6.673   3.670
10304SOL    HW231812   6.051   6.618   3.598
10305SOL     OW31813   2.077   5.823   1.241
10305SOL    HW131814   2.055   5.916   1.212
10305SOL    HW231815   2.012   5.794   1.311
10306SOL     OW31816   4.360   5.399   0.499
10306SOL    HW131817   4.269   5.397   0.456
10306SOL    HW231818   4.357   5.348   0.585
10307SOL     OW31819   2.597   1.238   5.267
10307SOL    HW131820   2.506   1.222   5.306
10307SOL    HW231821   2.645   1.306   5.322
10308SOL     OW31822   3.148   5.745   3.793
10308SOL    HW131823   3.170   5.838   3.823
10308SOL    HW231824   3.052   5.742   3.763
10309SOL     OW31825   0.533   6.378   3.528
10309SOL    HW131826   0.437   6.380   3.554
10309SOL    HW231827   0.573   6.290   3.551
10310SOL     OW31828   4.124   3.239   3.982
10310SOL    HW131829   4.058   3.213   4.052
10310SOL    HW231830   4.170   3.157   3.948
10311SOL     OW31831   6.847   6.193   0.423
10311SOL    HW131832   6.800   6.168   0.338
10311SOL    HW231833   6.934   6.237   0.402
10312SOL     OW31834   1.519   4.704   0.937
10312SOL    HW131835   1.580   4.780   0.913
10312SOL    HW231836   1.569   4.636   0.991
10313SOL     OW31837   5.541   5.891   3.231
10313SOL    HW131838   5.496   5.973   3.197
10313SOL    HW231839   5.599   5.914   3.309
10314SOL     OW31840   6.524   5.524   6.637
10314SOL    HW131841   6.622   5.538   6.622
10314SOL    HW231842   6.508   5.430   6.668
10315SOL     OW31843   6.208   5.864   4.656
10315SOL    HW131844   6.241   5.894   4.745
10315SOL    HW231845   6.145   5.932   4.619
10316SOL     OW31846   0.055   3.728   2.835
10316SOL    HW131847   0.047   3.731   2.935
10316SOL    HW231848   0.112   3.650   2.809
10317SOL     OW31849   3.431   4.864   1.099
10317SOL    HW131850   3.460   4.775   1.063
10317SOL    HW231851   3.383   4.915   1.028
10318SOL     OW31852   6.407   6.001   1.945
10318SOL    HW131853   6.371   6.061   1.874
10318SOL    HW231854   6.488   6.043   1.987
10319SOL     OW31855   5.124   6.531   4.603
10319SOL    HW131856   5.192   6.593   4.565
10319SOL    HW231857   5.091   6.470   4.531
10320SOL     OW31858   4.534   6.614   1.099
10320SOL    HW131859   4.515   6.628   1.196
10320SOL    HW231860   4.565   6.700   1.058
10321SOL     OW31861   4.016   6.442   4.482
10321SOL    HW131862   4.077   6.382   4.534
10321SOL    HW231863   3.924   6.438   4.519
10322SOL     OW31864   6.854   2.594   0.140
10322SOL    HW131865   6.784   2.565   0.205
10322SOL    HW231866   6.842   2.690   0.118
10323SOL     OW31867   5.942   2.274   4.922
10323SOL    HW131868   5.943   2.302   5.018
10323SOL    HW231869   5.858   2.222   4.904
10324SOL     OW31870   3.050   3.373   3.276
10324SOL    HW131871   3.099   3.453   3.311
10324SOL    HW231872   3.025   3.313   3.352
10325SOL     OW31873   0.986   3.849   3.266
10325SOL    HW131874   1.030   3.760   3.279
10325SOL    HW231875   0.902   3.853   3.320
10326SOL     OW31876   4.806   1.557   1.500
10326SOL    HW131877   4.758   1.474   1.528
10326SOL    HW231878   4.904   1.546   1.518
10327SOL     OW31879   0.332   0.680   3.801
10327SOL    HW131880   0.366   0.681   3.707
10327SOL    HW231881   0.269   0.604   3.813
10328SOL     OW31882   5.966   2.798   2.550
10328SOL    HW131883   6.006   2.886   2.575
10328SOL    HW231884   5.960   2.791   2.450
10329SOL     OW31885   4.174   6.187   2.171
10329SOL    HW131886   4.116   6.251   2.120
10329SOL    HW231887   4.116   6.117   2.213
10330SOL     OW31888   3.690   4.846   1.365
10330SOL    HW131889   3.740   4.872   1.448
10330SOL    HW231890   3.751   4.795   1.304
10331SOL     OW31891   5.515   0.584   4.664
10331SOL    HW131892   5.521   0.637   4.579
10331SOL    HW231893   5.420   0.582   4.696
10332SOL     OW31894   0.213   2.017   6.891
10332SOL    HW131895   0.273   2.029   6.812
10332SOL    HW231896   0.234   2.086   6.960
10333SOL     OW31897   4.726   4.190   4.666
10333SOL    HW131898   4.784   4.108   4.662
10333SOL    HW231899   4.647   4.171   4.724
10334SOL     OW31900   1.077   4.731   5.072
10334SOL    HW131901   1.145   4.757   5.004
10334SOL    HW231902   1.122   4.723   5.162
10335SOL     OW31903   1.899   5.389   1.906
10335SOL    HW131904   1.919   5.309   1.963
10335SOL    HW231905   1.819   5.436   1.941
10336SOL     OW31906   4.564   6.806   2.676
10336SOL    HW131907   4.576   6.900   2.709
10336SOL    HW231908   4.573   6.742   2.753
10337SOL     OW31909   0.644   5.326   4.991
10337SOL    HW131910   0.578   5.278   5.050
10337SOL    HW231911   0.697   5.391   5.046
10338SOL     OW31912   3.904   4.873   3.406
10338SOL    HW131913   3.965   4.847   3.331
10338SOL    HW231914   3.957   4.912   3.481
10339SOL     OW31915   3.077   5.564   0.932
10339SOL    HW131916   3.043   5.521   1.016
10339SOL    HW231917   3.177   5.565   0.933
10340SOL     OW31918   1.402   6.557   6.663
10340SOL    HW131919   1.447   6.550   6.574
10340SOL    HW231920   1.469   6.580   6.733
10341SOL     OW31921   1.454   1.120   2.509
10341SOL    HW131922   1.400   1.148   2.430
10341SOL    HW231923   1.437   1.183   2.585
10342SOL     OW31924   2.477   6.962   4.349
10342SOL    HW131925   2.415   6.887   4.326
10342SOL    HW231926   2.570   6.940   4.318
10343SOL     OW31927   2.203   2.747   4.326
10343SOL    HW131928   2.218   2.825   4.387
10343SOL    HW231929   2.292   2.714   4.294
10344SOL     OW31930   4.096   3.829   6.722
10344SOL    HW131931   4.183   3.784   6.702
10344SOL    HW231932   4.107   3.928   6.711
10345SOL     OW31933   1.587   1.718   5.844
10345SOL    HW131934   1.583   1.732   5.943
10345SOL    HW231935   1.681   1.731   5.812
10346SOL     OW31936   5.083   5.565   0.103
10346SOL    HW131937   5.028   5.481   0.098
10346SOL    HW231938   5.023   5.644   0.113
10347SOL     OW31939   5.095   2.090   1.811
10347SOL    HW131940   5.143   2.109   1.896
10347SOL    HW231941   4.997   2.102   1.825
10348SOL     OW31942   6.920   4.963   5.829
10348SOL    HW131943   6.828   4.935   5.856
10348SOL    HW231944   6.951   5.037   5.889
10349SOL     OW31945   6.878   1.491   0.536
10349SOL    HW131946   6.931   1.534   0.463
10349SOL    HW231947   6.931   1.416   0.575
10350SOL     OW31948   2.313   4.247   4.325
10350SOL    HW131949   2.389   4.308   4.300
10350SOL    HW231950   2.244   4.299   4.375
10351SOL     OW31951   4.572   4.456   4.936
10351SOL    HW131952   4.486   4.502   4.959
10351SOL    HW231953   4.587   4.460   4.837
10352SOL     OW31954   5.040   1.323   0.024
10352SOL    HW131955   5.103   1.260   0.069
10352SOL    HW231956   4.971   1.355   0.089
10353SOL     OW31957   6.734   3.157   3.592
10353SOL    HW131958   6.660   3.221   3.609
10353SOL    HW231959   6.796   3.195   3.522
10354SOL     OW31960   6.514   3.139   1.113
10354SOL    HW131961   6.569   3.060   1.086
10354SOL    HW231962   6.540   3.218   1.059
10355SOL     OW31963   0.261   1.735   1.107
10355SOL    HW131964   0.174   1.703   1.071
10355SOL    HW231965   0.247   1.817   1.162
10356SOL     OW31966   5.858   3.034   5.937
10356SOL    HW131967   5.840   2.942   5.972
10356SOL    HW231968   5.784   3.061   5.876
10357SOL     OW31969   0.774   1.243   5.924
10357SOL    HW131970   0.828   1.221   6.006
10357SOL    HW231971   0.681   1.209   5.936
10358SOL     OW31972   0.648   2.104   2.732
10358SOL    HW131973   0.652   2.017   2.681
10358SOL    HW231974   0.738   2.122   2.773
10359SOL     OW31975   6.012   2.347   1.692
10359SOL    HW131976   5.996   2.443   1.714
10359SOL    HW231977   6.063   2.303   1.766
10360SOL     OW31978   6.089   4.509   1.640
10360SOL    HW131979   6.030   4.549   1.709
10360SOL    HW231980   6.181   4.548   1.647
10361SOL     OW31981   6.923   1.202   2.762
10361SOL    HW131982   6.829   1.235   2.768
10361SOL    HW231983   6.984   1.270   2.803
10362SOL     OW31984   1.177   5.900   1.182
10362SOL    HW131985   1.082   5.875   1.202
10362SOL    HW231986   1.184   5.930   1.087
10363SOL     OW31987   5.257   4.289   6.696
10363SOL    HW131988   5.161   4.264   6.706
10363SOL    HW231989   5.264   4.386   6.673
10364SOL     OW31990   6.146   4.787   2.453
10364SOL    HW131991   6.191   4.706   2.490
10364SOL    HW231992   6.196   4.869   2.483
10365SOL     OW31993   5.348   5.500   0.410
10365SOL    HW131994   5.292   5.576   0.374
10365SOL    HW231995   5.317   5.414   0.369
10366SOL     OW31996   2.907   6.154   3.306
10366SOL    HW131997   3.007   6.161   3.315
10366SOL    HW231998   2.870   6.243   3.277
10367SOL     OW31999   5.918   6.789   1.867
10367SOL    HW132000   5.956   6.758   1.780
10367SOL    HW232001   5.968   6.870   1.899
10368SOL     OW32002   1.779   6.352   1.746
10368SOL    HW132003   1.714   6.396   1.685
10368SOL    HW232004   1.733   6.328   1.832
10369SOL     OW32005   2.983   6.685   5.921
10369SOL    HW132006   3.045   6.764   5.916
10369SOL    HW232007   3.035   6.604   5.948
10370SOL     OW32008   1.411   0.566   6.070
10370SOL    HW132009   1.448   0.475   6.049
10370SOL    HW232010   1.329   0.582   6.014
10371SOL     OW32011   4.591   4.984   3.168
10371SOL    HW132012   4.601   5.037   3.253
10371SOL    HW232013   4.602   5.045   3.089
10372SOL     OW32014   2.866   6.413   1.610
10372SOL    HW132015   2.775   6.384   1.580
10372SOL    HW232016   2.936   6.366   1.555
10373SOL     OW32017   0.142   1.359   6.209
10373SOL    HW132018   0.092   1.310   6.137
10373SOL    HW232019   0.088   1.437   6.240
10374SOL     OW32020   3.909   5.523   3.351
10374SOL    HW132021   3.841   5.569   3.295
10374SOL    HW232022   3.955   5.590   3.410
10375SOL     OW32023   2.633   4.656   0.298
10375SOL    HW132024   2.548   4.629   0.344
10375SOL    HW232025   2.701   4.681   0.367
10376SOL     OW32026   2.222   4.931   3.142
10376SOL    HW132027   2.310   4.893   3.115
10376SOL    HW232028   2.220   4.943   3.241
10377SOL     OW32029   1.789   0.757   2.176
10377SOL    HW132030   1.815   0.821   2.248
10377SOL    HW232031   1.847   0.772   2.095
10378SOL     OW32032   6.741   5.125   4.037
10378SOL    HW132033   6.667   5.132   4.103
10378SOL    HW232034   6.762   5.216   4.001
10379SOL     OW32035   2.134   6.410   4.299
10379SOL    HW132036   2.043   6.447   4.314
10379SOL    HW232037   2.126   6.315   4.269
10380SOL     OW32038   2.237   2.200   4.291
10380SOL    HW132039   2.158   2.225   4.236
10380SOL    HW232040   2.314   2.178   4.231
10381SOL     OW32041   4.377   6.016   2.246
10381SOL    HW132042   4.473   6.024   2.216
10381SOL    HW232043   4.325   6.093   2.208
10382SOL     OW32044   4.141   5.942   1.956
10382SOL    HW132045   4.135   5.913   2.051
10382SOL    HW232046   4.173   6.036   1.952
10383SOL     OW32047   1.694   4.771   0.335
10383SOL    HW132048   1.786   4.789   0.371
10383SOL    HW232049   1.644   4.858   0.328
10384SOL     OW32050   5.793   6.551   1.670
10384SOL    HW132051   5.770   6.526   1.764
10384SOL    HW232052   5.718   6.523   1.609
10385SOL     OW32053   4.679   4.609   6.856
10385SOL    HW132054   4.656   4.684   6.919
10385SOL    HW232055   4.693   4.526   6.909
10386SOL     OW32056   6.886   0.854   0.821
10386SOL    HW132057   6.800   0.809   0.845
10386SOL    HW232058   6.960   0.787   0.820
10387SOL     OW32059   4.952   3.372   2.067
10387SOL    HW132060   5.051   3.366   2.083
10387SOL    HW232061   4.907   3.289   2.098
10388SOL     OW32062   2.756   0.412   5.373
10388SOL    HW132063   2.667   0.390   5.412
10388SOL    HW232064   2.780   0.507   5.394
10389SOL     OW32065   0.564   3.663   0.554
10389SOL    HW132066   0.594   3.758   0.551
10389SOL    HW232067   0.583   3.619   0.466
10390SOL     OW32068   2.182   2.648   1.620
10390SOL    HW132069   2.167   2.739   1.659
10390SOL    HW232070   2.192   2.581   1.694
10391SOL     OW32071   5.562   0.018   4.276
10391SOL    HW132072   5.580   0.116   4.284
10391SOL    HW232073   5.644   6.987   4.302
10392SOL     OW32074   6.742   4.477   4.025
10392SOL    HW132075   6.757   4.439   3.934
10392SOL    HW232076   6.685   4.559   4.018
10393SOL     OW32077   1.463   3.703   3.460
10393SOL    HW132078   1.547   3.751   3.486
10393SOL    HW232079   1.386   3.742   3.510
10394SOL     OW32080   3.528   6.182   4.497
10394SOL    HW132081   3.625   6.202   4.479
10394SOL    HW232082   3.478   6.179   4.411
10395SOL     OW32083   0.754   0.661   1.025
10395SOL    HW132084   0.682   0.595   1.050
10395SOL    HW232085   0.741   0.745   1.079
10396SOL     OW32086   2.899   2.045   4.764
10396SOL    HW132087   2.998   2.057   4.757
10396SOL    HW232088   2.854   2.093   4.689
10397SOL     OW32089   3.397   2.016   2.867
10397SOL    HW132090   3.362   1.922   2.866
10397SOL    HW232091   3.436   2.038   2.778
10398SOL     OW32092   6.551   2.736   1.387
10398SOL    HW132093   6.633   2.794   1.384
10398SOL    HW232094   6.533   2.699   1.297
10399SOL     OW32095   6.216   3.501   2.038
10399SOL    HW132096   6.262   3.583   2.072
10399SOL    HW232097   6.119   3.521   2.023
10400SOL     OW32098   4.047   6.575   0.183
10400SOL    HW132099   4.108   6.577   0.104
10400SOL    HW232100   4.096   6.538   0.262
10401SOL     OW32101   0.412   0.986   5.580
10401SOL    HW132102   0.379   0.981   5.486
10401SOL    HW232103   0.363   1.058   5.630
10402SOL     OW32104   6.854   2.814   4.260
10402SOL    HW132105   6.843   2.901   4.309
10402SOL    HW232106   6.790   2.811   4.184
10403SOL     OW32107   2.648   0.471   2.988
10403SOL    HW132108   2.691   0.417   2.916
10403SOL    HW232109   2.554   0.494   2.962
10404SOL     OW32110   0.021   6.690   6.755
10404SOL    HW132111   0.113   6.696   6.715
10404SOL    HW232112   6.978   6.657   6.685
10405SOL     OW32113   0.122   0.958   5.990
10405SOL    HW132114   0.118   0.989   6.085
10405SOL    HW232115   0.205   0.993   5.947
10406SOL     OW32116   3.150   4.778   1.564
10406SOL    HW132117   3.236   4.808   1.523
10406SOL    HW232118   3.166   4.697   1.621
10407SOL     OW32119   3.216   0.005   0.427
10407SOL    HW132120   3.180   6.948   0.479
10407SOL    HW232121   3.306   7.002   0.391
10408SOL     OW32122   4.219   0.584   0.923
10408SOL    HW132123   4.195   0.520   0.850
10408SOL    HW232124   4.195   0.677   0.897
10409SOL     OW32125   5.788   5.054   1.122
10409SOL    HW132126   5.801   5.144   1.080
10409SOL    HW232127   5.793   4.983   1.052
10410SOL     OW32128   5.900   0.928   0.525
10410SOL    HW132129   5.825   0.978   0.481
10410SOL    HW232130   5.898   0.946   0.623
10411SOL     OW32131   2.984   5.192   3.269
10411SOL    HW132132   3.040   5.275   3.261
10411SOL    HW232133   2.898   5.214   3.316
10412SOL     OW32134   5.918   0.499   0.445
10412SOL    HW132135   5.844   0.448   0.401
10412SOL    HW232136   5.941   0.580   0.392
10413SOL     OW32137   5.790   2.583   0.794
10413SOL    HW132138   5.764   2.487   0.797
10413SOL    HW232139   5.760   2.628   0.878
10414SOL     OW32140   4.711   2.682   4.432
10414SOL    HW132141   4.632   2.649   4.484
10414SOL    HW232142   4.793   2.635   4.462
10415SOL     OW32143   0.813   6.291   6.211
10415SOL    HW132144   0.857   6.376   6.185
10415SOL    HW232145   0.771   6.249   6.131
10416SOL     OW32146   5.825   3.169   4.853
10416SOL    HW132147   5.898   3.211   4.907
10416SOL    HW232148   5.776   3.102   4.910
10417SOL     OW32149   2.487   4.853   4.041
10417SOL    HW132150   2.564   4.878   4.099
10417SOL    HW232151   2.500   4.760   4.006
10418SOL     OW32152   0.820   4.226   5.314
10418SOL    HW132153   0.793   4.173   5.394
10418SOL    HW232154   0.904   4.277   5.334
10419SOL     OW32155   1.193   1.160   0.853
10419SOL    HW132156   1.105   1.137   0.894
10419SOL    HW232157   1.247   1.213   0.917
10420SOL     OW32158   6.816   2.896   2.988
10420SOL    HW132159   6.882   2.822   2.985
10420SOL    HW232160   6.861   2.983   2.968
10421SOL     OW32161   1.056   0.702   3.423
10421SOL    HW132162   1.088   0.627   3.480
10421SOL    HW232163   0.981   0.671   3.364
10422SOL     OW32164   6.418   2.516   5.824
10422SOL    HW132165   6.372   2.483   5.907
10422SOL    HW232166   6.425   2.615   5.828
10423SOL     OW32167   4.690   4.643   3.890
10423SOL    HW132168   4.674   4.643   3.791
10423SOL    HW232169   4.698   4.737   3.922
10424SOL     OW32170   5.054   1.703   6.774
10424SOL    HW132171   4.998   1.694   6.857
10424SOL    HW232172   5.018   1.777   6.718
10425SOL     OW32173   1.371   5.882   2.534
10425SOL    HW132174   1.339   5.821   2.606
10425SOL    HW232175   1.309   5.961   2.528
10426SOL     OW32176   6.264   4.674   6.947
10426SOL    HW132177   6.200   4.608   6.906
10426SOL    HW232178   6.309   4.726   6.875
10427SOL     OW32179   5.329   2.309   0.407
10427SOL    HW132180   5.329   2.211   0.390
10427SOL    HW232181   5.246   2.350   0.369
10428SOL     OW32182   4.376   0.592   4.279
10428SOL    HW132183   4.424   0.653   4.216
10428SOL    HW232184   4.300   0.547   4.231
10429SOL     OW32185   0.127   5.958   1.836
10429SOL    HW132186   0.079   6.005   1.762
10429SOL    HW232187   0.203   5.905   1.798
10430SOL     OW32188   4.206   6.827   2.830
10430SOL    HW132189   4.290   6.816   2.776
10430SOL    HW232190   4.172   6.921   2.819
10431SOL     OW32191   2.747   0.631   4.648
10431SOL    HW132192   2.704   0.543   4.671
10431SOL    HW232193   2.801   0.663   4.725
10432SOL     OW32194   5.856   0.710   4.644
10432SOL    HW132195   5.792   0.779   4.677
10432SOL    HW232196   5.850   0.629   4.703
10433SOL     OW32197   1.658   6.667   1.422
10433SOL    HW132198   1.686   6.599   1.354
10433SOL    HW232199   1.617   6.746   1.376
10434SOL     OW32200   2.957   0.284   3.950
10434SOL    HW132201   3.047   0.253   3.981
10434SOL    HW232202   2.914   0.212   3.896
10435SOL     OW32203   5.607   6.570   6.201
10435SOL    HW132204   5.586   6.577   6.104
10435SOL    HW232205   5.703   6.596   6.216
10436SOL     OW32206   1.496   4.747   4.264
10436SOL    HW132207   1.498   4.839   4.225
10436SOL    HW232208   1.537   4.682   4.200
10437SOL     OW32209   6.676   5.313   5.921
10437SOL    HW132210   6.667   5.297   5.823
10437SOL    HW232211   6.684   5.226   5.969
10438SOL     OW32212   4.841   6.813   0.342
10438SOL    HW132213   4.808   6.907   0.329
10438SOL    HW232214   4.931   6.804   0.298
10439SOL     OW32215   3.465   0.012   5.868
10439SOL    HW132216   3.455   0.085   5.935
10439SOL    HW232217   3.377   6.985   5.857
10440SOL     OW32218   1.599   6.310   1.458
10440SOL    HW132219   1.595   6.265   1.368
10440SOL    HW232220   1.658   6.256   1.519
10441SOL     OW32221   5.264   2.167   6.696
10441SOL    HW132222   5.197   2.235   6.665
10441SOL    HW232223   5.345   2.214   6.731
10442SOL     OW32224   3.979   4.969   5.648
10442SOL    HW132225   3.970   4.913   5.730
10442SOL    HW232226   3.960   5.065   5.672
10443SOL     OW32227   5.899   3.541   5.032
10443SOL    HW132228   5.833   3.482   5.077
10443SOL    HW232229   5.960   3.581   5.100
10444SOL     OW32230   3.817   5.360   5.097
10444SOL    HW132231   3.777   5.391   5.183
10444SOL    HW232232   3.890   5.423   5.069
10445SOL     OW32233   6.733   6.296   4.708
10445SOL    HW132234   6.732   6.374   4.771
10445SOL    HW232235   6.639   6.273   4.682
10446SOL     OW32236   1.163   5.036   5.910
10446SOL    HW132237   1.211   5.012   5.994
10446SOL    HW232238   1.152   4.954   5.853
10447SOL     OW32239   5.944   2.209   0.948
10447SOL    HW132240   5.855   2.242   0.917
10447SOL    HW232241   6.001   2.186   0.868
10448SOL     OW32242   3.655   3.524   1.929
10448SOL    HW132243   3.641   3.507   1.831
10448SOL    HW232244   3.748   3.559   1.943
10449SOL     OW32245   2.741   5.407   4.070
10449SOL    HW132246   2.718   5.316   4.034
10449SOL    HW232247   2.677   5.431   4.143
10450SOL     OW32248   6.426   1.750   0.418
10450SOL    HW132249   6.489   1.809   0.469
10450SOL    HW232250   6.450   1.654   0.433
10451SOL     OW32251   2.591   4.584   3.143
10451SOL    HW132252   2.638   4.517   3.201
10451SOL    HW232253   2.517   4.539   3.093
10452SOL     OW32254   0.940   3.061   3.663
10452SOL    HW132255   1.018   3.027   3.609
10452SOL    HW232256   0.951   3.159   3.679
10453SOL     OW32257   5.184   6.028   1.415
10453SOL    HW132258   5.222   6.111   1.455
10453SOL    HW232259   5.123   6.052   1.340
10454SOL     OW32260   5.172   3.048   2.097
10454SOL    HW132261   5.252   3.085   2.049
10454SOL    HW232262   5.179   2.949   2.103
10455SOL     OW32263   6.966   5.111   3.633
10455SOL    HW132264   0.027   5.125   3.577
10455SOL    HW232265   6.985   5.042   3.703
10456SOL     OW32266   4.509   6.252   1.432
10456SOL    HW132267   4.466   6.313   1.365
10456SOL    HW232268   4.605   6.275   1.443
10457SOL     OW32269   4.075   3.712   3.234
10457SOL    HW132270   4.065   3.618   3.265
10457SOL    HW232271   4.117   3.767   3.306
10458SOL     OW32272   1.262   6.877   1.009
10458SOL    HW132273   1.268   6.792   0.957
10458SOL    HW232274   1.329   6.943   0.973
10459SOL     OW32275   6.498   5.142   2.836
10459SOL    HW132276   6.441   5.120   2.757
10459SOL    HW232277   6.486   5.239   2.860
10460SOL     OW32278   2.244   4.993   1.927
10460SOL    HW132279   2.269   5.047   1.846
10460SOL    HW232280   2.267   5.046   2.010
10461SOL     OW32281   3.045   0.752   6.691
10461SOL    HW132282   3.057   0.849   6.713
10461SOL    HW232283   3.007   0.743   6.599
10462SOL     OW32284   6.427   0.559   0.785
10462SOL    HW132285   6.387   0.591   0.871
10462SOL    HW232286   6.387   0.471   0.760
10463SOL     OW32287   2.808   5.036   0.488
10463SOL    HW132288   2.828   5.120   0.540
10463SOL    HW232289   2.842   5.047   0.394
10464SOL     OW32290   5.584   0.522   0.850
10464SOL    HW132291   5.624   0.477   0.770
10464SOL    HW232292   5.516   0.461   0.892
10465SOL     OW32293   6.653   5.063   6.039
10465SOL    HW132294   6.649   4.981   5.982
10465SOL    HW232295   6.576   5.063   6.103
10466SOL     OW32296   5.009   6.029   5.973
10466SOL    HW132297   5.083   5.985   6.024
10466SOL    HW232298   5.031   6.126   5.960
10467SOL     OW32299   2.667   1.470   5.499
10467SOL    HW132300   2.571   1.472   5.530
10467SOL    HW232301   2.701   1.376   5.502
10468SOL     OW32302   3.427   6.581   3.671
10468SOL    HW132303   3.472   6.538   3.749
10468SOL    HW232304   3.480   6.564   3.588
10469SOL     OW32305   1.442   4.871   0.591
10469SOL    HW132306   1.512   4.812   0.633
10469SOL    HW232307   1.394   4.821   0.519
10470SOL     OW32308   2.727   1.660   4.157
10470SOL    HW132309   2.677   1.609   4.228
10470SOL    HW232310   2.820   1.624   4.151
10471SOL     OW32311   3.090   3.514   1.004
10471SOL    HW132312   3.120   3.510   0.909
10471SOL    HW232313   3.013   3.451   1.017
10472SOL     OW32314   4.014   1.109   1.960
10472SOL    HW132315   4.104   1.112   1.917
10472SOL    HW232316   3.943   1.108   1.890
10473SOL     OW32317   4.880   6.150   0.232
10473SOL    HW132318   4.845   6.107   0.315
10473SOL    HW232319   4.871   6.250   0.239
10474SOL     OW32320   4.238   0.905   4.660
10474SOL    HW132321   4.336   0.920   4.663
10474SOL    HW232322   4.218   0.828   4.599
10475SOL     OW32323   4.123   0.207   1.634
10475SOL    HW132324   4.205   0.209   1.577
10475SOL    HW232325   4.138   0.145   1.711
10476SOL     OW32326   0.154   5.457   0.272
10476SOL    HW132327   0.188   5.494   0.358
10476SOL    HW232328   0.182   5.362   0.262
10477SOL     OW32329   5.260   4.060   5.195
10477SOL    HW132330   5.356   4.033   5.198
10477SOL    HW232331   5.220   4.033   5.107
10478SOL     OW32332   0.230   6.321   1.610
10478SOL    HW132333   0.191   6.329   1.518
10478SOL    HW232334   0.305   6.386   1.621
10479SOL     OW32335   1.273   3.513   3.029
10479SOL    HW132336   1.333   3.486   2.953
10479SOL    HW232337   1.324   3.508   3.115
10480SOL     OW32338   5.392   0.179   2.520
10480SOL    HW132339   5.335   0.229   2.586
10480SOL    HW232340   5.421   0.242   2.447
10481SOL     OW32341   2.046   0.701   5.151
10481SOL    HW132342   2.003   0.774   5.204
10481SOL    HW232343   1.979   0.630   5.130
10482SOL     OW32344   1.702   5.692   5.549
10482SOL    HW132345   1.604   5.698   5.530
10482SOL    HW232346   1.717   5.698   5.647
10483SOL     OW32347   0.009   5.156   0.105
10483SOL    HW132348   6.986   5.068   0.085
10483SOL    HW232349   0.031   5.160   0.203
10484SOL     OW32350   6.402   1.059   1.297
10484SOL    HW132351   6.473   1.033   1.232
10484SOL    HW232352   6.332   1.112   1.251
10485SOL     OW32353   3.346   4.141   2.942
10485SOL    HW132354   3.333   4.198   3.023
10485SOL    HW232355   3.320   4.047   2.962
10486SOL     OW32356   6.104   6.497   5.681
10486SOL    HW132357   6.202   6.489   5.663
10486SOL    HW232358   6.062   6.407   5.671
10487SOL     OW32359   4.598   2.277   1.978
10487SOL    HW132360   4.609   2.350   2.046
10487SOL    HW232361   4.545   2.311   1.901
10488SOL     OW32362   6.456   2.216   5.945
10488SOL    HW132363   6.471   2.157   5.866
10488SOL    HW232364   6.359   2.219   5.967
10489SOL     OW32365   6.022   4.486   4.658
10489SOL    HW132366   6.051   4.577   4.628
10489SOL    HW232367   6.089   4.449   4.722
10490SOL     OW32368   5.820   6.295   6.413
10490SOL    HW132369   5.765   6.301   6.496
10490SOL    HW232370   5.900   6.355   6.422
10491SOL     OW32371   2.020   2.583   6.171
10491SOL    HW132372   1.927   2.563   6.141
10491SOL    HW232373   2.058   2.504   6.218
10492SOL     OW32374   3.915   0.766   0.343
10492SOL    HW132375   3.835   0.711   0.318
10492SOL    HW232376   3.886   0.854   0.379
10493SOL     OW32377   4.472   5.858   0.685
10493SOL    HW132378   4.438   5.830   0.775
10493SOL    HW232379   4.572   5.849   0.683
10494SOL     OW32380   0.951   4.461   5.433
10494SOL    HW132381   0.983   4.440   5.526
10494SOL    HW232382   0.886   4.537   5.436
10495SOL     OW32383   0.408   6.481   0.694
10495SOL    HW132384   0.443   6.421   0.765
10495SOL    HW232385   0.317   6.450   0.665
10496SOL     OW32386   0.217   3.768   5.219
10496SOL    HW132387   0.295   3.746   5.160
10496SOL    HW232388   0.218   3.708   5.299
10497SOL     OW32389   2.145   0.029   1.408
10497SOL    HW132390   2.199   6.978   1.453
10497SOL    HW232391   2.202   0.110   1.394
10498SOL     OW32392   4.415   4.968   0.260
10498SOL    HW132393   4.426   4.870   0.249
10498SOL    HW232394   4.377   4.988   0.350
10499SOL     OW32395   5.949   5.081   2.670
10499SOL    HW132396   5.956   5.004   2.734
10499SOL    HW232397   5.935   5.046   2.577
10500SOL     OW32398   6.796   3.547   5.078
10500SOL    HW132399   6.717   3.535   5.018
10500SOL    HW232400   6.861   3.610   5.036
10501SOL     OW32401   2.915   5.092   2.633
10501SOL    HW132402   2.895   5.183   2.668
10501SOL    HW232403   2.917   5.026   2.709
10502SOL     OW32404   3.595   3.797   2.265
10502SOL    HW132405   3.663   3.849   2.317
10502SOL    HW232406   3.621   3.796   2.169
10503SOL     OW32407   6.447   2.409   6.329
10503SOL    HW132408   6.451   2.354   6.246
10503SOL    HW232409   6.364   2.465   6.328
10504SOL     OW32410   1.311   2.534   5.781
10504SOL    HW132411   1.358   2.473   5.844
10504SOL    HW232412   1.268   2.481   5.708
10505SOL     OW32413   5.782   6.592   0.627
10505SOL    HW132414   5.751   6.596   0.532
10505SOL    HW232415   5.880   6.610   0.630
10506SOL     OW32416   1.104   2.676   0.504
10506SOL    HW132417   1.102   2.622   0.588
10506SOL    HW232418   1.040   2.752   0.512
10507SOL     OW32419   1.150   5.287   6.440
10507SOL    HW132420   1.241   5.246   6.427
10507SOL    HW232421   1.086   5.217   6.473
10508SOL     OW32422   1.856   4.853   4.999
10508SOL    HW132423   1.804   4.782   5.046
10508SOL    HW232424   1.830   4.943   5.034
10509SOL     OW32425   4.694   2.631   3.878
10509SOL    HW132426   4.688   2.634   3.978
10509SOL    HW232427   4.745   2.710   3.845
10510SOL     OW32428   5.501   5.384   3.666
10510SOL    HW132429   5.540   5.293   3.684
10510SOL    HW232430   5.409   5.375   3.629
10511SOL     OW32431   4.379   2.199   2.146
10511SOL    HW132432   4.461   2.207   2.088
10511SOL    HW232433   4.396   2.133   2.218
10512SOL     OW32434   4.621   1.483   4.484
10512SOL    HW132435   4.625   1.485   4.584
10512SOL    HW232436   4.541   1.534   4.453
10513SOL     OW32437   5.015   3.664   0.861
10513SOL    HW132438   5.039   3.604   0.785
10513SOL    HW232439   5.097   3.707   0.898
10514SOL     OW32440   0.545   3.224   1.789
10514SOL    HW132441   0.467   3.283   1.767
10514SOL    HW232442   0.577   3.245   1.881
10515SOL     OW32443   2.422   2.618   4.987
10515SOL    HW132444   2.366   2.565   5.051
10515SOL    HW232445   2.486   2.675   5.038
10516SOL     OW32446   3.994   2.350   1.222
10516SOL    HW132447   3.988   2.266   1.278
10516SOL    HW232448   4.015   2.325   1.128
10517SOL     OW32449   1.419   2.385   3.181
10517SOL    HW132450   1.491   2.446   3.149
10517SOL    HW232451   1.394   2.320   3.109
10518SOL     OW32452   0.773   4.918   2.858
10518SOL    HW132453   0.731   5.004   2.885
10518SOL    HW232454   0.712   4.869   2.796
10519SOL     OW32455   3.684   6.640   1.240
10519SOL    HW132456   3.730   6.605   1.321
10519SOL    HW232457   3.615   6.574   1.209
10520SOL     OW32458   0.045   2.190   5.226
10520SOL    HW132459   0.137   2.173   5.260
10520SOL    HW232460   0.033   2.143   5.138
10521SOL     OW32461   6.510   3.065   2.066
10521SOL    HW132462   6.444   3.140   2.065
10521SOL    HW232463   6.507   3.020   2.155
10522SOL     OW32464   5.209   2.671   3.366
10522SOL    HW132465   5.207   2.672   3.466
10522SOL    HW232466   5.184   2.580   3.333
10523SOL     OW32467   0.287   4.465   2.939
10523SOL    HW132468   0.297   4.521   3.020
10523SOL    HW232469   0.241   4.379   2.963
10524SOL     OW32470   0.193   6.410   5.087
10524SOL    HW132471   0.282   6.403   5.131
10524SOL    HW232472   0.121   6.397   5.155
10525SOL     OW32473   5.048   1.746   4.188
10525SOL    HW132474   4.987   1.820   4.160
10525SOL    HW232475   5.095   1.710   4.108
10526SOL     OW32476   1.455   5.157   0.588
10526SOL    HW132477   1.466   5.059   0.598
10526SOL    HW232478   1.505   5.189   0.507
10527SOL     OW32479   0.833   6.923   4.507
10527SOL    HW132480   0.823   6.825   4.528
10527SOL    HW232481   0.817   6.937   4.409
10528SOL     OW32482   1.565   3.909   5.456
10528SOL    HW132483   1.519   3.858   5.383
10528SOL    HW232484   1.649   3.861   5.481
10529SOL     OW32485   0.772   6.314   1.038
10529SOL    HW132486   0.718   6.388   1.079
10529SOL    HW232487   0.815   6.261   1.111
10530SOL     OW32488   0.515   5.493   1.037
10530SOL    HW132489   0.565   5.579   1.051
10530SOL    HW232490   0.546   5.449   0.953
10531SOL     OW32491   2.933   3.225   5.152
10531SOL    HW132492   3.017   3.184   5.188
10531SOL    HW232493   2.855   3.193   5.206
10532SOL     OW32494   5.671   6.328   6.634
10532SOL    HW132495   5.684   6.285   6.723
10532SOL    HW232496   5.596   6.283   6.586
10533SOL     OW32497   3.741   6.304   3.248
10533SOL    HW132498   3.671   6.375   3.242
10533SOL    HW232499   3.773   6.281   3.156
10534SOL     OW32500   1.670   6.217   3.875
10534SOL    HW132501   1.650   6.258   3.787
10534SOL    HW232502   1.756   6.165   3.869
10535SOL     OW32503   3.287   1.870   2.504
10535SOL    HW132504   3.209   1.911   2.552
10535SOL    HW232505   3.301   1.917   2.417
10536SOL     OW32506   5.821   1.632   4.075
10536SOL    HW132507   5.901   1.636   4.134
10536SOL    HW232508   5.751   1.575   4.119
10537SOL     OW32509   4.036   0.075   4.055
10537SOL    HW132510   4.106   0.101   4.121
10537SOL    HW232511   4.004   0.156   4.007
10538SOL     OW32512   6.721   3.374   2.858
10538SOL    HW132513   6.712   3.300   2.925
10538SOL    HW232514   6.661   3.450   2.884
10539SOL     OW32515   6.623   0.172   2.948
10539SOL    HW132516   6.581   0.157   2.859
10539SOL    HW232517   6.670   0.260   2.949
10540SOL     OW32518   1.777   3.545   5.801
10540SOL    HW132519   1.740   3.634   5.829
10540SOL    HW232520   1.871   3.557   5.771
10541SOL     OW32521   3.376   3.169   5.376
10541SOL    HW132522   3.369   3.264   5.345
10541SOL    HW232523   3.341   3.108   5.305
10542SOL     OW32524   5.109   6.973   4.738
10542SOL    HW132525   5.044   6.939   4.805
10542SOL    HW232526   5.071   6.962   4.646
10543SOL     OW32527   0.526   3.474   4.892
10543SOL    HW132528   0.515   3.417   4.973
10543SOL    HW232529   0.544   3.416   4.812
10544SOL     OW32530   1.788   1.647   3.055
10544SOL    HW132531   1.838   1.731   3.077
10544SOL    HW232532   1.841   1.567   3.084
10545SOL     OW32533   1.925   2.726   2.466
10545SOL    HW132534   1.999   2.691   2.522
10545SOL    HW232535   1.863   2.652   2.440
10546SOL     OW32536   2.931   6.592   0.041
10546SOL    HW132537   2.984   6.660   7.011
10546SOL    HW232538   2.915   6.624   0.134
10547SOL     OW32539   4.379   0.351   4.488
10547SOL    HW132540   4.363   0.253   4.474
10547SOL    HW232541   4.301   0.390   4.538
10548SOL     OW32542   0.324   5.232   3.737
10548SOL    HW132543   0.423   5.221   3.747
10548SOL    HW232544   0.288   5.161   3.677
10549SOL     OW32545   6.482   0.781   1.062
10549SOL    HW132546   6.435   0.700   1.099
10549SOL    HW232547   6.557   0.805   1.122
10550SOL     OW32548   5.004   5.768   3.457
10550SOL    HW132549   4.991   5.859   3.496
10550SOL    HW232550   5.081   5.723   3.503
10551SOL     OW32551   2.706   2.093   5.909
10551SOL    HW132552   2.731   2.052   5.821
10551SOL    HW232553   2.743   2.037   5.983
10552SOL     OW32554   2.688   1.251   4.535
10552SOL    HW132555   2.628   1.171   4.535
10552SOL    HW232556   2.674   1.304   4.618
10553SOL     OW32557   0.142   4.934   0.454
10553SOL    HW132558   0.210   4.945   0.526
10553SOL    HW232559   0.052   4.957   0.489
10554SOL     OW32560   6.298   6.246   1.804
10554SOL    HW132561   6.317   6.334   1.849
10554SOL    HW232562   6.370   6.226   1.738
10555SOL     OW32563   4.081   2.974   0.676
10555SOL    HW132564   4.052   3.069   0.683
10555SOL    HW232565   4.065   2.941   0.582
10556SOL     OW32566   2.331   1.827   2.617
10556SOL    HW132567   2.339   1.876   2.704
10556SOL    HW232568   2.312   1.893   2.544
10557SOL     OW32569   2.307   4.341   3.657
10557SOL    HW132570   2.329   4.330   3.754
10557SOL    HW232571   2.349   4.425   3.623
10558SOL     OW32572   3.291   5.343   4.638
10558SOL    HW132573   3.200   5.301   4.642
10558SOL    HW232574   3.312   5.369   4.543
10559SOL     OW32575   4.313   6.602   0.538
10559SOL    HW132576   4.349   6.550   0.614
10559SOL    HW232577   4.257   6.542   0.480
10560SOL     OW32578   5.556   0.026   2.679
10560SOL    HW132579   5.538   0.102   2.616
10560SOL    HW232580   5.649   0.032   2.713
10561SOL     OW32581   6.185   4.452   0.130
10561SOL    HW132582   6.196   4.359   0.094
10561SOL    HW232583   6.128   4.505   0.067
10562SOL     OW32584   4.113   6.248   2.595
10562SOL    HW132585   4.204   6.209   2.582
10562SOL    HW232586   4.104   6.279   2.690
10563SOL     OW32587   0.342   0.529   1.572
10563SOL    HW132588   0.282   0.458   1.609
10563SOL    HW232589   0.334   0.531   1.473
10564SOL     OW32590   5.620   4.880   3.919
10564SOL    HW132591   5.694   4.870   3.852
10564SOL    HW232592   5.657   4.869   4.011
10565SOL     OW32593   1.151   0.262   5.801
10565SOL    HW132594   1.085   0.228   5.734
10565SOL    HW232595   1.195   0.345   5.766
10566SOL     OW32596   2.823   3.530   6.915
10566SOL    HW132597   2.746   3.592   6.924
10566SOL    HW232598   2.889   3.568   6.850
10567SOL     OW32599   1.320   2.338   6.451
10567SOL    HW132600   1.246   2.273   6.471
10567SOL    HW232601   1.402   2.312   6.503
10568SOL     OW32602   5.032   2.544   5.430
10568SOL    HW132603   5.022   2.629   5.481
10568SOL    HW232604   5.100   2.486   5.475
10569SOL     OW32605   5.989   6.683   0.348
10569SOL    HW132606   6.051   6.646   0.279
10569SOL    HW232607   6.041   6.709   0.429
10570SOL     OW32608   1.058   4.841   3.374
10570SOL    HW132609   0.986   4.819   3.309
10570SOL    HW232610   1.105   4.924   3.344
10571SOL     OW32611   6.511   4.417   6.064
10571SOL    HW132612   6.499   4.371   5.976
10571SOL    HW232613   6.464   4.506   6.061
10572SOL     OW32614   5.777   4.547   0.806
10572SOL    HW132615   5.815   4.455   0.809
10572SOL    HW232616   5.849   4.612   0.779
10573SOL     OW32617   5.652   2.033   3.677
10573SOL    HW132618   5.577   2.084   3.637
10573SOL    HW232619   5.710   1.995   3.605
10574SOL     OW32620   6.695   2.511   3.482
10574SOL    HW132621   6.638   2.588   3.452
10574SOL    HW232622   6.770   2.545   3.538
10575SOL     OW32623   6.495   0.283   1.384
10575SOL    HW132624   6.568   0.318   1.325
10575SOL    HW232625   6.442   0.214   1.334
10576SOL     OW32626   1.243   4.486   4.396
10576SOL    HW132627   1.342   4.491   4.412
10576SOL    HW232628   1.222   4.400   4.348
10577SOL     OW32629   4.284   5.005   0.534
10577SOL    HW132630   4.186   4.990   0.518
10577SOL    HW232631   4.316   4.942   0.606
10578SOL     OW32632   7.013   3.529   4.746
10578SOL    HW132633   0.010   3.456   4.679
10578SOL    HW232634   0.077   3.581   4.761
10579SOL     OW32635   1.422   3.565   6.926
10579SOL    HW132636   1.325   3.587   6.937
10579SOL    HW232637   1.432   3.469   6.898
10580SOL     OW32638   6.644   6.583   0.226
10580SOL    HW132639   6.569   6.591   0.291
10580SOL    HW232640   6.684   6.673   0.210
10581SOL     OW32641   5.716   0.129   3.205
10581SOL    HW132642   5.764   0.126   3.293
10581SOL    HW232643   5.714   0.037   3.165
10582SOL     OW32644   5.530   4.495   6.330
10582SOL    HW132645   5.622   4.490   6.291
10582SOL    HW232646   5.524   4.574   6.391
10583SOL     OW32647   3.098   1.021   5.369
10583SOL    HW132648   3.064   1.009   5.276
10583SOL    HW232649   3.070   0.944   5.425
10584SOL     OW32650   1.155   6.742   4.585
10584SOL    HW132651   1.224   6.763   4.654
10584SOL    HW232652   1.157   6.812   4.514
10585SOL     OW32653   0.811   6.857   4.981
10585SOL    HW132654   0.894   6.912   4.973
10585SOL    HW232655   0.771   6.869   5.072
10586SOL     OW32656   4.042   4.221   5.253
10586SOL    HW132657   4.075   4.187   5.342
10586SOL    HW232658   4.084   4.310   5.234
10587SOL     OW32659   2.474   5.325   5.260
10587SOL    HW132660   2.445   5.420   5.271
10587SOL    HW232661   2.448   5.292   5.169
10588SOL     OW32662   1.100   3.944   4.180
10588SOL    HW132663   1.044   3.905   4.106
10588SOL    HW232664   1.045   3.948   4.264
10589SOL     OW32665   5.197   6.445   3.887
10589SOL    HW132666   5.185   6.410   3.979
10589SOL    HW232667   5.108   6.455   3.843
10590SOL     OW32668   0.838   5.156   2.476
10590SOL    HW132669   0.930   5.118   2.491
10590SOL    HW232670   0.777   5.083   2.446
10591SOL     OW32671   6.777   2.382   1.605
10591SOL    HW132672   6.835   2.463   1.597
10591SOL    HW232673   6.727   2.369   1.519
10592SOL     OW32674   6.611   1.936   4.858
10592SOL    HW132675   6.694   1.969   4.813
10592SOL    HW232676   6.559   1.879   4.794
10593SOL     OW32677   3.436   5.536   3.051
10593SOL    HW132678   3.396   5.542   3.143
10593SOL    HW232679   3.472   5.625   3.025
10594SOL     OW32680   2.710   6.734   3.590
10594SOL    HW132681   2.682   6.799   3.519
10594SOL    HW232682   2.687   6.771   3.680
10595SOL     OW32683   6.203   6.818   0.028
10595SOL    HW132684   6.127   6.753   0.033
10595SOL    HW232685   6.247   6.826   0.117
10596SOL     OW32686   5.055   2.697   6.926
10596SOL    HW132687   5.014   2.783   6.956
10596SOL    HW232688   5.152   2.711   6.909
10597SOL     OW32689   2.425   0.904   5.547
10597SOL    HW132690   2.392   0.848   5.471
10597SOL    HW232691   2.407   1.001   5.527
10598SOL     OW32692   2.615   1.930   6.485
10598SOL    HW132693   2.518   1.909   6.483
10598SOL    HW232694   2.629   2.025   6.458
10599SOL     OW32695   6.975   2.417   6.961
10599SOL    HW132696   6.936   2.477   0.011
10599SOL    HW232697   6.901   2.369   6.913
10600SOL     OW32698   2.889   2.341   1.103
10600SOL    HW132699   2.929   2.270   1.162
10600SOL    HW232700   2.901   2.430   1.146
10601SOL     OW32701   1.091   0.060   5.974
10601SOL    HW132702   1.118   0.140   5.920
10601SOL    HW232703   1.076   0.087   6.069
10602SOL     OW32704   6.561   0.029   0.862
10602SOL    HW132705   6.531   0.124   0.854
10602SOL    HW232706   6.538   7.014   0.953
10603SOL     OW32707   5.095   0.631   3.030
10603SOL    HW132708   5.012   0.673   3.066
10603SOL    HW232709   5.083   0.614   2.932
10604SOL     OW32710   5.051   6.634   5.006
10604SOL    HW132711   4.978   6.603   4.945
10604SOL    HW232712   5.098   6.712   4.965
10605SOL     OW32713   2.489   1.760   1.081
10605SOL    HW132714   2.503   1.858   1.093
10605SOL    HW232715   2.401   1.734   1.121
10606SOL     OW32716   6.482   0.662   0.301
10606SOL    HW132717   6.438   0.602   0.234
10606SOL    HW232718   6.557   0.711   0.257
10607SOL     OW32719   2.652   4.512   6.896
10607SOL    HW132720   2.715   4.456   6.842
10607SOL    HW232721   2.650   4.477   6.990
10608SOL     OW32722   5.726   3.780   3.179
10608SOL    HW132723   5.813   3.731   3.173
10608SOL    HW232724   5.654   3.717   3.209
10609SOL     OW32725   4.074   1.520   6.601
10609SOL    HW132726   4.119   1.453   6.542
10609SOL    HW232727   4.030   1.590   6.545
10610SOL     OW32728   0.788   0.506   3.648
10610SOL    HW132729   0.717   0.477   3.713
10610SOL    HW232730   0.750   0.575   3.587
10611SOL     OW32731   3.616   5.559   4.419
10611SOL    HW132732   3.614   5.656   4.396
10611SOL    HW232733   3.598   5.547   4.517
10612SOL     OW32734   5.719   1.718   3.835
10612SOL    HW132735   5.753   1.675   3.918
10612SOL    HW232736   5.733   1.817   3.841
10613SOL     OW32737   4.540   6.156   4.600
10613SOL    HW132738   4.635   6.145   4.630
10613SOL    HW232739   4.519   6.254   4.593
10614SOL     OW32740   4.095   0.938   5.799
10614SOL    HW132741   4.012   0.884   5.815
10614SOL    HW232742   4.078   1.033   5.824
10615SOL     OW32743   1.855   1.585   6.221
10615SOL    HW132744   1.827   1.678   6.244
10615SOL    HW232745   1.808   1.555   6.138
10616SOL     OW32746   2.144   6.248   0.254
10616SOL    HW132747   2.194   6.165   0.227
10616SOL    HW232748   2.095   6.230   0.339
10617SOL     OW32749   2.524   3.468   1.474
10617SOL    HW132750   2.517   3.553   1.526
10617SOL    HW232751   2.433   3.431   1.458
10618SOL     OW32752   1.503   4.993   4.132
10618SOL    HW132753   1.430   5.042   4.084
10618SOL    HW232754   1.549   5.055   4.195
10619SOL     OW32755   1.547   2.432   2.807
10619SOL    HW132756   1.532   2.333   2.800
10619SOL    HW232757   1.629   2.450   2.861
10620SOL     OW32758   3.280   0.975   6.472
10620SOL    HW132759   3.342   1.046   6.506
10620SOL    HW232760   3.251   0.996   6.379
10621SOL     OW32761   0.451   3.484   3.413
10621SOL    HW132762   0.452   3.388   3.439
10621SOL    HW232763   0.446   3.492   3.313
10622SOL     OW32764   4.181   2.003   0.252
10622SOL    HW132765   4.110   1.970   0.314
10622SOL    HW232766   4.185   1.944   0.171
10623SOL     OW32767   5.111   6.274   5.995
10623SOL    HW132768   5.163   6.358   5.980
10623SOL    HW232769   5.056   6.284   6.078
10624SOL     OW32770   0.315   2.118   6.668
10624SOL    HW132771   0.306   2.101   6.569
10624SOL    HW232772   0.405   2.155   6.687
10625SOL     OW32773   5.676   4.469   0.049
10625SOL    HW132774   5.586   4.450   0.090
10625SOL    HW232775   5.746   4.467   0.121
10626SOL     OW32776   5.288   3.041   1.035
10626SOL    HW132777   5.299   3.117   1.099
10626SOL    HW232778   5.327   2.958   1.076
10627SOL     OW32779   5.948   5.392   6.134
10627SOL    HW132780   5.961   5.413   6.037
10627SOL    HW232781   5.898   5.466   6.177
10628SOL     OW32782   3.658   6.890   1.162
10628SOL    HW132783   3.659   6.794   1.189
10628SOL    HW232784   3.751   6.917   1.134
10629SOL     OW32785   3.029   5.342   4.060
10629SOL    HW132786   2.932   5.342   4.085
10629SOL    HW232787   3.077   5.272   4.113
10630SOL     OW32788   3.688   1.050   2.315
10630SOL    HW132789   3.702   1.149   2.313
10630SOL    HW232790   3.620   1.024   2.247
10631SOL     OW32791   4.310   5.956   6.860
10631SOL    HW132792   4.386   5.891   6.867
10631SOL    HW232793   4.326   6.033   6.923
10632SOL     OW32794   4.305   5.760   3.481
10632SOL    HW132795   4.237   5.706   3.431
10632SOL    HW232796   4.391   5.760   3.431
10633SOL     OW32797   0.861   3.097   1.421
10633SOL    HW132798   0.936   3.103   1.355
10633SOL    HW232799   0.881   3.026   1.489
10634SOL     OW32800   0.956   3.502   6.977
10634SOL    HW132801   1.021   3.493   0.032
10634SOL    HW232802   0.953   3.417   6.925
10635SOL     OW32803   2.251   4.216   5.866
10635SOL    HW132804   2.285   4.220   5.772
10635SOL    HW232805   2.199   4.299   5.886
10636SOL     OW32806   6.640   2.086   6.097
10636SOL    HW132807   6.559   2.129   6.058
10636SOL    HW232808   6.718   2.100   6.036
10637SOL     OW32809   3.080   0.978   0.174
10637SOL    HW132810   3.047   0.925   0.096
10637SOL    HW232811   3.004   1.025   0.218
10638SOL     OW32812   7.020   5.580   1.484
10638SOL    HW132813   0.099   5.580   1.496
10638SOL    HW232814   6.977   5.628   1.560
10639SOL     OW32815   1.572   4.311   1.387
10639SOL    HW132816   1.639   4.385   1.383
10639SOL    HW232817   1.486   4.346   1.423
10640SOL     OW32818   4.339   0.090   3.667
10640SOL    HW132819   4.357   0.028   3.744
10640SOL    HW232820   4.266   0.153   3.691
10641SOL     OW32821   1.619   1.376   3.864
10641SOL    HW132822   1.571   1.453   3.905
10641SOL    HW232823   1.583   1.360   3.772
10642SOL     OW32824   5.587   2.295   6.243
10642SOL    HW132825   5.535   2.261   6.164
10642SOL    HW232826   5.531   2.362   6.293
10643SOL     OW32827   1.380   5.125   5.319
10643SOL    HW132828   1.348   5.032   5.338
10643SOL    HW232829   1.392   5.174   5.406
10644SOL     OW32830   6.674   2.405   3.187
10644SOL    HW132831   6.698   2.491   3.141
10644SOL    HW232832   6.666   2.420   3.285
10645SOL     OW32833   2.436   2.330   3.561
10645SOL    HW132834   2.432   2.369   3.469
10645SOL    HW232835   2.479   2.396   3.622
10646SOL     OW32836   5.224   0.659   4.031
10646SOL    HW132837   5.143   0.657   4.090
10646SOL    HW232838   5.301   0.699   4.081
10647SOL     OW32839   3.672   4.950   5.136
10647SOL    HW132840   3.625   5.033   5.106
10647SOL    HW232841   3.625   4.913   5.217
10648SOL     OW32842   5.329   5.190   5.210
10648SOL    HW132843   5.415   5.141   5.223
10648SOL    HW232844   5.337   5.282   5.247
10649SOL     OW32845   6.433   3.105   3.148
10649SOL    HW132846   6.463   3.084   3.241
10649SOL    HW232847   6.348   3.158   3.152
10650SOL     OW32848   0.224   0.239   4.032
10650SOL    HW132849   0.321   0.214   4.034
10650SOL    HW232850   0.185   0.225   4.123
10651SOL     OW32851   3.924   6.092   6.039
10651SOL    HW132852   3.879   6.057   5.957
10651SOL    HW232853   3.991   6.025   6.072
10652SOL     OW32854   1.993   0.126   6.965
10652SOL    HW132855   1.943   0.193   0.000
10652SOL    HW232856   1.928   0.065   6.920
10653SOL     OW32857   4.280   5.874   4.217
10653SOL    HW132858   4.185   5.845   4.232
10653SOL    HW232859   4.328   5.874   4.304
10654SOL     OW32860   5.696   1.928   4.625
10654SOL    HW132861   5.692   2.028   4.622
10654SOL    HW232862   5.791   1.899   4.635
10655SOL     OW32863   0.478   4.796   1.284
10655SOL    HW132864   0.551   4.727   1.289
10655SOL    HW232865   0.459   4.831   1.375
10656SOL     OW32866   6.216   1.611   3.153
10656SOL    HW132867   6.239   1.686   3.090
10656SOL    HW232868   6.296   1.587   3.207
10657SOL     OW32869   5.309   6.671   4.338
10657SOL    HW132870   5.357   6.661   4.251
10657SOL    HW232871   5.353   6.614   4.408
10658SOL     OW32872   0.418   2.745   5.634
10658SOL    HW132873   0.356   2.807   5.682
10658SOL    HW232874   0.456   2.791   5.554
10659SOL     OW32875   0.983   5.348   0.927
10659SOL    HW132876   0.991   5.284   0.851
10659SOL    HW232877   1.068   5.400   0.936
10660SOL     OW32878   6.229   3.217   5.366
10660SOL    HW132879   6.304   3.277   5.340
10660SOL    HW232880   6.167   3.265   5.428
10661SOL     OW32881   1.400   4.286   6.196
10661SOL    HW132882   1.356   4.223   6.132
10661SOL    HW232883   1.331   4.337   6.247
10662SOL     OW32884   2.685   1.410   3.162
10662SOL    HW132885   2.661   1.334   3.223
10662SOL    HW232886   2.768   1.386   3.111
10663SOL     OW32887   1.733   1.692   4.211
10663SOL    HW132888   1.657   1.747   4.246
10663SOL    HW232889   1.802   1.682   4.282
10664SOL     OW32890   1.524   5.337   4.466
10664SOL    HW132891   1.441   5.286   4.490
10664SOL    HW232892   1.591   5.274   4.426
10665SOL     OW32893   1.899   2.586   5.847
10665SOL    HW132894   1.960   2.665   5.849
10665SOL    HW232895   1.804   2.616   5.850
10666SOL     OW32896   3.523   3.270   1.759
10666SOL    HW132897   3.461   3.208   1.711
10666SOL    HW232898   3.570   3.328   1.692
10667SOL     OW32899   5.706   2.344   3.788
10667SOL    HW132900   5.647   2.408   3.737
10667SOL    HW232901   5.719   2.261   3.734
10668SOL     OW32902   3.010   2.364   5.356
10668SOL    HW132903   2.917   2.377   5.320
10668SOL    HW232904   3.075   2.358   5.281
10669SOL     OW32905   6.317   1.346   1.343
10669SOL    HW132906   6.373   1.422   1.309
10669SOL    HW232907   6.286   1.291   1.266
10670SOL     OW32908   5.310   3.365   4.496
10670SOL    HW132909   5.386   3.399   4.442
10670SOL    HW232910   5.303   3.418   4.581
10671SOL     OW32911   1.273   2.985   3.886
10671SOL    HW132912   1.305   2.954   3.797
10671SOL    HW232913   1.248   3.082   3.881
10672SOL     OW32914   5.999   3.370   1.424
10672SOL    HW132915   5.962   3.457   1.457
10672SOL    HW232916   5.924   3.312   1.393
10673SOL     OW32917   2.366   0.872   0.828
10673SOL    HW132918   2.377   0.950   0.890
10673SOL    HW232919   2.284   0.821   0.853
10674SOL     OW32920   3.648   4.069   4.406
10674SOL    HW132921   3.744   4.070   4.436
10674SOL    HW232922   3.594   4.127   4.466
10675SOL     OW32923   3.947   6.879   5.592
10675SOL    HW132924   3.943   6.937   5.510
10675SOL    HW232925   4.038   6.840   5.601
10676SOL     OW32926   2.137   6.365   5.454
10676SOL    HW132927   2.224   6.316   5.459
10676SOL    HW232928   2.101   6.378   5.546
10677SOL     OW32929   0.265   1.050   0.929
10677SOL    HW132930   0.174   1.077   0.961
10677SOL    HW232931   0.289   1.102   0.848
10678SOL     OW32932   4.014   5.235   3.826
10678SOL    HW132933   3.926   5.255   3.868
10678SOL    HW232934   4.079   5.205   3.897
10679SOL     OW32935   3.801   3.553   6.849
10679SOL    HW132936   3.869   3.561   6.922
10679SOL    HW232937   3.781   3.457   6.832
10680SOL     OW32938   4.073   1.311   4.052
10680SOL    HW132939   4.120   1.229   4.016
10680SOL    HW232940   4.128   1.392   4.030
10681SOL     OW32941   0.571   3.088   6.100
10681SOL    HW132942   0.577   3.083   6.199
10681SOL    HW232943   0.662   3.095   6.060
10682SOL     OW32944   6.098   2.702   5.981
10682SOL    HW132945   6.110   2.608   6.014
10682SOL    HW232946   6.183   2.753   5.996
10683SOL     OW32947   4.020   0.312   3.884
10683SOL    HW132948   3.955   0.323   3.809
10683SOL    HW232949   4.110   0.345   3.856
10684SOL     OW32950   4.253   4.276   1.688
10684SOL    HW132951   4.326   4.249   1.750
10684SOL    HW232952   4.271   4.369   1.655
10685SOL     OW32953   0.945   6.166   1.648
10685SOL    HW132954   0.982   6.169   1.555
10685SOL    HW232955   0.847   6.181   1.645
10686SOL     OW32956   2.352   3.327   6.897
10686SOL    HW132957   2.380   3.340   6.802
10686SOL    HW232958   2.419   3.368   6.958
10687SOL     OW32959   0.776   4.406   3.041
10687SOL    HW132960   0.814   4.386   2.951
10687SOL    HW232961   0.778   4.322   3.097
10688SOL     OW32962   5.337   1.519   2.691
10688SOL    HW132963   5.276   1.506   2.769
10688SOL    HW232964   5.377   1.431   2.665
10689SOL     OW32965   0.154   6.718   2.206
10689SOL    HW132966   0.244   6.721   2.251
10689SOL    HW232967   0.112   6.808   2.211
10690SOL     OW32968   6.992   6.161   3.727
10690SOL    HW132969   6.965   6.237   3.667
10690SOL    HW232970   7.002   6.077   3.672
10691SOL     OW32971   3.001   1.267   3.051
10691SOL    HW132972   2.975   1.231   2.962
10691SOL    HW232973   3.098   1.291   3.050
10692SOL     OW32974   2.498   1.092   4.659
10692SOL    HW132975   2.438   1.014   4.643
10692SOL    HW232976   2.570   1.067   4.723
10693SOL     OW32977   1.718   5.713   0.649
10693SOL    HW132978   1.772   5.788   0.687
10693SOL    HW232979   1.673   5.743   0.565
10694SOL     OW32980   4.736   6.298   5.765
10694SOL    HW132981   4.703   6.249   5.845
10694SOL    HW232982   4.670   6.368   5.739
10695SOL     OW32983   0.018   3.460   1.480
10695SOL    HW132984   0.071   3.479   1.397
10695SOL    HW232985   6.979   3.381   1.464
10696SOL     OW32986   0.113   4.217   5.073
10696SOL    HW132987   0.184   4.286   5.061
10696SOL    HW232988   0.065   4.202   4.987
10697SOL     OW32989   1.423   5.411   4.748
10697SOL    HW132990   1.466   5.329   4.708
10697SOL    HW232991   1.492   5.462   4.799
10698SOL     OW32992   4.391   3.497   0.239
10698SOL    HW132993   4.347   3.467   0.323
10698SOL    HW232994   4.409   3.595   0.243
10699SOL     OW32995   3.400   4.104   0.840
10699SOL    HW132996   3.472   4.079   0.904
10699SOL    HW232997   3.323   4.040   0.850
10700SOL     OW32998   5.457   0.104   7.011
10700SOL    HW132999   5.418   0.060   6.930
10700SOL    HW233000   5.396   0.090   0.069
10701SOL     OW33001   2.888   0.377   6.416
10701SOL    HW133002   2.974   0.393   6.464
10701SOL    HW233003   2.824   0.331   6.476
10702SOL     OW33004   4.846   3.154   2.466
10702SOL    HW133005   4.794   3.074   2.497
10702SOL    HW233006   4.862   3.146   2.367
10703SOL     OW33007   1.961   2.333   5.891
10703SOL    HW133008   1.879   2.306   5.941
10703SOL    HW233009   1.959   2.431   5.872
10704SOL     OW33010   6.950   6.217   2.783
10704SOL    HW133011   6.956   6.171   2.872
10704SOL    HW233012   6.883   6.169   2.726
10705SOL     OW33013   5.503   5.040   0.915
10705SOL    HW133014   5.437   5.055   0.988
10705SOL    HW233015   5.590   5.084   0.939
10706SOL     OW33016   4.952   0.189   2.305
10706SOL    HW133017   4.972   0.219   2.398
10706SOL    HW233018   4.982   0.094   2.294
10707SOL     OW33019   6.224   6.805   4.292
10707SOL    HW133020   6.192   6.861   4.369
10707SOL    HW233021   6.286   6.858   4.235
10708SOL     OW33022   4.833   2.787   2.976
10708SOL    HW133023   4.791   2.834   3.053
10708SOL    HW233024   4.764   2.770   2.906
10709SOL     OW33025   6.100   5.492   4.018
10709SOL    HW133026   6.134   5.528   4.105
10709SOL    HW233027   6.085   5.567   3.955
10710SOL     OW33028   5.003   0.515   3.442
10710SOL    HW133029   5.096   0.552   3.439
10710SOL    HW233030   4.958   0.532   3.355
10711SOL     OW33031   3.743   6.724   2.596
10711SOL    HW133032   3.657   6.676   2.579
10711SOL    HW233033   3.738   6.815   2.555
10712SOL     OW33034   3.458   0.314   2.992
10712SOL    HW133035   3.524   0.386   2.970
10712SOL    HW233036   3.480   0.276   3.082
10713SOL     OW33037   0.930   3.469   1.049
10713SOL    HW133038   0.920   3.381   1.095
10713SOL    HW233039   0.885   3.465   0.960
10714SOL     OW33040   3.958   3.189   4.546
10714SOL    HW133041   3.994   3.249   4.475
10714SOL    HW233042   3.968   3.233   4.635
10715SOL     OW33043   5.469   0.403   2.373
10715SOL    HW133044   5.531   0.444   2.440
10715SOL    HW233045   5.392   0.465   2.358
10716SOL     OW33046   6.486   2.245   3.444
10716SOL    HW133047   6.484   2.343   3.463
10716SOL    HW233048   6.466   2.230   3.347
10717SOL     OW33049   1.284   2.890   0.656
10717SOL    HW133050   1.191   2.884   0.690
10717SOL    HW233051   1.285   2.872   0.557
10718SOL     OW33052   0.548   4.716   6.178
10718SOL    HW133053   0.558   4.795   6.237
10718SOL    HW233054   0.477   4.655   6.214
10719SOL     OW33055   5.994   5.937   3.378
10719SOL    HW133056   6.057   5.914   3.452
10719SOL    HW233057   5.986   6.036   3.371
10720SOL     OW33058   5.958   5.431   4.512
10720SOL    HW133059   5.904   5.371   4.452
10720SOL    HW233060   5.896   5.489   4.564
10721SOL     OW33061   5.156   3.899   5.420
10721SOL    HW133062   5.219   3.944   5.357
10721SOL    HW233063   5.185   3.804   5.434
10722SOL     OW33064   6.477   3.901   6.292
10722SOL    HW133065   6.525   3.868   6.373
10722SOL    HW233066   6.466   4.000   6.298
10723SOL     OW33067   6.998   1.251   6.840
10723SOL    HW133068   0.010   1.282   6.930
10723SOL    HW233069   0.036   1.175   6.809
10724SOL     OW33070   0.322   6.663   0.069
10724SOL    HW133071   0.302   6.759   0.090
10724SOL    HW233072   0.318   6.609   0.152
10725SOL     OW33073   2.515   5.580   5.177
10725SOL    HW133074   2.560   5.596   5.089
10725SOL    HW233075   2.581   5.596   5.251
10726SOL     OW33076   5.076   0.996   3.993
10726SOL    HW133077   5.091   1.095   4.002
10726SOL    HW233078   5.033   0.977   3.905
10727SOL     OW33079   1.370   5.109   6.386
10727SOL    HW133080   1.410   5.057   6.310
10727SOL    HW233081   1.427   5.189   6.405
10728SOL     OW33082   0.186   5.545   0.532
10728SOL    HW133083   0.165   5.466   0.589
10728SOL    HW233084   0.262   5.596   0.572
10729SOL     OW33085   5.717   2.272   1.523
10729SOL    HW133086   5.687   2.311   1.435
10729SOL    HW233087   5.795   2.323   1.557
10730SOL     OW33088   3.785   0.889   1.580
10730SOL    HW133089   3.883   0.875   1.574
10730SOL    HW233090   3.748   0.837   1.657
10731SOL     OW33091   3.831   1.059   1.313
10731SOL    HW133092   3.756   1.112   1.273
10731SOL    HW233093   3.797   1.008   1.393
10732SOL     OW33094   0.393   4.861   5.170
10732SOL    HW133095   0.390   4.933   5.238
10732SOL    HW233096   0.396   4.901   5.078
10733SOL     OW33097   5.401   1.491   6.527
10733SOL    HW133098   5.440   1.582   6.520
10733SOL    HW233099   5.304   1.498   6.549
10734SOL     OW33100   0.934   1.656   0.950
10734SOL    HW133101   0.835   1.642   0.942
10734SOL    HW233102   0.960   1.739   0.901
10735SOL     OW33103   0.184   2.503   1.567
10735SOL    HW133104   0.240   2.443   1.625
10735SOL    HW233105   0.087   2.489   1.589
10736SOL     OW33106   1.996   0.263   3.910
10736SOL    HW133107   2.015   0.256   3.812
10736SOL    HW233108   2.071   0.311   3.955
10737SOL     OW33109   0.558   1.850   1.348
10737SOL    HW133110   0.541   1.843   1.446
10737SOL    HW233111   0.533   1.764   1.303
10738SOL     OW33112   3.534   5.812   3.024
10738SOL    HW133113   3.634   5.808   3.022
10738SOL    HW233114   3.505   5.901   3.059
10739SOL     OW33115   1.553   2.735   1.122
10739SOL    HW133116   1.640   2.728   1.171
10739SOL    HW233117   1.528   2.831   1.109
10740SOL     OW33118   5.920   4.699   5.297
10740SOL    HW133119   5.856   4.690   5.221
10740SOL    HW233120   5.985   4.772   5.277
10741SOL     OW33121   4.335   1.270   2.110
10741SOL    HW133122   4.277   1.299   2.185
10741SOL    HW233123   4.289   1.199   2.057
10742SOL     OW33124   5.964   5.720   1.556
10742SOL    HW133125   5.947   5.656   1.482
10742SOL    HW233126   5.960   5.814   1.521
10743SOL     OW33127   1.807   2.032   4.143
10743SOL    HW133128   1.883   2.088   4.178
10743SOL    HW233129   1.843   1.959   4.085
10744SOL     OW33130   3.028   1.564   1.149
10744SOL    HW133131   3.014   1.613   1.063
10744SOL    HW233132   2.955   1.587   1.213
10745SOL     OW33133   0.112   5.117   5.366
10745SOL    HW133134   0.205   5.123   5.401
10745SOL    HW233135   0.110   5.054   5.288
10746SOL     OW33136   1.197   3.874   5.987
10746SOL    HW133137   1.248   3.839   5.908
10746SOL    HW233138   1.190   3.802   6.057
10747SOL     OW33139   2.971   1.087   4.521
10747SOL    HW133140   3.067   1.116   4.525
10747SOL    HW233141   2.928   1.124   4.439
10748SOL     OW33142   6.373   1.715   2.385
10748SOL    HW133143   6.285   1.703   2.339
10748SOL    HW233144   6.423   1.628   2.386
10749SOL     OW33145   1.107   6.306   5.299
10749SOL    HW133146   1.053   6.289   5.217
10749SOL    HW233147   1.167   6.228   5.317
10750SOL     OW33148   4.184   0.435   5.151
10750SOL    HW133149   4.191   0.336   5.136
10750SOL    HW233150   4.089   0.464   5.137
10751SOL     OW33151   1.864   4.500   4.207
10751SOL    HW133152   1.896   4.406   4.202
10751SOL    HW233153   1.887   4.538   4.297
10752SOL     OW33154   5.552   4.674   5.104
10752SOL    HW133155   5.519   4.582   5.123
10752SOL    HW233156   5.482   4.741   5.129
10753SOL     OW33157   0.164   3.836   4.268
10753SOL    HW133158   0.178   3.934   4.283
10753SOL    HW233159   0.068   3.813   4.284
10754SOL     OW33160   0.774   0.131   2.809
10754SOL    HW133161   0.727   0.213   2.775
10754SOL    HW233162   0.872   0.139   2.791
10755SOL     OW33163   6.709   6.914   1.714
10755SOL    HW133164   6.613   6.892   1.731
10755SOL    HW233165   6.766   6.835   1.734
10756SOL     OW33166   0.036   5.556   5.251
10756SOL    HW133167   6.987   5.552   5.178
10756SOL    HW233168   0.111   5.616   5.223
10757SOL     OW33169   2.282   2.794   6.770
10757SOL    HW133170   2.278   2.743   6.857
10757SOL    HW233171   2.216   2.869   6.773
10758SOL     OW33172   0.644   6.007   3.280
10758SOL    HW133173   0.625   6.010   3.182
10758SOL    HW233174   0.632   5.914   3.313
10759SOL     OW33175   0.922   3.072   0.472
10759SOL    HW133176   0.932   3.129   0.554
10759SOL    HW233177   1.006   3.077   0.418
10760SOL     OW33178   5.854   0.994   3.259
10760SOL    HW133179   5.798   1.064   3.215
10760SOL    HW233180   5.842   0.906   3.212
10761SOL     OW33181   1.969   5.405   5.988
10761SOL    HW133182   1.913   5.323   6.000
10761SOL    HW233183   1.970   5.431   5.891
10762SOL     OW33184   3.023   0.420   5.112
10762SOL    HW133185   2.977   0.346   5.162
10762SOL    HW233186   3.118   0.428   5.144
10763SOL     OW33187   4.014   0.490   3.483
10763SOL    HW133188   3.915   0.504   3.486
10763SOL    HW233189   4.055   0.559   3.424
10764SOL     OW33190   5.241   1.256   4.725
10764SOL    HW133191   5.248   1.205   4.639
10764SOL    HW233192   5.157   1.311   4.724
10765SOL     OW33193   5.267   3.247   0.794
10765SOL    HW133194   5.267   3.177   0.866
10765SOL    HW233195   5.173   3.272   0.772
10766SOL     OW33196   4.104   4.615   0.558
10766SOL    HW133197   4.147   4.606   0.468
10766SOL    HW233198   4.005   4.605   0.549
10767SOL     OW33199   2.740   0.083   1.342
10767SOL    HW133200   2.760   0.031   1.259
10767SOL    HW233201   2.825   0.097   1.393
10768SOL     OW33202   6.164   5.320   1.082
10768SOL    HW133203   6.195   5.411   1.107
10768SOL    HW233204   6.236   5.274   1.029
10769SOL     OW33205   1.631   3.316   5.827
10769SOL    HW133206   1.704   3.384   5.819
10769SOL    HW233207   1.599   3.292   5.736
10770SOL     OW33208   5.115   5.332   3.358
10770SOL    HW133209   5.211   5.359   3.359
10770SOL    HW233210   5.060   5.406   3.320
10771SOL     OW33211   4.286   6.929   3.903
10771SOL    HW133212   4.289   6.918   4.003
10771SOL    HW233213   4.197   6.898   3.869
10772SOL     OW33214   6.773   5.683   3.726
10772SOL    HW133215   6.831   5.612   3.767
10772SOL    HW233216   6.770   5.671   3.627
10773SOL     OW33217   5.558   4.234   5.341
10773SOL    HW133218   5.532   4.310   5.401
10773SOL    HW233219   5.533   4.148   5.384
10774SOL     OW33220   1.586   0.976   4.169
10774SOL    HW133221   1.659   1.027   4.214
10774SOL    HW233222   1.497   1.014   4.196
10775SOL     OW33223   0.911   4.076   1.689
10775SOL    HW133224   0.877   4.043   1.601
10775SOL    HW233225   0.976   4.151   1.673
10776SOL     OW33226   1.411   0.880   6.348
10776SOL    HW133227   1.460   0.859   6.263
10776SOL    HW233228   1.336   0.815   6.360
10777SOL     OW33229   3.629   5.187   1.015
10777SOL    HW133230   3.696   5.255   0.984
10777SOL    HW233231   3.543   5.233   1.037
10778SOL     OW33232   5.401   6.597   3.991
10778SOL    HW133233   5.348   6.682   3.993
10778SOL    HW233234   5.339   6.520   3.977
10779SOL     OW33235   6.121   2.842   3.118
10779SOL    HW133236   6.029   2.804   3.112
10779SOL    HW233237   6.115   2.938   3.147
10780SOL     OW33238   1.083   1.075   4.057
10780SOL    HW133239   1.004   1.094   3.998
10780SOL    HW233240   1.113   0.981   4.042
10781SOL     OW33241   3.936   0.364   4.147
10781SOL    HW133242   3.939   0.364   4.047
10781SOL    HW233243   3.891   0.446   4.179
10782SOL     OW33244   6.415   6.600   4.034
10782SOL    HW133245   6.433   6.530   3.965
10782SOL    HW233246   6.501   6.628   4.076
10783SOL     OW33247   0.226   2.644   2.451
10783SOL    HW133248   0.319   2.614   2.471
10783SOL    HW233249   0.212   2.736   2.487
10784SOL     OW33250   2.611   1.002   3.753
10784SOL    HW133251   2.592   0.921   3.697
10784SOL    HW233252   2.526   1.050   3.772
10785SOL     OW33253   1.235   3.974   0.062
10785SOL    HW133254   1.144   4.006   0.036
10785SOL    HW233255   1.304   4.027   0.012
10786SOL     OW33256   5.719   5.897   3.434
10786SOL    HW133257   5.713   5.910   3.533
10786SOL    HW233258   5.814   5.882   3.408
10787SOL     OW33259   0.375   0.295   5.498
10787SOL    HW133260   0.300   0.354   5.529
10787SOL    HW233261   0.399   0.232   5.572
10788SOL     OW33262   0.621   3.935   0.172
10788SOL    HW133263   0.670   4.001   0.115
10788SOL    HW233264   0.523   3.957   0.172
10789SOL     OW33265   6.819   2.852   0.058
10789SOL    HW133266   6.752   2.926   0.068
10789SOL    HW233267   6.870   2.865   6.992
10790SOL     OW33268   0.248   6.684   1.869
10790SOL    HW133269   0.267   6.592   1.904
10790SOL    HW233270   0.331   6.723   1.830
10791SOL     OW33271   6.203   6.385   2.338
10791SOL    HW133272   6.250   6.320   2.279
10791SOL    HW233273   6.230   6.369   2.433
10792SOL     OW33274   3.773   3.661   5.123
10792SOL    HW133275   3.729   3.715   5.194
10792SOL    HW233276   3.872   3.677   5.125
10793SOL     OW33277   5.399   3.333   5.466
10793SOL    HW133278   5.487   3.288   5.483
10793SOL    HW233279   5.412   3.408   5.402
10794SOL     OW33280   4.009   3.893   4.204
10794SOL    HW133281   3.940   3.925   4.140
10794SOL    HW233282   3.968   3.878   4.293
10795SOL     OW33283   0.996   4.275   2.907
10795SOL    HW133284   0.952   4.192   2.873
10795SOL    HW233285   1.051   4.253   2.987
10796SOL     OW33286   0.282   6.011   5.708
10796SOL    HW133287   0.268   5.929   5.765
10796SOL    HW233288   0.201   6.069   5.713
10797SOL     OW33289   3.731   2.896   0.501
10797SOL    HW133290   3.757   2.944   0.584
10797SOL    HW233291   3.812   2.858   0.457
10798SOL     OW33292   2.351   1.723   0.648
10798SOL    HW133293   2.289   1.657   0.689
10798SOL    HW233294   2.337   1.813   0.690
10799SOL     OW33295   3.881   0.647   3.138
10799SOL    HW133296   3.943   0.686   3.207
10799SOL    HW233297   3.799   0.704   3.132
10800SOL     OW33298   0.996   5.917   0.225
10800SOL    HW133299   0.933   5.959   0.159
10800SOL    HW233300   0.954   5.916   0.315
10801SOL     OW33301   1.691   0.646   0.522
10801SOL    HW133302   1.613   0.706   0.538
10801SOL    HW233303   1.753   0.651   0.600
10802SOL     OW33304   6.433   6.854   3.866
10802SOL    HW133305   6.415   6.925   3.934
10802SOL    HW233306   6.418   6.764   3.908
10803SOL     OW33307   1.563   5.596   6.514
10803SOL    HW133308   1.480   5.651   6.522
10803SOL    HW233309   1.626   5.619   6.588
10804SOL     OW33310   0.050   2.941   3.541
10804SOL    HW133311   0.004   3.004   3.603
10804SOL    HW233312   0.148   2.943   3.559
10805SOL     OW33313   5.691   1.250   5.042
10805SOL    HW133314   5.763   1.192   5.080
10805SOL    HW233315   5.723   1.345   5.041
10806SOL     OW33316   2.753   5.014   6.740
10806SOL    HW133317   2.731   5.093   6.797
10806SOL    HW233318   2.818   5.041   6.669
10807SOL     OW33319   2.456   5.909   3.644
10807SOL    HW133320   2.414   5.946   3.727
10807SOL    HW233321   2.532   5.968   3.616
10808SOL     OW33322   0.121   2.510   6.491
10808SOL    HW133323   0.036   2.482   6.446
10808SOL    HW233324   0.144   2.446   6.564
10809SOL     OW33325   2.507   4.469   4.206
10809SOL    HW133326   2.571   4.504   4.275
10809SOL    HW233327   2.456   4.545   4.166
10810SOL     OW33328   0.165   0.471   3.867
10810SOL    HW133329   0.196   0.400   3.930
10810SOL    HW233330   0.068   0.491   3.885
10811SOL     OW33331   4.617   5.147   4.664
10811SOL    HW133332   4.610   5.242   4.635
10811SOL    HW233333   4.693   5.103   4.617
10812SOL     OW33334   0.149   2.823   6.488
10812SOL    HW133335   0.095   2.903   6.512
10812SOL    HW233336   0.088   2.750   6.457
10813SOL     OW33337   0.534   3.704   5.933
10813SOL    HW133338   0.540   3.750   5.845
10813SOL    HW233339   0.608   3.636   5.940
10814SOL     OW33340   1.894   0.206   0.414
10814SOL    HW133341   1.956   0.131   0.390
10814SOL    HW233342   1.854   0.189   0.504
10815SOL     OW33343   5.161   1.686   3.942
10815SOL    HW133344   5.067   1.670   3.911
10815SOL    HW233345   5.183   1.783   3.934
10816SOL     OW33346   3.802   2.969   3.440
10816SOL    HW133347   3.893   2.929   3.437
10816SOL    HW233348   3.753   2.949   3.355
10817SOL     OW33349   3.064   0.020   3.390
10817SOL    HW133350   3.030   6.956   3.348
10817SOL    HW233351   3.048   0.097   3.328
10818SOL     OW33352   5.210   5.480   6.178
10818SOL    HW133353   5.120   5.440   6.161
10818SOL    HW233354   5.201   5.579   6.188
10819SOL     OW33355   6.983   5.419   6.270
10819SOL    HW133356   6.993   5.409   6.171
10819SOL    HW233357   6.940   5.507   6.290
10820SOL     OW33358   1.458   5.538   5.220
10820SOL    HW133359   1.392   5.463   5.213
10820SOL    HW233360   1.470   5.581   5.130
10821SOL     OW33361   4.425   5.605   2.483
10821SOL    HW133362   4.367   5.546   2.541
10821SOL    HW233363   4.368   5.649   2.414
10822SOL     OW33364   5.500   2.726   0.737
10822SOL    HW133365   5.470   2.665   0.811
10822SOL    HW233366   5.495   2.677   0.650
10823SOL     OW33367   6.790   6.629   2.795
10823SOL    HW133368   6.751   6.543   2.828
10823SOL    HW233369   6.835   6.677   2.870
10824SOL     OW33370   1.335   1.012   4.291
10824SOL    HW133371   1.317   0.944   4.363
10824SOL    HW233372   1.297   0.980   4.204
10825SOL     OW33373   1.265   2.001   0.294
10825SOL    HW133374   1.350   1.969   0.336
10825SOL    HW233375   1.282   2.087   0.246
10826SOL     OW33376   1.265   2.263   2.939
10826SOL    HW133377   1.338   2.212   2.893
10826SOL    HW233378   1.198   2.199   2.977
10827SOL     OW33379   6.136   3.751   4.918
10827SOL    HW133380   6.085   3.796   4.992
10827SOL    HW233381   6.232   3.780   4.921
10828SOL     OW33382   6.302   3.310   0.076
10828SOL    HW133383   6.233   3.377   0.105
10828SOL    HW233384   6.302   3.304   6.996
10829SOL     OW33385   4.580   3.380   6.980
10829SOL    HW133386   4.564   3.473   7.011
10829SOL    HW233387   4.675   3.355   6.997
10830SOL     OW33388   4.664   1.548   3.630
10830SOL    HW133389   4.696   1.462   3.588
10830SOL    HW233390   4.581   1.530   3.682
10831SOL     OW33391   4.148   1.169   2.580
10831SOL    HW133392   4.051   1.181   2.601
10831SOL    HW233393   4.164   1.074   2.554
10832SOL     OW33394   6.999   3.305   0.398
10832SOL    HW133395   7.008   3.229   0.333
10832SOL    HW233396   6.903   3.316   0.423
10833SOL     OW33397   0.654   1.611   0.948
10833SOL    HW133398   0.599   1.631   0.867
10833SOL    HW233399   0.676   1.514   0.950
10834SOL     OW33400   6.415   6.621   0.386
10834SOL    HW133401   6.385   6.573   0.469
10834SOL    HW233402   6.356   6.701   0.371
10835SOL     OW33403   5.809   3.310   6.737
10835SOL    HW133404   5.731   3.320   6.799
10835SOL    HW233405   5.781   3.261   6.655
10836SOL     OW33406   1.052   1.201   2.911
10836SOL    HW133407   1.105   1.187   2.995
10836SOL    HW233408   1.091   1.276   2.858
10837SOL     OW33409   6.483   4.512   2.134
10837SOL    HW133410   6.435   4.440   2.185
10837SOL    HW233411   6.457   4.601   2.172
10838SOL     OW33412   5.789   5.548   3.406
10838SOL    HW133413   5.787   5.527   3.504
10838SOL    HW233414   5.882   5.573   3.380
10839SOL     OW33415   4.404   3.637   0.603
10839SOL    HW133416   4.355   3.703   0.659
10839SOL    HW233417   4.394   3.662   0.506
10840SOL     OW33418   3.092   0.235   1.305
10840SOL    HW133419   3.120   0.239   1.209
10840SOL    HW233420   3.104   0.141   1.339
10841SOL     OW33421   1.158   5.288   4.753
10841SOL    HW133422   1.247   5.333   4.764
10841SOL    HW233423   1.115   5.318   4.668
10842SOL     OW33424   4.950   4.100   1.167
10842SOL    HW133425   4.893   4.114   1.247
10842SOL    HW233426   5.007   4.180   1.151
10843SOL     OW33427   1.910   1.431   1.296
10843SOL    HW133428   1.868   1.419   1.206
10843SOL    HW233429   1.852   1.489   1.353
10844SOL     OW33430   1.227   5.640   4.817
10844SOL    HW133431   1.298   5.605   4.755
10844SOL    HW233432   1.146   5.665   4.763
10845SOL     OW33433   4.520   6.069   5.243
10845SOL    HW133434   4.607   6.030   5.272
10845SOL    HW233435   4.499   6.039   5.149
10846SOL     OW33436   5.600   6.349   7.016
10846SOL    HW133437   5.596   6.263   6.965
10846SOL    HW233438   5.507   6.386   0.007
10847SOL     OW33439   1.931   1.774   7.016
10847SOL    HW133440   1.976   1.797   0.083
10847SOL    HW233441   1.949   1.679   6.993
10848SOL     OW33442   1.841   4.131   1.206
10848SOL    HW133443   1.918   4.068   1.198
10848SOL    HW233444   1.840   4.171   1.297
10849SOL     OW33445   3.057   5.191   3.831
10849SOL    HW133446   3.057   5.251   3.750
10849SOL    HW233447   3.060   5.247   3.914
10850SOL     OW33448   4.366   6.226   0.281
10850SOL    HW133449   4.300   6.178   0.223
10850SOL    HW233450   4.379   6.175   0.366
10851SOL     OW33451   2.596   4.457   1.534
10851SOL    HW133452   2.676   4.502   1.573
10851SOL    HW233453   2.604   4.358   1.545
10852SOL     OW33454   1.894   1.803   0.773
10852SOL    HW133455   1.930   1.720   0.816
10852SOL    HW233456   1.932   1.883   0.818
10853SOL     OW33457   2.191   2.346   6.249
10853SOL    HW133458   2.247   2.276   6.293
10853SOL    HW233459   2.203   2.340   6.149
10854SOL     OW33460   4.312   6.252   5.172
10854SOL    HW133461   4.375   6.213   5.240
10854SOL    HW233462   4.355   6.249   5.082
10855SOL     OW33463   3.042   1.371   0.479
10855SOL    HW133464   3.076   1.396   0.569
10855SOL    HW233465   2.968   1.303   0.488
10856SOL     OW33466   0.222   0.662   6.996
10856SOL    HW133467   0.166   0.706   6.926
10856SOL    HW233468   0.318   0.667   6.970
10857SOL     OW33469   6.669   1.368   2.105
10857SOL    HW133470   6.570   1.357   2.095
10857SOL    HW233471   6.692   1.465   2.104
10858SOL     OW33472   2.508   6.041   1.609
10858SOL    HW133473   2.574   6.057   1.682
10858SOL    HW233474   2.492   5.943   1.599
10859SOL     OW33475   0.160   5.143   4.083
10859SOL    HW133476   0.151   5.230   4.035
10859SOL    HW233477   0.243   5.097   4.052
10860SOL     OW33478   6.644   2.957   2.608
10860SOL    HW133479   6.614   2.897   2.682
10860SOL    HW233480   6.575   3.026   2.589
10861SOL     OW33481   3.407   2.919   4.120
10861SOL    HW133482   3.389   2.844   4.056
10861SOL    HW233483   3.428   3.002   4.068
10862SOL     OW33484   1.975   6.782   5.244
10862SOL    HW133485   1.911   6.857   5.227
10862SOL    HW233486   1.935   6.696   5.213
10863SOL     OW33487   2.967   6.301   4.922
10863SOL    HW133488   2.899   6.355   4.873
10863SOL    HW233489   2.923   6.222   4.965
10864SOL     OW33490   3.313   6.524   2.354
10864SOL    HW133491   3.315   6.467   2.272
10864SOL    HW233492   3.238   6.590   2.347
10865SOL     OW33493   5.633   1.420   6.635
10865SOL    HW133494   5.649   1.478   6.715
10865SOL    HW233495   5.538   1.430   6.605
10866SOL     OW33496   5.446   4.358   0.192
10866SOL    HW133497   5.445   4.276   0.250
10866SOL    HW233498   5.419   4.438   0.246
10867SOL     OW33499   3.455   3.948   0.600
10867SOL    HW133500   3.462   4.026   0.661
10867SOL    HW233501   3.435   3.866   0.653
10868SOL     OW33502   3.909   1.529   3.390
10868SOL    HW133503   3.862   1.578   3.463
10868SOL    HW233504   3.843   1.500   3.321
10869NA      NA33505   5.945   2.293   5.662
10870NA      NA33506   4.262   4.675   5.167
10871NA      NA33507   2.005   3.669   1.565
10872NA      NA33508   4.890   3.875   5.417
10873NA      NA33509   4.437   2.325   5.135
10874NA      NA33510   3.717   4.664   1.655
10875NA      NA33511   6.905   5.601   5.432
10876NA      NA33512   3.590   3.523   5.022
10877NA      NA33513   4.912   6.677   6.639
10878NA      NA33514   3.705   6.760   5.574
10879NA      NA33515   6.620   5.088   1.972
10880NA      NA33516   2.274   0.508   3.874
10881NA      NA33517   3.622   5.007   1.200
10882NA      NA33518   3.325   3.567   2.641
   7.01995   7.01995   7.01995
