Generated by trjconv : CNT in water t= 358.00000
33518
    1C        C    1   2.843   2.768   4.750
    1C        C    2   2.899   2.719   4.870
    1C        C    3   2.840   2.769   4.987
    1C        C    4   2.846   2.775   4.264
    1C        C    5   2.901   2.730   4.386
    1C        C    6   2.846   2.777   4.507
    1C        C    7   3.011   2.640   4.629
    1C        C    8   2.897   2.723   4.627
    1C        C    9   3.076   2.602   4.748
    1C        C   10   3.009   2.631   4.869
    1C        C   11   3.182   2.494   4.978
    1C        C   12   3.062   2.567   4.982
    1C        C   13   2.853   2.776   3.774
    1C        C   14   2.904   2.728   3.897
    1C        C   15   2.853   2.778   4.018
    1C        C   16   3.018   2.650   4.141
    1C        C   17   2.901   2.729   4.142
    1C        C   18   3.082   2.621   4.263
    1C        C   19   3.020   2.653   4.386
    1C        C   20   3.209   2.559   4.507
    1C        C   21   3.078   2.611   4.508
    1C        C   22   3.280   2.543   4.628
    1C        C   23   3.208   2.548   4.750
    1C        C   24   3.414   2.490   4.867
    1C        C   25   3.271   2.496   4.866
    1C        C   26   3.491   2.485   4.984
    1C        C   27   2.857   2.776   3.284
    1C        C   28   2.910   2.734   3.408
    1C        C   29   2.859   2.780   3.531
    1C        C   30   3.024   2.648   3.653
    1C        C   31   2.909   2.729   3.653
    1C        C   32   3.081   2.608   3.776
    1C        C   33   3.020   2.646   3.898
    1C        C   34   3.210   2.556   4.021
    1C        C   35   3.080   2.611   4.020
    1C        C   36   3.276   2.536   4.145
    1C        C   37   3.212   2.566   4.267
    1C        C   38   3.419   2.510   4.384
    1C        C   39   3.279   2.535   4.387
    1C        C   40   3.491   2.507   4.506
    1C        C   41   3.418   2.514   4.626
    1C        C   42   3.631   2.491   4.748
    1C        C   43   3.489   2.492   4.747
    1C        C   44   3.706   2.493   4.867
    1C        C   45   3.630   2.482   4.985
    1C        C   46   2.835   2.750   2.796
    1C        C   47   2.896   2.713   2.918
    1C        C   48   2.845   2.761   3.041
    1C        C   49   3.021   2.642   3.164
    1C        C   50   2.903   2.719   3.163
    1C        C   51   3.084   2.611   3.287
    1C        C   52   3.021   2.647   3.408
    1C        C   53   3.212   2.552   3.528
    1C        C   54   3.083   2.610   3.530
    1C        C   55   3.278   2.533   3.652
    1C        C   56   3.213   2.558   3.775
    1C        C   57   3.417   2.512   3.899
    1C        C   58   3.279   2.540   3.899
    1C        C   59   3.488   2.508   4.021
    1C        C   60   3.415   2.512   4.142
    1C        C   61   3.630   2.500   4.264
    1C        C   62   3.488   2.497   4.262
    1C        C   63   3.704   2.510   4.384
    1C        C   64   3.632   2.510   4.506
    1C        C   65   3.839   2.551   4.625
    1C        C   66   3.703   2.511   4.628
    1C        C   67   3.907   2.566   4.747
    1C        C   68   3.843   2.528   4.867
    1C        C   69   4.051   2.594   4.981
    1C        C   70   3.921   2.542   4.982
    1C        C   71   2.827   2.742   2.311
    1C        C   72   2.889   2.703   2.432
    1C        C   73   2.837   2.751   2.555
    1C        C   74   3.013   2.629   2.674
    1C        C   75   2.894   2.706   2.676
    1C        C   76   3.076   2.602   2.797
    1C        C   77   3.012   2.632   2.919
    1C        C   78   3.210   2.553   3.036
    1C        C   79   3.078   2.603   3.040
    1C        C   80   3.279   2.537   3.158
    1C        C   81   3.217   2.562   3.282
    1C        C   82   3.419   2.510   3.407
    1C        C   83   3.280   2.535   3.406
    1C        C   84   3.489   2.506   3.530
    1C        C   85   3.416   2.506   3.651
    1C        C   86   3.625   2.503   3.774
    1C        C   87   3.484   2.501   3.775
    1C        C   88   3.697   2.514   3.895
    1C        C   89   3.629   2.510   4.019
    1C        C   90   3.835   2.553   4.138
    1C        C   91   3.699   2.514   4.142
    1C        C   92   3.903   2.577   4.259
    1C        C   93   3.838   2.553   4.382
    1C        C   94   4.032   2.641   4.503
    1C        C   95   3.908   2.574   4.504
    1C        C   96   4.091   2.678   4.626
    1C        C   97   4.032   2.634   4.746
    1C        C   98   4.194   2.772   4.864
    1C        C   99   4.104   2.661   4.866
    1C        C  100   4.216   2.848   4.980
    1C        C  101   2.827   2.737   2.074
    1C        C  102   2.996   2.602   2.190
    1C        C  103   2.877   2.681   2.193
    1C        C  104   3.069   2.585   2.311
    1C        C  105   3.008   2.628   2.431
    1C        C  106   3.205   2.541   2.553
    1C        C  107   3.075   2.595   2.551
    1C        C  108   3.274   2.519   2.674
    1C        C  109   3.205   2.544   2.795
    1C        C  110   3.415   2.495   2.918
    1C        C  111   3.276   2.519   2.915
    1C        C  112   3.488   2.492   3.039
    1C        C  113   3.417   2.506   3.160
    1C        C  114   3.627   2.502   3.282
    1C        C  115   3.486   2.498   3.283
    1C        C  116   3.696   2.519   3.404
    1C        C  117   3.630   2.513   3.529
    1C        C  118   3.834   2.551   3.648
    1C        C  119   3.697   2.516   3.653
    1C        C  120   3.899   2.575   3.771
    1C        C  121   3.834   2.548   3.894
    1C        C  122   4.026   2.641   4.015
    1C        C  123   3.901   2.575   4.015
    1C        C  124   4.092   2.673   4.136
    1C        C  125   4.030   2.640   4.259
    1C        C  126   4.198   2.771   4.379
    1C        C  127   4.091   2.679   4.380
    1C        C  128   4.249   2.821   4.501
    1C        C  129   4.198   2.770   4.622
    1C        C  130   4.336   2.935   4.742
    1C        C  131   4.248   2.823   4.743
    1C        C  132   4.365   3.003   4.862
    1C        C  133   4.295   2.962   4.977
    1C        C  134   3.173   2.468   2.085
    1C        C  135   3.041   2.513   2.087
    1C        C  136   3.262   2.487   2.192
    1C        C  137   3.201   2.532   2.311
    1C        C  138   3.411   2.485   2.428
    1C        C  139   3.274   2.519   2.431
    1C        C  140   3.483   2.483   2.550
    1C        C  141   3.413   2.494   2.672
    1C        C  142   3.625   2.493   2.792
    1C        C  143   3.484   2.493   2.794
    1C        C  144   3.696   2.508   2.913
    1C        C  145   3.629   2.500   3.036
    1C        C  146   3.833   2.544   3.158
    1C        C  147   3.698   2.504   3.160
    1C        C  148   3.901   2.571   3.279
    1C        C  149   3.835   2.548   3.402
    1C        C  150   4.030   2.627   3.527
    1C        C  151   3.901   2.569   3.525
    1C        C  152   4.087   2.670   3.649
    1C        C  153   4.027   2.635   3.772
    1C        C  154   4.193   2.770   3.891
    1C        C  155   4.087   2.677   3.893
    1C        C  156   4.249   2.815   4.013
    1C        C  157   4.202   2.761   4.134
    1C        C  158   4.343   2.922   4.256
    1C        C  159   4.252   2.814   4.256
    1C        C  160   4.379   2.988   4.376
    1C        C  161   4.337   2.932   4.499
    1C        C  162   4.437   3.121   4.617
    1C        C  163   4.377   2.993   4.620
    1C        C  164   4.469   3.187   4.738
    1C        C  165   4.441   3.122   4.860
    1C        C  166   4.523   3.322   4.976
    1C        C  167   4.491   3.186   4.974
    1C        C  168   3.480   2.436   2.076
    1C        C  169   3.401   2.463   2.189
    1C        C  170   3.622   2.469   2.307
    1C        C  171   3.480   2.466   2.306
    1C        C  172   3.696   2.491   2.425
    1C        C  173   3.624   2.491   2.547
    1C        C  174   3.831   2.538   2.671
    1C        C  175   3.695   2.499   2.669
    1C        C  176   3.898   2.565   2.793
    1C        C  177   3.832   2.546   2.916
    1C        C  178   4.030   2.628   3.035
    1C        C  179   3.902   2.568   3.037
    1C        C  180   4.090   2.665   3.158
    1C        C  181   4.029   2.630   3.280
    1C        C  182   4.202   2.747   3.403
    1C        C  183   4.090   2.661   3.404
    1C        C  184   4.252   2.801   3.524
    1C        C  185   4.194   2.762   3.647
    1C        C  186   4.337   2.921   3.766
    1C        C  187   4.244   2.815   3.768
    1C        C  188   4.378   2.979   3.889
    1C        C  189   4.340   2.924   4.013
    1C        C  190   4.454   3.103   4.131
    1C        C  191   4.384   2.980   4.134
    1C        C  192   4.477   3.174   4.251
    1C        C  193   4.447   3.111   4.373
    1C        C  194   4.505   3.318   4.490
    1C        C  195   4.470   3.182   4.494
    1C        C  196   4.522   3.388   4.612
    1C        C  197   4.515   3.321   4.736
    1C        C  198   4.562   3.535   4.851
    1C        C  199   4.531   3.395   4.857
    1C        C  200   4.579   3.619   4.966
    1C        C  201   3.619   2.422   2.075
    1C        C  202   3.832   2.514   2.185
    1C        C  203   3.698   2.463   2.187
    1C        C  204   3.901   2.545   2.305
    1C        C  205   3.833   2.523   2.427
    1C        C  206   4.023   2.622   2.548
    1C        C  207   3.897   2.557   2.548
    1C        C  208   4.088   2.657   2.668
    1C        C  209   4.027   2.624   2.791
    1C        C  210   4.200   2.750   2.910
    1C        C  211   4.087   2.664   2.911
    1C        C  212   4.254   2.797   3.032
    1C        C  213   4.202   2.751   3.155
    1C        C  214   4.336   2.909   3.277
    1C        C  215   4.250   2.796   3.280
    1C        C  216   4.370   2.973   3.398
    1C        C  217   4.334   2.916   3.522
    1C        C  218   4.438   3.105   3.644
    1C        C  219   4.374   2.979   3.642
    1C        C  220   4.468   3.172   3.765
    1C        C  221   4.442   3.105   3.887
    1C        C  222   4.504   3.307   4.006
    1C        C  223   4.479   3.168   4.008
    1C        C  224   4.514   3.381   4.126
    1C        C  225   4.507   3.312   4.249
    1C        C  226   4.527   3.529   4.368
    1C        C  227   4.516   3.388   4.368
    1C        C  228   4.522   3.601   4.489
    1C        C  229   4.535   3.528   4.610
    1C        C  230   4.501   3.741   4.730
    1C        C  231   4.540   3.604   4.729
    1C        C  232   4.494   3.821   4.846
    1C        C  233   4.540   3.753   4.960
    1C        C  234   4.018   2.616   2.065
    1C        C  235   3.901   2.540   2.066
    1C        C  236   4.090   2.647   2.181
    1C        C  237   4.028   2.609   2.302
    1C        C  238   4.200   2.734   2.424
    1C        C  239   4.086   2.649   2.424
    1C        C  240   4.258   2.785   2.542
    1C        C  241   4.202   2.741   2.664
    1C        C  242   4.340   2.904   2.788
    1C        C  243   4.253   2.793   2.786
    1C        C  244   4.374   2.968   2.909
    1C        C  245   4.338   2.910   3.033
    1C        C  246   4.437   3.097   3.153
    1C        C  247   4.373   2.970   3.156
    1C        C  248   4.459   3.164   3.276
    1C        C  249   4.429   3.101   3.399
    1C        C  250   4.492   3.306   3.517
    1C        C  251   4.457   3.169   3.520
    1C        C  252   4.505   3.377   3.639
    1C        C  253   4.501   3.309   3.763
    1C        C  254   4.525   3.520   3.880
    1C        C  255   4.516   3.379   3.884
    1C        C  256   4.519   3.591   4.002
    1C        C  257   4.521   3.522   4.125
    1C        C  258   4.498   3.736   4.243
    1C        C  259   4.527   3.598   4.244
    1C        C  260   4.476   3.805   4.364
    1C        C  261   4.490   3.738   4.488
    1C        C  262   4.425   3.941   4.604
    1C        C  263   4.466   3.806   4.610
    1C        C  264   4.398   4.012   4.723
    1C        C  265   4.438   3.951   4.844
    1C        C  266   4.329   4.138   4.963
    1C        C  267   4.393   4.014   4.960
    1C        C  268   4.267   2.777   2.068
    1C        C  269   4.202   2.733   2.184
    1C        C  270   4.349   2.891   2.303
    1C        C  271   4.258   2.781   2.304
    1C        C  272   4.388   2.957   2.421
    1C        C  273   4.345   2.896   2.542
    1C        C  274   4.445   3.083   2.664
    1C        C  275   4.376   2.960   2.664
    1C        C  276   4.474   3.152   2.785
    1C        C  277   4.442   3.092   2.908
    1C        C  278   4.497   3.298   3.027
    1C        C  279   4.461   3.161   3.030
    1C        C  280   4.506   3.369   3.148
    1C        C  281   4.495   3.300   3.271
    1C        C  282   4.516   3.512   3.391
    1C        C  283   4.506   3.371   3.393
    1C        C  284   4.517   3.584   3.512
    1C        C  285   4.514   3.518   3.637
    1C        C  286   4.494   3.729   3.754
    1C        C  287   4.521   3.590   3.758
    1C        C  288   4.475   3.798   3.876
    1C        C  289   4.500   3.731   3.998
    1C        C  290   4.427   3.932   4.118
    1C        C  291   4.483   3.802   4.119
    1C        C  292   4.397   4.000   4.238
    1C        C  293   4.427   3.937   4.361
    1C        C  294   4.328   4.128   4.480
    1C        C  295   4.393   4.003   4.482
    1C        C  296   4.286   4.188   4.601
    1C        C  297   4.323   4.133   4.725
    1C        C  298   4.201   4.315   4.841
    1C        C  299   4.286   4.201   4.845
    1C        C  300   4.172   4.405   4.949
    1C        C  301   4.359   2.881   2.064
    1C        C  302   4.474   3.068   2.181
    1C        C  303   4.400   2.945   2.182
    1C        C  304   4.492   3.144   2.300
    1C        C  305   4.454   3.082   2.421
    1C        C  306   4.511   3.286   2.541
    1C        C  307   4.475   3.149   2.543
    1C        C  308   4.521   3.361   2.660
    1C        C  309   4.505   3.290   2.781
    1C        C  310   4.518   3.503   2.903
    1C        C  311   4.516   3.362   2.902
    1C        C  312   4.516   3.579   3.022
    1C        C  313   4.517   3.510   3.145
    1C        C  314   4.487   3.720   3.268
    1C        C  315   4.513   3.581   3.267
    1C        C  316   4.475   3.792   3.389
    1C        C  317   4.495   3.724   3.511
    1C        C  318   4.432   3.929   3.630
    1C        C  319   4.483   3.797   3.631
    1C        C  320   4.401   3.995   3.752
    1C        C  321   4.427   3.931   3.875
    1C        C  322   4.317   4.113   3.992
    1C        C  323   4.395   3.995   3.996
    1C        C  324   4.276   4.171   4.115
    1C        C  325   4.323   4.120   4.238
    1C        C  326   4.185   4.286   4.357
    1C        C  327   4.283   4.184   4.358
    1C        C  328   4.135   4.339   4.478
    1C        C  329   4.190   4.292   4.599
    1C        C  330   4.027   4.436   4.715
    1C        C  331   4.142   4.352   4.717
    1C        C  332   3.972   4.491   4.832
    1C        C  333   4.056   4.485   4.944
    1C        C  334   4.560   3.268   2.065
    1C        C  335   4.536   3.130   2.069
    1C        C  336   4.550   3.350   2.178
    1C        C  337   4.524   3.282   2.299
    1C        C  338   4.524   3.498   2.415
    1C        C  339   4.521   3.357   2.419
    1C        C  340   4.520   3.571   2.536
    1C        C  341   4.528   3.502   2.658
    1C        C  342   4.499   3.712   2.778
    1C        C  343   4.520   3.573   2.781
    1C        C  344   4.481   3.787   2.896
    1C        C  345   4.493   3.719   3.019
    1C        C  346   4.430   3.919   3.138
    1C        C  347   4.476   3.785   3.143
    1C        C  348   4.397   3.983   3.260
    1C        C  349   4.428   3.925   3.385
    1C        C  350   4.324   4.109   3.503
    1C        C  351   4.403   3.992   3.507
    1C        C  352   4.279   4.164   3.625
    1C        C  353   4.329   4.116   3.748
    1C        C  354   4.179   4.270   3.868
    1C        C  355   4.280   4.171   3.869
    1C        C  356   4.123   4.316   3.990
    1C        C  357   4.175   4.270   4.113
    1C        C  358   4.010   4.403   4.231
    1C        C  359   4.126   4.324   4.234
    1C        C  360   3.956   4.454   4.351
    1C        C  361   4.018   4.418   4.473
    1C        C  362   3.831   4.522   4.596
    1C        C  363   3.959   4.462   4.594
    1C        C  364   3.767   4.561   4.716
    1C        C  365   3.843   4.549   4.833
    1C        C  366   3.631   4.600   4.953
    1C        C  367   3.767   4.573   4.949
    1C        C  368   4.516   3.563   2.057
    1C        C  369   4.537   3.491   2.176
    1C        C  370   4.505   3.709   2.291
    1C        C  371   4.524   3.569   2.293
    1C        C  372   4.485   3.780   2.411
    1C        C  373   4.501   3.711   2.533
    1C        C  374   4.433   3.912   2.650
    1C        C  375   4.488   3.781   2.655
    1C        C  376   4.398   3.978   2.769
    1C        C  377   4.431   3.920   2.893
    1C        C  378   4.323   4.099   3.015
    1C        C  379   4.405   3.984   3.016
    1C        C  380   4.275   4.155   3.136
    1C        C  381   4.316   4.098   3.259
    1C        C  382   4.180   4.262   3.380
    1C        C  383   4.276   4.159   3.380
    1C        C  384   4.125   4.309   3.502
    1C        C  385   4.180   4.265   3.625
    1C        C  386   4.004   4.386   3.741
    1C        C  387   4.126   4.315   3.745
    1C        C  388   3.942   4.422   3.863
    1C        C  389   4.005   4.392   3.987
    1C        C  390   3.816   4.487   4.109
    1C        C  391   3.947   4.436   4.108
    1C        C  392   3.754   4.517   4.232
    1C        C  393   3.825   4.508   4.354
    1C        C  394   3.620   4.558   4.476
    1C        C  395   3.760   4.540   4.475
    1C        C  396   3.552   4.572   4.599
    1C        C  397   3.627   4.581   4.718
    1C        C  398   3.415   4.555   4.839
    1C        C  399   3.553   4.585   4.838
    1C        C  400   3.349   4.517   4.956
    1C        C  401   4.501   3.701   2.058
    1C        C  402   4.457   3.919   2.165
    1C        C  403   4.496   3.783   2.171
    1C        C  404   4.415   3.980   2.286
    1C        C  405   4.434   3.912   2.408
    1C        C  406   4.326   4.097   2.526
    1C        C  407   4.400   3.977   2.529
    1C        C  408   4.285   4.153   2.649
    1C        C  409   4.329   4.102   2.773
    1C        C  410   4.178   4.256   2.890
    1C        C  411   4.277   4.156   2.893
    1C        C  412   4.125   4.299   3.014
    1C        C  413   4.179   4.258   3.138
    1C        C  414   4.002   4.378   3.256
    1C        C  415   4.122   4.305   3.258
    1C        C  416   3.942   4.414   3.379
    1C        C  417   4.005   4.383   3.502
    1C        C  418   3.812   4.483   3.620
    1C        C  419   3.941   4.424   3.621
    1C        C  420   3.745   4.504   3.743
    1C        C  421   3.816   4.485   3.864
    1C        C  422   3.610   4.536   3.988
    1C        C  423   3.748   4.508   3.986
    1C        C  424   3.544   4.549   4.112
    1C        C  425   3.616   4.545   4.233
    1C        C  426   3.406   4.554   4.357
    1C        C  427   3.547   4.561   4.355
    1C        C  428   3.335   4.553   4.480
    1C        C  429   3.411   4.562   4.599
    1C        C  430   3.200   4.520   4.725
    1C        C  431   3.339   4.546   4.720
    1C        C  432   3.130   4.499   4.847
    1C        C  433   3.211   4.502   4.961
    1C        C  434   4.391   4.129   2.051
    1C        C  435   4.454   4.004   2.054
    1C        C  436   4.310   4.168   2.163
    1C        C  437   4.339   4.100   2.284
    1C        C  438   4.188   4.255   2.405
    1C        C  439   4.289   4.156   2.404
    1C        C  440   4.131   4.300   2.525
    1C        C  441   4.183   4.251   2.647
    1C        C  442   4.008   4.379   2.766
    1C        C  443   4.126   4.301   2.766
    1C        C  444   3.945   4.412   2.888
    1C        C  445   4.009   4.379   3.009
    1C        C  446   3.816   4.469   3.130
    1C        C  447   3.944   4.410   3.131
    1C        C  448   3.749   4.491   3.253
    1C        C  449   3.814   4.474   3.377
    1C        C  450   3.608   4.533   3.496
    1C        C  451   3.747   4.506   3.497
    1C        C  452   3.540   4.544   3.620
    1C        C  453   3.608   4.538   3.743
    1C        C  454   3.398   4.547   3.866
    1C        C  455   3.539   4.544   3.866
    1C        C  456   3.332   4.539   3.991
    1C        C  457   3.402   4.550   4.113
    1C        C  458   3.198   4.506   4.241
    1C        C  459   3.334   4.545   4.236
    1C        C  460   3.129   4.491   4.363
    1C        C  461   3.197   4.524   4.483
    1C        C  462   3.001   4.441   4.606
    1C        C  463   3.129   4.502   4.604
    1C        C  464   2.940   4.399   4.726
    1C        C  465   2.998   4.442   4.848
    1C        C  466   2.807   4.334   4.960
    1C        C  467   2.911   4.428   4.961
    1C        C  468   4.122   4.280   2.044
    1C        C  469   4.188   4.243   2.161
    1C        C  470   4.010   4.368   2.280
    1C        C  471   4.131   4.293   2.281
    1C        C  472   3.944   4.399   2.401
    1C        C  473   4.011   4.376   2.523
    1C        C  474   3.811   4.456   2.648
    1C        C  475   3.945   4.410   2.643
    1C        C  476   3.743   4.482   2.768
    1C        C  477   3.812   4.461   2.889
    1C        C  478   3.604   4.512   3.011
    1C        C  479   3.742   4.481   3.010
    1C        C  480   3.538   4.525   3.135
    1C        C  481   3.612   4.523   3.256
    1C        C  482   3.396   4.538   3.380
    1C        C  483   3.537   4.540   3.374
    1C        C  484   3.328   4.531   3.503
    1C        C  485   3.399   4.547   3.624
    1C        C  486   3.189   4.505   3.749
    1C        C  487   3.326   4.539   3.745
    1C        C  488   3.125   4.482   3.873
    1C        C  489   3.195   4.504   3.994
    1C        C  490   3.010   4.408   4.120
    1C        C  491   3.133   4.478   4.119
    1C        C  492   2.949   4.378   4.244
    1C        C  493   3.005   4.424   4.365
    1C        C  494   2.831   4.304   4.488
    1C        C  495   2.940   4.395   4.487
    1C        C  496   2.777   4.258   4.610
    1C        C  497   2.825   4.315   4.730
    1C        C  498   2.664   4.166   4.847
    1C        C  499   2.757   4.272   4.845
    1C        C  500   2.595   4.121   4.961
    1C        C  501   4.004   4.355   2.043
    1C        C  502   3.815   4.462   2.160
    1C        C  503   3.943   4.402   2.160
    1C        C  504   3.744   4.472   2.281
    1C        C  505   3.813   4.450   2.403
    1C        C  506   3.607   4.505   2.525
    1C        C  507   3.745   4.476   2.525
    1C        C  508   3.534   4.522   2.645
    1C        C  509   3.605   4.516   2.767
    1C        C  510   3.393   4.532   2.889
    1C        C  511   3.535   4.530   2.889
    1C        C  512   3.324   4.527   3.012
    1C        C  513   3.396   4.531   3.133
    1C        C  514   3.191   4.495   3.259
    1C        C  515   3.328   4.531   3.257
    1C        C  516   3.126   4.473   3.382
    1C        C  517   3.190   4.498   3.505
    1C        C  518   2.998   4.412   3.630
    1C        C  519   3.121   4.482   3.627
    1C        C  520   2.942   4.372   3.753
    1C        C  521   3.004   4.410   3.875
    1C        C  522   2.839   4.282   4.001
    1C        C  523   2.950   4.370   3.998
    1C        C  524   2.789   4.237   4.126
    1C        C  525   2.839   4.290   4.247
    1C        C  526   2.699   4.134   4.369
    1C        C  527   2.780   4.249   4.369
    1C        C  528   2.658   4.074   4.490
    1C        C  529   2.691   4.145   4.607
    1C        C  530   2.590   3.959   4.735
    1C        C  531   2.648   4.089   4.729
    1C        C  532   2.545   3.903   4.858
    1C        C  533   2.534   3.995   4.967
    1C        C  534   3.623   4.567   2.048
    1C        C  535   3.754   4.517   2.046
    1C        C  536   3.538   4.542   2.161
    1C        C  537   3.607   4.510   2.280
    1C        C  538   3.396   4.522   2.404
    1C        C  539   3.537   4.517   2.403
    1C        C  540   3.323   4.512   2.524
    1C        C  541   3.393   4.526   2.646
    1C        C  542   3.185   4.487   2.768
    1C        C  543   3.322   4.522   2.768
    1C        C  544   3.117   4.473   2.891
    1C        C  545   3.185   4.500   3.012
    1C        C  546   2.999   4.408   3.139
    1C        C  547   3.122   4.477   3.137
    1C        C  548   2.941   4.371   3.262
    1C        C  549   3.000   4.407   3.385
    1C        C  550   2.835   4.278   3.509
    1C        C  551   2.938   4.374   3.508
    1C        C  552   2.785   4.228   3.632
    1C        C  553   2.836   4.278   3.754
    1C        C  554   2.706   4.118   3.879
    1C        C  555   2.791   4.230   3.879
    1C        C  556   2.666   4.060   4.001
    1C        C  557   2.706   4.122   4.122
    1C        C  558   2.603   3.944   4.248
    1C        C  559   2.665   4.071   4.247
    1C        C  560   2.576   3.879   4.370
    1C        C  561   2.595   3.947   4.493
    1C        C  562   2.525   3.752   4.618
    1C        C  563   2.561   3.889   4.617
    1C        C  564   2.511   3.685   4.742
    1C        C  565   2.517   3.762   4.861
    1C        C  566   2.539   3.547   4.978
    1C        C  567   2.522   3.685   4.978
    1C        C  568   3.329   4.477   2.047
    1C        C  569   3.399   4.513   2.163
    1C        C  570   3.185   4.482   2.283
    1C        C  571   3.323   4.516   2.283
    1C        C  572   3.117   4.459   2.404
    1C        C  573   3.185   4.485   2.525
    1C        C  574   2.989   4.404   2.651
    1C        C  575   3.115   4.467   2.647
    1C        C  576   2.930   4.366   2.774
    1C        C  577   2.995   4.402   2.894
    1C        C  578   2.828   4.276   3.018
    1C        C  579   2.938   4.365   3.018
    1C        C  580   2.786   4.223   3.142
    1C        C  581   2.836   4.276   3.263
    1C        C  582   2.698   4.118   3.387
    1C        C  583   2.787   4.228   3.386
    1C        C  584   2.660   4.058   3.509
    1C        C  585   2.698   4.117   3.632
    1C        C  586   2.602   3.933   3.758
    1C        C  587   2.663   4.060   3.757
    1C        C  588   2.575   3.870   3.882
    1C        C  589   2.600   3.935   4.005
    1C        C  590   2.535   3.738   4.128
    1C        C  591   2.569   3.875   4.129
    1C        C  592   2.522   3.673   4.253
    1C        C  593   2.534   3.745   4.374
    1C        C  594   2.516   3.537   4.501
    1C        C  595   2.520   3.678   4.498
    1C        C  596   2.516   3.467   4.624
    1C        C  597   2.518   3.543   4.744
    1C        C  598   2.538   3.328   4.865
    1C        C  599   2.524   3.468   4.863
    1C        C  600   2.533   3.250   4.982
    1C        C  601   3.197   4.436   2.049
    1C        C  602   2.983   4.394   2.163
    1C        C  603   3.117   4.447   2.163
    1C        C  604   2.924   4.360   2.288
    1C        C  605   2.989   4.398   2.407
    1C        C  606   2.821   4.272   2.530
    1C        C  607   2.927   4.367   2.530
    1C        C  608   2.777   4.220   2.653
    1C        C  609   2.824   4.273   2.775
    1C        C  610   2.696   4.108   2.898
    1C        C  611   2.774   4.225   2.898
    1C        C  612   2.661   4.052   3.023
    1C        C  613   2.699   4.112   3.146
    1C        C  614   2.597   3.927   3.266
    1C        C  615   2.656   4.056   3.268
    1C        C  616   2.576   3.863   3.390
    1C        C  617   2.604   3.929   3.512
    1C        C  618   2.536   3.731   3.641
    1C        C  619   2.582   3.865   3.636
    1C        C  620   2.523   3.661   3.763
    1C        C  621   2.539   3.733   3.884
    1C        C  622   2.508   3.525   4.015
    1C        C  623   2.524   3.666   4.007
    1C        C  624   2.511   3.458   4.139
    1C        C  625   2.513   3.532   4.259
    1C        C  626   2.535   3.321   4.380
    1C        C  627   2.518   3.461   4.382
    1C        C  628   2.552   3.255   4.504
    1C        C  629   2.532   3.327   4.624
    1C        C  630   2.598   3.121   4.747
    1C        C  631   2.551   3.255   4.744
    1C        C  632   2.624   3.055   4.870
    1C        C  633   2.560   3.113   4.984
    1C        C  634   2.784   4.304   2.053
    1C        C  635   2.895   4.389   2.051
    1C        C  636   2.752   4.230   2.167
    1C        C  637   2.810   4.275   2.288
    1C        C  638   2.678   4.111   2.411
    1C        C  639   2.762   4.224   2.411
    1C        C  640   2.647   4.049   2.534
    1C        C  641   2.693   4.106   2.654
    1C        C  642   2.592   3.921   2.780
    1C        C  643   2.653   4.049   2.777
    1C        C  644   2.566   3.857   2.903
    1C        C  645   2.601   3.924   3.023
    1C        C  646   2.534   3.723   3.150
    1C        C  647   2.573   3.859   3.145
    1C        C  648   2.522   3.655   3.273
    1C        C  649   2.534   3.728   3.393
    1C        C  650   2.513   3.522   3.520
    1C        C  651   2.523   3.663   3.518
    1C        C  652   2.516   3.453   3.643
    1C        C  653   2.506   3.521   3.767
    1C        C  654   2.523   3.315   3.893
    1C        C  655   2.503   3.455   3.892
    1C        C  656   2.545   3.249   4.016
    1C        C  657   2.523   3.317   4.138
    1C        C  658   2.583   3.112   4.261
    1C        C  659   2.544   3.248   4.260
    1C        C  660   2.621   3.053   4.384
    1C        C  661   2.601   3.123   4.505
    1C        C  662   2.710   2.939   4.628
    1C        C  663   2.633   3.057   4.626
    1C        C  664   2.749   2.875   4.748
    1C        C  665   2.704   2.936   4.869
    1C        C  666   2.744   2.870   4.986
    1C        C  667   2.687   4.023   2.051
    1C        C  668   2.691   4.103   2.166
    1C        C  669   2.602   3.912   2.291
    1C        C  670   2.649   4.047   2.288
    1C        C  671   2.573   3.848   2.414
    1C        C  672   2.590   3.919   2.534
    1C        C  673   2.524   3.720   2.660
    1C        C  674   2.563   3.856   2.658
    1C        C  675   2.513   3.651   2.782
    1C        C  676   2.526   3.722   2.904
    1C        C  677   2.509   3.513   3.032
    1C        C  678   2.517   3.654   3.027
    1C        C  679   2.507   3.442   3.154
    1C        C  680   2.506   3.514   3.275
    1C        C  681   2.530   3.308   3.404
    1C        C  682   2.507   3.447   3.400
    1C        C  683   2.550   3.241   3.527
    1C        C  684   2.534   3.313   3.648
    1C        C  685   2.606   3.119   3.777
    1C        C  686   2.546   3.247   3.772
    1C        C  687   2.642   3.057   3.899
    1C        C  688   2.599   3.118   4.019
    1C        C  689   2.708   2.937   4.143
    1C        C  690   2.627   3.052   4.141
    1C        C  691   2.754   2.883   4.265
    1C        C  692   2.708   2.941   4.385
    1C        C  693   2.753   2.883   4.506
    1C        C  694   2.636   3.893   2.058
    1C        C  695   2.531   3.704   2.174
    1C        C  696   2.586   3.834   2.175
    1C        C  697   2.509   3.641   2.299
    1C        C  698   2.530   3.713   2.418
    1C        C  699   2.495   3.506   2.544
    1C        C  700   2.509   3.646   2.540
    1C        C  701   2.499   3.436   2.667
    1C        C  702   2.498   3.510   2.787
    1C        C  703   2.529   3.303   2.914
    1C        C  704   2.504   3.442   2.910
    1C        C  705   2.543   3.232   3.035
    1C        C  706   2.531   3.303   3.157
    1C        C  707   2.599   3.107   3.282
    1C        C  708   2.547   3.239   3.282
    1C        C  709   2.632   3.047   3.405
    1C        C  710   2.605   3.111   3.528
    1C        C  711   2.714   2.938   3.653
    1C        C  712   2.638   3.057   3.654
    1C        C  713   2.759   2.882   3.774
    1C        C  714   2.721   2.939   3.897
    1C        C  715   2.761   2.886   4.022
    1C        C  716   2.452   3.499   2.065
    1C        C  717   2.502   3.630   2.059
    1C        C  718   2.467   3.425   2.186
    1C        C  719   2.481   3.502   2.304
    1C        C  720   2.511   3.290   2.427
    1C        C  721   2.487   3.429   2.425
    1C        C  722   2.541   3.226   2.549
    1C        C  723   2.527   3.297   2.670
    1C        C  724   2.592   3.098   2.795
    1C        C  725   2.544   3.231   2.793
    1C        C  726   2.622   3.034   2.918
    1C        C  727   2.590   3.099   3.039
    1C        C  728   2.710   2.924   3.161
    1C        C  729   2.629   3.040   3.161
    1C        C  730   2.758   2.876   3.286
    1C        C  731   2.715   2.933   3.408
    1C        C  732   2.761   2.883   3.531
    1C        C  733   2.488   3.200   2.074
    1C        C  734   2.484   3.282   2.187
    1C        C  735   2.581   3.087   2.308
    1C        C  736   2.521   3.216   2.307
    1C        C  737   2.611   3.022   2.430
    1C        C  738   2.592   3.094   2.550
    1C        C  739   2.704   2.917   2.674
    1C        C  740   2.625   3.034   2.674
    1C        C  741   2.743   2.858   2.796
    1C        C  742   2.703   2.918   2.917
    1C        C  743   2.754   2.868   3.039
    1C        C  744   2.540   3.071   2.076
    1C        C  745   2.684   2.900   2.188
    1C        C  746   2.609   3.020   2.187
    1C        C  747   2.728   2.844   2.310
    1C        C  748   2.686   2.902   2.432
    1C        C  749   2.746   2.859   2.552
    1C        C  750   2.739   2.844   2.072
    1C        C  751   3.663   2.334   1.965
    1C        O  752   3.742   2.235   1.971
    1C        O  753   3.616   2.361   1.836
    1C        C  754   4.612   3.053   1.968
    1C        O  755   4.569   3.050   1.849
    1C        O  756   4.751   3.046   1.983
    1C        C  757   4.443   4.222   1.948
    1C        O  758   4.550   4.287   1.966
    1C        O  759   4.396   4.220   1.817
    1C        C  760   3.603   4.685   1.961
    1C        O  761   3.619   4.802   2.006
    1C        O  762   3.589   4.667   1.823
    1C        C  763   2.876   4.510   1.968
    1C        O  764   2.894   4.507   1.843
    1C        O  765   2.812   4.630   1.998
    1C        C  766   2.321   3.500   1.997
    1C        O  767   2.295   3.482   1.875
    1C        O  768   2.207   3.539   2.068
    1C        C  769   4.687   3.597   5.064
    1C        O  770   4.660   3.576   5.185
    1C        O  771   4.819   3.566   5.027
    1C        C  772   4.266   4.440   5.058
    1C        O  773   4.228   4.424   5.177
    1C        O  774   4.405   4.455   5.051
    1C        C  775   4.153   2.529   5.067
    1C        O  776   4.197   2.412   5.053
    1C        O  777   4.164   2.561   5.203
    1C        C  778   2.900   4.514   5.081
    1C        O  779   2.873   4.637   5.077
    1C        O  780   2.970   4.481   5.197
    1C        C  781   2.457   3.037   5.058
    1C        O  782   2.349   3.010   5.000
    1C        O  783   2.433   3.060   5.193
    1C        C  784   2.439   3.971   5.078
    1C        O  785   2.316   3.955   5.058
    1C        O  786   2.473   3.958   5.213
    1C        C  787   2.955   2.454   1.981
    1C        O  788   2.969   2.485   1.859
    1C        O  789   2.841   2.382   2.011
    1C        C  790   3.178   2.370   5.058
    1C        O  791   3.107   2.270   5.028
    1C        O  792   3.205   2.385   5.195
    1C        H  793   4.271   3.029   5.057
    1C        H  794   4.150   2.838   5.063
    1C        H  795   4.511   3.134   5.066
    1C        H  796   4.548   3.363   5.071
    1C        H  797   4.527   3.794   5.058
    1C        H  798   4.367   3.945   5.038
    1C        H  799   4.280   4.169   5.052
    1C        H  800   4.016   4.511   5.040
    1C        H  801   3.817   4.577   5.043
    1C        H  802   3.587   4.643   5.041
    1C        H  803   3.410   4.477   5.034
    1C        H  804   3.171   4.462   5.052
    1C        H  805   3.903   2.469   5.059
    1C        H  806   3.676   2.432   5.067
    1C        H  807   3.008   2.566   5.074
    1C        H  808   3.432   2.508   5.071
    1C        H  809   2.865   2.728   5.082
    1C        H  810   2.660   2.854   5.050
    1C        H  811   2.495   3.291   5.073
    1C        H  812   2.598   3.507   5.058
    1C        H  813   2.479   3.730   5.065
    1C        H  814   2.601   4.181   5.050
    1C        H  815   2.737   4.337   5.042
    1C        H  816   2.776   2.916   2.003
    1C        H  817   2.847   2.695   1.977
    1C        H  818   3.209   2.416   1.999
    1C        H  819   3.453   2.498   1.993
    1C        H  820   3.864   2.501   1.974
    1C        H  821   4.036   2.674   1.976
    1C        H  822   4.285   2.701   1.994
    1C        H  823   4.384   2.918   1.967
    1C        H  824   4.566   3.307   1.965
    1C        H  825   4.538   3.518   1.963
    1C        H  826   4.495   3.748   1.961
    1C        H  827   3.813   4.539   1.960
    1C        H  828   3.959   4.368   1.947
    1C        H  829   4.116   4.204   1.969
    1C        H  830   4.548   4.004   2.001
    1C        H  831   2.636   3.837   1.967
    1C        H  832   2.711   4.058   1.952
    1C        H  833   2.698   4.328   1.994
    1C        H  834   3.361   4.520   1.954
    1C        H  835   3.170   4.368   1.971
    1C        H  836   2.516   3.000   2.001
    1C        H  837   2.455   3.238   1.979
    1C        H  838   2.484   3.678   1.965
    2V3OU   H29  839   2.812   3.547   3.780
    2V3OU   C27  840   2.792   3.506   3.883
    2V3OU   H27  841   2.742   3.579   3.951
    2V3OU   H28  842   2.744   3.406   3.871
    2V3OU   O11  843   2.915   3.479   3.951
    2V3OU   C15  844   2.931   3.407   4.068
    2V3OU   C13  845   3.059   3.379   4.118
    2V3OU   C14  846   3.082   3.271   4.205
    2V3OU   C16  847   2.981   3.192   4.258
    2V3OU    H6  848   2.998   3.103   4.320
    2V3OU   C12  849   3.220   3.241   4.250
    2V3OU    O2  850   3.244   3.134   4.311
    2V3OU   C10  851   3.329   3.317   4.188
    2V3OU    C8  852   3.460   3.277   4.214
    2V3OU   O10  853   3.488   3.159   4.276
    2V3OU   H26  854   3.411   3.122   4.323
    2V3OU    C6  855   3.570   3.354   4.166
    2V3OU    C5  856   3.539   3.475   4.104
    2V3OU    C4  857   3.709   3.300   4.167
    2V3OU    H4  858   3.730   3.229   4.253
    2V3OU    H5  859   3.716   3.227   4.081
    2V3OU    C2  860   3.822   3.403   4.167
    2V3OU    O6  861   3.806   3.479   4.287
    2V3OU   H21  862   3.775   3.564   4.253
    2V3OU    C3  863   3.782   3.497   4.052
    2V3OU    H2  864   3.862   3.574   4.041
    2V3OU    H3  865   3.790   3.438   3.957
    2V3OU   C25  866   3.957   3.333   4.152
    2V3OU    O7  867   4.011   3.297   4.048
    2V3OU   C26  868   4.030   3.290   4.278
    2V3OU   H22  869   4.066   3.389   4.317
    2V3OU   H23  870   4.122   3.231   4.251
    2V3OU    O8  871   3.962   3.205   4.368
    2V3OU   H24  872   3.919   3.262   4.434
    2V3OU    C1  873   3.649   3.570   4.070
    2V3OU    H1  874   3.627   3.621   3.972
    2V3OU    O3  875   3.656   3.661   4.180
    2V3OU   C19  876   3.624   3.799   4.160
    2V3OU    H9  877   3.526   3.805   4.104
    2V3OU    O4  878   3.716   3.855   4.069
    2V3OU   C20  879   3.847   3.879   4.123
    2V3OU   H10  880   3.902   3.783   4.144
    2V3OU   C24  881   3.613   3.859   4.300
    2V3OU   H16  882   3.544   3.793   4.360
    2V3OU   H17  883   3.562   3.957   4.279
    2V3OU   C23  884   3.755   3.882   4.351
    2V3OU   H15  885   3.796   3.777   4.370
    2V3OU    N1  886   3.737   3.965   4.469
    2V3OU   H19  887   3.810   3.933   4.528
    2V3OU   H20  888   3.649   3.940   4.511
    2V3OU   C21  889   3.855   3.955   4.256
    2V3OU   H11  890   3.955   3.935   4.305
    2V3OU    O5  891   3.833   4.095   4.246
    2V3OU   H18  892   3.779   4.107   4.326
    2V3OU   C22  893   3.913   3.955   4.009
    2V3OU   H12  894   3.864   4.055   3.998
    2V3OU   H13  895   3.909   3.895   3.914
    2V3OU   H14  896   4.021   3.969   4.032
    2V3OU   C11  897   3.161   3.481   4.090
    2V3OU    O1  898   3.136   3.591   4.036
    2V3OU    C9  899   3.299   3.434   4.114
    2V3OU    C7  900   3.405   3.514   4.072
    2V3OU    O9  901   3.388   3.632   4.001
    2V3OU   H25  902   3.292   3.634   3.988
    2V3OU   C17  903   2.832   3.320   4.120
    2V3OU    H7  904   2.737   3.354   4.079
    2V3OU   C18  905   2.852   3.220   4.214
    2V3OU    H8  906   2.789   3.177   4.293
    3SOL     OW  907   3.001   4.527   5.664
    3SOL    HW1  908   2.977   4.620   5.635
    3SOL    HW2  909   3.009   4.468   5.584
    4SOL     OW  910   0.040   6.635   6.909
    4SOL    HW1  911   0.015   6.662   7.002
    4SOL    HW2  912   7.008   6.679   6.843
    5SOL     OW  913   5.220   1.251   2.780
    5SOL    HW1  914   5.289   1.296   2.723
    5SOL    HW2  915   5.163   1.191   2.722
    6SOL     OW  916   5.348   2.186   2.959
    6SOL    HW1  917   5.383   2.251   2.891
    6SOL    HW2  918   5.415   2.112   2.971
    7SOL     OW  919   1.053   4.105   4.904
    7SOL    HW1  920   1.066   4.013   4.942
    7SOL    HW2  921   1.128   4.126   4.842
    8SOL     OW  922   2.620   2.319   5.076
    8SOL    HW1  923   2.545   2.371   5.118
    8SOL    HW2  924   2.609   2.320   4.977
    9SOL     OW  925   6.578   1.814   6.078
    9SOL    HW1  926   6.612   1.732   6.031
    9SOL    HW2  927   6.634   1.833   6.159
   10SOL     OW  928   3.713   5.005   4.092
   10SOL    HW1  929   3.654   4.969   4.019
   10SOL    HW2  930   3.784   5.063   4.051
   11SOL     OW  931   1.416   0.912   0.281
   11SOL    HW1  932   1.462   0.903   0.193
   11SOL    HW2  933   1.444   0.838   0.342
   12SOL     OW  934   2.706   4.722   3.734
   12SOL    HW1  935   2.743   4.758   3.648
   12SOL    HW2  936   2.732   4.782   3.809
   13SOL     OW  937   3.012   6.170   2.858
   13SOL    HW1  938   2.942   6.227   2.815
   13SOL    HW2  939   2.985   6.147   2.951
   14SOL     OW  940   4.480   4.842   5.955
   14SOL    HW1  941   4.432   4.811   6.036
   14SOL    HW2  942   4.439   4.927   5.922
   15SOL     OW  943   0.581   6.445   6.292
   15SOL    HW1  944   0.567   6.536   6.330
   15SOL    HW2  945   0.554   6.376   6.359
   16SOL     OW  946   5.017   2.546   6.279
   16SOL    HW1  947   5.111   2.543   6.247
   16SOL    HW2  948   4.959   2.492   6.218
   17SOL     OW  949   6.090   0.480   6.088
   17SOL    HW1  950   6.060   0.410   6.153
   17SOL    HW2  951   6.012   0.509   6.033
   18SOL     OW  952   3.658   1.252   5.324
   18SOL    HW1  953   3.652   1.288   5.231
   18SOL    HW2  954   3.744   1.203   5.336
   19SOL     OW  955   0.480   1.854   2.489
   19SOL    HW1  956   0.407   1.818   2.547
   19SOL    HW2  957   0.475   1.954   2.487
   20SOL     OW  958   5.903   1.801   5.607
   20SOL    HW1  959   5.891   1.893   5.569
   20SOL    HW2  960   5.826   1.743   5.581
   21SOL     OW  961   3.292   0.057   2.959
   21SOL    HW1  962   3.258   6.994   2.980
   21SOL    HW2  963   3.262   0.084   2.867
   22SOL     OW  964   0.921   5.829   5.866
   22SOL    HW1  965   0.961   5.814   5.775
   22SOL    HW2  966   0.994   5.834   5.934
   23SOL     OW  967   4.781   5.228   2.139
   23SOL    HW1  968   4.831   5.274   2.212
   23SOL    HW2  969   4.686   5.213   2.167
   24SOL     OW  970   3.973   0.400   2.338
   24SOL    HW1  971   3.954   0.318   2.393
   24SOL    HW2  972   3.938   0.386   2.245
   25SOL     OW  973   3.142   0.202   4.176
   25SOL    HW1  974   3.069   0.193   4.108
   25SOL    HW2  975   3.168   0.112   4.209
   26SOL     OW  976   1.325   2.134   0.346
   26SOL    HW1  977   1.309   2.064   0.276
   26SOL    HW2  978   1.239   2.179   0.369
   27SOL     OW  979   1.129   1.285   2.313
   27SOL    HW1  980   1.041   1.302   2.270
   27SOL    HW2  981   1.201   1.333   2.263
   28SOL     OW  982   1.293   0.823   4.256
   28SOL    HW1  983   1.260   0.908   4.297
   28SOL    HW2  984   1.369   0.843   4.194
   29SOL     OW  985   6.113   0.969   1.128
   29SOL    HW1  986   6.201   0.929   1.101
   29SOL    HW2  987   6.047   0.956   1.055
   30SOL     OW  988   3.702   0.575   4.837
   30SOL    HW1  989   3.643   0.636   4.784
   30SOL    HW2  990   3.770   0.630   4.886
   31SOL     OW  991   0.099   2.101   5.165
   31SOL    HW1  992   0.189   2.139   5.190
   31SOL    HW2  993   0.112   2.014   5.119
   32SOL     OW  994   1.551   1.569   2.239
   32SOL    HW1  995   1.630   1.576   2.300
   32SOL    HW2  996   1.469   1.599   2.286
   33SOL     OW  997   0.122   3.740   5.288
   33SOL    HW1  998   0.217   3.712   5.302
   33SOL    HW2  999   0.121   3.829   5.241
   34SOL     OW 1000   2.759   5.219   5.325
   34SOL    HW1 1001   2.711   5.131   5.327
   34SOL    HW2 1002   2.715   5.280   5.259
   35SOL     OW 1003   4.419   1.400   5.486
   35SOL    HW1 1004   4.329   1.372   5.519
   35SOL    HW2 1005   4.412   1.488   5.440
   36SOL     OW 1006   5.019   1.118   4.061
   36SOL    HW1 1007   4.933   1.085   4.022
   36SOL    HW2 1008   5.094   1.058   4.034
   37SOL     OW 1009   1.932   1.211   3.642
   37SOL    HW1 1010   1.862   1.264   3.595
   37SOL    HW2 1011   1.894   1.123   3.671
   38SOL     OW 1012   2.306   4.425   1.392
   38SOL    HW1 1013   2.340   4.516   1.370
   38SOL    HW2 1014   2.258   4.428   1.480
   39SOL     OW 1015   6.532   4.353   6.405
   39SOL    HW1 1016   6.441   4.335   6.369
   39SOL    HW2 1017   6.537   4.320   6.500
   40SOL     OW 1018   3.353   0.528   6.174
   40SOL    HW1 1019   3.331   0.431   6.174
   40SOL    HW2 1020   3.304   0.574   6.248
   41SOL     OW 1021   6.390   4.137   2.695
   41SOL    HW1 1022   6.305   4.185   2.714
   41SOL    HW2 1023   6.389   4.047   2.740
   42SOL     OW 1024   2.882   6.743   4.356
   42SOL    HW1 1025   2.929   6.666   4.399
   42SOL    HW2 1026   2.787   6.743   4.385
   43SOL     OW 1027   3.700   6.897   5.031
   43SOL    HW1 1028   3.717   6.873   4.935
   43SOL    HW2 1029   3.777   6.950   5.067
   44SOL     OW 1030   6.081   3.099   4.970
   44SOL    HW1 1031   6.039   3.011   4.946
   44SOL    HW2 1032   6.164   3.084   5.024
   45SOL     OW 1033   4.357   5.899   2.040
   45SOL    HW1 1034   4.281   5.960   2.016
   45SOL    HW2 1035   4.442   5.937   2.005
   46SOL     OW 1036   0.489   2.920   4.107
   46SOL    HW1 1037   0.535   2.938   4.020
   46SOL    HW2 1038   0.420   2.990   4.124
   47SOL     OW 1039   5.088   4.084   1.900
   47SOL    HW1 1040   5.080   4.036   1.813
   47SOL    HW2 1041   5.069   4.181   1.887
   48SOL     OW 1042   0.573   2.351   6.697
   48SOL    HW1 1043   0.639   2.307   6.637
   48SOL    HW2 1044   0.537   2.433   6.652
   49SOL     OW 1045   5.275   2.813   1.193
   49SOL    HW1 1046   5.287   2.747   1.267
   49SOL    HW2 1047   5.218   2.773   1.121
   50SOL     OW 1048   6.171   1.910   6.245
   50SOL    HW1 1049   6.177   1.896   6.146
   50SOL    HW2 1050   6.083   1.953   6.266
   51SOL     OW 1051   1.667   5.439   2.749
   51SOL    HW1 1052   1.638   5.350   2.714
   51SOL    HW2 1053   1.616   5.461   2.832
   52SOL     OW 1054   5.663   2.412   1.529
   52SOL    HW1 1055   5.679   2.369   1.440
   52SOL    HW2 1056   5.638   2.508   1.517
   53SOL     OW 1057   5.209   0.140   3.055
   53SOL    HW1 1058   5.217   0.236   3.025
   53SOL    HW2 1059   5.151   0.136   3.136
   54SOL     OW 1060   5.514   6.659   0.367
   54SOL    HW1 1061   5.550   6.716   0.294
   54SOL    HW2 1062   5.585   6.595   0.398
   55SOL     OW 1063   1.645   2.459   5.934
   55SOL    HW1 1064   1.716   2.400   5.896
   55SOL    HW2 1065   1.682   2.508   6.013
   56SOL     OW 1066   1.354   1.424   0.989
   56SOL    HW1 1067   1.357   1.407   1.087
   56SOL    HW2 1068   1.261   1.408   0.955
   57SOL     OW 1069   3.731   1.034   6.784
   57SOL    HW1 1070   3.739   1.106   6.715
   57SOL    HW2 1071   3.806   1.043   6.850
   58SOL     OW 1072   0.955   0.842   6.748
   58SOL    HW1 1073   1.038   0.786   6.739
   58SOL    HW2 1074   0.966   0.905   6.825
   59SOL     OW 1075   6.526   3.570   6.124
   59SOL    HW1 1076   6.591   3.639   6.095
   59SOL    HW2 1077   6.530   3.560   6.223
   60SOL     OW 1078   5.534   1.460   3.539
   60SOL    HW1 1079   5.597   1.518   3.591
   60SOL    HW2 1080   5.518   1.499   3.449
   61SOL     OW 1081   0.213   0.870   4.580
   61SOL    HW1 1082   0.256   0.835   4.497
   61SOL    HW2 1083   0.262   0.952   4.610
   62SOL     OW 1084   0.846   1.278   1.559
   62SOL    HW1 1085   0.808   1.370   1.571
   62SOL    HW2 1086   0.937   1.275   1.601
   63SOL     OW 1087   3.995   0.116   4.543
   63SOL    HW1 1088   4.047   0.131   4.627
   63SOL    HW2 1089   4.053   0.068   4.477
   64SOL     OW 1090   1.353   3.660   6.346
   64SOL    HW1 1091   1.390   3.743   6.304
   64SOL    HW2 1092   1.397   3.646   6.435
   65SOL     OW 1093   0.279   0.113   5.746
   65SOL    HW1 1094   0.210   0.042   5.735
   65SOL    HW2 1095   0.239   0.193   5.790
   66SOL     OW 1096   3.587   0.268   2.754
   66SOL    HW1 1097   3.637   0.340   2.707
   66SOL    HW2 1098   3.647   0.224   2.822
   67SOL     OW 1099   0.259   2.336   6.570
   67SOL    HW1 1100   0.266   2.433   6.593
   67SOL    HW2 1101   0.281   2.281   6.651
   68SOL     OW 1102   6.817   1.639   5.884
   68SOL    HW1 1103   6.825   1.736   5.906
   68SOL    HW2 1104   6.847   1.624   5.789
   69SOL     OW 1105   1.356   4.355   5.868
   69SOL    HW1 1106   1.449   4.389   5.883
   69SOL    HW2 1107   1.292   4.433   5.865
   70SOL     OW 1108   5.321   4.350   4.722
   70SOL    HW1 1109   5.291   4.273   4.778
   70SOL    HW2 1110   5.292   4.435   4.766
   71SOL     OW 1111   4.795   1.971   4.092
   71SOL    HW1 1112   4.711   2.025   4.100
   71SOL    HW2 1113   4.796   1.900   4.162
   72SOL     OW 1114   0.181   1.066   3.165
   72SOL    HW1 1115   0.166   1.062   3.264
   72SOL    HW2 1116   0.190   1.162   3.136
   73SOL     OW 1117   3.625   0.349   0.323
   73SOL    HW1 1118   3.528   0.364   0.338
   73SOL    HW2 1119   3.648   0.372   0.228
   74SOL     OW 1120   2.392   1.939   6.225
   74SOL    HW1 1121   2.415   1.843   6.239
   74SOL    HW2 1122   2.315   1.946   6.162
   75SOL     OW 1123   4.461   1.799   1.342
   75SOL    HW1 1124   4.537   1.862   1.324
   75SOL    HW2 1125   4.431   1.758   1.256
   76SOL     OW 1126   2.621   4.433   5.992
   76SOL    HW1 1127   2.709   4.413   5.950
   76SOL    HW2 1128   2.602   4.531   5.985
   77SOL     OW 1129   2.057   5.361   3.878
   77SOL    HW1 1130   2.097   5.270   3.868
   77SOL    HW2 1131   2.099   5.406   3.957
   78SOL     OW 1132   4.291   1.260   1.219
   78SOL    HW1 1133   4.351   1.281   1.142
   78SOL    HW2 1134   4.341   1.275   1.304
   79SOL     OW 1135   2.655   5.751   2.057
   79SOL    HW1 1136   2.694   5.832   2.102
   79SOL    HW2 1137   2.726   5.702   2.009
   80SOL     OW 1138   4.812   2.064   4.989
   80SOL    HW1 1139   4.817   2.137   4.921
   80SOL    HW2 1140   4.784   2.101   5.077
   81SOL     OW 1141   1.876   0.277   0.329
   81SOL    HW1 1142   1.830   0.311   0.410
   81SOL    HW2 1143   1.822   0.204   0.288
   82SOL     OW 1144   0.783   6.096   1.988
   82SOL    HW1 1145   0.730   6.138   1.915
   82SOL    HW2 1146   0.730   6.021   2.028
   83SOL     OW 1147   6.905   1.821   5.636
   83SOL    HW1 1148   6.869   1.728   5.625
   83SOL    HW2 1149   6.874   1.879   5.561
   84SOL     OW 1150   6.302   3.599   3.197
   84SOL    HW1 1151   6.231   3.669   3.204
   84SOL    HW2 1152   6.356   3.597   3.280
   85SOL     OW 1153   2.057   0.279   3.822
   85SOL    HW1 1154   2.050   0.297   3.724
   85SOL    HW2 1155   1.965   0.263   3.859
   86SOL     OW 1156   6.503   1.138   6.721
   86SOL    HW1 1157   6.465   1.091   6.641
   86SOL    HW2 1158   6.514   1.235   6.700
   87SOL     OW 1159   4.512   4.624   0.380
   87SOL    HW1 1160   4.479   4.559   0.448
   87SOL    HW2 1161   4.610   4.610   0.366
   88SOL     OW 1162   2.843   2.291   5.811
   88SOL    HW1 1163   2.757   2.341   5.824
   88SOL    HW2 1164   2.857   2.229   5.888
   89SOL     OW 1165   2.916   3.728   1.645
   89SOL    HW1 1166   3.009   3.732   1.609
   89SOL    HW2 1167   2.907   3.793   1.721
   90SOL     OW 1168   4.913   4.365   2.160
   90SOL    HW1 1169   5.003   4.365   2.204
   90SOL    HW2 1170   4.850   4.309   2.213
   91SOL     OW 1171   5.730   6.112   6.166
   91SOL    HW1 1172   5.726   6.212   6.166
   91SOL    HW2 1173   5.792   6.081   6.238
   92SOL     OW 1174   5.071   3.898   0.526
   92SOL    HW1 1175   5.095   3.846   0.607
   92SOL    HW2 1176   4.996   3.960   0.547
   93SOL     OW 1177   3.190   3.491   0.518
   93SOL    HW1 1178   3.275   3.522   0.476
   93SOL    HW2 1179   3.210   3.425   0.590
   94SOL     OW 1180   2.165   6.811   0.445
   94SOL    HW1 1181   2.200   6.899   0.414
   94SOL    HW2 1182   2.121   6.763   0.370
   95SOL     OW 1183   0.940   0.409   4.247
   95SOL    HW1 1184   0.881   0.488   4.225
   95SOL    HW2 1185   0.983   0.424   4.336
   96SOL     OW 1186   4.949   5.098   6.793
   96SOL    HW1 1187   4.953   5.111   6.694
   96SOL    HW2 1188   4.929   5.186   6.837
   97SOL     OW 1189   1.939   4.930   5.431
   97SOL    HW1 1190   1.869   5.001   5.424
   97SOL    HW2 1191   1.980   4.914   5.341
   98SOL     OW 1192   0.900   2.419   1.193
   98SOL    HW1 1193   0.957   2.385   1.268
   98SOL    HW2 1194   0.906   2.355   1.116
   99SOL     OW 1195   3.472   3.937   3.163
   99SOL    HW1 1196   3.556   3.884   3.162
   99SOL    HW2 1197   3.457   3.974   3.255
  100SOL     OW 1198   6.956   0.501   4.176
  100SOL    HW1 1199   6.981   0.536   4.086
  100SOL    HW2 1200   6.980   0.404   4.182
  101SOL     OW 1201   0.742   4.804   2.763
  101SOL    HW1 1202   0.691   4.729   2.806
  101SOL    HW2 1203   0.743   4.883   2.824
  102SOL     OW 1204   2.772   6.229   2.218
  102SOL    HW1 1205   2.825   6.264   2.141
  102SOL    HW2 1206   2.677   6.257   2.208
  103SOL     OW 1207   1.474   1.175   1.898
  103SOL    HW1 1208   1.397   1.111   1.902
  103SOL    HW2 1209   1.560   1.124   1.908
  104SOL     OW 1210   1.702   4.805   2.546
  104SOL    HW1 1211   1.644   4.870   2.594
  104SOL    HW2 1212   1.658   4.779   2.460
  105SOL     OW 1213   5.002   1.236   6.439
  105SOL    HW1 1214   5.050   1.275   6.518
  105SOL    HW2 1215   4.969   1.145   6.462
  106SOL     OW 1216   5.055   5.186   1.642
  106SOL    HW1 1217   5.035   5.091   1.619
  106SOL    HW2 1218   5.022   5.206   1.734
  107SOL     OW 1219   6.920   0.711   7.008
  107SOL    HW1 1220   7.001   0.748   0.025
  107SOL    HW2 1221   6.877   0.783   6.954
  108SOL     OW 1222   2.858   6.645   4.797
  108SOL    HW1 1223   2.864   6.744   4.809
  108SOL    HW2 1224   2.807   6.624   4.714
  109SOL     OW 1225   3.808   0.961   3.003
  109SOL    HW1 1226   3.795   0.864   3.024
  109SOL    HW2 1227   3.850   0.970   2.913
  110SOL     OW 1228   2.041   4.870   5.167
  110SOL    HW1 1229   1.997   4.872   5.077
  110SOL    HW2 1230   2.115   4.802   5.167
  111SOL     OW 1231   6.976   1.446   2.601
  111SOL    HW1 1232   6.966   1.381   2.525
  111SOL    HW2 1233   6.906   1.428   2.670
  112SOL     OW 1234   4.502   6.527   6.497
  112SOL    HW1 1235   4.529   6.439   6.535
  112SOL    HW2 1236   4.440   6.573   6.560
  113SOL     OW 1237   6.552   5.288   3.081
  113SOL    HW1 1238   6.646   5.295   3.115
  113SOL    HW2 1239   6.502   5.371   3.106
  114SOL     OW 1240   0.991   5.023   3.065
  114SOL    HW1 1241   1.082   5.063   3.057
  114SOL    HW2 1242   0.933   5.060   2.993
  115SOL     OW 1243   6.161   1.353   3.525
  115SOL    HW1 1244   6.065   1.343   3.554
  115SOL    HW2 1245   6.165   1.402   3.439
  116SOL     OW 1246   0.098   6.195   1.021
  116SOL    HW1 1247   0.176   6.253   1.044
  116SOL    HW2 1248   0.130   6.101   1.007
  117SOL     OW 1249   2.575   1.428   0.081
  117SOL    HW1 1250   2.584   1.526   0.062
  117SOL    HW2 1251   2.487   1.410   0.124
  118SOL     OW 1252   1.739   1.391   3.475
  118SOL    HW1 1253   1.838   1.402   3.477
  118SOL    HW2 1254   1.701   1.443   3.398
  119SOL     OW 1255   0.716   6.690   6.813
  119SOL    HW1 1256   0.685   6.680   6.907
  119SOL    HW2 1257   0.710   6.602   6.766
  120SOL     OW 1258   4.644   0.224   5.062
  120SOL    HW1 1259   4.736   0.259   5.044
  120SOL    HW2 1260   4.615   0.251   5.154
  121SOL     OW 1261   1.364   3.767   6.987
  121SOL    HW1 1262   1.270   3.800   6.975
  121SOL    HW2 1263   1.418   3.789   6.906
  122SOL     OW 1264   1.326   3.775   0.565
  122SOL    HW1 1265   1.397   3.781   0.494
  122SOL    HW2 1266   1.322   3.861   0.616
  123SOL     OW 1267   1.167   0.660   1.417
  123SOL    HW1 1268   1.234   0.712   1.470
  123SOL    HW2 1269   1.077   0.700   1.429
  124SOL     OW 1270   3.023   2.423   0.416
  124SOL    HW1 1271   3.063   2.485   0.483
  124SOL    HW2 1272   3.095   2.384   0.359
  125SOL     OW 1273   3.447   2.795   0.030
  125SOL    HW1 1274   3.395   2.879   0.048
  125SOL    HW2 1275   3.518   2.814   6.990
  126SOL     OW 1276   2.927   3.353   3.551
  126SOL    HW1 1277   2.956   3.313   3.464
  126SOL    HW2 1278   2.966   3.445   3.560
  127SOL     OW 1279   6.724   6.245   5.761
  127SOL    HW1 1280   6.749   6.313   5.692
  127SOL    HW2 1281   6.710   6.157   5.717
  128SOL     OW 1282   4.878   3.711   2.244
  128SOL    HW1 1283   4.954   3.776   2.251
  128SOL    HW2 1284   4.810   3.731   2.314
  129SOL     OW 1285   2.424   5.074   0.913
  129SOL    HW1 1286   2.430   5.152   0.976
  129SOL    HW2 1287   2.330   5.064   0.883
  130SOL     OW 1288   5.932   1.287   4.103
  130SOL    HW1 1289   5.912   1.262   4.009
  130SOL    HW2 1290   6.029   1.313   4.111
  131SOL     OW 1291   6.020   0.767   4.180
  131SOL    HW1 1292   5.972   0.698   4.235
  131SOL    HW2 1293   6.008   0.745   4.083
  132SOL     OW 1294   3.248   3.662   1.623
  132SOL    HW1 1295   3.281   3.605   1.698
  132SOL    HW2 1296   3.317   3.729   1.598
  133SOL     OW 1297   5.042   1.403   3.681
  133SOL    HW1 1298   5.060   1.396   3.779
  133SOL    HW2 1299   5.061   1.496   3.650
  134SOL     OW 1300   0.008   0.504   2.823
  134SOL    HW1 1301   0.100   0.544   2.823
  134SOL    HW2 1302   6.985   0.538   2.744
  135SOL     OW 1303   4.932   3.537   4.574
  135SOL    HW1 1304   4.935   3.509   4.670
  135SOL    HW2 1305   4.981   3.470   4.518
  136SOL     OW 1306   2.414   5.782   4.708
  136SOL    HW1 1307   2.447   5.699   4.665
  136SOL    HW2 1308   2.328   5.764   4.756
  137SOL     OW 1309   4.455   1.220   4.373
  137SOL    HW1 1310   4.540   1.182   4.407
  137SOL    HW2 1311   4.389   1.229   4.448
  138SOL     OW 1312   0.588   5.539   3.683
  138SOL    HW1 1313   0.600   5.624   3.733
  138SOL    HW2 1314   0.597   5.556   3.585
  139SOL     OW 1315   2.118   5.613   6.964
  139SOL    HW1 1316   2.054   5.621   6.887
  139SOL    HW2 1317   2.066   5.609   0.021
  140SOL     OW 1318   1.687   6.936   2.931
  140SOL    HW1 1319   1.611   6.981   2.885
  140SOL    HW2 1320   1.754   7.005   2.959
  141SOL     OW 1321   6.753   3.430   0.020
  141SOL    HW1 1322   6.749   3.523   7.010
  141SOL    HW2 1323   6.667   3.408   0.065
  142SOL     OW 1324   2.091   3.890   1.362
  142SOL    HW1 1325   2.173   3.938   1.393
  142SOL    HW2 1326   2.051   3.838   1.438
  143SOL     OW 1327   5.906   6.264   1.140
  143SOL    HW1 1328   5.853   6.319   1.076
  143SOL    HW2 1329   5.972   6.322   1.187
  144SOL     OW 1330   3.224   4.939   3.992
  144SOL    HW1 1331   3.168   4.894   3.922
  144SOL    HW2 1332   3.296   4.993   3.948
  145SOL     OW 1333   0.835   4.501   2.759
  145SOL    HW1 1334   0.759   4.441   2.736
  145SOL    HW2 1335   0.817   4.547   2.846
  146SOL     OW 1336   5.867   1.246   5.740
  146SOL    HW1 1337   5.836   1.221   5.831
  146SOL    HW2 1338   5.856   1.344   5.725
  147SOL     OW 1339   4.836   1.491   4.994
  147SOL    HW1 1340   4.802   1.538   4.913
  147SOL    HW2 1341   4.908   1.426   4.968
  148SOL     OW 1342   1.400   5.074   1.496
  148SOL    HW1 1343   1.397   5.102   1.400
  148SOL    HW2 1344   1.340   5.133   1.550
  149SOL     OW 1345   2.755   2.261   5.307
  149SOL    HW1 1346   2.837   2.209   5.285
  149SOL    HW2 1347   2.698   2.270   5.226
  150SOL     OW 1348   4.110   1.107   5.709
  150SOL    HW1 1349   4.011   1.101   5.718
  150SOL    HW2 1350   4.153   1.047   5.776
  151SOL     OW 1351   4.226   1.518   1.697
  151SOL    HW1 1352   4.126   1.524   1.703
  151SOL    HW2 1353   4.259   1.580   1.626
  152SOL     OW 1354   0.044   1.422   6.687
  152SOL    HW1 1355   0.077   1.455   6.599
  152SOL    HW2 1356   6.991   1.472   6.714
  153SOL     OW 1357   3.363   0.769   3.325
  153SOL    HW1 1358   3.445   0.808   3.366
  153SOL    HW2 1359   3.377   0.672   3.307
  154SOL     OW 1360   6.999   2.438   0.792
  154SOL    HW1 1361   0.033   2.497   0.843
  154SOL    HW2 1362   6.977   2.357   0.847
  155SOL     OW 1363   0.422   0.174   1.555
  155SOL    HW1 1364   0.356   0.249   1.547
  155SOL    HW2 1365   0.414   0.133   1.646
  156SOL     OW 1366   6.397   1.290   0.245
  156SOL    HW1 1367   6.397   1.196   0.278
  156SOL    HW2 1368   6.491   1.322   0.234
  157SOL     OW 1369   6.035   2.933   6.909
  157SOL    HW1 1370   5.986   2.982   6.981
  157SOL    HW2 1371   6.111   2.882   6.949
  158SOL     OW 1372   1.698   2.522   1.997
  158SOL    HW1 1373   1.609   2.482   2.021
  158SOL    HW2 1374   1.719   2.501   1.901
  159SOL     OW 1375   4.594   4.743   0.920
  159SOL    HW1 1376   4.691   4.741   0.896
  159SOL    HW2 1377   4.583   4.728   1.018
  160SOL     OW 1378   6.595   0.348   0.765
  160SOL    HW1 1379   6.550   0.408   0.831
  160SOL    HW2 1380   6.533   0.329   0.689
  161SOL     OW 1381   1.426   6.317   1.060
  161SOL    HW1 1382   1.333   6.354   1.069
  161SOL    HW2 1383   1.433   6.266   0.975
  162SOL     OW 1384   2.333   6.161   0.325
  162SOL    HW1 1385   2.322   6.191   0.420
  162SOL    HW2 1386   2.407   6.213   0.282
  163SOL     OW 1387   6.813   5.268   3.148
  163SOL    HW1 1388   6.784   5.340   3.211
  163SOL    HW2 1389   6.815   5.305   3.055
  164SOL     OW 1390   1.400   1.779   2.891
  164SOL    HW1 1391   1.374   1.873   2.867
  164SOL    HW2 1392   1.495   1.764   2.866
  165SOL     OW 1393   6.365   5.465   2.568
  165SOL    HW1 1394   6.319   5.530   2.629
  165SOL    HW2 1395   6.300   5.430   2.501
  166SOL     OW 1396   6.364   3.942   1.057
  166SOL    HW1 1397   6.408   3.863   1.101
  166SOL    HW2 1398   6.433   4.010   1.033
  167SOL     OW 1399   5.285   1.975   6.509
  167SOL    HW1 1400   5.226   1.962   6.430
  167SOL    HW2 1401   5.374   2.008   6.480
  168SOL     OW 1402   3.988   2.616   1.707
  168SOL    HW1 1403   4.012   2.521   1.686
  168SOL    HW2 1404   3.892   2.621   1.733
  169SOL     OW 1405   6.239   2.608   0.194
  169SOL    HW1 1406   6.205   2.520   0.225
  169SOL    HW2 1407   6.224   2.677   0.265
  170SOL     OW 1408   0.638   5.778   3.827
  170SOL    HW1 1409   0.691   5.722   3.890
  170SOL    HW2 1410   0.576   5.837   3.879
  171SOL     OW 1411   1.859   3.201   6.886
  171SOL    HW1 1412   1.948   3.245   6.894
  171SOL    HW2 1413   1.849   3.133   6.959
  172SOL     OW 1414   5.611   2.585   2.432
  172SOL    HW1 1415   5.654   2.655   2.488
  172SOL    HW2 1416   5.615   2.497   2.479
  173SOL     OW 1417   5.435   0.894   4.865
  173SOL    HW1 1418   5.453   0.963   4.936
  173SOL    HW2 1419   5.423   0.939   4.777
  174SOL     OW 1420   5.001   5.358   5.184
  174SOL    HW1 1421   5.053   5.439   5.158
  174SOL    HW2 1422   5.032   5.326   5.274
  175SOL     OW 1423   2.751   0.855   0.976
  175SOL    HW1 1424   2.691   0.934   0.973
  175SOL    HW2 1425   2.767   0.822   0.883
  176SOL     OW 1426   4.861   5.315   2.702
  176SOL    HW1 1427   4.850   5.288   2.797
  176SOL    HW2 1428   4.774   5.305   2.654
  177SOL     OW 1429   5.269   2.137   5.576
  177SOL    HW1 1430   5.292   2.054   5.526
  177SOL    HW2 1431   5.315   2.215   5.534
  178SOL     OW 1432   2.575   5.217   4.619
  178SOL    HW1 1433   2.507   5.201   4.691
  178SOL    HW2 1434   2.548   5.167   4.537
  179SOL     OW 1435   4.045   6.215   0.700
  179SOL    HW1 1436   3.988   6.227   0.618
  179SOL    HW2 1437   3.987   6.219   0.781
  180SOL     OW 1438   2.463   6.426   0.092
  180SOL    HW1 1439   2.506   6.461   0.175
  180SOL    HW2 1440   2.516   6.349   0.057
  181SOL     OW 1441   2.981   2.464   5.328
  181SOL    HW1 1442   2.903   2.405   5.307
  181SOL    HW2 1443   3.055   2.445   5.264
  182SOL     OW 1444   4.947   3.555   0.399
  182SOL    HW1 1445   4.870   3.496   0.376
  182SOL    HW2 1446   4.915   3.631   0.457
  183SOL     OW 1447   3.921   2.139   4.269
  183SOL    HW1 1448   3.825   2.112   4.262
  183SOL    HW2 1449   3.950   2.183   4.184
  184SOL     OW 1450   1.023   6.714   3.047
  184SOL    HW1 1451   0.945   6.747   2.994
  184SOL    HW2 1452   1.031   6.767   3.131
  185SOL     OW 1453   1.084   1.943   4.197
  185SOL    HW1 1454   1.161   2.008   4.197
  185SOL    HW2 1455   1.086   1.890   4.113
  186SOL     OW 1456   5.939   5.838   3.998
  186SOL    HW1 1457   5.930   5.739   4.005
  186SOL    HW2 1458   6.025   5.867   4.042
  187SOL     OW 1459   4.763   5.501   2.946
  187SOL    HW1 1460   4.851   5.523   2.904
  187SOL    HW2 1461   4.753   5.401   2.952
  188SOL     OW 1462   1.327   2.281   3.184
  188SOL    HW1 1463   1.342   2.355   3.249
  188SOL    HW2 1464   1.263   2.310   3.114
  189SOL     OW 1465   6.796   5.065   6.464
  189SOL    HW1 1466   6.878   5.083   6.410
  189SOL    HW2 1467   6.730   5.015   6.408
  190SOL     OW 1468   6.590   4.845   6.668
  190SOL    HW1 1469   6.668   4.902   6.694
  190SOL    HW2 1470   6.588   4.835   6.568
  191SOL     OW 1471   6.456   1.717   5.696
  191SOL    HW1 1472   6.476   1.659   5.775
  191SOL    HW2 1473   6.379   1.679   5.645
  192SOL     OW 1474   0.248   4.100   1.237
  192SOL    HW1 1475   0.298   4.139   1.314
  192SOL    HW2 1476   0.271   4.150   1.154
  193SOL     OW 1477   3.825   4.611   6.077
  193SOL    HW1 1478   3.788   4.661   5.999
  193SOL    HW2 1479   3.771   4.528   6.093
  194SOL     OW 1480   4.330   0.158   1.826
  194SOL    HW1 1481   4.392   0.233   1.808
  194SOL    HW2 1482   4.285   0.172   1.915
  195SOL     OW 1483   3.061   0.753   3.183
  195SOL    HW1 1484   3.151   0.768   3.223
  195SOL    HW2 1485   3.060   0.790   3.090
  196SOL     OW 1486   2.828   0.729   6.597
  196SOL    HW1 1487   2.802   0.696   6.688
  196SOL    HW2 1488   2.746   0.762   6.550
  197SOL     OW 1489   2.563   6.067   6.722
  197SOL    HW1 1490   2.511   6.100   6.801
  197SOL    HW2 1491   2.531   6.115   6.640
  198SOL     OW 1492   4.254   6.037   1.010
  198SOL    HW1 1493   4.227   5.956   0.958
  198SOL    HW2 1494   4.192   6.049   1.088
  199SOL     OW 1495   6.550   1.177   2.042
  199SOL    HW1 1496   6.550   1.078   2.030
  199SOL    HW2 1497   6.473   1.203   2.100
  200SOL     OW 1498   1.035   3.516   2.378
  200SOL    HW1 1499   1.077   3.506   2.288
  200SOL    HW2 1500   1.083   3.587   2.430
  201SOL     OW 1501   2.543   6.844   6.851
  201SOL    HW1 1502   2.572   6.929   6.808
  201SOL    HW2 1503   2.457   6.813   6.809
  202SOL     OW 1504   4.982   0.177   5.206
  202SOL    HW1 1505   4.931   0.256   5.173
  202SOL    HW2 1506   5.056   0.208   5.266
  203SOL     OW 1507   4.869   2.506   5.714
  203SOL    HW1 1508   4.955   2.546   5.683
  203SOL    HW2 1509   4.830   2.562   5.787
  204SOL     OW 1510   1.338   6.742   0.083
  204SOL    HW1 1511   1.432   6.708   0.086
  204SOL    HW2 1512   1.315   6.783   0.171
  205SOL     OW 1513   0.612   1.883   1.521
  205SOL    HW1 1514   0.578   1.821   1.450
  205SOL    HW2 1515   0.712   1.878   1.525
  206SOL     OW 1516   0.382   4.634   1.592
  206SOL    HW1 1517   0.341   4.587   1.514
  206SOL    HW2 1518   0.361   4.731   1.587
  207SOL     OW 1519   4.169   0.275   5.134
  207SOL    HW1 1520   4.221   0.359   5.121
  207SOL    HW2 1521   4.071   0.297   5.140
  208SOL     OW 1522   5.235   4.304   5.669
  208SOL    HW1 1523   5.318   4.256   5.641
  208SOL    HW2 1524   5.243   4.333   5.764
  209SOL     OW 1525   0.549   5.948   5.363
  209SOL    HW1 1526   0.603   5.938   5.447
  209SOL    HW2 1527   0.538   6.046   5.343
  210SOL     OW 1528   4.393   2.357   2.179
  210SOL    HW1 1529   4.426   2.447   2.152
  210SOL    HW2 1530   4.317   2.330   2.120
  211SOL     OW 1531   0.970   0.399   3.032
  211SOL    HW1 1532   0.906   0.474   3.043
  211SOL    HW2 1533   1.064   0.434   3.037
  212SOL     OW 1534   1.983   4.918   2.477
  212SOL    HW1 1535   2.028   4.970   2.550
  212SOL    HW2 1536   1.887   4.904   2.499
  213SOL     OW 1537   4.650   1.021   6.319
  213SOL    HW1 1538   4.625   1.052   6.227
  213SOL    HW2 1539   4.749   1.007   6.324
  214SOL     OW 1540   1.991   6.096   3.066
  214SOL    HW1 1541   2.071   6.103   3.007
  214SOL    HW2 1542   1.941   6.011   3.046
  215SOL     OW 1543   3.594   3.648   1.849
  215SOL    HW1 1544   3.517   3.705   1.878
  215SOL    HW2 1545   3.567   3.594   1.770
  216SOL     OW 1546   1.663   0.180   5.145
  216SOL    HW1 1547   1.697   0.269   5.174
  216SOL    HW2 1548   1.600   0.144   5.213
  217SOL     OW 1549   1.526   2.907   4.093
  217SOL    HW1 1550   1.496   2.862   4.009
  217SOL    HW2 1551   1.549   3.002   4.074
  218SOL     OW 1552   1.514   2.693   4.726
  218SOL    HW1 1553   1.516   2.753   4.646
  218SOL    HW2 1554   1.460   2.736   4.799
  219SOL     OW 1555   3.344   4.261   6.284
  219SOL    HW1 1556   3.390   4.344   6.313
  219SOL    HW2 1557   3.322   4.268   6.186
  220SOL     OW 1558   3.061   5.646   0.006
  220SOL    HW1 1559   3.074   5.714   6.962
  220SOL    HW2 1560   3.109   5.562   7.008
  221SOL     OW 1561   5.344   4.007   3.228
  221SOL    HW1 1562   5.400   3.981   3.150
  221SOL    HW2 1563   5.378   4.093   3.266
  222SOL     OW 1564   1.628   5.288   5.491
  222SOL    HW1 1565   1.529   5.290   5.501
  222SOL    HW2 1566   1.657   5.366   5.435
  223SOL     OW 1567   0.599   3.237   1.239
  223SOL    HW1 1568   0.602   3.334   1.217
  223SOL    HW2 1569   0.585   3.184   1.156
  224SOL     OW 1570   2.671   2.305   3.576
  224SOL    HW1 1571   2.660   2.307   3.676
  224SOL    HW2 1572   2.606   2.368   3.535
  225SOL     OW 1573   5.637   0.874   6.472
  225SOL    HW1 1574   5.720   0.901   6.423
  225SOL    HW2 1575   5.563   0.858   6.406
  226SOL     OW 1576   0.891   6.901   0.209
  226SOL    HW1 1577   0.818   6.968   0.199
  226SOL    HW2 1578   0.947   6.899   0.126
  227SOL     OW 1579   1.027   4.266   3.603
  227SOL    HW1 1580   1.022   4.307   3.512
  227SOL    HW2 1581   0.935   4.242   3.634
  228SOL     OW 1582   3.724   0.312   4.749
  228SOL    HW1 1583   3.728   0.410   4.765
  228SOL    HW2 1584   3.654   0.272   4.809
  229SOL     OW 1585   6.180   5.941   1.324
  229SOL    HW1 1586   6.109   5.998   1.365
  229SOL    HW2 1587   6.263   5.948   1.379
  230SOL     OW 1588   2.240   4.627   3.481
  230SOL    HW1 1589   2.329   4.603   3.521
  230SOL    HW2 1590   2.176   4.650   3.555
  231SOL     OW 1591   6.054   2.816   5.939
  231SOL    HW1 1592   6.113   2.829   5.860
  231SOL    HW2 1593   5.961   2.796   5.908
  232SOL     OW 1594   0.881   4.244   5.839
  232SOL    HW1 1595   0.902   4.340   5.859
  232SOL    HW2 1596   0.870   4.194   5.924
  233SOL     OW 1597   2.070   0.432   4.920
  233SOL    HW1 1598   2.156   0.384   4.936
  233SOL    HW2 1599   2.084   0.530   4.930
  234SOL     OW 1600   2.632   5.424   6.095
  234SOL    HW1 1601   2.564   5.355   6.120
  234SOL    HW2 1602   2.710   5.379   6.051
  235SOL     OW 1603   3.793   3.044   2.764
  235SOL    HW1 1604   3.743   2.996   2.836
  235SOL    HW2 1605   3.874   3.086   2.803
  236SOL     OW 1606   6.793   3.189   6.920
  236SOL    HW1 1607   6.787   3.280   6.960
  236SOL    HW2 1608   6.766   3.121   6.988
  237SOL     OW 1609   0.846   6.685   0.631
  237SOL    HW1 1610   0.852   6.738   0.716
  237SOL    HW2 1611   0.874   6.591   0.649
  238SOL     OW 1612   6.048   2.983   1.115
  238SOL    HW1 1613   6.008   2.934   1.038
  238SOL    HW2 1614   6.144   2.956   1.126
  239SOL     OW 1615   6.524   4.916   6.994
  239SOL    HW1 1616   6.488   4.878   6.909
  239SOL    HW2 1617   6.500   4.855   0.042
  240SOL     OW 1618   0.685   3.360   6.130
  240SOL    HW1 1619   0.777   3.348   6.091
  240SOL    HW2 1620   0.683   3.320   6.222
  241SOL     OW 1621   1.058   0.733   3.595
  241SOL    HW1 1622   0.998   0.679   3.535
  241SOL    HW2 1623   1.008   0.812   3.631
  242SOL     OW 1624   1.315   2.598   5.362
  242SOL    HW1 1625   1.272   2.683   5.332
  242SOL    HW2 1626   1.276   2.570   5.450
  243SOL     OW 1627   4.654   0.256   6.076
  243SOL    HW1 1628   4.589   0.233   6.004
  243SOL    HW2 1629   4.711   0.332   6.046
  244SOL     OW 1630   4.563   2.513   4.414
  244SOL    HW1 1631   4.478   2.510   4.362
  244SOL    HW2 1632   4.610   2.599   4.395
  245SOL     OW 1633   6.503   2.409   4.577
  245SOL    HW1 1634   6.509   2.436   4.673
  245SOL    HW2 1635   6.541   2.481   4.519
  246SOL     OW 1636   5.096   3.946   3.685
  246SOL    HW1 1637   5.049   4.031   3.708
  246SOL    HW2 1638   5.195   3.963   3.679
  247SOL     OW 1639   2.528   1.854   3.229
  247SOL    HW1 1640   2.578   1.918   3.287
  247SOL    HW2 1641   2.587   1.826   3.153
  248SOL     OW 1642   4.383   2.006   4.338
  248SOL    HW1 1643   4.404   2.068   4.263
  248SOL    HW2 1644   4.426   2.040   4.422
  249SOL     OW 1645   3.064   6.481   4.839
  249SOL    HW1 1646   3.030   6.428   4.917
  249SOL    HW2 1647   2.988   6.533   4.799
  250SOL     OW 1648   5.377   1.667   5.631
  250SOL    HW1 1649   5.338   1.664   5.724
  250SOL    HW2 1650   5.400   1.574   5.603
  251SOL     OW 1651   4.335   3.417   6.251
  251SOL    HW1 1652   4.386   3.432   6.335
  251SOL    HW2 1653   4.239   3.400   6.272
  252SOL     OW 1654   0.292   1.088   5.582
  252SOL    HW1 1655   0.279   1.181   5.615
  252SOL    HW2 1656   0.386   1.077   5.549
  253SOL     OW 1657   1.881   3.699   0.822
  253SOL    HW1 1658   1.875   3.774   0.887
  253SOL    HW2 1659   1.803   3.701   0.761
  254SOL     OW 1660   6.506   2.612   4.409
  254SOL    HW1 1661   6.471   2.628   4.316
  254SOL    HW2 1662   6.442   2.650   4.475
  255SOL     OW 1663   3.196   1.499   4.082
  255SOL    HW1 1664   3.140   1.535   4.007
  255SOL    HW2 1665   3.164   1.537   4.169
  256SOL     OW 1666   6.897   5.239   6.918
  256SOL    HW1 1667   6.857   5.330   6.932
  256SOL    HW2 1668   6.926   5.229   6.823
  257SOL     OW 1669   3.202   5.563   5.487
  257SOL    HW1 1670   3.187   5.519   5.399
  257SOL    HW2 1671   3.187   5.662   5.478
  258SOL     OW 1672   5.253   4.143   4.880
  258SOL    HW1 1673   5.244   4.050   4.843
  258SOL    HW2 1674   5.221   4.144   4.974
  259SOL     OW 1675   1.074   2.971   2.523
  259SOL    HW1 1676   1.109   3.048   2.471
  259SOL    HW2 1677   1.149   2.909   2.547
  260SOL     OW 1678   4.881   0.276   0.194
  260SOL    HW1 1679   4.856   0.368   0.222
  260SOL    HW2 1680   4.866   0.213   0.270
  261SOL     OW 1681   0.604   3.511   1.276
  261SOL    HW1 1682   0.664   3.590   1.268
  261SOL    HW2 1683   0.581   3.496   1.372
  262SOL     OW 1684   0.744   3.426   2.675
  262SOL    HW1 1685   0.648   3.399   2.680
  262SOL    HW2 1686   0.802   3.348   2.700
  263SOL     OW 1687   6.940   2.046   4.477
  263SOL    HW1 1688   6.944   2.093   4.565
  263SOL    HW2 1689   6.860   1.986   4.475
  264SOL     OW 1690   0.231   3.443   5.537
  264SOL    HW1 1691   0.314   3.471   5.586
  264SOL    HW2 1692   0.220   3.344   5.543
  265SOL     OW 1693   4.689   4.464   3.766
  265SOL    HW1 1694   4.771   4.521   3.761
  265SOL    HW2 1695   4.686   4.418   3.855
  266SOL     OW 1696   3.645   2.091   6.789
  266SOL    HW1 1697   3.584   2.170   6.787
  266SOL    HW2 1698   3.602   2.016   6.840
  267SOL     OW 1699   1.635   2.447   0.460
  267SOL    HW1 1700   1.694   2.417   0.385
  267SOL    HW2 1701   1.691   2.462   0.542
  268SOL     OW 1702   4.538   4.817   4.925
  268SOL    HW1 1703   4.474   4.855   4.992
  268SOL    HW2 1704   4.492   4.810   4.836
  269SOL     OW 1705   1.717   1.487   6.490
  269SOL    HW1 1706   1.627   1.448   6.473
  269SOL    HW2 1707   1.706   1.575   6.536
  270SOL     OW 1708   5.268   1.063   2.238
  270SOL    HW1 1709   5.202   1.004   2.191
  270SOL    HW2 1710   5.320   1.008   2.304
  271SOL     OW 1711   2.253   1.097   1.073
  271SOL    HW1 1712   2.315   1.021   1.057
  271SOL    HW2 1713   2.304   1.176   1.107
  272SOL     OW 1714   4.066   5.368   4.462
  272SOL    HW1 1715   4.156   5.332   4.488
  272SOL    HW2 1716   4.063   5.466   4.482
  273SOL     OW 1717   1.053   5.319   5.414
  273SOL    HW1 1718   1.130   5.256   5.428
  273SOL    HW2 1719   1.074   5.407   5.457
  274SOL     OW 1720   4.847   3.027   3.394
  274SOL    HW1 1721   4.784   3.037   3.317
  274SOL    HW2 1722   4.922   2.966   3.368
  275SOL     OW 1723   0.360   5.678   6.393
  275SOL    HW1 1724   0.447   5.680   6.344
  275SOL    HW2 1725   0.310   5.762   6.374
  276SOL     OW 1726   6.815   5.495   4.181
  276SOL    HW1 1727   6.853   5.547   4.105
  276SOL    HW2 1728   6.794   5.402   4.151
  277SOL     OW 1729   2.761   0.696   6.002
  277SOL    HW1 1730   2.707   0.753   6.064
  277SOL    HW2 1731   2.858   0.705   6.024
  278SOL     OW 1732   5.185   4.613   2.906
  278SOL    HW1 1733   5.140   4.567   2.830
  278SOL    HW2 1734   5.118   4.638   2.975
  279SOL     OW 1735   6.536   3.263   3.895
  279SOL    HW1 1736   6.440   3.235   3.901
  279SOL    HW2 1737   6.593   3.182   3.881
  280SOL     OW 1738   4.613   6.407   3.920
  280SOL    HW1 1739   4.635   6.324   3.868
  280SOL    HW2 1740   4.693   6.433   3.975
  281SOL     OW 1741   3.714   5.336   4.000
  281SOL    HW1 1742   3.738   5.239   3.993
  281SOL    HW2 1743   3.796   5.391   3.991
  282SOL     OW 1744   4.085   1.365   5.957
  282SOL    HW1 1745   4.036   1.451   5.942
  282SOL    HW2 1746   4.019   1.289   5.960
  283SOL     OW 1747   5.972   0.218   4.968
  283SOL    HW1 1748   5.984   0.120   4.950
  283SOL    HW2 1749   5.965   0.267   4.881
  284SOL     OW 1750   0.738   4.797   4.216
  284SOL    HW1 1751   0.738   4.895   4.238
  284SOL    HW2 1752   0.755   4.744   4.299
  285SOL     OW 1753   6.085   0.062   0.253
  285SOL    HW1 1754   6.107   0.156   0.278
  285SOL    HW2 1755   5.997   0.036   0.295
  286SOL     OW 1756   3.385   5.173   5.020
  286SOL    HW1 1757   3.452   5.131   5.082
  286SOL    HW2 1758   3.377   5.118   4.938
  287SOL     OW 1759   1.534   5.892   6.247
  287SOL    HW1 1760   1.557   5.988   6.258
  287SOL    HW2 1761   1.451   5.870   6.298
  288SOL     OW 1762   4.040   0.645   1.293
  288SOL    HW1 1763   3.983   0.567   1.269
  288SOL    HW2 1764   4.066   0.640   1.389
  289SOL     OW 1765   1.398   5.047   5.961
  289SOL    HW1 1766   1.300   5.028   5.963
  289SOL    HW2 1767   1.417   5.134   6.006
  290SOL     OW 1768   4.138   0.176   2.921
  290SOL    HW1 1769   4.109   0.086   2.953
  290SOL    HW2 1770   4.236   0.188   2.937
  291SOL     OW 1771   3.835   0.722   4.265
  291SOL    HW1 1772   3.929   0.748   4.285
  291SOL    HW2 1773   3.781   0.803   4.243
  292SOL     OW 1774   4.070   0.522   3.818
  292SOL    HW1 1775   4.057   0.428   3.786
  292SOL    HW2 1776   4.049   0.528   3.916
  293SOL     OW 1777   4.669   6.518   2.655
  293SOL    HW1 1778   4.734   6.542   2.728
  293SOL    HW2 1779   4.589   6.474   2.696
  294SOL     OW 1780   5.646   6.213   5.833
  294SOL    HW1 1781   5.738   6.197   5.796
  294SOL    HW2 1782   5.637   6.309   5.859
  295SOL     OW 1783   1.012   2.595   5.254
  295SOL    HW1 1784   0.935   2.537   5.229
  295SOL    HW2 1785   1.022   2.595   5.354
  296SOL     OW 1786   6.069   1.426   1.130
  296SOL    HW1 1787   6.075   1.363   1.207
  296SOL    HW2 1788   6.137   1.499   1.141
  297SOL     OW 1789   5.129   5.346   3.403
  297SOL    HW1 1790   5.111   5.273   3.469
  297SOL    HW2 1791   5.206   5.401   3.435
  298SOL     OW 1792   4.246   0.614   0.939
  298SOL    HW1 1793   4.266   0.554   1.017
  298SOL    HW2 1794   4.162   0.583   0.894
  299SOL     OW 1795   3.590   1.836   0.541
  299SOL    HW1 1796   3.621   1.887   0.622
  299SOL    HW2 1797   3.637   1.872   0.460
  300SOL     OW 1798   3.115   1.180   2.532
  300SOL    HW1 1799   3.045   1.250   2.547
  300SOL    HW2 1800   3.093   1.126   2.451
  301SOL     OW 1801   4.945   6.710   1.657
  301SOL    HW1 1802   4.933   6.703   1.558
  301SOL    HW2 1803   4.982   6.800   1.680
  302SOL     OW 1804   0.289   6.886   1.545
  302SOL    HW1 1805   0.351   6.890   1.623
  302SOL    HW2 1806   0.321   6.818   1.479
  303SOL     OW 1807   5.710   6.001   1.990
  303SOL    HW1 1808   5.802   6.038   1.980
  303SOL    HW2 1809   5.695   5.970   2.084
  304SOL     OW 1810   1.537   6.683   5.676
  304SOL    HW1 1811   1.546   6.585   5.691
  304SOL    HW2 1812   1.622   6.719   5.638
  305SOL     OW 1813   1.551   3.370   1.192
  305SOL    HW1 1814   1.518   3.441   1.130
  305SOL    HW2 1815   1.649   3.382   1.208
  306SOL     OW 1816   0.513   0.776   2.226
  306SOL    HW1 1817   0.540   0.869   2.249
  306SOL    HW2 1818   0.573   0.741   2.154
  307SOL     OW 1819   3.388   3.883   0.694
  307SOL    HW1 1820   3.291   3.903   0.682
  307SOL    HW2 1821   3.406   3.787   0.672
  308SOL     OW 1822   5.858   2.863   4.895
  308SOL    HW1 1823   5.850   2.959   4.866
  308SOL    HW2 1824   5.855   2.804   4.815
  309SOL     OW 1825   1.067   6.472   6.792
  309SOL    HW1 1826   1.099   6.524   6.713
  309SOL    HW2 1827   1.094   6.518   6.876
  310SOL     OW 1828   5.964   6.389   4.324
  310SOL    HW1 1829   6.021   6.450   4.270
  310SOL    HW2 1830   5.991   6.393   4.420
  311SOL     OW 1831   2.477   4.873   2.443
  311SOL    HW1 1832   2.525   4.786   2.454
  311SOL    HW2 1833   2.541   4.943   2.411
  312SOL     OW 1834   4.422   2.378   3.713
  312SOL    HW1 1835   4.445   2.381   3.616
  312SOL    HW2 1836   4.495   2.420   3.767
  313SOL     OW 1837   3.300   3.962   2.557
  313SOL    HW1 1838   3.289   4.061   2.564
  313SOL    HW2 1839   3.217   3.922   2.518
  314SOL     OW 1840   1.708   5.663   5.711
  314SOL    HW1 1841   1.761   5.610   5.646
  314SOL    HW2 1842   1.651   5.729   5.661
  315SOL     OW 1843   0.342   1.646   3.215
  315SOL    HW1 1844   0.275   1.637   3.289
  315SOL    HW2 1845   0.354   1.743   3.192
  316SOL     OW 1846   4.514   1.505   4.612
  316SOL    HW1 1847   4.438   1.570   4.608
  316SOL    HW2 1848   4.597   1.553   4.641
  317SOL     OW 1849   1.491   1.645   1.974
  317SOL    HW1 1850   1.416   1.637   1.908
  317SOL    HW2 1851   1.458   1.619   2.065
  318SOL     OW 1852   6.621   0.370   6.148
  318SOL    HW1 1853   6.525   0.396   6.143
  318SOL    HW2 1854   6.633   0.300   6.218
  319SOL     OW 1855   6.796   2.218   3.097
  319SOL    HW1 1856   6.776   2.162   3.177
  319SOL    HW2 1857   6.887   2.194   3.062
  320SOL     OW 1858   6.280   2.331   6.948
  320SOL    HW1 1859   6.207   2.380   6.996
  320SOL    HW2 1860   6.242   2.252   6.900
  321SOL     OW 1861   3.656   2.700   0.545
  321SOL    HW1 1862   3.745   2.710   0.502
  321SOL    HW2 1863   3.590   2.666   0.477
  322SOL     OW 1864   3.765   2.982   4.804
  322SOL    HW1 1865   3.702   2.937   4.867
  322SOL    HW2 1866   3.718   3.056   4.757
  323SOL     OW 1867   1.258   2.482   4.038
  323SOL    HW1 1868   1.203   2.401   4.021
  323SOL    HW2 1869   1.255   2.505   4.135
  324SOL     OW 1870   2.032   6.854   3.516
  324SOL    HW1 1871   1.949   6.801   3.534
  324SOL    HW2 1872   2.035   6.932   3.579
  325SOL     OW 1873   1.409   3.621   2.583
  325SOL    HW1 1874   1.355   3.662   2.509
  325SOL    HW2 1875   1.485   3.682   2.606
  326SOL     OW 1876   1.614   4.167   5.937
  326SOL    HW1 1877   1.645   4.231   5.866
  326SOL    HW2 1878   1.685   4.159   6.008
  327SOL     OW 1879   2.645   4.654   2.438
  327SOL    HW1 1880   2.680   4.694   2.353
  327SOL    HW2 1881   2.617   4.560   2.421
  328SOL     OW 1882   2.104   4.654   1.450
  328SOL    HW1 1883   2.086   4.604   1.534
  328SOL    HW2 1884   2.202   4.671   1.441
  329SOL     OW 1885   2.782   4.015   6.473
  329SOL    HW1 1886   2.879   4.031   6.491
  329SOL    HW2 1887   2.741   3.967   6.550
  330SOL     OW 1888   3.866   6.234   0.481
  330SOL    HW1 1889   3.779   6.252   0.436
  330SOL    HW2 1890   3.932   6.199   0.415
  331SOL     OW 1891   5.386   4.795   1.175
  331SOL    HW1 1892   5.370   4.854   1.097
  331SOL    HW2 1893   5.474   4.749   1.165
  332SOL     OW 1894   5.655   2.095   3.925
  332SOL    HW1 1895   5.642   1.998   3.945
  332SOL    HW2 1896   5.586   2.125   3.859
  333SOL     OW 1897   4.268   0.518   5.079
  333SOL    HW1 1898   4.308   0.541   4.990
  333SOL    HW2 1899   4.186   0.574   5.094
  334SOL     OW 1900   3.978   3.037   1.372
  334SOL    HW1 1901   3.881   3.026   1.353
  334SOL    HW2 1902   4.009   2.963   1.431
  335SOL     OW 1903   4.668   0.510   6.733
  335SOL    HW1 1904   4.603   0.443   6.697
  335SOL    HW2 1905   4.762   0.478   6.716
  336SOL     OW 1906   2.625   1.805   2.959
  336SOL    HW1 1907   2.562   1.864   2.908
  336SOL    HW2 1908   2.696   1.771   2.898
  337SOL     OW 1909   1.306   2.866   5.839
  337SOL    HW1 1910   1.212   2.843   5.814
  337SOL    HW2 1911   1.357   2.889   5.756
  338SOL     OW 1912   3.750   3.633   0.803
  338SOL    HW1 1913   3.681   3.619   0.732
  338SOL    HW2 1914   3.731   3.572   0.880
  339SOL     OW 1915   4.087   4.832   4.397
  339SOL    HW1 1916   4.016   4.896   4.369
  339SOL    HW2 1917   4.129   4.864   4.482
  340SOL     OW 1918   4.894   3.417   5.262
  340SOL    HW1 1919   4.968   3.356   5.231
  340SOL    HW2 1920   4.852   3.461   5.183
  341SOL     OW 1921   5.984   6.044   4.345
  341SOL    HW1 1922   5.924   6.105   4.396
  341SOL    HW2 1923   5.928   5.976   4.296
  342SOL     OW 1924   4.871   3.185   0.890
  342SOL    HW1 1925   4.889   3.270   0.940
  342SOL    HW2 1926   4.781   3.191   0.847
  343SOL     OW 1927   0.067   6.608   2.149
  343SOL    HW1 1928   0.065   6.662   2.066
  343SOL    HW2 1929   0.008   6.650   2.218
  344SOL     OW 1930   1.276   2.272   1.918
  344SOL    HW1 1931   1.318   2.358   1.889
  344SOL    HW2 1932   1.180   2.270   1.891
  345SOL     OW 1933   6.310   2.009   3.964
  345SOL    HW1 1934   6.334   2.018   3.867
  345SOL    HW2 1935   6.213   2.027   3.976
  346SOL     OW 1936   1.809   0.328   2.484
  346SOL    HW1 1937   1.890   0.314   2.541
  346SOL    HW2 1938   1.761   0.411   2.514
  347SOL     OW 1939   2.853   5.938   6.964
  347SOL    HW1 1940   2.882   6.023   6.920
  347SOL    HW2 1941   2.837   5.954   0.032
  348SOL     OW 1942   4.815   5.201   2.927
  348SOL    HW1 1943   4.894   5.140   2.924
  348SOL    HW2 1944   4.737   5.153   2.969
  349SOL     OW 1945   6.811   4.377   2.496
  349SOL    HW1 1946   6.871   4.439   2.444
  349SOL    HW2 1947   6.833   4.385   2.593
  350SOL     OW 1948   2.861   2.852   0.427
  350SOL    HW1 1949   2.911   2.934   0.400
  350SOL    HW2 1950   2.766   2.860   0.399
  351SOL     OW 1951   2.962   3.345   0.619
  351SOL    HW1 1952   3.049   3.391   0.600
  351SOL    HW2 1953   2.959   3.319   0.715
  352SOL     OW 1954   3.528   6.416   3.665
  352SOL    HW1 1955   3.506   6.493   3.724
  352SOL    HW2 1956   3.514   6.331   3.716
  353SOL     OW 1957   3.048   0.443   6.319
  353SOL    HW1 1958   3.114   0.464   6.391
  353SOL    HW2 1959   2.990   0.523   6.302
  354SOL     OW 1960   4.659   2.811   0.795
  354SOL    HW1 1961   4.578   2.857   0.832
  354SOL    HW2 1962   4.638   2.774   0.705
  355SOL     OW 1963   1.875   3.661   2.367
  355SOL    HW1 1964   1.836   3.742   2.411
  355SOL    HW2 1965   1.805   3.591   2.356
  356SOL     OW 1966   1.855   0.865   4.432
  356SOL    HW1 1967   1.864   0.794   4.362
  356SOL    HW2 1968   1.823   0.823   4.517
  357SOL     OW 1969   0.213   6.330   4.541
  357SOL    HW1 1970   0.276   6.399   4.507
  357SOL    HW2 1971   0.264   6.252   4.577
  358SOL     OW 1972   4.635   6.450   0.643
  358SOL    HW1 1973   4.684   6.536   0.658
  358SOL    HW2 1974   4.598   6.448   0.550
  359SOL     OW 1975   3.209   1.030   2.045
  359SOL    HW1 1976   3.241   1.125   2.040
  359SOL    HW2 1977   3.228   0.983   1.959
  360SOL     OW 1978   1.380   4.216   4.193
  360SOL    HW1 1979   1.369   4.146   4.265
  360SOL    HW2 1980   1.416   4.173   4.111
  361SOL     OW 1981   6.999   6.075   2.972
  361SOL    HW1 1982   6.942   6.153   3.001
  361SOL    HW2 1983   6.940   5.998   2.948
  362SOL     OW 1984   3.393   3.280   0.823
  362SOL    HW1 1985   3.460   3.215   0.859
  362SOL    HW2 1986   3.335   3.313   0.898
  363SOL     OW 1987   6.060   4.920   3.036
  363SOL    HW1 1988   6.076   4.937   2.939
  363SOL    HW2 1989   5.961   4.909   3.052
  364SOL     OW 1990   0.025   5.190   6.663
  364SOL    HW1 1991   0.039   5.213   6.567
  364SOL    HW2 1992   7.019   5.096   6.670
  365SOL     OW 1993   4.232   0.844   1.369
  365SOL    HW1 1994   4.141   0.812   1.340
  365SOL    HW2 1995   4.229   0.942   1.388
  366SOL     OW 1996   5.583   2.539   0.303
  366SOL    HW1 1997   5.554   2.581   0.217
  366SOL    HW2 1998   5.664   2.483   0.288
  367SOL     OW 1999   5.994   2.590   6.627
  367SOL    HW1 2000   5.983   2.505   6.678
  367SOL    HW2 2001   6.084   2.590   6.582
  368SOL     OW 2002   6.966   2.645   5.735
  368SOL    HW1 2003   6.976   2.546   5.748
  368SOL    HW2 2004   6.989   2.669   5.641
  369SOL     OW 2005   5.844   4.494   2.991
  369SOL    HW1 2006   5.833   4.419   2.925
  369SOL    HW2 2007   5.939   4.524   2.991
  370SOL     OW 2008   0.818   2.154   3.954
  370SOL    HW1 2009   0.854   2.128   3.864
  370SOL    HW2 2010   0.794   2.071   4.005
  371SOL     OW 2011   1.924   4.298   6.788
  371SOL    HW1 2012   1.922   4.367   6.715
  371SOL    HW2 2013   1.833   4.288   6.827
  372SOL     OW 2014   1.832   6.746   5.234
  372SOL    HW1 2015   1.865   6.673   5.294
  372SOL    HW2 2016   1.825   6.831   5.286
  373SOL     OW 2017   5.367   6.183   5.232
  373SOL    HW1 2018   5.384   6.221   5.322
  373SOL    HW2 2019   5.292   6.117   5.237
  374SOL     OW 2020   2.506   2.457   3.316
  374SOL    HW1 2021   2.474   2.380   3.260
  374SOL    HW2 2022   2.605   2.451   3.327
  375SOL     OW 2023   1.190   4.662   4.307
  375SOL    HW1 2024   1.213   4.737   4.369
  375SOL    HW2 2025   1.093   4.668   4.282
  376SOL     OW 2026   1.377   1.817   5.118
  376SOL    HW1 2027   1.458   1.810   5.060
  376SOL    HW2 2028   1.312   1.880   5.077
  377SOL     OW 2029   1.987   2.373   6.889
  377SOL    HW1 2030   1.917   2.302   6.893
  377SOL    HW2 2031   2.037   2.376   6.976
  378SOL     OW 2032   3.890   1.621   0.271
  378SOL    HW1 2033   3.938   1.703   0.302
  378SOL    HW2 2034   3.946   1.541   0.289
  379SOL     OW 2035   5.197   2.499   6.864
  379SOL    HW1 2036   5.108   2.543   6.846
  379SOL    HW2 2037   5.234   2.532   6.951
  380SOL     OW 2038   3.513   0.970   1.198
  380SOL    HW1 2039   3.482   0.941   1.288
  380SOL    HW2 2040   3.612   0.954   1.190
  381SOL     OW 2041   1.506   3.936   3.692
  381SOL    HW1 2042   1.576   3.980   3.637
  381SOL    HW2 2043   1.515   3.837   3.686
  382SOL     OW 2044   5.895   0.612   6.737
  382SOL    HW1 2045   5.846   0.584   6.654
  382SOL    HW2 2046   5.989   0.578   6.733
  383SOL     OW 2047   4.130   3.729   0.347
  383SOL    HW1 2048   4.201   3.768   0.406
  383SOL    HW2 2049   4.066   3.676   0.403
  384SOL     OW 2050   0.044   5.235   4.585
  384SOL    HW1 2051   0.112   5.183   4.532
  384SOL    HW2 2052   0.003   5.304   4.526
  385SOL     OW 2053   3.382   5.851   6.048
  385SOL    HW1 2054   3.297   5.902   6.036
  385SOL    HW2 2055   3.372   5.760   6.008
  386SOL     OW 2056   3.420   0.337   4.527
  386SOL    HW1 2057   3.417   0.346   4.627
  386SOL    HW2 2058   3.459   0.420   4.487
  387SOL     OW 2059   0.804   5.727   2.195
  387SOL    HW1 2060   0.722   5.701   2.144
  387SOL    HW2 2061   0.885   5.706   2.140
  388SOL     OW 2062   1.982   2.084   6.585
  388SOL    HW1 2063   1.922   2.155   6.549
  388SOL    HW2 2064   2.069   2.126   6.615
  389SOL     OW 2065   3.330   3.653   2.365
  389SOL    HW1 2066   3.414   3.696   2.333
  389SOL    HW2 2067   3.350   3.562   2.401
  390SOL     OW 2068   3.268   0.519   3.737
  390SOL    HW1 2069   3.184   0.534   3.789
  390SOL    HW2 2070   3.247   0.521   3.639
  391SOL     OW 2071   2.239   2.532   6.160
  391SOL    HW1 2072   2.184   2.518   6.242
  391SOL    HW2 2073   2.179   2.557   6.084
  392SOL     OW 2074   1.478   4.339   0.232
  392SOL    HW1 2075   1.533   4.268   0.189
  392SOL    HW2 2076   1.476   4.325   0.331
  393SOL     OW 2077   0.598   4.810   6.479
  393SOL    HW1 2078   0.580   4.808   6.381
  393SOL    HW2 2079   0.682   4.759   6.499
  394SOL     OW 2080   0.362   0.675   6.682
  394SOL    HW1 2081   0.366   0.769   6.716
  394SOL    HW2 2082   0.301   0.621   6.740
  395SOL     OW 2083   4.844   4.006   3.321
  395SOL    HW1 2084   4.913   4.072   3.290
  395SOL    HW2 2085   4.768   4.055   3.363
  396SOL     OW 2086   4.049   3.873   1.928
  396SOL    HW1 2087   3.988   3.802   1.892
  396SOL    HW2 2088   4.045   3.953   1.869
  397SOL     OW 2089   4.136   2.488   5.656
  397SOL    HW1 2090   4.039   2.478   5.678
  397SOL    HW2 2091   4.190   2.471   5.738
  398SOL     OW 2092   0.530   6.259   2.526
  398SOL    HW1 2093   0.528   6.248   2.626
  398SOL    HW2 2094   0.614   6.218   2.490
  399SOL     OW 2095   5.452   6.407   3.152
  399SOL    HW1 2096   5.416   6.340   3.086
  399SOL    HW2 2097   5.450   6.498   3.111
  400SOL     OW 2098   5.942   6.641   5.439
  400SOL    HW1 2099   5.863   6.581   5.425
  400SOL    HW2 2100   5.915   6.717   5.499
  401SOL     OW 2101   5.063   0.891   5.107
  401SOL    HW1 2102   5.083   0.830   5.184
  401SOL    HW2 2103   5.120   0.865   5.029
  402SOL     OW 2104   6.111   0.457   3.225
  402SOL    HW1 2105   6.028   0.403   3.208
  402SOL    HW2 2106   6.162   0.417   3.301
  403SOL     OW 2107   4.456   2.137   4.762
  403SOL    HW1 2108   4.361   2.155   4.789
  403SOL    HW2 2109   4.517   2.192   4.818
  404SOL     OW 2110   1.506   6.024   4.156
  404SOL    HW1 2111   1.547   5.933   4.147
  404SOL    HW2 2112   1.422   6.028   4.102
  405SOL     OW 2113   1.765   3.868   1.875
  405SOL    HW1 2114   1.752   3.826   1.965
  405SOL    HW2 2115   1.863   3.870   1.853
  406SOL     OW 2116   0.704   3.998   4.020
  406SOL    HW1 2117   0.768   4.071   4.043
  406SOL    HW2 2118   0.618   4.013   4.068
  407SOL     OW 2119   2.030   0.331   3.524
  407SOL    HW1 2120   1.984   0.280   3.451
  407SOL    HW2 2121   1.990   0.422   3.532
  408SOL     OW 2122   0.751   2.126   3.212
  408SOL    HW1 2123   0.704   2.122   3.124
  408SOL    HW2 2124   0.720   2.207   3.262
  409SOL     OW 2125   6.102   2.627   0.944
  409SOL    HW1 2126   6.060   2.664   0.862
  409SOL    HW2 2127   6.071   2.533   0.959
  410SOL     OW 2128   1.625   0.722   0.407
  410SOL    HW1 2129   1.585   0.639   0.369
  410SOL    HW2 2130   1.694   0.698   0.475
  411SOL     OW 2131   5.428   6.763   6.618
  411SOL    HW1 2132   5.422   6.855   6.656
  411SOL    HW2 2133   5.423   6.767   6.519
  412SOL     OW 2134   5.485   6.486   3.562
  412SOL    HW1 2135   5.429   6.428   3.503
  412SOL    HW2 2136   5.448   6.485   3.655
  413SOL     OW 2137   5.504   5.413   1.958
  413SOL    HW1 2138   5.571   5.340   1.948
  413SOL    HW2 2139   5.459   5.406   2.047
  414SOL     OW 2140   3.782   4.888   3.656
  414SOL    HW1 2141   3.867   4.874   3.707
  414SOL    HW2 2142   3.802   4.893   3.558
  415SOL     OW 2143   0.959   5.968   6.631
  415SOL    HW1 2144   0.975   6.005   6.540
  415SOL    HW2 2145   1.009   6.022   6.698
  416SOL     OW 2146   4.990   5.659   3.999
  416SOL    HW1 2147   4.989   5.568   4.042
  416SOL    HW2 2148   5.080   5.700   4.010
  417SOL     OW 2149   2.256   5.100   0.656
  417SOL    HW1 2150   2.200   5.175   0.622
  417SOL    HW2 2151   2.314   5.066   0.581
  418SOL     OW 2152   4.160   6.026   1.899
  418SOL    HW1 2153   4.114   6.105   1.940
  418SOL    HW2 2154   4.097   5.979   1.838
  419SOL     OW 2155   1.624   0.119   1.019
  419SOL    HW1 2156   1.540   0.081   1.058
  419SOL    HW2 2157   1.600   0.193   0.956
  420SOL     OW 2158   6.264   2.023   0.505
  420SOL    HW1 2159   6.169   2.051   0.493
  420SOL    HW2 2160   6.273   1.974   0.592
  421SOL     OW 2161   0.310   4.882   6.221
  421SOL    HW1 2162   0.323   4.808   6.156
  421SOL    HW2 2163   0.214   4.909   6.223
  422SOL     OW 2164   5.196   4.676   0.657
  422SOL    HW1 2165   5.228   4.605   0.595
  422SOL    HW2 2166   5.115   4.720   0.619
  423SOL     OW 2167   1.001   2.468   0.312
  423SOL    HW1 2168   0.950   2.476   0.227
  423SOL    HW2 2169   0.963   2.530   0.380
  424SOL     OW 2170   2.773   3.542   1.281
  424SOL    HW1 2171   2.847   3.598   1.243
  424SOL    HW2 2172   2.810   3.478   1.348
  425SOL     OW 2173   5.769   1.180   2.027
  425SOL    HW1 2174   5.789   1.276   2.045
  425SOL    HW2 2175   5.687   1.172   1.970
  426SOL     OW 2176   4.581   2.487   3.921
  426SOL    HW1 2177   4.567   2.466   4.018
  426SOL    HW2 2178   4.674   2.465   3.895
  427SOL     OW 2179   5.071   5.155   2.639
  427SOL    HW1 2180   5.086   5.112   2.727
  427SOL    HW2 2181   4.988   5.211   2.643
  428SOL     OW 2182   4.440   0.519   4.608
  428SOL    HW1 2183   4.458   0.598   4.549
  428SOL    HW2 2184   4.366   0.465   4.569
  429SOL     OW 2185   2.432   3.726   0.765
  429SOL    HW1 2186   2.401   3.680   0.848
  429SOL    HW2 2187   2.427   3.825   0.777
  430SOL     OW 2188   6.651   0.308   4.298
  430SOL    HW1 2189   6.607   0.286   4.212
  430SOL    HW2 2190   6.667   0.225   4.351
  431SOL     OW 2191   3.622   6.628   0.439
  431SOL    HW1 2192   3.583   6.692   0.373
  431SOL    HW2 2193   3.721   6.636   0.439
  432SOL     OW 2194   6.596   1.641   1.507
  432SOL    HW1 2195   6.604   1.657   1.409
  432SOL    HW2 2196   6.687   1.643   1.548
  433SOL     OW 2197   3.370   6.345   4.502
  433SOL    HW1 2198   3.368   6.425   4.442
  433SOL    HW2 2199   3.295   6.283   4.478
  434SOL     OW 2200   3.586   6.298   1.996
  434SOL    HW1 2201   3.654   6.262   1.932
  434SOL    HW2 2202   3.631   6.323   2.082
  435SOL     OW 2203   5.355   2.363   5.428
  435SOL    HW1 2204   5.321   2.400   5.342
  435SOL    HW2 2205   5.335   2.426   5.503
  436SOL     OW 2206   3.271   6.172   1.054
  436SOL    HW1 2207   3.200   6.212   1.112
  436SOL    HW2 2208   3.313   6.094   1.100
  437SOL     OW 2209   1.212   0.118   6.406
  437SOL    HW1 2210   1.161   0.101   6.322
  437SOL    HW2 2211   1.156   0.173   6.468
  438SOL     OW 2212   2.093   3.376   2.416
  438SOL    HW1 2213   2.132   3.288   2.387
  438SOL    HW2 2214   2.072   3.372   2.514
  439SOL     OW 2215   5.841   4.308   3.608
  439SOL    HW1 2216   5.774   4.248   3.651
  439SOL    HW2 2217   5.869   4.269   3.520
  440SOL     OW 2218   1.808   1.107   4.994
  440SOL    HW1 2219   1.711   1.111   4.969
  440SOL    HW2 2220   1.817   1.067   5.086
  441SOL     OW 2221   1.048   2.673   3.672
  441SOL    HW1 2222   1.108   2.595   3.688
  441SOL    HW2 2223   0.980   2.678   3.746
  442SOL     OW 2224   2.886   5.261   6.071
  442SOL    HW1 2225   2.945   5.333   6.034
  442SOL    HW2 2226   2.911   5.242   6.166
  443SOL     OW 2227   6.187   4.270   4.516
  443SOL    HW1 2228   6.255   4.241   4.583
  443SOL    HW2 2229   6.147   4.357   4.544
  444SOL     OW 2230   5.227   1.672   5.853
  444SOL    HW1 2231   5.182   1.686   5.765
  444SOL    HW2 2232   5.171   1.612   5.910
  445SOL     OW 2233   0.958   5.496   2.666
  445SOL    HW1 2234   1.057   5.503   2.678
  445SOL    HW2 2235   0.927   5.568   2.603
  446SOL     OW 2236   4.208   4.707   3.477
  446SOL    HW1 2237   4.291   4.670   3.435
  446SOL    HW2 2238   4.227   4.730   3.573
  447SOL     OW 2239   0.903   2.500   6.524
  447SOL    HW1 2240   0.936   2.500   6.429
  447SOL    HW2 2241   0.896   2.594   6.557
  448SOL     OW 2242   3.088   0.664   4.112
  448SOL    HW1 2243   3.027   0.645   4.189
  448SOL    HW2 2244   3.149   0.740   4.136
  449SOL     OW 2245   4.588   0.924   4.291
  449SOL    HW1 2246   4.599   0.992   4.364
  449SOL    HW2 2247   4.503   0.942   4.241
  450SOL     OW 2248   1.474   5.927   3.710
  450SOL    HW1 2249   1.520   5.849   3.666
  450SOL    HW2 2250   1.539   6.001   3.722
  451SOL     OW 2251   2.019   1.864   3.610
  451SOL    HW1 2252   2.056   1.931   3.546
  451SOL    HW2 2253   1.921   1.851   3.591
  452SOL     OW 2254   6.380   6.493   1.097
  452SOL    HW1 2255   6.404   6.547   1.178
  452SOL    HW2 2256   6.439   6.412   1.092
  453SOL     OW 2257   3.883   1.233   5.019
  453SOL    HW1 2258   3.882   1.258   4.922
  453SOL    HW2 2259   3.958   1.279   5.065
  454SOL     OW 2260   7.019   4.975   6.292
  454SOL    HW1 2261   7.018   4.918   6.210
  454SOL    HW2 2262   0.015   4.919   6.371
  455SOL     OW 2263   5.981   2.603   2.874
  455SOL    HW1 2264   5.984   2.639   2.780
  455SOL    HW2 2265   6.030   2.666   2.935
  456SOL     OW 2266   5.757   6.239   4.200
  456SOL    HW1 2267   5.832   6.287   4.246
  456SOL    HW2 2268   5.670   6.281   4.225
  457SOL     OW 2269   1.783   3.436   3.739
  457SOL    HW1 2270   1.851   3.448   3.667
  457SOL    HW2 2271   1.743   3.524   3.762
  458SOL     OW 2272   4.384   5.552   3.585
  458SOL    HW1 2273   4.380   5.507   3.495
  458SOL    HW2 2274   4.366   5.484   3.657
  459SOL     OW 2275   1.801   6.990   5.314
  459SOL    HW1 2276   1.856   0.011   5.246
  459SOL    HW2 2277   1.713   0.007   5.325
  460SOL     OW 2278   1.508   0.155   3.518
  460SOL    HW1 2279   1.436   0.192   3.458
  460SOL    HW2 2280   1.578   0.225   3.532
  461SOL     OW 2281   5.785   6.989   5.972
  461SOL    HW1 2282   5.752   0.006   5.890
  461SOL    HW2 2283   5.763   6.891   5.967
  462SOL     OW 2284   3.317   3.187   6.353
  462SOL    HW1 2285   3.233   3.171   6.301
  462SOL    HW2 2286   3.361   3.271   6.320
  463SOL     OW 2287   6.386   5.850   3.142
  463SOL    HW1 2288   6.314   5.905   3.183
  463SOL    HW2 2289   6.375   5.849   3.042
  464SOL     OW 2290   2.220   2.020   5.118
  464SOL    HW1 2291   2.313   2.026   5.080
  464SOL    HW2 2292   2.219   2.057   5.211
  465SOL     OW 2293   0.727   2.514   5.606
  465SOL    HW1 2294   0.816   2.560   5.608
  465SOL    HW2 2295   0.712   2.476   5.515
  466SOL     OW 2296   0.946   5.923   3.186
  466SOL    HW1 2297   0.913   5.997   3.127
  466SOL    HW2 2298   0.951   5.838   3.134
  467SOL     OW 2299   1.575   1.540   0.595
  467SOL    HW1 2300   1.564   1.623   0.649
  467SOL    HW2 2301   1.511   1.542   0.518
  468SOL     OW 2302   3.663   6.912   6.938
  468SOL    HW1 2303   3.674   7.009   6.915
  468SOL    HW2 2304   3.604   6.869   6.870
  469SOL     OW 2305   2.591   3.794   0.075
  469SOL    HW1 2306   2.503   3.837   0.056
  469SOL    HW2 2307   2.630   3.758   7.019
  470SOL     OW 2308   4.593   0.246   2.094
  470SOL    HW1 2309   4.537   0.329   2.088
  470SOL    HW2 2310   4.541   0.169   2.058
  471SOL     OW 2311   2.452   2.232   4.149
  471SOL    HW1 2312   2.520   2.305   4.141
  471SOL    HW2 2313   2.464   2.166   4.075
  472SOL     OW 2314   5.247   3.669   6.861
  472SOL    HW1 2315   5.326   3.609   6.871
  472SOL    HW2 2316   5.163   3.615   6.869
  473SOL     OW 2317   1.027   3.003   2.800
  473SOL    HW1 2318   1.081   2.930   2.840
  473SOL    HW2 2319   1.061   3.024   2.708
  474SOL     OW 2320   5.522   5.629   4.326
  474SOL    HW1 2321   5.540   5.644   4.229
  474SOL    HW2 2322   5.494   5.715   4.368
  475SOL     OW 2323   5.706   0.806   6.745
  475SOL    HW1 2324   5.777   0.737   6.737
  475SOL    HW2 2325   5.695   0.853   6.657
  476SOL     OW 2326   6.481   3.958   3.391
  476SOL    HW1 2327   6.470   3.889   3.320
  476SOL    HW2 2328   6.498   3.913   3.479
  477SOL     OW 2329   2.114   5.041   3.790
  477SOL    HW1 2330   2.201   5.081   3.816
  477SOL    HW2 2331   2.108   4.948   3.824
  478SOL     OW 2332   3.303   6.913   1.657
  478SOL    HW1 2333   3.227   6.870   1.608
  478SOL    HW2 2334   3.390   6.884   1.618
  479SOL     OW 2335   4.074   2.481   6.004
  479SOL    HW1 2336   3.989   2.436   5.977
  479SOL    HW2 2337   4.133   2.491   5.924
  480SOL     OW 2338   2.115   1.189   6.889
  480SOL    HW1 2339   2.203   1.228   6.863
  480SOL    HW2 2340   2.043   1.256   6.875
  481SOL     OW 2341   1.923   6.950   0.326
  481SOL    HW1 2342   1.903   6.853   0.331
  481SOL    HW2 2343   1.839   7.000   0.303
  482SOL     OW 2344   4.581   5.068   3.073
  482SOL    HW1 2345   4.507   5.050   3.008
  482SOL    HW2 2346   4.591   4.990   3.135
  483SOL     OW 2347   6.459   0.919   2.010
  483SOL    HW1 2348   6.382   0.943   2.068
  483SOL    HW2 2349   6.496   0.830   2.037
  484SOL     OW 2350   1.918   3.493   5.047
  484SOL    HW1 2351   1.869   3.539   5.121
  484SOL    HW2 2352   2.008   3.463   5.080
  485SOL     OW 2353   3.871   5.227   2.423
  485SOL    HW1 2354   3.941   5.171   2.379
  485SOL    HW2 2355   3.913   5.279   2.498
  486SOL     OW 2356   6.759   1.807   0.579
  486SOL    HW1 2357   6.786   1.891   0.531
  486SOL    HW2 2358   6.685   1.827   0.642
  487SOL     OW 2359   1.167   0.705   1.149
  487SOL    HW1 2360   1.175   0.655   1.236
  487SOL    HW2 2361   1.257   0.739   1.122
  488SOL     OW 2362   0.842   1.376   2.387
  488SOL    HW1 2363   0.803   1.426   2.309
  488SOL    HW2 2364   0.808   1.416   2.472
  489SOL     OW 2365   3.321   6.456   6.531
  489SOL    HW1 2366   3.346   6.550   6.508
  489SOL    HW2 2367   3.401   6.396   6.518
  490SOL     OW 2368   6.226   5.793   3.686
  490SOL    HW1 2369   6.185   5.883   3.668
  490SOL    HW2 2370   6.161   5.722   3.660
  491SOL     OW 2371   0.263   3.286   2.828
  491SOL    HW1 2372   0.349   3.321   2.863
  491SOL    HW2 2373   0.188   3.347   2.855
  492SOL     OW 2374   2.221   0.674   5.739
  492SOL    HW1 2375   2.208   0.756   5.684
  492SOL    HW2 2376   2.141   0.660   5.798
  493SOL     OW 2377   5.198   5.958   5.033
  493SOL    HW1 2378   5.291   5.976   5.002
  493SOL    HW2 2379   5.199   5.937   5.130
  494SOL     OW 2380   0.258   0.300   6.803
  494SOL    HW1 2381   0.169   0.254   6.801
  494SOL    HW2 2382   0.300   0.298   6.713
  495SOL     OW 2383   4.841   5.976   3.424
  495SOL    HW1 2384   4.853   5.933   3.513
  495SOL    HW2 2385   4.915   6.042   3.409
  496SOL     OW 2386   5.352   3.975   1.938
  496SOL    HW1 2387   5.260   4.013   1.948
  496SOL    HW2 2388   5.375   3.968   1.841
  497SOL     OW 2389   3.569   1.117   4.498
  497SOL    HW1 2390   3.669   1.116   4.499
  497SOL    HW2 2391   3.536   1.091   4.407
  498SOL     OW 2392   2.309   3.675   1.279
  498SOL    HW1 2393   2.281   3.768   1.303
  498SOL    HW2 2394   2.391   3.651   1.331
  499SOL     OW 2395   2.556   6.739   4.267
  499SOL    HW1 2396   2.602   6.665   4.316
  499SOL    HW2 2397   2.464   6.752   4.305
  500SOL     OW 2398   0.606   3.270   4.199
  500SOL    HW1 2399   0.593   3.288   4.297
  500SOL    HW2 2400   0.519   3.283   4.151
  501SOL     OW 2401   2.938   5.520   0.927
  501SOL    HW1 2402   2.997   5.465   0.869
  501SOL    HW2 2403   2.851   5.537   0.880
  502SOL     OW 2404   0.141   3.930   0.270
  502SOL    HW1 2405   0.152   3.930   0.171
  502SOL    HW2 2406   0.048   3.900   0.293
  503SOL     OW 2407   6.425   5.399   6.434
  503SOL    HW1 2408   6.482   5.474   6.468
  503SOL    HW2 2409   6.434   5.320   6.495
  504SOL     OW 2410   1.261   5.507   2.668
  504SOL    HW1 2411   1.312   5.570   2.727
  504SOL    HW2 2412   1.251   5.548   2.577
  505SOL     OW 2413   2.837   6.114   5.247
  505SOL    HW1 2414   2.746   6.145   5.271
  505SOL    HW2 2415   2.900   6.191   5.248
  506SOL     OW 2416   2.082   5.200   4.698
  506SOL    HW1 2417   2.100   5.106   4.728
  506SOL    HW2 2418   1.984   5.213   4.685
  507SOL     OW 2419   3.332   6.615   2.960
  507SOL    HW1 2420   3.401   6.613   2.888
  507SOL    HW2 2421   3.359   6.554   3.035
  508SOL     OW 2422   0.007   3.857   2.400
  508SOL    HW1 2423   7.004   3.817   2.314
  508SOL    HW2 2424   0.043   3.949   2.382
  509SOL     OW 2425   3.152   1.075   1.552
  509SOL    HW1 2426   3.230   1.017   1.576
  509SOL    HW2 2427   3.157   1.100   1.456
  510SOL     OW 2428   5.857   4.956   0.220
  510SOL    HW1 2429   5.798   4.883   0.184
  510SOL    HW2 2430   5.950   4.944   0.186
  511SOL     OW 2431   0.760   1.349   5.911
  511SOL    HW1 2432   0.671   1.317   5.879
  511SOL    HW2 2433   0.769   1.330   6.009
  512SOL     OW 2434   6.857   2.847   6.968
  512SOL    HW1 2435   6.819   2.890   6.887
  512SOL    HW2 2436   6.801   2.767   6.992
  513SOL     OW 2437   6.269   6.942   3.340
  513SOL    HW1 2438   6.213   6.945   3.423
  513SOL    HW2 2439   6.338   6.870   3.348
  514SOL     OW 2440   6.118   2.426   4.087
  514SOL    HW1 2441   6.105   2.341   4.137
  514SOL    HW2 2442   6.030   2.465   4.062
  515SOL     OW 2443   1.287   0.681   6.451
  515SOL    HW1 2444   1.327   0.640   6.533
  515SOL    HW2 2445   1.340   0.761   6.424
  516SOL     OW 2446   2.347   5.038   1.967
  516SOL    HW1 2447   2.282   5.096   2.017
  516SOL    HW2 2448   2.352   4.949   2.012
  517SOL     OW 2449   4.991   5.400   2.291
  517SOL    HW1 2450   4.983   5.444   2.381
  517SOL    HW2 2451   4.987   5.471   2.220
  518SOL     OW 2452   2.605   2.508   2.974
  518SOL    HW1 2453   2.584   2.414   2.947
  518SOL    HW2 2454   2.684   2.508   3.036
  519SOL     OW 2455   0.740   0.497   4.800
  519SOL    HW1 2456   0.763   0.545   4.885
  519SOL    HW2 2457   0.749   0.559   4.723
  520SOL     OW 2458   6.409   4.252   0.428
  520SOL    HW1 2459   6.474   4.303   0.372
  520SOL    HW2 2460   6.436   4.259   0.525
  521SOL     OW 2461   6.296   4.178   4.807
  521SOL    HW1 2462   6.296   4.216   4.900
  521SOL    HW2 2463   6.355   4.097   4.804
  522SOL     OW 2464   3.467   3.222   4.839
  522SOL    HW1 2465   3.544   3.191   4.784
  522SOL    HW2 2466   3.382   3.183   4.803
  523SOL     OW 2467   0.352   4.907   1.934
  523SOL    HW1 2468   0.443   4.883   1.967
  523SOL    HW2 2469   0.328   4.998   1.968
  524SOL     OW 2470   6.921   1.159   0.967
  524SOL    HW1 2471   6.898   1.198   1.056
  524SOL    HW2 2472   7.014   1.123   0.969
  525SOL     OW 2473   2.090   3.362   5.856
  525SOL    HW1 2474   2.046   3.292   5.912
  525SOL    HW2 2475   2.185   3.337   5.840
  526SOL     OW 2476   4.243   6.425   4.497
  526SOL    HW1 2477   4.166   6.382   4.543
  526SOL    HW2 2478   4.223   6.435   4.399
  527SOL     OW 2479   6.669   2.608   7.015
  527SOL    HW1 2480   6.598   2.539   7.009
  527SOL    HW2 2481   6.758   2.565   6.997
  528SOL     OW 2482   0.716   1.759   3.254
  528SOL    HW1 2483   0.716   1.855   3.281
  528SOL    HW2 2484   0.766   1.706   3.322
  529SOL     OW 2485   1.759   6.996   3.920
  529SOL    HW1 2486   1.762   6.899   3.942
  529SOL    HW2 2487   1.674   7.018   3.872
  530SOL     OW 2488   3.285   2.921   4.466
  530SOL    HW1 2489   3.375   2.917   4.423
  530SOL    HW2 2490   3.228   2.987   4.418
  531SOL     OW 2491   0.698   0.982   3.115
  531SOL    HW1 2492   0.604   0.992   3.147
  531SOL    HW2 2493   0.707   1.026   3.026
  532SOL     OW 2494   1.298   2.367   7.007
  532SOL    HW1 2495   1.230   2.307   0.021
  532SOL    HW2 2496   1.261   2.406   6.923
  533SOL     OW 2497   4.879   6.900   3.947
  533SOL    HW1 2498   4.840   6.900   4.039
  533SOL    HW2 2499   4.966   6.949   3.948
  534SOL     OW 2500   5.013   6.366   2.840
  534SOL    HW1 2501   4.964   6.279   2.832
  534SOL    HW2 2502   5.058   6.371   2.929
  535SOL     OW 2503   0.867   3.868   4.322
  535SOL    HW1 2504   0.960   3.904   4.316
  535SOL    HW2 2505   0.811   3.930   4.377
  536SOL     OW 2506   6.713   5.223   1.667
  536SOL    HW1 2507   6.700   5.287   1.591
  536SOL    HW2 2508   6.733   5.273   1.751
  537SOL     OW 2509   2.122   6.497   4.284
  537SOL    HW1 2510   2.206   6.445   4.265
  537SOL    HW2 2511   2.043   6.443   4.258
  538SOL     OW 2512   1.275   4.389   2.823
  538SOL    HW1 2513   1.318   4.358   2.907
  538SOL    HW2 2514   1.185   4.348   2.814
  539SOL     OW 2515   1.552   6.542   0.910
  539SOL    HW1 2516   1.504   6.553   0.823
  539SOL    HW2 2517   1.545   6.447   0.940
  540SOL     OW 2518   0.789   0.272   2.895
  540SOL    HW1 2519   0.720   0.336   2.864
  540SOL    HW2 2520   0.858   0.320   2.949
  541SOL     OW 2521   3.758   6.300   4.219
  541SOL    HW1 2522   3.809   6.385   4.236
  541SOL    HW2 2523   3.662   6.322   4.203
  542SOL     OW 2524   6.574   0.466   0.041
  542SOL    HW1 2525   6.622   0.506   0.120
  542SOL    HW2 2526   6.480   0.500   0.039
  543SOL     OW 2527   1.558   4.121   5.630
  543SOL    HW1 2528   1.533   4.103   5.726
  543SOL    HW2 2529   1.482   4.096   5.571
  544SOL     OW 2530   2.525   3.643   0.293
  544SOL    HW1 2531   2.548   3.697   0.212
  544SOL    HW2 2532   2.487   3.703   0.364
  545SOL     OW 2533   2.807   0.450   2.744
  545SOL    HW1 2534   2.765   0.534   2.781
  545SOL    HW2 2535   2.827   0.463   2.647
  546SOL     OW 2536   1.664   3.103   1.070
  546SOL    HW1 2537   1.599   3.168   1.032
  546SOL    HW2 2538   1.756   3.124   1.038
  547SOL     OW 2539   3.290   1.481   0.070
  547SOL    HW1 2540   3.241   1.404   0.111
  547SOL    HW2 2541   3.314   1.548   0.141
  548SOL     OW 2542   3.610   2.907   2.916
  548SOL    HW1 2543   3.541   2.837   2.897
  548SOL    HW2 2544   3.634   2.903   3.013
  549SOL     OW 2545   4.628   3.306   1.112
  549SOL    HW1 2546   4.613   3.207   1.109
  549SOL    HW2 2547   4.698   3.328   1.180
  550SOL     OW 2548   6.193   4.323   3.282
  550SOL    HW1 2549   6.095   4.319   3.265
  550SOL    HW2 2550   6.223   4.418   3.283
  551SOL     OW 2551   1.012   0.427   1.713
  551SOL    HW1 2552   1.005   0.383   1.623
  551SOL    HW2 2553   1.027   0.525   1.700
  552SOL     OW 2554   5.048   4.675   0.032
  552SOL    HW1 2555   5.011   4.605   6.999
  552SOL    HW2 2556   5.143   4.654   0.053
  553SOL     OW 2557   1.792   6.552   2.246
  553SOL    HW1 2558   1.844   6.606   2.313
  553SOL    HW2 2559   1.694   6.565   2.262
  554SOL     OW 2560   5.513   6.649   6.128
  554SOL    HW1 2561   5.595   6.683   6.083
  554SOL    HW2 2562   5.470   6.578   6.071
  555SOL     OW 2563   1.833   5.566   2.966
  555SOL    HW1 2564   1.822   5.587   2.868
  555SOL    HW2 2565   1.835   5.466   2.978
  556SOL     OW 2566   5.120   2.214   3.641
  556SOL    HW1 2567   5.022   2.229   3.628
  556SOL    HW2 2568   5.162   2.298   3.674
  557SOL     OW 2569   0.383   4.670   0.073
  557SOL    HW1 2570   0.395   4.579   0.113
  557SOL    HW2 2571   0.466   4.723   0.087
  558SOL     OW 2572   2.941   3.267   4.583
  558SOL    HW1 2573   2.850   3.306   4.569
  558SOL    HW2 2574   2.955   3.250   4.681
  559SOL     OW 2575   6.552   5.529   6.781
  559SOL    HW1 2576   6.632   5.509   6.837
  559SOL    HW2 2577   6.475   5.472   6.810
  560SOL     OW 2578   4.195   5.116   0.348
  560SOL    HW1 2579   4.143   5.112   0.433
  560SOL    HW2 2580   4.241   5.205   0.341
  561SOL     OW 2581   6.164   1.262   0.072
  561SOL    HW1 2582   6.210   1.235   7.016
  561SOL    HW2 2583   6.231   1.268   0.146
  562SOL     OW 2584   5.168   0.726   5.783
  562SOL    HW1 2585   5.151   0.823   5.767
  562SOL    HW2 2586   5.251   0.715   5.836
  563SOL     OW 2587   2.000   0.370   3.069
  563SOL    HW1 2588   2.073   0.324   3.019
  563SOL    HW2 2589   1.982   0.320   3.154
  564SOL     OW 2590   2.826   1.985   6.703
  564SOL    HW1 2591   2.772   1.916   6.751
  564SOL    HW2 2592   2.782   2.074   6.711
  565SOL     OW 2593   3.592   2.876   5.891
  565SOL    HW1 2594   3.653   2.801   5.917
  565SOL    HW2 2595   3.504   2.839   5.863
  566SOL     OW 2596   6.100   4.535   4.597
  566SOL    HW1 2597   6.005   4.545   4.624
  566SOL    HW2 2598   6.110   4.559   4.500
  567SOL     OW 2599   3.968   3.936   2.480
  567SOL    HW1 2600   3.917   3.988   2.412
  567SOL    HW2 2601   3.931   3.954   2.571
  568SOL     OW 2602   4.207   2.015   7.026
  568SOL    HW1 2603   4.140   1.964   6.973
  568SOL    HW2 2604   4.223   2.104   6.984
  569SOL     OW 2605   1.297   3.510   6.789
  569SOL    HW1 2606   1.254   3.513   6.699
  569SOL    HW2 2607   1.390   3.474   6.781
  570SOL     OW 2608   2.584   6.364   6.739
  570SOL    HW1 2609   2.674   6.326   6.715
  570SOL    HW2 2610   2.518   6.339   6.668
  571SOL     OW 2611   2.865   0.216   2.380
  571SOL    HW1 2612   2.948   0.191   2.329
  571SOL    HW2 2613   2.878   0.307   2.420
  572SOL     OW 2614   2.398   4.906   5.942
  572SOL    HW1 2615   2.423   4.834   5.877
  572SOL    HW2 2616   2.361   4.984   5.892
  573SOL     OW 2617   5.100   1.152   5.177
  573SOL    HW1 2618   5.119   1.057   5.151
  573SOL    HW2 2619   5.029   1.154   5.247
  574SOL     OW 2620   2.997   2.185   4.434
  574SOL    HW1 2621   2.920   2.243   4.410
  574SOL    HW2 2622   2.974   2.089   4.418
  575SOL     OW 2623   5.920   3.065   0.200
  575SOL    HW1 2624   5.902   3.098   0.292
  575SOL    HW2 2625   6.018   3.060   0.184
  576SOL     OW 2626   0.999   1.894   2.791
  576SOL    HW1 2627   0.985   1.910   2.889
  576SOL    HW2 2628   0.919   1.925   2.740
  577SOL     OW 2629   2.160   1.045   3.247
  577SOL    HW1 2630   2.079   1.036   3.188
  577SOL    HW2 2631   2.202   0.955   3.258
  578SOL     OW 2632   6.536   4.765   3.506
  578SOL    HW1 2633   6.592   4.738   3.427
  578SOL    HW2 2634   6.548   4.699   3.580
  579SOL     OW 2635   1.813   3.393   1.834
  579SOL    HW1 2636   1.796   3.315   1.775
  579SOL    HW2 2637   1.895   3.441   1.803
  580SOL     OW 2638   6.969   4.594   6.813
  580SOL    HW1 2639   6.926   4.648   6.886
  580SOL    HW2 2640   0.040   4.598   6.823
  581SOL     OW 2641   3.065   3.694   2.317
  581SOL    HW1 2642   3.163   3.692   2.336
  581SOL    HW2 2643   3.046   3.640   2.235
  582SOL     OW 2644   5.782   5.019   2.449
  582SOL    HW1 2645   5.712   4.967   2.498
  582SOL    HW2 2646   5.804   4.973   2.363
  583SOL     OW 2647   2.821   5.426   6.318
  583SOL    HW1 2648   2.749   5.449   6.384
  583SOL    HW2 2649   2.787   5.442   6.225
  584SOL     OW 2650   1.793   3.969   6.586
  584SOL    HW1 2651   1.817   4.053   6.538
  584SOL    HW2 2652   1.855   3.956   6.664
  585SOL     OW 2653   5.753   2.919   6.495
  585SOL    HW1 2654   5.814   2.972   6.436
  585SOL    HW2 2655   5.805   2.881   6.571
  586SOL     OW 2656   3.254   1.572   6.133
  586SOL    HW1 2657   3.270   1.478   6.161
  586SOL    HW2 2658   3.282   1.634   6.206
  587SOL     OW 2659   2.645   2.297   4.808
  587SOL    HW1 2660   2.623   2.203   4.783
  587SOL    HW2 2661   2.618   2.359   4.735
  588SOL     OW 2662   2.407   4.638   0.686
  588SOL    HW1 2663   2.397   4.707   0.758
  588SOL    HW2 2664   2.320   4.589   0.676
  589SOL     OW 2665   3.345   5.126   1.443
  589SOL    HW1 2666   3.248   5.146   1.428
  589SOL    HW2 2667   3.401   5.189   1.389
  590SOL     OW 2668   5.827   2.934   1.920
  590SOL    HW1 2669   5.730   2.950   1.902
  590SOL    HW2 2670   5.865   2.874   1.850
  591SOL     OW 2671   3.676   5.893   3.982
  591SOL    HW1 2672   3.600   5.910   3.919
  591SOL    HW2 2673   3.734   5.974   3.988
  592SOL     OW 2674   3.373   0.337   1.423
  592SOL    HW1 2675   3.397   0.242   1.443
  592SOL    HW2 2676   3.366   0.350   1.324
  593SOL     OW 2677   4.903   2.338   3.916
  593SOL    HW1 2678   4.939   2.260   3.967
  593SOL    HW2 2679   4.881   2.310   3.823
  594SOL     OW 2680   4.764   2.215   6.223
  594SOL    HW1 2681   4.741   2.271   6.302
  594SOL    HW2 2682   4.730   2.122   6.237
  595SOL     OW 2683   5.603   0.429   3.716
  595SOL    HW1 2684   5.608   0.353   3.650
  595SOL    HW2 2685   5.592   0.515   3.667
  596SOL     OW 2686   1.206   4.124   2.308
  596SOL    HW1 2687   1.132   4.192   2.308
  596SOL    HW2 2688   1.266   4.140   2.386
  597SOL     OW 2689   4.087   6.722   6.070
  597SOL    HW1 2690   4.132   6.809   6.048
  597SOL    HW2 2691   3.990   6.738   6.087
  598SOL     OW 2692   3.295   4.364   6.604
  598SOL    HW1 2693   3.382   4.383   6.558
  598SOL    HW2 2694   3.239   4.304   6.546
  599SOL     OW 2695   1.958   6.489   2.881
  599SOL    HW1 2696   1.944   6.515   2.786
  599SOL    HW2 2697   1.890   6.535   2.939
  600SOL     OW 2698   0.913   0.785   1.165
  600SOL    HW1 2699   0.917   0.879   1.199
  600SOL    HW2 2700   1.006   0.754   1.142
  601SOL     OW 2701   3.379   6.583   4.323
  601SOL    HW1 2702   3.411   6.676   4.339
  601SOL    HW2 2703   3.297   6.586   4.266
  602SOL     OW 2704   1.385   2.698   6.987
  602SOL    HW1 2705   1.330   2.648   0.025
  602SOL    HW2 2706   1.473   2.652   6.974
  603SOL     OW 2707   4.299   1.652   3.451
  603SOL    HW1 2708   4.238   1.577   3.476
  603SOL    HW2 2709   4.288   1.726   3.517
  604SOL     OW 2710   0.474   3.756   1.660
  604SOL    HW1 2711   0.439   3.672   1.617
  604SOL    HW2 2712   0.398   3.818   1.679
  605SOL     OW 2713   6.445   5.547   3.260
  605SOL    HW1 2714   6.356   5.526   3.301
  605SOL    HW2 2715   6.444   5.641   3.226
  606SOL     OW 2716   5.425   0.587   6.367
  606SOL    HW1 2717   5.412   0.543   6.278
  606SOL    HW2 2718   5.422   0.687   6.356
  607SOL     OW 2719   5.071   0.755   5.464
  607SOL    HW1 2720   5.169   0.773   5.454
  607SOL    HW2 2721   5.022   0.842   5.475
  608SOL     OW 2722   3.959   6.316   6.991
  608SOL    HW1 2723   3.901   6.237   7.011
  608SOL    HW2 2724   3.922   6.366   6.913
  609SOL     OW 2725   3.926   3.108   3.824
  609SOL    HW1 2726   3.938   3.050   3.905
  609SOL    HW2 2727   3.908   3.202   3.853
  610SOL     OW 2728   5.377   2.176   2.502
  610SOL    HW1 2729   5.407   2.107   2.437
  610SOL    HW2 2730   5.317   2.242   2.456
  611SOL     OW 2731   1.643   0.309   6.558
  611SOL    HW1 2732   1.697   0.347   6.633
  611SOL    HW2 2733   1.699   0.305   6.476
  612SOL     OW 2734   3.982   6.450   6.138
  612SOL    HW1 2735   4.076   6.468   6.108
  612SOL    HW2 2736   3.952   6.523   6.199
  613SOL     OW 2737   3.916   6.495   5.676
  613SOL    HW1 2738   3.940   6.591   5.664
  613SOL    HW2 2739   3.901   6.476   5.773
  614SOL     OW 2740   5.984   3.694   0.900
  614SOL    HW1 2741   5.898   3.725   0.941
  614SOL    HW2 2742   5.998   3.741   0.813
  615SOL     OW 2743   0.545   1.880   1.154
  615SOL    HW1 2744   0.449   1.904   1.142
  615SOL    HW2 2745   0.568   1.805   1.091
  616SOL     OW 2746   6.459   1.608   2.848
  616SOL    HW1 2747   6.491   1.566   2.764
  616SOL    HW2 2748   6.392   1.679   2.827
  617SOL     OW 2749   6.974   3.641   6.832
  617SOL    HW1 2750   6.899   3.692   6.873
  617SOL    HW2 2751   6.964   3.544   6.853
  618SOL     OW 2752   0.262   3.231   0.079
  618SOL    HW1 2753   0.223   3.282   0.156
  618SOL    HW2 2754   0.218   3.142   0.072
  619SOL     OW 2755   4.461   0.140   6.695
  619SOL    HW1 2756   4.461   0.237   6.670
  619SOL    HW2 2757   4.547   0.098   6.664
  620SOL     OW 2758   5.605   2.684   1.508
  620SOL    HW1 2759   5.657   2.767   1.523
  620SOL    HW2 2760   5.611   2.659   1.411
  621SOL     OW 2761   1.850   0.186   5.538
  621SOL    HW1 2762   1.794   0.227   5.609
  621SOL    HW2 2763   1.804   0.105   5.500
  622SOL     OW 2764   0.589   1.623   4.980
  622SOL    HW1 2765   0.634   1.703   4.941
  622SOL    HW2 2766   0.524   1.651   5.050
  623SOL     OW 2767   0.208   6.505   5.570
  623SOL    HW1 2768   0.231   6.578   5.635
  623SOL    HW2 2769   0.289   6.483   5.515
  624SOL     OW 2770   6.346   1.043   0.426
  624SOL    HW1 2771   6.439   1.009   0.445
  624SOL    HW2 2772   6.303   1.072   0.511
  625SOL     OW 2773   1.688   2.007   0.977
  625SOL    HW1 2774   1.614   2.012   1.043
  625SOL    HW2 2775   1.663   1.944   0.904
  626SOL     OW 2776   0.424   6.113   3.051
  626SOL    HW1 2777   0.428   6.117   3.151
  626SOL    HW2 2778   0.384   6.198   3.016
  627SOL     OW 2779   6.397   6.409   0.561
  627SOL    HW1 2780   6.421   6.502   0.588
  627SOL    HW2 2781   6.465   6.345   0.597
  628SOL     OW 2782   5.713   4.422   5.091
  628SOL    HW1 2783   5.667   4.472   5.164
  628SOL    HW2 2784   5.646   4.370   5.039
  629SOL     OW 2785   0.932   1.034   6.984
  629SOL    HW1 2786   0.953   1.118   6.935
  629SOL    HW2 2787   1.018   0.992   7.015
  630SOL     OW 2788   0.319   2.461   0.860
  630SOL    HW1 2789   0.310   2.383   0.922
  630SOL    HW2 2790   0.363   2.431   0.775
  631SOL     OW 2791   3.802   1.155   4.696
  631SOL    HW1 2792   3.876   1.138   4.631
  631SOL    HW2 2793   3.760   1.068   4.721
  632SOL     OW 2794   5.249   2.241   1.019
  632SOL    HW1 2795   5.255   2.143   0.999
  632SOL    HW2 2796   5.195   2.255   1.102
  633SOL     OW 2797   3.264   4.426   0.062
  633SOL    HW1 2798   3.257   4.453   6.994
  633SOL    HW2 2799   3.278   4.508   0.118
  634SOL     OW 2800   3.370   3.708   2.638
  634SOL    HW1 2801   3.333   3.798   2.616
  634SOL    HW2 2802   3.360   3.690   2.736
  635SOL     OW 2803   4.922   6.242   0.502
  635SOL    HW1 2804   4.860   6.217   0.576
  635SOL    HW2 2805   4.870   6.254   0.417
  636SOL     OW 2806   2.694   6.862   6.130
  636SOL    HW1 2807   2.676   6.832   6.036
  636SOL    HW2 2808   2.626   6.822   6.192
  637SOL     OW 2809   6.922   3.023   2.574
  637SOL    HW1 2810   6.892   2.928   2.586
  637SOL    HW2 2811   7.022   3.026   2.571
  638SOL     OW 2812   6.137   3.381   3.575
  638SOL    HW1 2813   6.115   3.420   3.485
  638SOL    HW2 2814   6.056   3.335   3.611
  639SOL     OW 2815   4.855   4.036   2.814
  639SOL    HW1 2816   4.949   4.008   2.833
  639SOL    HW2 2817   4.840   4.036   2.715
  640SOL     OW 2818   6.769   5.010   3.137
  640SOL    HW1 2819   6.781   5.109   3.128
  640SOL    HW2 2820   6.685   4.991   3.188
  641SOL     OW 2821   0.726   4.656   5.089
  641SOL    HW1 2822   0.703   4.751   5.111
  641SOL    HW2 2823   0.675   4.626   5.009
  642SOL     OW 2824   0.929   3.201   4.327
  642SOL    HW1 2825   0.911   3.132   4.397
  642SOL    HW2 2826   0.889   3.171   4.240
  643SOL     OW 2827   6.575   0.708   6.850
  643SOL    HW1 2828   6.636   0.745   6.921
  643SOL    HW2 2829   6.625   0.699   6.764
  644SOL     OW 2830   1.221   0.307   4.878
  644SOL    HW1 2831   1.263   0.293   4.788
  644SOL    HW2 2832   1.291   0.299   4.949
  645SOL     OW 2833   3.593   6.326   4.806
  645SOL    HW1 2834   3.579   6.358   4.899
  645SOL    HW2 2835   3.520   6.363   4.747
  646SOL     OW 2836   3.274   0.697   4.705
  646SOL    HW1 2837   3.269   0.752   4.789
  646SOL    HW2 2838   3.211   0.619   4.712
  647SOL     OW 2839   5.248   1.916   4.853
  647SOL    HW1 2840   5.300   1.834   4.829
  647SOL    HW2 2841   5.163   1.890   4.900
  648SOL     OW 2842   6.961   4.661   3.980
  648SOL    HW1 2843   6.868   4.666   4.018
  648SOL    HW2 2844   6.959   4.605   3.897
  649SOL     OW 2845   2.089   3.451   0.490
  649SOL    HW1 2846   2.011   3.415   0.541
  649SOL    HW2 2847   2.088   3.414   0.397
  650SOL     OW 2848   6.496   4.911   0.939
  650SOL    HW1 2849   6.561   4.866   1.000
  650SOL    HW2 2850   6.544   4.950   0.861
  651SOL     OW 2851   1.687   0.865   5.882
  651SOL    HW1 2852   1.747   0.796   5.922
  651SOL    HW2 2853   1.602   0.822   5.852
  652SOL     OW 2854   4.823   0.137   3.060
  652SOL    HW1 2855   4.744   0.079   3.080
  652SOL    HW2 2856   4.893   0.123   3.130
  653SOL     OW 2857   0.334   6.243   0.067
  653SOL    HW1 2858   0.255   6.185   0.089
  653SOL    HW2 2859   0.418   6.189   0.078
  654SOL     OW 2860   0.969   6.221   6.078
  654SOL    HW1 2861   0.914   6.163   6.017
  654SOL    HW2 2862   0.994   6.170   6.159
  655SOL     OW 2863   6.516   5.564   1.566
  655SOL    HW1 2864   6.562   5.514   1.493
  655SOL    HW2 2865   6.465   5.641   1.526
  656SOL     OW 2866   2.009   6.514   0.487
  656SOL    HW1 2867   2.045   6.540   0.577
  656SOL    HW2 2868   2.020   6.416   0.474
  657SOL     OW 2869   3.107   3.948   0.763
  657SOL    HW1 2870   3.008   3.952   0.759
  657SOL    HW2 2871   3.141   4.021   0.823
  658SOL     OW 2872   1.343   4.070   5.414
  658SOL    HW1 2873   1.252   4.083   5.454
  658SOL    HW2 2874   1.379   4.159   5.385
  659SOL     OW 2875   2.683   6.086   4.422
  659SOL    HW1 2876   2.715   6.049   4.509
  659SOL    HW2 2877   2.745   6.158   4.391
  660SOL     OW 2878   4.665   4.257   2.724
  660SOL    HW1 2879   4.695   4.317   2.650
  660SOL    HW2 2880   4.692   4.163   2.705
  661SOL     OW 2881   4.971   3.781   4.431
  661SOL    HW1 2882   4.892   3.838   4.409
  661SOL    HW2 2883   4.941   3.703   4.486
  662SOL     OW 2884   4.160   0.703   5.431
  662SOL    HW1 2885   4.247   0.739   5.464
  662SOL    HW2 2886   4.105   0.778   5.394
  663SOL     OW 2887   0.999   4.164   0.466
  663SOL    HW1 2888   0.923   4.165   0.401
  663SOL    HW2 2889   1.035   4.256   0.476
  664SOL     OW 2890   1.776   5.606   6.561
  664SOL    HW1 2891   1.733   5.530   6.514
  664SOL    HW2 2892   1.872   5.585   6.580
  665SOL     OW 2893   4.332   5.527   1.029
  665SOL    HW1 2894   4.381   5.603   1.071
  665SOL    HW2 2895   4.398   5.464   0.988
  666SOL     OW 2896   4.733   2.281   1.428
  666SOL    HW1 2897   4.733   2.304   1.331
  666SOL    HW2 2898   4.648   2.235   1.452
  667SOL     OW 2899   6.702   4.082   4.218
  667SOL    HW1 2900   6.665   4.174   4.219
  667SOL    HW2 2901   6.688   4.041   4.128
  668SOL     OW 2902   5.023   5.402   6.856
  668SOL    HW1 2903   5.073   5.408   6.769
  668SOL    HW2 2904   5.083   5.363   6.926
  669SOL     OW 2905   3.301   6.130   2.894
  669SOL    HW1 2906   3.208   6.150   2.926
  669SOL    HW2 2907   3.326   6.192   2.820
  670SOL     OW 2908   3.331   2.883   2.342
  670SOL    HW1 2909   3.429   2.902   2.349
  670SOL    HW2 2910   3.318   2.802   2.284
  671SOL     OW 2911   2.411   6.217   6.930
  671SOL    HW1 2912   2.460   6.287   6.877
  671SOL    HW2 2913   2.312   6.227   6.914
  672SOL     OW 2914   0.607   4.157   2.133
  672SOL    HW1 2915   0.694   4.206   2.126
  672SOL    HW2 2916   0.608   4.077   2.073
  673SOL     OW 2917   5.289   0.242   1.279
  673SOL    HW1 2918   5.229   0.219   1.203
  673SOL    HW2 2919   5.240   0.301   1.344
  674SOL     OW 2920   6.603   3.612   4.580
  674SOL    HW1 2921   6.544   3.676   4.530
  674SOL    HW2 2922   6.676   3.580   4.520
  675SOL     OW 2923   6.973   1.203   5.126
  675SOL    HW1 2924   6.995   1.297   5.152
  675SOL    HW2 2925   7.018   1.180   5.040
  676SOL     OW 2926   3.220   5.004   3.219
  676SOL    HW1 2927   3.125   5.031   3.203
  676SOL    HW2 2928   3.266   4.989   3.131
  677SOL     OW 2929   6.069   1.062   6.127
  677SOL    HW1 2930   6.013   1.022   6.055
  677SOL    HW2 2931   6.117   1.143   6.092
  678SOL     OW 2932   1.339   1.398   5.351
  678SOL    HW1 2933   1.363   1.321   5.291
  678SOL    HW2 2934   1.302   1.473   5.295
  679SOL     OW 2935   4.866   1.008   3.860
  679SOL    HW1 2936   4.912   1.017   3.772
  679SOL    HW2 2937   4.767   1.013   3.847
  680SOL     OW 2938   5.302   5.183   5.742
  680SOL    HW1 2939   5.306   5.206   5.839
  680SOL    HW2 2940   5.389   5.143   5.714
  681SOL     OW 2941   6.264   0.208   0.860
  681SOL    HW1 2942   6.211   0.287   0.890
  681SOL    HW2 2943   6.257   0.198   0.761
  682SOL     OW 2944   1.777   6.778   6.462
  682SOL    HW1 2945   1.799   6.873   6.482
  682SOL    HW2 2946   1.818   6.719   6.531
  683SOL     OW 2947   3.473   1.196   6.526
  683SOL    HW1 2948   3.487   1.216   6.429
  683SOL    HW2 2949   3.555   1.222   6.577
  684SOL     OW 2950   5.663   1.208   6.413
  684SOL    HW1 2951   5.619   1.297   6.416
  684SOL    HW2 2952   5.759   1.219   6.383
  685SOL     OW 2953   4.980   6.852   5.190
  685SOL    HW1 2954   4.919   6.853   5.111
  685SOL    HW2 2955   5.052   6.920   5.177
  686SOL     OW 2956   5.821   3.034   3.322
  686SOL    HW1 2957   5.728   3.065   3.303
  686SOL    HW2 2958   5.826   2.998   3.415
  687SOL     OW 2959   6.952   2.456   5.128
  687SOL    HW1 2960   6.911   2.527   5.184
  687SOL    HW2 2961   6.917   2.367   5.156
  688SOL     OW 2962   1.532   3.382   0.642
  688SOL    HW1 2963   1.481   3.352   0.561
  688SOL    HW2 2964   1.489   3.345   0.724
  689SOL     OW 2965   0.650   4.415   5.264
  689SOL    HW1 2966   0.694   4.325   5.266
  689SOL    HW2 2967   0.695   4.473   5.195
  690SOL     OW 2968   0.703   3.376   3.626
  690SOL    HW1 2969   0.736   3.294   3.578
  690SOL    HW2 2970   0.725   3.457   3.572
  691SOL     OW 2971   2.651   1.677   6.213
  691SOL    HW1 2972   2.677   1.733   6.291
  691SOL    HW2 2973   2.557   1.644   6.225
  692SOL     OW 2974   3.530   6.374   3.395
  692SOL    HW1 2975   3.498   6.279   3.400
  692SOL    HW2 2976   3.526   6.415   3.486
  693SOL     OW 2977   6.730   1.623   2.725
  693SOL    HW1 2978   6.672   1.582   2.654
  693SOL    HW2 2979   6.755   1.554   2.792
  694SOL     OW 2980   3.486   6.273   2.390
  694SOL    HW1 2981   3.486   6.323   2.477
  694SOL    HW2 2982   3.392   6.268   2.355
  695SOL     OW 2983   4.295   5.013   6.218
  695SOL    HW1 2984   4.249   4.929   6.247
  695SOL    HW2 2985   4.383   5.022   6.264
  696SOL     OW 2986   3.146   5.215   2.008
  696SOL    HW1 2987   3.111   5.275   2.079
  696SOL    HW2 2988   3.179   5.270   1.931
  697SOL     OW 2989   1.107   2.809   4.491
  697SOL    HW1 2990   1.107   2.734   4.558
  697SOL    HW2 2991   1.181   2.794   4.425
  698SOL     OW 2992   5.751   6.862   6.463
  698SOL    HW1 2993   5.699   6.868   6.547
  698SOL    HW2 2994   5.830   6.925   6.468
  699SOL     OW 2995   0.813   4.017   6.943
  699SOL    HW1 2996   0.767   4.030   0.002
  699SOL    HW2 2997   0.798   3.923   6.912
  700SOL     OW 2998   2.890   1.577   4.142
  700SOL    HW1 2999   2.868   1.495   4.089
  700SOL    HW2 3000   2.883   1.658   4.083
  701SOL     OW 3001   7.015   4.028   5.527
  701SOL    HW1 3002   6.920   4.025   5.557
  701SOL    HW2 3003   7.020   4.019   5.428
  702SOL     OW 3004   5.525   5.734   6.033
  702SOL    HW1 3005   5.464   5.801   6.076
  702SOL    HW2 3006   5.574   5.778   5.957
  703SOL     OW 3007   4.165   3.949   6.556
  703SOL    HW1 3008   4.080   3.918   6.598
  703SOL    HW2 3009   4.189   4.040   6.591
  704SOL     OW 3010   1.876   1.602   6.314
  704SOL    HW1 3011   1.926   1.682   6.347
  704SOL    HW2 3012   1.834   1.554   6.391
  705SOL     OW 3013   5.268   6.731   3.673
  705SOL    HW1 3014   5.292   6.827   3.661
  705SOL    HW2 3015   5.174   6.723   3.705
  706SOL     OW 3016   4.400   1.976   3.257
  706SOL    HW1 3017   4.368   2.024   3.175
  706SOL    HW2 3018   4.345   2.003   3.336
  707SOL     OW 3019   4.370   0.411   2.239
  707SOL    HW1 3020   4.344   0.499   2.198
  707SOL    HW2 3021   4.346   0.411   2.336
  708SOL     OW 3022   4.091   0.392   1.652
  708SOL    HW1 3023   4.018   0.360   1.591
  708SOL    HW2 3024   4.058   0.391   1.746
  709SOL     OW 3025   0.811   5.111   0.128
  709SOL    HW1 3026   0.880   5.108   0.056
  709SOL    HW2 3027   0.797   5.019   0.165
  710SOL     OW 3028   3.558   3.206   2.287
  710SOL    HW1 3029   3.640   3.259   2.306
  710SOL    HW2 3030   3.535   3.151   2.367
  711SOL     OW 3031   0.748   2.016   5.942
  711SOL    HW1 3032   0.809   2.087   5.907
  711SOL    HW2 3033   0.685   2.057   6.008
  712SOL     OW 3034   2.410   3.828   0.476
  712SOL    HW1 3035   2.317   3.816   0.510
  712SOL    HW2 3036   2.465   3.876   0.544
  713SOL     OW 3037   2.835   3.639   0.110
  713SOL    HW1 3038   2.763   3.706   0.126
  713SOL    HW2 3039   2.896   3.635   0.189
  714SOL     OW 3040   6.826   5.515   4.819
  714SOL    HW1 3041   6.787   5.601   4.851
  714SOL    HW2 3042   6.751   5.455   4.789
  715SOL     OW 3043   5.495   6.386   0.738
  715SOL    HW1 3044   5.475   6.480   0.708
  715SOL    HW2 3045   5.410   6.333   0.739
  716SOL     OW 3046   1.424   6.762   0.537
  716SOL    HW1 3047   1.515   6.798   0.558
  716SOL    HW2 3048   1.375   6.743   0.622
  717SOL     OW 3049   5.772   5.017   6.505
  717SOL    HW1 3050   5.715   5.078   6.451
  717SOL    HW2 3051   5.723   4.989   6.588
  718SOL     OW 3052   4.471   2.172   5.584
  718SOL    HW1 3053   4.527   2.175   5.667
  718SOL    HW2 3054   4.491   2.087   5.534
  719SOL     OW 3055   6.526   2.712   0.976
  719SOL    HW1 3056   6.586   2.730   0.898
  719SOL    HW2 3057   6.498   2.616   0.974
  720SOL     OW 3058   3.550   1.084   6.088
  720SOL    HW1 3059   3.463   1.036   6.079
  720SOL    HW2 3060   3.623   1.017   6.103
  721SOL     OW 3061   2.121   0.287   4.121
  721SOL    HW1 3062   2.114   0.188   4.136
  721SOL    HW2 3063   2.066   0.311   4.040
  722SOL     OW 3064   2.636   6.895   5.018
  722SOL    HW1 3065   2.696   6.817   5.034
  722SOL    HW2 3066   2.637   6.954   5.098
  723SOL     OW 3067   2.164   3.685   2.898
  723SOL    HW1 3068   2.167   3.675   2.998
  723SOL    HW2 3069   2.105   3.614   2.860
  724SOL     OW 3070   1.165   2.043   4.493
  724SOL    HW1 3071   1.114   1.957   4.496
  724SOL    HW2 3072   1.118   2.108   4.434
  725SOL     OW 3073   2.987   5.463   1.563
  725SOL    HW1 3074   2.902   5.468   1.511
  725SOL    HW2 3075   3.034   5.377   1.544
  726SOL     OW 3076   3.876   4.769   0.920
  726SOL    HW1 3077   3.942   4.808   0.855
  726SOL    HW2 3078   3.824   4.843   0.963
  727SOL     OW 3079   4.983   5.360   5.708
  727SOL    HW1 3080   5.004   5.317   5.796
  727SOL    HW2 3081   4.884   5.354   5.691
  728SOL     OW 3082   0.204   3.438   5.198
  728SOL    HW1 3083   0.133   3.402   5.259
  728SOL    HW2 3084   0.167   3.515   5.146
  729SOL     OW 3085   2.330   1.479   0.169
  729SOL    HW1 3086   2.239   1.440   0.153
  729SOL    HW2 3087   2.329   1.532   0.254
  730SOL     OW 3088   5.688   0.938   3.526
  730SOL    HW1 3089   5.767   0.923   3.585
  730SOL    HW2 3090   5.605   0.940   3.582
  731SOL     OW 3091   5.880   3.985   5.899
  731SOL    HW1 3092   5.938   4.050   5.949
  731SOL    HW2 3093   5.860   3.906   5.958
  732SOL     OW 3094   0.972   3.099   1.336
  732SOL    HW1 3095   1.050   3.141   1.382
  732SOL    HW2 3096   0.990   3.094   1.238
  733SOL     OW 3097   5.957   4.737   5.217
  733SOL    HW1 3098   6.031   4.672   5.234
  733SOL    HW2 3099   5.962   4.812   5.282
  734SOL     OW 3100   6.937   4.387   2.745
  734SOL    HW1 3101   6.964   4.295   2.773
  734SOL    HW2 3102   7.018   4.446   2.741
  735SOL     OW 3103   3.924   3.010   0.545
  735SOL    HW1 3104   3.995   3.070   0.507
  735SOL    HW2 3105   3.966   2.931   0.589
  736SOL     OW 3106   6.909   6.905   2.483
  736SOL    HW1 3107   6.877   6.876   2.573
  736SOL    HW2 3108   6.959   6.991   2.491
  737SOL     OW 3109   4.087   2.351   6.625
  737SOL    HW1 3110   4.041   2.438   6.635
  737SOL    HW2 3111   4.020   2.277   6.627
  738SOL     OW 3112   2.020   3.979   2.067
  738SOL    HW1 3113   2.087   3.908   2.046
  738SOL    HW2 3114   1.989   4.022   1.982
  739SOL     OW 3115   3.866   6.877   4.407
  739SOL    HW1 3116   3.889   6.780   4.410
  739SOL    HW2 3117   3.843   6.903   4.314
  740SOL     OW 3118   4.673   6.723   0.320
  740SOL    HW1 3119   4.578   6.712   0.350
  740SOL    HW2 3120   4.718   6.634   0.320
  741SOL     OW 3121   2.360   6.148   3.280
  741SOL    HW1 3122   2.264   6.153   3.307
  741SOL    HW2 3123   2.395   6.241   3.268
  742SOL     OW 3124   1.941   6.763   1.822
  742SOL    HW1 3125   1.998   6.748   1.902
  742SOL    HW2 3126   1.855   6.713   1.831
  743SOL     OW 3127   1.510   4.322   5.049
  743SOL    HW1 3128   1.596   4.334   5.000
  743SOL    HW2 3129   1.460   4.244   5.012
  744SOL     OW 3130   5.200   6.979   6.402
  744SOL    HW1 3131   5.273   6.914   6.380
  744SOL    HW2 3132   5.134   6.981   6.327
  745SOL     OW 3133   1.070   5.102   4.191
  745SOL    HW1 3134   1.085   5.190   4.145
  745SOL    HW2 3135   1.120   5.101   4.277
  746SOL     OW 3136   0.854   5.125   6.027
  746SOL    HW1 3137   0.789   5.201   6.016
  746SOL    HW2 3138   0.936   5.144   5.974
  747SOL     OW 3139   4.772   5.895   4.851
  747SOL    HW1 3140   4.752   5.987   4.886
  747SOL    HW2 3141   4.695   5.834   4.870
  748SOL     OW 3142   3.591   5.227   2.585
  748SOL    HW1 3143   3.493   5.229   2.563
  748SOL    HW2 3144   3.608   5.288   2.663
  749SOL     OW 3145   6.504   4.006   4.932
  749SOL    HW1 3146   6.487   4.066   5.010
  749SOL    HW2 3147   6.592   4.029   4.890
  750SOL     OW 3148   1.882   2.643   0.444
  750SOL    HW1 3149   1.951   2.681   0.506
  750SOL    HW2 3150   1.881   2.543   0.453
  751SOL     OW 3151   3.775   2.083   6.100
  751SOL    HW1 3152   3.740   2.159   6.046
  751SOL    HW2 3153   3.870   2.065   6.075
  752SOL     OW 3154   3.962   2.251   1.837
  752SOL    HW1 3155   3.950   2.335   1.784
  752SOL    HW2 3156   3.874   2.225   1.879
  753SOL     OW 3157   1.581   3.204   4.029
  753SOL    HW1 3158   1.677   3.230   4.026
  753SOL    HW2 3159   1.529   3.273   4.079
  754SOL     OW 3160   5.297   2.791   6.391
  754SOL    HW1 3161   5.227   2.806   6.322
  754SOL    HW2 3162   5.258   2.738   6.467
  755SOL     OW 3163   1.451   5.289   6.098
  755SOL    HW1 3164   1.530   5.348   6.115
  755SOL    HW2 3165   1.366   5.340   6.115
  756SOL     OW 3166   3.372   0.040   1.161
  756SOL    HW1 3167   3.391   0.137   1.146
  756SOL    HW2 3168   3.439   7.013   1.111
  757SOL     OW 3169   0.339   6.119   3.332
  757SOL    HW1 3170   0.240   6.103   3.329
  757SOL    HW2 3171   0.369   6.121   3.427
  758SOL     OW 3172   4.134   0.966   2.096
  758SOL    HW1 3173   4.055   0.930   2.144
  758SOL    HW2 3174   4.160   0.903   2.022
  759SOL     OW 3175   0.516   0.881   0.685
  759SOL    HW1 3176   0.453   0.897   0.608
  759SOL    HW2 3177   0.470   0.825   0.754
  760SOL     OW 3178   4.853   0.207   5.737
  760SOL    HW1 3179   4.877   0.269   5.663
  760SOL    HW2 3180   4.920   0.132   5.742
  761SOL     OW 3181   5.305   3.981   5.503
  761SOL    HW1 3182   5.333   3.884   5.500
  761SOL    HW2 3183   5.289   4.008   5.598
  762SOL     OW 3184   1.531   0.135   4.832
  762SOL    HW1 3185   1.576   0.202   4.890
  762SOL    HW2 3186   1.594   0.103   4.762
  763SOL     OW 3187   4.626   5.292   6.955
  763SOL    HW1 3188   4.626   5.224   7.029
  763SOL    HW2 3189   4.667   5.377   6.988
  764SOL     OW 3190   4.120   0.777   4.193
  764SOL    HW1 3191   4.149   0.869   4.167
  764SOL    HW2 3192   4.200   0.724   4.222
  765SOL     OW 3193   1.278   5.920   1.406
  765SOL    HW1 3194   1.322   6.009   1.391
  765SOL    HW2 3195   1.294   5.861   1.327
  766SOL     OW 3196   1.442   3.200   0.837
  766SOL    HW1 3197   1.496   3.125   0.798
  766SOL    HW2 3198   1.345   3.178   0.831
  767SOL     OW 3199   6.161   5.789   2.759
  767SOL    HW1 3200   6.146   5.836   2.672
  767SOL    HW2 3201   6.107   5.705   2.761
  768SOL     OW 3202   2.124   6.756   2.108
  768SOL    HW1 3203   2.073   6.670   2.109
  768SOL    HW2 3204   2.216   6.740   2.070
  769SOL     OW 3205   2.940   0.719   4.676
  769SOL    HW1 3206   2.853   0.675   4.695
  769SOL    HW2 3207   2.927   0.792   4.608
  770SOL     OW 3208   2.345   4.287   3.077
  770SOL    HW1 3209   2.352   4.333   2.989
  770SOL    HW2 3210   2.341   4.188   3.063
  771SOL     OW 3211   2.516   5.909   2.392
  771SOL    HW1 3212   2.418   5.899   2.373
  771SOL    HW2 3213   2.544   5.838   2.457
  772SOL     OW 3214   6.607   5.135   0.637
  772SOL    HW1 3215   6.657   5.206   0.586
  772SOL    HW2 3216   6.670   5.090   0.700
  773SOL     OW 3217   6.959   3.845   3.954
  773SOL    HW1 3218   7.022   3.775   3.921
  773SOL    HW2 3219   6.990   3.877   4.044
  774SOL     OW 3220   1.217   1.779   2.079
  774SOL    HW1 3221   1.265   1.744   2.159
  774SOL    HW2 3222   1.122   1.798   2.103
  775SOL     OW 3223   0.947   1.979   3.063
  775SOL    HW1 3224   1.041   2.001   3.089
  775SOL    HW2 3225   0.884   2.033   3.119
  776SOL     OW 3226   0.181   0.816   5.577
  776SOL    HW1 3227   0.185   0.907   5.617
  776SOL    HW2 3228   0.181   0.824   5.477
  777SOL     OW 3229   3.269   5.238   1.082
  777SOL    HW1 3230   3.264   5.329   1.042
  777SOL    HW2 3231   3.345   5.234   1.147
  778SOL     OW 3232   3.534   1.882   3.144
  778SOL    HW1 3233   3.435   1.878   3.157
  778SOL    HW2 3234   3.562   1.815   3.076
  779SOL     OW 3235   0.297   1.799   2.707
  779SOL    HW1 3236   0.261   1.784   2.799
  779SOL    HW2 3237   0.234   1.857   2.655
  780SOL     OW 3238   6.245   3.756   3.662
  780SOL    HW1 3239   6.211   3.842   3.623
  780SOL    HW2 3240   6.215   3.748   3.757
  781SOL     OW 3241   5.401   1.232   6.825
  781SOL    HW1 3242   5.379   1.257   6.920
  781SOL    HW2 3243   5.455   1.304   6.783
  782SOL     OW 3244   1.086   3.593   6.936
  782SOL    HW1 3245   1.169   3.550   6.900
  782SOL    HW2 3246   1.096   3.692   6.934
  783SOL     OW 3247   4.197   4.907   1.499
  783SOL    HW1 3248   4.142   4.928   1.580
  783SOL    HW2 3249   4.211   4.809   1.492
  784SOL     OW 3250   5.264   6.184   6.993
  784SOL    HW1 3251   5.309   6.270   7.017
  784SOL    HW2 3252   5.191   6.165   0.030
  785SOL     OW 3253   6.882   2.952   3.065
  785SOL    HW1 3254   6.947   2.897   3.011
  785SOL    HW2 3255   6.839   3.020   3.007
  786SOL     OW 3256   1.311   1.113   0.951
  786SOL    HW1 3257   1.405   1.122   0.984
  786SOL    HW2 3258   1.249   1.160   1.014
  787SOL     OW 3259   2.752   0.617   6.852
  787SOL    HW1 3260   2.828   0.551   6.848
  787SOL    HW2 3261   2.752   0.663   6.940
  788SOL     OW 3262   3.006   2.187   5.232
  788SOL    HW1 3263   3.043   2.217   5.144
  788SOL    HW2 3264   3.078   2.191   5.302
  789SOL     OW 3265   5.354   3.841   0.856
  789SOL    HW1 3266   5.446   3.806   0.838
  789SOL    HW2 3267   5.323   3.806   0.944
  790SOL     OW 3268   2.452   0.565   4.367
  790SOL    HW1 3269   2.463   0.593   4.271
  790SOL    HW2 3270   2.427   0.468   4.371
  791SOL     OW 3271   3.195   6.026   3.237
  791SOL    HW1 3272   3.273   6.059   3.291
  791SOL    HW2 3273   3.226   6.004   3.144
  792SOL     OW 3274   0.273   0.670   2.147
  792SOL    HW1 3275   0.227   0.613   2.215
  792SOL    HW2 3276   0.360   0.703   2.183
  793SOL     OW 3277   5.050   6.140   2.436
  793SOL    HW1 3278   5.142   6.138   2.477
  793SOL    HW2 3279   5.029   6.050   2.397
  794SOL     OW 3280   3.014   3.582   5.473
  794SOL    HW1 3281   3.105   3.595   5.432
  794SOL    HW2 3282   2.945   3.581   5.402
  795SOL     OW 3283   3.949   6.509   4.933
  795SOL    HW1 3284   3.928   6.513   4.835
  795SOL    HW2 3285   3.869   6.538   4.986
  796SOL     OW 3286   1.379   1.872   6.198
  796SOL    HW1 3287   1.322   1.913   6.269
  796SOL    HW2 3288   1.464   1.837   6.239
  797SOL     OW 3289   4.941   2.647   2.318
  797SOL    HW1 3290   4.881   2.697   2.256
  797SOL    HW2 3291   4.887   2.612   2.395
  798SOL     OW 3292   4.950   0.205   1.370
  798SOL    HW1 3293   4.877   0.265   1.336
  798SOL    HW2 3294   4.924   0.109   1.355
  799SOL     OW 3295   5.976   1.475   4.769
  799SOL    HW1 3296   5.975   1.496   4.671
  799SOL    HW2 3297   6.038   1.398   4.785
  800SOL     OW 3298   5.258   1.406   2.284
  800SOL    HW1 3299   5.352   1.404   2.251
  800SOL    HW2 3300   5.211   1.322   2.257
  801SOL     OW 3301   1.853   3.264   4.087
  801SOL    HW1 3302   1.940   3.293   4.047
  801SOL    HW2 3303   1.869   3.188   4.149
  802SOL     OW 3304   4.422   0.749   0.762
  802SOL    HW1 3305   4.358   0.705   0.825
  802SOL    HW2 3306   4.515   0.716   0.782
  803SOL     OW 3307   6.952   6.156   4.749
  803SOL    HW1 3308   7.025   6.098   4.713
  803SOL    HW2 3309   6.988   6.249   4.764
  804SOL     OW 3310   5.873   6.196   0.124
  804SOL    HW1 3311   5.814   6.227   0.050
  804SOL    HW2 3312   5.925   6.116   0.093
  805SOL     OW 3313   3.568   1.372   5.552
  805SOL    HW1 3314   3.613   1.322   5.478
  805SOL    HW2 3315   3.637   1.399   5.620
  806SOL     OW 3316   5.054   1.375   3.946
  806SOL    HW1 3317   4.981   1.421   3.995
  806SOL    HW2 3318   5.069   1.284   3.986
  807SOL     OW 3319   0.733   1.644   4.701
  807SOL    HW1 3320   0.827   1.666   4.674
  807SOL    HW2 3321   0.680   1.622   4.619
  808SOL     OW 3322   4.534   3.512   6.438
  808SOL    HW1 3323   4.584   3.596   6.419
  808SOL    HW2 3324   4.485   3.521   6.524
  809SOL     OW 3325   0.150   4.371   1.657
  809SOL    HW1 3326   0.238   4.367   1.705
  809SOL    HW2 3327   0.077   4.342   1.718
  810SOL     OW 3328   3.611   2.813   0.995
  810SOL    HW1 3329   3.684   2.875   1.023
  810SOL    HW2 3330   3.533   2.823   1.056
  811SOL     OW 3331   3.972   5.838   4.355
  811SOL    HW1 3332   3.947   5.935   4.356
  811SOL    HW2 3333   3.897   5.784   4.392
  812SOL     OW 3334   0.368   1.957   1.630
  812SOL    HW1 3335   0.449   1.966   1.571
  812SOL    HW2 3336   0.366   1.865   1.670
  813SOL     OW 3337   3.852   5.234   4.346
  813SOL    HW1 3338   3.832   5.303   4.275
  813SOL    HW2 3339   3.946   5.245   4.377
  814SOL     OW 3340   5.558   5.658   2.335
  814SOL    HW1 3341   5.653   5.627   2.334
  814SOL    HW2 3342   5.499   5.584   2.368
  815SOL     OW 3343   0.172   3.075   3.297
  815SOL    HW1 3344   0.117   3.060   3.215
  815SOL    HW2 3345   0.226   2.994   3.317
  816SOL     OW 3346   6.984   6.394   0.267
  816SOL    HW1 3347   0.041   6.433   0.231
  816SOL    HW2 3348   6.907   6.451   0.238
  817SOL     OW 3349   2.317   4.051   1.459
  817SOL    HW1 3350   2.267   4.136   1.443
  817SOL    HW2 3351   2.414   4.065   1.438
  818SOL     OW 3352   6.676   2.927   1.584
  818SOL    HW1 3353   6.577   2.923   1.598
  818SOL    HW2 3354   6.714   2.835   1.590
  819SOL     OW 3355   5.311   3.055   3.463
  819SOL    HW1 3356   5.299   3.154   3.455
  819SOL    HW2 3357   5.390   3.036   3.520
  820SOL     OW 3358   2.680   2.513   5.921
  820SOL    HW1 3359   2.661   2.559   5.834
  820SOL    HW2 3360   2.606   2.530   5.985
  821SOL     OW 3361   1.946   3.834   0.558
  821SOL    HW1 3362   1.934   3.809   0.654
  821SOL    HW2 3363   1.889   3.776   0.501
  822SOL     OW 3364   1.355   4.904   4.432
  822SOL    HW1 3365   1.345   4.989   4.486
  822SOL    HW2 3366   1.380   4.927   4.338
  823SOL     OW 3367   4.616   4.031   6.266
  823SOL    HW1 3368   4.709   4.059   6.247
  823SOL    HW2 3369   4.599   4.036   6.365
  824SOL     OW 3370   5.418   1.115   5.483
  824SOL    HW1 3371   5.485   1.179   5.444
  824SOL    HW2 3372   5.327   1.157   5.480
  825SOL     OW 3373   1.325   3.989   1.165
  825SOL    HW1 3374   1.305   4.055   1.093
  825SOL    HW2 3375   1.254   3.993   1.235
  826SOL     OW 3376   5.450   3.380   6.489
  826SOL    HW1 3377   5.436   3.401   6.392
  826SOL    HW2 3378   5.433   3.282   6.504
  827SOL     OW 3379   3.603   5.614   6.436
  827SOL    HW1 3380   3.583   5.613   6.338
  827SOL    HW2 3381   3.699   5.638   6.451
  828SOL     OW 3382   5.325   6.434   6.071
  828SOL    HW1 3383   5.261   6.492   6.120
  828SOL    HW2 3384   5.281   6.348   6.045
  829SOL     OW 3385   2.907   3.832   3.774
  829SOL    HW1 3386   2.907   3.812   3.872
  829SOL    HW2 3387   2.997   3.866   3.747
  830SOL     OW 3388   5.204   4.694   6.780
  830SOL    HW1 3389   5.241   4.726   6.867
  830SOL    HW2 3390   5.275   4.700   6.710
  831SOL     OW 3391   6.033   1.003   5.640
  831SOL    HW1 3392   5.974   1.081   5.657
  831SOL    HW2 3393   5.989   0.941   5.575
  832SOL     OW 3394   2.273   1.181   1.338
  832SOL    HW1 3395   2.218   1.100   1.317
  832SOL    HW2 3396   2.358   1.152   1.382
  833SOL     OW 3397   0.340   4.512   6.427
  833SOL    HW1 3398   0.427   4.506   6.379
  833SOL    HW2 3399   0.349   4.575   6.504
  834SOL     OW 3400   2.818   3.534   0.993
  834SOL    HW1 3401   2.747   3.580   0.940
  834SOL    HW2 3402   2.788   3.525   1.088
  835SOL     OW 3403   3.174   0.432   4.751
  835SOL    HW1 3404   3.158   0.413   4.654
  835SOL    HW2 3405   3.097   0.397   4.804
  836SOL     OW 3406   3.355   6.475   0.142
  836SOL    HW1 3407   3.327   6.542   0.211
  836SOL    HW2 3408   3.280   6.412   0.124
  837SOL     OW 3409   5.411   6.432   0.036
  837SOL    HW1 3410   5.393   6.496   0.110
  837SOL    HW2 3411   5.465   6.478   6.993
  838SOL     OW 3412   1.332   6.749   4.925
  838SOL    HW1 3413   1.422   6.717   4.896
  838SOL    HW2 3414   1.337   6.846   4.948
  839SOL     OW 3415   2.646   2.301   2.209
  839SOL    HW1 3416   2.710   2.343   2.145
  839SOL    HW2 3417   2.677   2.319   2.303
  840SOL     OW 3418   5.978   0.004   6.476
  840SOL    HW1 3419   5.974   0.104   6.473
  840SOL    HW2 3420   6.027   6.999   6.395
  841SOL     OW 3421   4.692   5.070   0.842
  841SOL    HW1 3422   4.697   5.017   0.926
  841SOL    HW2 3423   4.596   5.077   0.812
  842SOL     OW 3424   4.282   5.160   4.305
  842SOL    HW1 3425   4.225   5.152   4.224
  842SOL    HW2 3426   4.299   5.069   4.343
  843SOL     OW 3427   3.337   1.712   6.923
  843SOL    HW1 3428   3.311   1.637   6.983
  843SOL    HW2 3429   3.256   1.751   6.880
  844SOL     OW 3430   5.464   7.021   1.102
  844SOL    HW1 3431   5.473   0.089   1.128
  844SOL    HW2 3432   5.450   7.014   1.004
  845SOL     OW 3433   5.828   3.390   4.774
  845SOL    HW1 3434   5.827   3.477   4.724
  845SOL    HW2 3435   5.851   3.406   4.870
  846SOL     OW 3436   3.419   1.650   0.247
  846SOL    HW1 3437   3.381   1.691   0.329
  846SOL    HW2 3438   3.504   1.601   0.270
  847SOL     OW 3439   0.685   3.941   0.432
  847SOL    HW1 3440   0.677   3.985   0.522
  847SOL    HW2 3441   0.696   3.842   0.444
  848SOL     OW 3442   6.128   0.973   6.548
  848SOL    HW1 3443   6.113   1.068   6.574
  848SOL    HW2 3444   6.083   0.913   6.614
  849SOL     OW 3445   0.715   4.689   5.452
  849SOL    HW1 3446   0.740   4.600   5.489
  849SOL    HW2 3447   0.768   4.707   5.369
  850SOL     OW 3448   5.353   1.267   3.888
  850SOL    HW1 3449   5.307   1.189   3.930
  850SOL    HW2 3450   5.299   1.350   3.905
  851SOL     OW 3451   6.821   0.976   1.241
  851SOL    HW1 3452   6.873   0.932   1.167
  851SOL    HW2 3453   6.856   1.068   1.257
  852SOL     OW 3454   1.563   2.168   0.189
  852SOL    HW1 3455   1.644   2.136   0.238
  852SOL    HW2 3456   1.484   2.162   0.250
  853SOL     OW 3457   1.591   4.493   2.160
  853SOL    HW1 3458   1.675   4.492   2.213
  853SOL    HW2 3459   1.597   4.427   2.085
  854SOL     OW 3460   4.742   5.849   2.320
  854SOL    HW1 3461   4.781   5.824   2.232
  854SOL    HW2 3462   4.642   5.843   2.315
  855SOL     OW 3463   6.829   0.007   0.934
  855SOL    HW1 3464   6.863   0.043   1.022
  855SOL    HW2 3465   6.741   6.991   0.948
  856SOL     OW 3466   1.621   1.870   4.908
  856SOL    HW1 3467   1.582   1.962   4.911
  856SOL    HW2 3468   1.675   1.854   4.991
  857SOL     OW 3469   5.835   4.229   1.675
  857SOL    HW1 3470   5.737   4.211   1.673
  857SOL    HW2 3471   5.852   4.326   1.655
  858SOL     OW 3472   2.728   4.339   1.225
  858SOL    HW1 3473   2.634   4.311   1.209
  858SOL    HW2 3474   2.767   4.284   1.299
  859SOL     OW 3475   4.731   5.365   6.718
  859SOL    HW1 3476   4.819   5.365   6.765
  859SOL    HW2 3477   4.662   5.322   6.777
  860SOL     OW 3478   4.230   4.477   0.994
  860SOL    HW1 3479   4.215   4.378   1.000
  860SOL    HW2 3480   4.303   4.495   0.928
  861SOL     OW 3481   2.396   0.173   4.782
  861SOL    HW1 3482   2.433   0.080   4.792
  861SOL    HW2 3483   2.402   0.221   4.869
  862SOL     OW 3484   0.059   4.841   6.039
  862SOL    HW1 3485   0.038   4.745   6.018
  862SOL    HW2 3486   0.056   4.894   5.954
  863SOL     OW 3487   1.094   0.806   0.619
  863SOL    HW1 3488   1.002   0.802   0.658
  863SOL    HW2 3489   1.160   0.827   0.692
  864SOL     OW 3490   4.912   4.614   3.825
  864SOL    HW1 3491   4.922   4.620   3.924
  864SOL    HW2 3492   4.970   4.540   3.790
  865SOL     OW 3493   2.311   6.078   5.012
  865SOL    HW1 3494   2.359   6.100   4.927
  865SOL    HW2 3495   2.230   6.023   4.992
  866SOL     OW 3496   2.088   2.411   1.985
  866SOL    HW1 3497   2.071   2.342   2.055
  866SOL    HW2 3498   2.175   2.457   2.004
  867SOL     OW 3499   4.103   2.982   1.095
  867SOL    HW1 3500   4.105   3.030   1.183
  867SOL    HW2 3501   4.143   3.041   1.024
  868SOL     OW 3502   5.680   6.447   1.476
  868SOL    HW1 3503   5.656   6.351   1.487
  868SOL    HW2 3504   5.671   6.494   1.564
  869SOL     OW 3505   6.703   5.474   3.307
  869SOL    HW1 3506   6.667   5.411   3.375
  869SOL    HW2 3507   6.628   5.522   3.262
  870SOL     OW 3508   5.630   3.442   0.034
  870SOL    HW1 3509   5.725   3.452   0.063
  870SOL    HW2 3510   5.593   3.357   0.071
  871SOL     OW 3511   5.657   3.593   1.731
  871SOL    HW1 3512   5.581   3.578   1.795
  871SOL    HW2 3513   5.733   3.637   1.779
  872SOL     OW 3514   6.290   4.197   3.974
  872SOL    HW1 3515   6.326   4.181   4.066
  872SOL    HW2 3516   6.238   4.282   3.973
  873SOL     OW 3517   5.582   0.225   3.556
  873SOL    HW1 3518   5.600   0.128   3.571
  873SOL    HW2 3519   5.525   0.236   3.475
  874SOL     OW 3520   1.546   4.620   5.416
  874SOL    HW1 3521   1.490   4.546   5.378
  874SOL    HW2 3522   1.642   4.604   5.394
  875SOL     OW 3523   4.390   3.683   0.755
  875SOL    HW1 3524   4.439   3.608   0.710
  875SOL    HW2 3525   4.301   3.650   0.785
  876SOL     OW 3526   0.612   6.114   3.759
  876SOL    HW1 3527   0.566   6.088   3.843
  876SOL    HW2 3528   0.644   6.209   3.767
  877SOL     OW 3529   3.379   4.871   0.105
  877SOL    HW1 3530   3.391   4.846   0.201
  877SOL    HW2 3531   3.415   4.799   0.046
  878SOL     OW 3532   4.077   6.010   6.085
  878SOL    HW1 3533   4.053   5.943   6.155
  878SOL    HW2 3534   4.038   6.099   6.109
  879SOL     OW 3535   3.403   1.974   2.081
  879SOL    HW1 3536   3.352   1.996   1.998
  879SOL    HW2 3537   3.501   1.987   2.064
  880SOL     OW 3538   2.951   5.035   0.174
  880SOL    HW1 3539   2.853   5.018   0.188
  880SOL    HW2 3540   2.990   4.963   0.117
  881SOL     OW 3541   4.043   4.581   5.288
  881SOL    HW1 3542   4.108   4.530   5.230
  881SOL    HW2 3543   4.007   4.520   5.359
  882SOL     OW 3544   1.509   1.188   4.020
  882SOL    HW1 3545   1.498   1.219   3.925
  882SOL    HW2 3546   1.597   1.141   4.029
  883SOL     OW 3547   4.701   5.223   4.935
  883SOL    HW1 3548   4.763   5.299   4.918
  883SOL    HW2 3549   4.753   5.145   4.972
  884SOL     OW 3550   0.172   3.506   1.532
  884SOL    HW1 3551   0.141   3.411   1.526
  884SOL    HW2 3552   0.152   3.553   1.446
  885SOL     OW 3553   5.207   5.552   6.681
  885SOL    HW1 3554   5.236   5.630   6.626
  885SOL    HW2 3555   5.211   5.576   6.778
  886SOL     OW 3556   4.101   6.948   0.623
  886SOL    HW1 3557   4.156   7.000   0.558
  886SOL    HW2 3558   4.157   6.925   0.702
  887SOL     OW 3559   4.416   6.892   4.753
  887SOL    HW1 3560   4.435   6.802   4.715
  887SOL    HW2 3561   4.336   6.887   4.813
  888SOL     OW 3562   5.861   6.593   3.504
  888SOL    HW1 3563   5.845   6.494   3.506
  888SOL    HW2 3564   5.895   6.620   3.414
  889SOL     OW 3565   0.838   6.457   6.163
  889SOL    HW1 3566   0.885   6.377   6.126
  889SOL    HW2 3567   0.761   6.428   6.219
  890SOL     OW 3568   2.778   4.970   1.965
  890SOL    HW1 3569   2.699   4.912   1.948
  890SOL    HW2 3570   2.862   4.917   1.957
  891SOL     OW 3571   6.047   3.820   1.782
  891SOL    HW1 3572   6.141   3.854   1.773
  891SOL    HW2 3573   5.996   3.843   1.700
  892SOL     OW 3574   3.884   3.957   0.577
  892SOL    HW1 3575   3.865   3.860   0.562
  892SOL    HW2 3576   3.917   3.998   0.492
  893SOL     OW 3577   2.642   0.829   2.128
  893SOL    HW1 3578   2.646   0.729   2.137
  893SOL    HW2 3579   2.723   0.861   2.079
  894SOL     OW 3580   1.736   3.542   4.208
  894SOL    HW1 3581   1.676   3.509   4.280
  894SOL    HW2 3582   1.783   3.465   4.165
  895SOL     OW 3583   2.059   5.908   5.042
  895SOL    HW1 3584   1.993   5.893   5.115
  895SOL    HW2 3585   2.010   5.939   4.959
  896SOL     OW 3586   5.626   6.152   2.324
  896SOL    HW1 3587   5.593   6.195   2.240
  896SOL    HW2 3588   5.550   6.108   2.372
  897SOL     OW 3589   5.822   0.645   7.019
  897SOL    HW1 3590   5.872   0.665   6.935
  897SOL    HW2 3591   5.736   0.696   7.020
  898SOL     OW 3592   3.823   5.709   3.498
  898SOL    HW1 3593   3.808   5.686   3.594
  898SOL    HW2 3594   3.736   5.707   3.450
  899SOL     OW 3595   0.368   5.076   6.987
  899SOL    HW1 3596   0.430   5.079   0.037
  899SOL    HW2 3597   0.273   5.075   7.019
  900SOL     OW 3598   5.213   6.125   1.417
  900SOL    HW1 3599   5.191   6.194   1.486
  900SOL    HW2 3600   5.129   6.086   1.380
  901SOL     OW 3601   0.530   1.000   5.455
  901SOL    HW1 3602   0.608   1.041   5.407
  901SOL    HW2 3603   0.522   0.904   5.428
  902SOL     OW 3604   0.183   1.661   5.898
  902SOL    HW1 3605   0.120   1.658   5.975
  902SOL    HW2 3606   0.142   1.616   5.819
  903SOL     OW 3607   6.506   3.736   6.363
  903SOL    HW1 3608   6.525   3.825   6.321
  903SOL    HW2 3609   6.407   3.721   6.364
  904SOL     OW 3610   1.609   1.931   4.214
  904SOL    HW1 3611   1.583   1.958   4.121
  904SOL    HW2 3612   1.554   1.852   4.242
  905SOL     OW 3613   4.666   2.907   6.122
  905SOL    HW1 3614   4.631   2.831   6.176
  905SOL    HW2 3615   4.590   2.954   6.076
  906SOL     OW 3616   0.189   3.695   6.393
  906SOL    HW1 3617   0.246   3.772   6.423
  906SOL    HW2 3618   0.237   3.644   6.321
  907SOL     OW 3619   5.474   2.512   3.855
  907SOL    HW1 3620   5.475   2.489   3.952
  907SOL    HW2 3621   5.494   2.609   3.842
  908SOL     OW 3622   1.970   6.582   3.698
  908SOL    HW1 3623   1.886   6.631   3.721
  908SOL    HW2 3624   2.044   6.612   3.759
  909SOL     OW 3625   2.239   0.516   1.212
  909SOL    HW1 3626   2.215   0.452   1.139
  909SOL    HW2 3627   2.329   0.493   1.249
  910SOL     OW 3628   2.529   0.161   0.657
  910SOL    HW1 3629   2.545   0.173   0.755
  910SOL    HW2 3630   2.610   0.189   0.607
  911SOL     OW 3631   6.515   5.880   1.164
  911SOL    HW1 3632   6.471   5.969   1.160
  911SOL    HW2 3633   6.482   5.823   1.090
  912SOL     OW 3634   6.512   0.944   4.950
  912SOL    HW1 3635   6.453   0.916   5.026
  912SOL    HW2 3636   6.484   0.896   4.867
  913SOL     OW 3637   2.420   0.425   3.776
  913SOL    HW1 3638   2.497   0.370   3.741
  913SOL    HW2 3639   2.450   0.520   3.788
  914SOL     OW 3640   2.723   5.623   5.591
  914SOL    HW1 3641   2.808   5.571   5.589
  914SOL    HW2 3642   2.683   5.620   5.683
  915SOL     OW 3643   0.932   3.515   1.067
  915SOL    HW1 3644   0.858   3.525   1.134
  915SOL    HW2 3645   0.916   3.577   0.990
  916SOL     OW 3646   1.114   2.581   2.655
  916SOL    HW1 3647   1.201   2.534   2.670
  916SOL    HW2 3648   1.051   2.559   2.730
  917SOL     OW 3649   4.452   0.657   1.482
  917SOL    HW1 3650   4.435   0.671   1.579
  917SOL    HW2 3651   4.421   0.737   1.430
  918SOL     OW 3652   2.403   5.978   0.101
  918SOL    HW1 3653   2.409   6.056   0.039
  918SOL    HW2 3654   2.378   6.011   0.192
  919SOL     OW 3655   0.288   5.712   2.350
  919SOL    HW1 3656   0.255   5.776   2.420
  919SOL    HW2 3657   0.255   5.620   2.370
  920SOL     OW 3658   1.799   0.298   2.820
  920SOL    HW1 3659   1.708   0.322   2.785
  920SOL    HW2 3660   1.827   0.366   2.888
  921SOL     OW 3661   5.553   4.529   4.173
  921SOL    HW1 3662   5.653   4.531   4.174
  921SOL    HW2 3663   5.518   4.613   4.133
  922SOL     OW 3664   3.717   2.771   6.506
  922SOL    HW1 3665   3.627   2.730   6.494
  922SOL    HW2 3666   3.769   2.764   6.421
  923SOL     OW 3667   3.062   5.517   0.336
  923SOL    HW1 3668   2.990   5.480   0.277
  923SOL    HW2 3669   3.068   5.616   0.323
  924SOL     OW 3670   5.892   3.215   2.158
  924SOL    HW1 3671   5.865   3.277   2.085
  924SOL    HW2 3672   5.978   3.170   2.135
  925SOL     OW 3673   6.626   1.759   5.478
  925SOL    HW1 3674   6.557   1.752   5.549
  925SOL    HW2 3675   6.628   1.675   5.424
  926SOL     OW 3676   5.753   1.146   6.775
  926SOL    HW1 3677   5.733   1.131   6.679
  926SOL    HW2 3678   5.694   1.088   6.831
  927SOL     OW 3679   5.453   4.270   4.117
  927SOL    HW1 3680   5.505   4.355   4.107
  927SOL    HW2 3681   5.499   4.211   4.183
  928SOL     OW 3682   2.078   0.782   0.624
  928SOL    HW1 3683   2.085   0.709   0.555
  928SOL    HW2 3684   2.021   0.855   0.589
  929SOL     OW 3685   6.989   1.519   0.940
  929SOL    HW1 3686   0.006   1.444   0.891
  929SOL    HW2 3687   6.890   1.510   0.927
  930SOL     OW 3688   6.319   5.828   4.614
  930SOL    HW1 3689   6.264   5.876   4.682
  930SOL    HW2 3690   6.292   5.732   4.612
  931SOL     OW 3691   0.149   3.336   3.832
  931SOL    HW1 3692   0.095   3.276   3.773
  931SOL    HW2 3693   0.207   3.395   3.776
  932SOL     OW 3694   2.622   6.544   1.669
  932SOL    HW1 3695   2.651   6.638   1.658
  932SOL    HW2 3696   2.630   6.517   1.766
  933SOL     OW 3697   0.599   4.945   2.275
  933SOL    HW1 3698   0.673   4.888   2.311
  933SOL    HW2 3699   0.517   4.932   2.330
  934SOL     OW 3700   2.130   0.529   4.273
  934SOL    HW1 3701   2.149   0.588   4.195
  934SOL    HW2 3702   2.128   0.433   4.243
  935SOL     OW 3703   5.160   4.162   5.126
  935SOL    HW1 3704   5.112   4.237   5.171
  935SOL    HW2 3705   5.135   4.076   5.170
  936SOL     OW 3706   1.199   0.185   5.864
  936SOL    HW1 3707   1.104   0.212   5.847
  936SOL    HW2 3708   1.261   0.248   5.818
  937SOL     OW 3709   5.008   1.860   5.377
  937SOL    HW1 3710   4.944   1.828   5.306
  937SOL    HW2 3711   4.972   1.943   5.420
  938SOL     OW 3712   0.150   5.309   6.028
  938SOL    HW1 3713   0.172   5.223   5.983
  938SOL    HW2 3714   0.234   5.357   6.051
  939SOL     OW 3715   4.788   1.476   5.429
  939SOL    HW1 3716   4.888   1.475   5.424
  939SOL    HW2 3717   4.751   1.509   5.343
  940SOL     OW 3718   6.706   3.101   2.376
  940SOL    HW1 3719   6.684   3.180   2.319
  940SOL    HW2 3720   6.805   3.092   2.383
  941SOL     OW 3721   6.357   0.753   3.932
  941SOL    HW1 3722   6.412   0.687   3.880
  941SOL    HW2 3723   6.397   0.765   4.023
  942SOL     OW 3724   4.909   0.855   4.196
  942SOL    HW1 3725   4.995   0.828   4.153
  942SOL    HW2 3726   4.834   0.848   4.130
  943SOL     OW 3727   1.130   3.121   3.470
  943SOL    HW1 3728   1.133   3.073   3.558
  943SOL    HW2 3729   1.142   3.219   3.485
  944SOL     OW 3730   6.187   3.042   6.368
  944SOL    HW1 3731   6.222   3.136   6.377
  944SOL    HW2 3732   6.128   3.021   6.445
  945SOL     OW 3733   6.576   4.211   5.859
  945SOL    HW1 3734   6.676   4.207   5.855
  945SOL    HW2 3735   6.540   4.118   5.864
  946SOL     OW 3736   5.239   2.815   5.967
  946SOL    HW1 3737   5.311   2.866   6.015
  946SOL    HW2 3738   5.184   2.764   6.033
  947SOL     OW 3739   2.970   3.629   5.129
  947SOL    HW1 3740   2.976   3.696   5.055
  947SOL    HW2 3741   3.062   3.607   5.161
  948SOL     OW 3742   4.618   1.052   0.927
  948SOL    HW1 3743   4.618   1.052   0.827
  948SOL    HW2 3744   4.605   0.958   0.960
  949SOL     OW 3745   0.073   6.307   6.399
  949SOL    HW1 3746   0.117   6.383   6.448
  949SOL    HW2 3747   7.024   6.342   6.346
  950SOL     OW 3748   4.217   5.157   2.339
  950SOL    HW1 3749   4.239   5.060   2.351
  950SOL    HW2 3750   4.268   5.193   2.261
  951SOL     OW 3751   1.833   0.657   2.182
  951SOL    HW1 3752   1.910   0.608   2.141
  951SOL    HW2 3753   1.759   0.666   2.114
  952SOL     OW 3754   5.315   1.347   1.761
  952SOL    HW1 3755   5.290   1.329   1.666
  952SOL    HW2 3756   5.237   1.325   1.820
  953SOL     OW 3757   4.850   5.690   5.141
  953SOL    HW1 3758   4.948   5.673   5.136
  953SOL    HW2 3759   4.817   5.664   5.232
  954SOL     OW 3760   5.217   6.319   0.806
  954SOL    HW1 3761   5.212   6.295   0.903
  954SOL    HW2 3762   5.128   6.352   0.774
  955SOL     OW 3763   0.566   4.800   3.071
  955SOL    HW1 3764   0.647   4.742   3.058
  955SOL    HW2 3765   0.552   4.816   3.169
  956SOL     OW 3766   0.757   1.835   2.175
  956SOL    HW1 3767   0.735   1.790   2.089
  956SOL    HW2 3768   0.840   1.891   2.164
  957SOL     OW 3769   1.672   4.644   4.088
  957SOL    HW1 3770   1.577   4.631   4.114
  957SOL    HW2 3771   1.707   4.559   4.047
  958SOL     OW 3772   4.792   2.579   1.373
  958SOL    HW1 3773   4.695   2.563   1.355
  958SOL    HW2 3774   4.839   2.492   1.388
  959SOL     OW 3775   2.713   5.013   2.942
  959SOL    HW1 3776   2.804   4.979   2.921
  959SOL    HW2 3777   2.674   5.057   2.861
  960SOL     OW 3778   0.232   6.217   3.912
  960SOL    HW1 3779   0.213   6.220   4.010
  960SOL    HW2 3780   0.310   6.158   3.895
  961SOL     OW 3781   5.156   6.486   3.166
  961SOL    HW1 3782   5.180   6.571   3.118
  961SOL    HW2 3783   5.170   6.498   3.264
  962SOL     OW 3784   1.738   1.615   3.871
  962SOL    HW1 3785   1.797   1.690   3.900
  962SOL    HW2 3786   1.760   1.533   3.924
  963SOL     OW 3787   5.931   1.233   6.309
  963SOL    HW1 3788   5.955   1.163   6.241
  963SOL    HW2 3789   5.995   1.229   6.386
  964SOL     OW 3790   6.223   3.379   0.490
  964SOL    HW1 3791   6.314   3.392   0.530
  964SOL    HW2 3792   6.233   3.343   0.397
  965SOL     OW 3793   5.534   1.627   0.964
  965SOL    HW1 3794   5.483   1.692   0.908
  965SOL    HW2 3795   5.632   1.649   0.960
  966SOL     OW 3796   6.307   1.837   2.243
  966SOL    HW1 3797   6.393   1.870   2.202
  966SOL    HW2 3798   6.233   1.846   2.176
  967SOL     OW 3799   1.570   5.283   0.962
  967SOL    HW1 3800   1.639   5.214   0.984
  967SOL    HW2 3801   1.532   5.264   0.872
  968SOL     OW 3802   4.531   2.564   2.105
  968SOL    HW1 3803   4.626   2.536   2.090
  968SOL    HW2 3804   4.528   2.635   2.176
  969SOL     OW 3805   4.341   5.679   6.131
  969SOL    HW1 3806   4.420   5.623   6.153
  969SOL    HW2 3807   4.367   5.753   6.069
  970SOL     OW 3808   4.582   0.866   4.978
  970SOL    HW1 3809   4.612   0.858   5.073
  970SOL    HW2 3810   4.482   0.878   4.975
  971SOL     OW 3811   0.401   1.924   3.117
  971SOL    HW1 3812   0.477   1.891   3.062
  971SOL    HW2 3813   0.437   1.968   3.200
  972SOL     OW 3814   5.432   3.539   1.040
  972SOL    HW1 3815   5.532   3.547   1.030
  972SOL    HW2 3816   5.405   3.574   1.130
  973SOL     OW 3817   0.245   4.244   6.422
  973SOL    HW1 3818   0.299   4.328   6.431
  973SOL    HW2 3819   0.218   4.212   6.512
  974SOL     OW 3820   4.227   0.752   2.404
  974SOL    HW1 3821   4.216   0.849   2.384
  974SOL    HW2 3822   4.146   0.718   2.451
  975SOL     OW 3823   2.020   5.512   6.516
  975SOL    HW1 3824   2.003   5.417   6.545
  975SOL    HW2 3825   2.087   5.512   6.441
  976SOL     OW 3826   5.905   3.140   2.818
  976SOL    HW1 3827   5.872   3.225   2.778
  976SOL    HW2 3828   6.003   3.148   2.836
  977SOL     OW 3829   2.633   1.381   3.636
  977SOL    HW1 3830   2.546   1.429   3.645
  977SOL    HW2 3831   2.691   1.427   3.569
  978SOL     OW 3832   5.002   4.152   5.592
  978SOL    HW1 3833   4.949   4.181   5.513
  978SOL    HW2 3834   5.068   4.223   5.616
  979SOL     OW 3835   6.887   1.621   2.153
  979SOL    HW1 3836   6.910   1.717   2.140
  979SOL    HW2 3837   6.948   1.564   2.097
  980SOL     OW 3838   4.673   2.122   3.741
  980SOL    HW1 3839   4.739   2.050   3.763
  980SOL    HW2 3840   4.602   2.124   3.811
  981SOL     OW 3841   1.545   1.436   4.778
  981SOL    HW1 3842   1.513   1.352   4.735
  981SOL    HW2 3843   1.569   1.418   4.873
  982SOL     OW 3844   2.449   1.870   3.791
  982SOL    HW1 3845   2.469   1.963   3.821
  982SOL    HW2 3846   2.487   1.855   3.700
  983SOL     OW 3847   5.895   2.099   3.086
  983SOL    HW1 3848   5.962   2.173   3.075
  983SOL    HW2 3849   5.814   2.135   3.132
  984SOL     OW 3850   3.709   0.879   4.003
  984SOL    HW1 3851   3.641   0.815   4.038
  984SOL    HW2 3852   3.795   0.831   3.988
  985SOL     OW 3853   5.486   4.739   6.659
  985SOL    HW1 3854   5.484   4.774   6.565
  985SOL    HW2 3855   5.541   4.800   6.716
  986SOL     OW 3856   5.561   5.177   0.596
  986SOL    HW1 3857   5.463   5.158   0.588
  986SOL    HW2 3858   5.613   5.095   0.572
  987SOL     OW 3859   4.506   6.510   1.477
  987SOL    HW1 3860   4.563   6.475   1.551
  987SOL    HW2 3861   4.429   6.561   1.515
  988SOL     OW 3862   3.596   3.410   1.233
  988SOL    HW1 3863   3.602   3.319   1.191
  988SOL    HW2 3864   3.656   3.473   1.183
  989SOL     OW 3865   6.928   0.992   5.307
  989SOL    HW1 3866   6.945   1.069   5.246
  989SOL    HW2 3867   6.913   1.027   5.400
  990SOL     OW 3868   4.456   0.592   2.673
  990SOL    HW1 3869   4.512   0.559   2.750
  990SOL    HW2 3870   4.386   0.654   2.708
  991SOL     OW 3871   1.611   2.693   5.164
  991SOL    HW1 3872   1.663   2.636   5.101
  991SOL    HW2 3873   1.581   2.776   5.117
  992SOL     OW 3874   0.908   4.335   0.883
  992SOL    HW1 3875   0.852   4.309   0.805
  992SOL    HW2 3876   0.879   4.284   0.964
  993SOL     OW 3877   1.479   5.431   2.280
  993SOL    HW1 3878   1.410   5.383   2.333
  993SOL    HW2 3879   1.563   5.377   2.278
  994SOL     OW 3880   3.339   3.409   2.521
  994SOL    HW1 3881   3.306   3.417   2.615
  994SOL    HW2 3882   3.408   3.336   2.516
  995SOL     OW 3883   2.808   2.248   6.322
  995SOL    HW1 3884   2.797   2.297   6.409
  995SOL    HW2 3885   2.724   2.198   6.301
  996SOL     OW 3886   1.518   4.419   4.513
  996SOL    HW1 3887   1.451   4.448   4.582
  996SOL    HW2 3888   1.492   4.456   4.424
  997SOL     OW 3889   6.819   0.555   1.822
  997SOL    HW1 3890   6.734   0.526   1.867
  997SOL    HW2 3891   6.820   0.655   1.815
  998SOL     OW 3892   4.831   6.399   3.756
  998SOL    HW1 3893   4.846   6.442   3.845
  998SOL    HW2 3894   4.880   6.312   3.752
  999SOL     OW 3895   5.714   4.877   1.679
  999SOL    HW1 3896   5.628   4.872   1.730
  999SOL    HW2 3897   5.787   4.910   1.740
 1000SOL     OW 3898   1.410   1.210   2.455
 1000SOL    HW1 3899   1.378   1.250   2.369
 1000SOL    HW2 3900   1.486   1.265   2.490
 1001SOL     OW 3901   6.088   6.802   0.209
 1001SOL    HW1 3902   6.063   6.786   0.114
 1001SOL    HW2 3903   6.093   6.900   0.227
 1002SOL     OW 3904   6.015   1.820   6.672
 1002SOL    HW1 3905   6.099   1.787   6.715
 1002SOL    HW2 3906   5.952   1.853   6.742
 1003SOL     OW 3907   2.278   6.622   1.753
 1003SOL    HW1 3908   2.317   6.637   1.662
 1003SOL    HW2 3909   2.179   6.613   1.746
 1004SOL     OW 3910   0.181   0.553   1.273
 1004SOL    HW1 3911   0.142   0.499   1.199
 1004SOL    HW2 3912   0.119   0.629   1.295
 1005SOL     OW 3913   0.358   1.517   2.770
 1005SOL    HW1 3914   0.409   1.600   2.748
 1005SOL    HW2 3915   0.402   1.469   2.846
 1006SOL     OW 3916   1.360   6.048   1.628
 1006SOL    HW1 3917   1.457   6.027   1.640
 1006SOL    HW2 3918   1.321   5.986   1.560
 1007SOL     OW 3919   5.690   6.902   4.199
 1007SOL    HW1 3920   5.752   6.930   4.126
 1007SOL    HW2 3921   5.642   6.819   4.172
 1008SOL     OW 3922   2.057   3.148   4.758
 1008SOL    HW1 3923   2.111   3.078   4.711
 1008SOL    HW2 3924   2.077   3.237   4.717
 1009SOL     OW 3925   0.523   6.250   4.414
 1009SOL    HW1 3926   0.543   6.317   4.485
 1009SOL    HW2 3927   0.565   6.163   4.436
 1010SOL     OW 3928   3.756   2.166   6.380
 1010SOL    HW1 3929   3.795   2.132   6.294
 1010SOL    HW2 3930   3.662   2.196   6.365
 1011SOL     OW 3931   2.872   5.131   2.402
 1011SOL    HW1 3932   2.898   5.197   2.332
 1011SOL    HW2 3933   2.889   5.169   2.493
 1012SOL     OW 3934   0.114   6.722   0.188
 1012SOL    HW1 3935   0.210   6.699   0.200
 1012SOL    HW2 3936   0.073   6.742   0.277
 1013SOL     OW 3937   0.390   1.431   6.469
 1013SOL    HW1 3938   0.417   1.397   6.379
 1013SOL    HW2 3939   0.296   1.464   6.464
 1014SOL     OW 3940   5.294   5.333   6.521
 1014SOL    HW1 3941   5.311   5.248   6.572
 1014SOL    HW2 3942   5.258   5.402   6.583
 1015SOL     OW 3943   2.215   6.656   5.510
 1015SOL    HW1 3944   2.192   6.674   5.414
 1015SOL    HW2 3945   2.311   6.629   5.516
 1016SOL     OW 3946   2.682   3.414   0.318
 1016SOL    HW1 3947   2.628   3.497   0.303
 1016SOL    HW2 3948   2.662   3.348   0.246
 1017SOL     OW 3949   4.403   2.515   0.954
 1017SOL    HW1 3950   4.372   2.528   0.859
 1017SOL    HW2 3951   4.501   2.535   0.960
 1018SOL     OW 3952   1.538   3.384   3.590
 1018SOL    HW1 3953   1.623   3.369   3.642
 1018SOL    HW2 3954   1.460   3.355   3.645
 1019SOL     OW 3955   1.282   0.308   0.092
 1019SOL    HW1 3956   1.238   0.391   0.058
 1019SOL    HW2 3957   1.340   0.269   0.021
 1020SOL     OW 3958   1.101   6.690   1.193
 1020SOL    HW1 3959   1.073   6.786   1.194
 1020SOL    HW2 3960   1.179   6.677   1.255
 1021SOL     OW 3961   5.615   1.035   1.243
 1021SOL    HW1 3962   5.582   1.044   1.149
 1021SOL    HW2 3963   5.665   1.118   1.268
 1022SOL     OW 3964   4.223   4.682   6.408
 1022SOL    HW1 3965   4.267   4.593   6.415
 1022SOL    HW2 3966   4.124   4.670   6.402
 1023SOL     OW 3967   6.684   6.959   1.675
 1023SOL    HW1 3968   6.644   6.997   1.591
 1023SOL    HW2 3969   6.783   6.967   1.671
 1024SOL     OW 3970   5.853   3.459   4.018
 1024SOL    HW1 3971   5.896   3.375   4.051
 1024SOL    HW2 3972   5.758   3.462   4.050
 1025SOL     OW 3973   3.536   4.091   0.634
 1025SOL    HW1 3974   3.498   4.002   0.656
 1025SOL    HW2 3975   3.561   4.094   0.537
 1026SOL     OW 3976   2.110   1.655   1.316
 1026SOL    HW1 3977   2.066   1.741   1.344
 1026SOL    HW2 3978   2.040   1.590   1.286
 1027SOL     OW 3979   2.417   5.932   1.287
 1027SOL    HW1 3980   2.447   5.867   1.217
 1027SOL    HW2 3981   2.498   5.974   1.329
 1028SOL     OW 3982   4.263   5.803   0.355
 1028SOL    HW1 3983   4.184   5.771   0.304
 1028SOL    HW2 3984   4.338   5.825   0.292
 1029SOL     OW 3985   1.993   0.623   0.394
 1029SOL    HW1 3986   1.920   0.581   0.448
 1029SOL    HW2 3987   1.965   0.626   0.298
 1030SOL     OW 3988   3.549   3.782   1.576
 1030SOL    HW1 3989   3.558   3.715   1.503
 1030SOL    HW2 3990   3.635   3.832   1.587
 1031SOL     OW 3991   5.363   5.397   0.528
 1031SOL    HW1 3992   5.433   5.432   0.591
 1031SOL    HW2 3993   5.335   5.306   0.557
 1032SOL     OW 3994   1.889   1.819   4.521
 1032SOL    HW1 3995   1.816   1.771   4.570
 1032SOL    HW2 3996   1.893   1.914   4.552
 1033SOL     OW 3997   1.955   6.428   1.263
 1033SOL    HW1 3998   1.984   6.443   1.169
 1033SOL    HW2 3999   1.856   6.441   1.271
 1034SOL     OW 4000   1.196   5.723   5.274
 1034SOL    HW1 4001   1.250   5.700   5.193
 1034SOL    HW2 4002   1.214   5.817   5.301
 1035SOL     OW 4003   2.366   1.225   3.556
 1035SOL    HW1 4004   2.358   1.308   3.611
 1035SOL    HW2 4005   2.350   1.145   3.613
 1036SOL     OW 4006   3.296   0.806   1.398
 1036SOL    HW1 4007   3.383   0.838   1.435
 1036SOL    HW2 4008   3.251   0.881   1.350
 1037SOL     OW 4009   2.372   0.669   1.487
 1037SOL    HW1 4010   2.463   0.677   1.527
 1037SOL    HW2 4011   2.368   0.587   1.430
 1038SOL     OW 4012   1.374   1.020   5.859
 1038SOL    HW1 4013   1.401   1.072   5.940
 1038SOL    HW2 4014   1.392   0.923   5.875
 1039SOL     OW 4015   3.624   3.063   5.705
 1039SOL    HW1 4016   3.551   3.041   5.640
 1039SOL    HW2 4017   3.622   2.998   5.781
 1040SOL     OW 4018   5.112   3.035   2.556
 1040SOL    HW1 4019   5.173   3.069   2.628
 1040SOL    HW2 4020   5.167   2.997   2.481
 1041SOL     OW 4021   6.660   6.983   4.119
 1041SOL    HW1 4022   6.608   0.011   4.055
 1041SOL    HW2 4023   6.739   6.943   4.071
 1042SOL     OW 4024   3.401   4.888   2.245
 1042SOL    HW1 4025   3.445   4.812   2.198
 1042SOL    HW2 4026   3.342   4.938   2.181
 1043SOL     OW 4027   4.823   1.148   5.330
 1043SOL    HW1 4028   4.788   1.157   5.237
 1043SOL    HW2 4029   4.757   1.187   5.395
 1044SOL     OW 4030   4.719   4.190   1.766
 1044SOL    HW1 4031   4.684   4.099   1.741
 1044SOL    HW2 4032   4.656   4.234   1.830
 1045SOL     OW 4033   2.551   6.749   2.698
 1045SOL    HW1 4034   2.595   6.811   2.763
 1045SOL    HW2 4035   2.504   6.802   2.627
 1046SOL     OW 4036   1.922   6.945   0.028
 1046SOL    HW1 4037   1.858   6.897   0.088
 1046SOL    HW2 4038   1.873   7.012   7.002
 1047SOL     OW 4039   1.141   6.099   2.894
 1047SOL    HW1 4040   1.159   6.196   2.911
 1047SOL    HW2 4041   1.177   6.074   2.804
 1048SOL     OW 4042   4.988   5.742   5.452
 1048SOL    HW1 4043   4.950   5.802   5.523
 1048SOL    HW2 4044   4.918   5.679   5.420
 1049SOL     OW 4045   6.879   5.061   4.538
 1049SOL    HW1 4046   6.951   5.105   4.592
 1049SOL    HW2 4047   6.791   5.070   4.585
 1050SOL     OW 4048   3.122   5.279   0.754
 1050SOL    HW1 4049   3.055   5.214   0.790
 1050SOL    HW2 4050   3.082   5.329   0.678
 1051SOL     OW 4051   2.755   5.069   0.516
 1051SOL    HW1 4052   2.748   5.028   0.425
 1051SOL    HW2 4053   2.667   5.061   0.563
 1052SOL     OW 4054   4.366   6.705   4.264
 1052SOL    HW1 4055   4.342   6.737   4.356
 1052SOL    HW2 4056   4.303   6.633   4.236
 1053SOL     OW 4057   5.106   5.514   3.006
 1053SOL    HW1 4058   5.095   5.547   2.912
 1053SOL    HW2 4059   5.193   5.547   3.044
 1054SOL     OW 4060   3.048   4.807   6.184
 1054SOL    HW1 4061   3.048   4.781   6.088
 1054SOL    HW2 4062   3.009   4.733   6.239
 1055SOL     OW 4063   6.004   6.890   4.305
 1055SOL    HW1 4064   6.075   6.952   4.338
 1055SOL    HW2 4065   5.927   6.944   4.270
 1056SOL     OW 4066   1.337   5.530   5.550
 1056SOL    HW1 4067   1.288   5.581   5.622
 1056SOL    HW2 4068   1.288   5.539   5.464
 1057SOL     OW 4069   3.270   3.396   2.795
 1057SOL    HW1 4070   3.339   3.324   2.801
 1057SOL    HW2 4071   3.265   3.445   2.882
 1058SOL     OW 4072   4.949   1.494   1.821
 1058SOL    HW1 4073   5.040   1.510   1.860
 1058SOL    HW2 4074   4.888   1.461   1.893
 1059SOL     OW 4075   2.170   0.632   0.883
 1059SOL    HW1 4076   2.269   0.619   0.870
 1059SOL    HW2 4077   2.124   0.626   0.794
 1060SOL     OW 4078   0.071   3.159   4.855
 1060SOL    HW1 4079   0.050   3.175   4.759
 1060SOL    HW2 4080   0.118   3.239   4.892
 1061SOL     OW 4081   5.112   3.779   1.440
 1061SOL    HW1 4082   5.145   3.848   1.375
 1061SOL    HW2 4083   5.141   3.688   1.409
 1062SOL     OW 4084   6.686   5.064   5.472
 1062SOL    HW1 4085   6.600   5.091   5.515
 1062SOL    HW2 4086   6.691   5.104   5.380
 1063SOL     OW 4087   0.917   4.323   1.585
 1063SOL    HW1 4088   1.009   4.311   1.621
 1063SOL    HW2 4089   0.889   4.418   1.599
 1064SOL     OW 4090   1.170   4.268   1.684
 1064SOL    HW1 4091   1.233   4.326   1.735
 1064SOL    HW2 4092   1.222   4.195   1.638
 1065SOL     OW 4093   4.400   0.316   4.191
 1065SOL    HW1 4094   4.495   0.334   4.218
 1065SOL    HW2 4095   4.398   0.250   4.116
 1066SOL     OW 4096   5.345   0.975   4.303
 1066SOL    HW1 4097   5.259   1.000   4.347
 1066SOL    HW2 4098   5.375   0.886   4.337
 1067SOL     OW 4099   1.460   3.007   0.232
 1067SOL    HW1 4100   1.488   2.913   0.249
 1067SOL    HW2 4101   1.365   3.020   0.263
 1068SOL     OW 4102   5.286   4.536   2.141
 1068SOL    HW1 4103   5.311   4.448   2.182
 1068SOL    HW2 4104   5.264   4.602   2.213
 1069SOL     OW 4105   4.748   5.097   1.465
 1069SOL    HW1 4106   4.762   5.131   1.558
 1069SOL    HW2 4107   4.719   5.173   1.407
 1070SOL     OW 4108   1.449   0.636   0.857
 1070SOL    HW1 4109   1.451   0.587   0.944
 1070SOL    HW2 4110   1.525   0.700   0.853
 1071SOL     OW 4111   3.790   7.017   3.576
 1071SOL    HW1 4112   3.733   6.970   3.508
 1071SOL    HW2 4113   3.886   7.008   3.552
 1072SOL     OW 4114   1.623   5.870   0.992
 1072SOL    HW1 4115   1.650   5.861   0.896
 1072SOL    HW2 4116   1.702   5.900   1.046
 1073SOL     OW 4117   3.231   6.299   2.689
 1073SOL    HW1 4118   3.216   6.207   2.652
 1073SOL    HW2 4119   3.143   6.344   2.701
 1074SOL     OW 4120   1.998   5.255   0.822
 1074SOL    HW1 4121   1.933   5.331   0.821
 1074SOL    HW2 4122   2.068   5.270   0.752
 1075SOL     OW 4123   4.289   6.351   3.528
 1075SOL    HW1 4124   4.337   6.265   3.545
 1075SOL    HW2 4125   4.336   6.403   3.457
 1076SOL     OW 4126   0.557   4.570   4.896
 1076SOL    HW1 4127   0.503   4.506   4.950
 1076SOL    HW2 4128   0.497   4.638   4.854
 1077SOL     OW 4129   6.470   0.203   0.035
 1077SOL    HW1 4130   6.482   0.176   0.131
 1077SOL    HW2 4131   6.514   0.291   0.020
 1078SOL     OW 4132   2.177   0.876   2.611
 1078SOL    HW1 4133   2.182   0.852   2.514
 1078SOL    HW2 4134   2.198   0.796   2.667
 1079SOL     OW 4135   1.633   5.642   2.508
 1079SOL    HW1 4136   1.658   5.592   2.425
 1079SOL    HW2 4137   1.615   5.577   2.582
 1080SOL     OW 4138   2.158   4.190   3.260
 1080SOL    HW1 4139   2.214   4.179   3.342
 1080SOL    HW2 4140   2.213   4.227   3.186
 1081SOL     OW 4141   7.027   0.130   5.480
 1081SOL    HW1 4142   0.060   0.127   5.401
 1081SOL    HW2 4143   6.951   0.192   5.461
 1082SOL     OW 4144   2.477   1.029   5.376
 1082SOL    HW1 4145   2.457   0.978   5.460
 1082SOL    HW2 4146   2.571   1.009   5.348
 1083SOL     OW 4147   3.803   4.212   1.216
 1083SOL    HW1 4148   3.732   4.245   1.278
 1083SOL    HW2 4149   3.767   4.209   1.123
 1084SOL     OW 4150   6.655   5.949   0.709
 1084SOL    HW1 4151   6.559   5.974   0.723
 1084SOL    HW2 4152   6.701   5.942   0.798
 1085SOL     OW 4153   2.032   4.334   2.980
 1085SOL    HW1 4154   2.128   4.312   2.965
 1085SOL    HW2 4155   2.019   4.433   2.971
 1086SOL     OW 4156   6.753   5.937   2.898
 1086SOL    HW1 4157   6.747   6.036   2.888
 1086SOL    HW2 4158   6.661   5.898   2.901
 1087SOL     OW 4159   5.810   2.458   5.836
 1087SOL    HW1 4160   5.852   2.535   5.788
 1087SOL    HW2 4161   5.863   2.436   5.918
 1088SOL     OW 4162   5.856   4.697   3.387
 1088SOL    HW1 4163   5.879   4.792   3.367
 1088SOL    HW2 4164   5.756   4.688   3.395
 1089SOL     OW 4165   1.261   6.885   4.611
 1089SOL    HW1 4166   1.168   6.914   4.633
 1089SOL    HW2 4167   1.271   6.788   4.630
 1090SOL     OW 4168   2.851   1.574   3.581
 1090SOL    HW1 4169   2.944   1.538   3.592
 1090SOL    HW2 4170   2.814   1.544   3.493
 1091SOL     OW 4171   1.657   3.085   4.419
 1091SOL    HW1 4172   1.728   3.018   4.397
 1091SOL    HW2 4173   1.684   3.174   4.383
 1092SOL     OW 4174   3.055   3.589   0.788
 1092SOL    HW1 4175   2.979   3.621   0.845
 1092SOL    HW2 4176   3.032   3.601   0.692
 1093SOL     OW 4177   1.608   2.324   2.657
 1093SOL    HW1 4178   1.623   2.297   2.752
 1093SOL    HW2 4179   1.686   2.379   2.626
 1094SOL     OW 4180   1.238   6.773   2.873
 1094SOL    HW1 4181   1.305   6.699   2.877
 1094SOL    HW2 4182   1.161   6.751   2.933
 1095SOL     OW 4183   6.941   2.199   5.697
 1095SOL    HW1 4184   7.023   2.177   5.749
 1095SOL    HW2 4185   6.894   2.277   5.739
 1096SOL     OW 4186   3.721   4.534   1.638
 1096SOL    HW1 4187   3.690   4.593   1.712
 1096SOL    HW2 4188   3.792   4.582   1.586
 1097SOL     OW 4189   1.158   4.388   4.068
 1097SOL    HW1 4190   1.245   4.353   4.104
 1097SOL    HW2 4191   1.094   4.313   4.056
 1098SOL     OW 4192   5.355   2.893   0.616
 1098SOL    HW1 4193   5.257   2.911   0.609
 1098SOL    HW2 4194   5.371   2.823   0.686
 1099SOL     OW 4195   4.061   1.250   4.504
 1099SOL    HW1 4196   4.124   1.327   4.510
 1099SOL    HW2 4197   3.977   1.280   4.458
 1100SOL     OW 4198   2.760   2.244   6.730
 1100SOL    HW1 4199   2.680   2.276   6.680
 1100SOL    HW2 4200   2.795   2.318   6.787
 1101SOL     OW 4201   5.406   2.897   0.961
 1101SOL    HW1 4202   5.375   2.817   0.911
 1101SOL    HW2 4203   5.360   2.900   1.050
 1102SOL     OW 4204   1.261   5.540   3.053
 1102SOL    HW1 4205   1.193   5.470   3.029
 1102SOL    HW2 4206   1.266   5.549   3.152
 1103SOL     OW 4207   3.161   1.267   1.302
 1103SOL    HW1 4208   3.075   1.225   1.272
 1103SOL    HW2 4209   3.238   1.225   1.255
 1104SOL     OW 4210   1.943   3.459   6.227
 1104SOL    HW1 4211   1.943   3.440   6.129
 1104SOL    HW2 4212   2.023   3.515   6.250
 1105SOL     OW 4213   5.256   3.469   5.041
 1105SOL    HW1 4214   5.222   3.496   5.131
 1105SOL    HW2 4215   5.187   3.412   4.996
 1106SOL     OW 4216   0.798   1.630   0.598
 1106SOL    HW1 4217   0.808   1.603   0.693
 1106SOL    HW2 4218   0.798   1.729   0.591
 1107SOL     OW 4219   0.852   0.574   6.666
 1107SOL    HW1 4220   0.869   0.663   6.709
 1107SOL    HW2 4221   0.807   0.587   6.578
 1108SOL     OW 4222   2.619   0.321   6.280
 1108SOL    HW1 4223   2.704   0.268   6.279
 1108SOL    HW2 4224   2.602   0.358   6.189
 1109SOL     OW 4225   4.258   5.631   4.788
 1109SOL    HW1 4226   4.286   5.679   4.705
 1109SOL    HW2 4227   4.321   5.556   4.807
 1110SOL     OW 4228   2.873   1.420   2.564
 1110SOL    HW1 4229   2.798   1.371   2.607
 1110SOL    HW2 4230   2.837   1.493   2.505
 1111SOL     OW 4231   5.571   5.685   0.101
 1111SOL    HW1 4232   5.533   5.744   0.030
 1111SOL    HW2 4233   5.636   5.738   0.156
 1112SOL     OW 4234   6.229   1.045   2.533
 1112SOL    HW1 4235   6.280   1.049   2.448
 1112SOL    HW2 4236   6.289   1.070   2.609
 1113SOL     OW 4237   6.063   3.299   2.513
 1113SOL    HW1 4238   5.971   3.315   2.476
 1113SOL    HW2 4239   6.102   3.386   2.542
 1114SOL     OW 4240   4.334   0.967   6.288
 1114SOL    HW1 4241   4.386   0.964   6.203
 1114SOL    HW2 4242   4.359   1.049   6.339
 1115SOL     OW 4243   3.835   3.142   0.107
 1115SOL    HW1 4244   3.845   3.106   0.015
 1115SOL    HW2 4245   3.833   3.067   0.173
 1116SOL     OW 4246   5.516   5.445   4.529
 1116SOL    HW1 4247   5.525   5.504   4.449
 1116SOL    HW2 4248   5.529   5.350   4.501
 1117SOL     OW 4249   2.172   2.877   1.652
 1117SOL    HW1 4250   2.233   2.798   1.652
 1117SOL    HW2 4251   2.078   2.848   1.633
 1118SOL     OW 4252   1.615   4.758   1.532
 1118SOL    HW1 4253   1.687   4.690   1.525
 1118SOL    HW2 4254   1.550   4.747   1.456
 1119SOL     OW 4255   4.049   4.300   1.574
 1119SOL    HW1 4256   4.125   4.298   1.508
 1119SOL    HW2 4257   4.077   4.352   1.655
 1120SOL     OW 4258   5.031   6.325   5.181
 1120SOL    HW1 4259   5.015   6.277   5.267
 1120SOL    HW2 4260   5.028   6.424   5.196
 1121SOL     OW 4261   5.069   4.121   2.422
 1121SOL    HW1 4262   5.071   4.216   2.392
 1121SOL    HW2 4263   5.093   4.115   2.519
 1122SOL     OW 4264   4.899   3.422   5.548
 1122SOL    HW1 4265   4.900   3.489   5.623
 1122SOL    HW2 4266   4.912   3.470   5.461
 1123SOL     OW 4267   5.555   1.650   2.162
 1123SOL    HW1 4268   5.495   1.657   2.082
 1123SOL    HW2 4269   5.578   1.554   2.178
 1124SOL     OW 4270   6.082   4.192   5.237
 1124SOL    HW1 4271   5.984   4.206   5.250
 1124SOL    HW2 4272   6.132   4.230   5.314
 1125SOL     OW 4273   1.934   1.416   4.895
 1125SOL    HW1 4274   1.939   1.479   4.973
 1125SOL    HW2 4275   1.956   1.466   4.811
 1126SOL     OW 4276   5.767   6.920   0.823
 1126SOL    HW1 4277   5.710   6.946   0.745
 1126SOL    HW2 4278   5.775   6.998   0.885
 1127SOL     OW 4279   5.168   5.519   4.829
 1127SOL    HW1 4280   5.104   5.587   4.794
 1127SOL    HW2 4281   5.233   5.564   4.892
 1128SOL     OW 4282   4.874   2.160   5.458
 1128SOL    HW1 4283   4.910   2.252   5.439
 1128SOL    HW2 4284   4.853   2.152   5.555
 1129SOL     OW 4285   3.950   0.245   0.178
 1129SOL    HW1 4286   3.916   0.249   0.271
 1129SOL    HW2 4287   4.049   0.232   0.179
 1130SOL     OW 4288   1.823   3.940   0.975
 1130SOL    HW1 4289   1.783   4.027   0.947
 1130SOL    HW2 4290   1.766   3.897   1.045
 1131SOL     OW 4291   0.787   6.127   5.615
 1131SOL    HW1 4292   0.772   6.034   5.579
 1131SOL    HW2 4293   0.699   6.173   5.627
 1132SOL     OW 4294   4.716   0.016   6.769
 1132SOL    HW1 4295   4.676   6.954   6.757
 1132SOL    HW2 4296   4.729   0.034   6.867
 1133SOL     OW 4297   0.177   1.326   0.893
 1133SOL    HW1 4298   0.264   1.370   0.869
 1133SOL    HW2 4299   0.182   1.228   0.872
 1134SOL     OW 4300   5.460   1.894   0.459
 1134SOL    HW1 4301   5.430   1.945   0.540
 1134SOL    HW2 4302   5.446   1.796   0.476
 1135SOL     OW 4303   2.989   1.530   2.961
 1135SOL    HW1 4304   2.966   1.608   2.903
 1135SOL    HW2 4305   3.088   1.525   2.973
 1136SOL     OW 4306   3.463   5.167   5.333
 1136SOL    HW1 4307   3.428   5.075   5.314
 1136SOL    HW2 4308   3.424   5.201   5.419
 1137SOL     OW 4309   1.217   2.640   0.203
 1137SOL    HW1 4310   1.136   2.695   0.180
 1137SOL    HW2 4311   1.187   2.549   0.233
 1138SOL     OW 4312   1.091   1.600   6.702
 1138SOL    HW1 4313   1.130   1.541   6.632
 1138SOL    HW2 4314   1.077   1.692   6.664
 1139SOL     OW 4315   2.268   6.141   1.604
 1139SOL    HW1 4316   2.361   6.175   1.623
 1139SOL    HW2 4317   2.217   6.211   1.554
 1140SOL     OW 4318   3.518   1.570   2.035
 1140SOL    HW1 4319   3.423   1.570   2.064
 1140SOL    HW2 4320   3.526   1.614   1.946
 1141SOL     OW 4321   6.595   6.064   6.134
 1141SOL    HW1 4322   6.648   6.149   6.132
 1141SOL    HW2 4323   6.512   6.078   6.188
 1142SOL     OW 4324   4.312   0.298   4.493
 1142SOL    HW1 4325   4.330   0.212   4.542
 1142SOL    HW2 4326   4.351   0.293   4.401
 1143SOL     OW 4327   2.878   2.230   2.595
 1143SOL    HW1 4328   2.971   2.246   2.564
 1143SOL    HW2 4329   2.833   2.163   2.535
 1144SOL     OW 4330   6.713   5.057   4.887
 1144SOL    HW1 4331   6.658   5.043   4.970
 1144SOL    HW2 4332   6.798   5.006   4.895
 1145SOL     OW 4333   0.181   3.983   2.847
 1145SOL    HW1 4334   0.249   3.919   2.813
 1145SOL    HW2 4335   0.094   3.967   2.801
 1146SOL     OW 4336   5.367   0.615   0.752
 1146SOL    HW1 4337   5.313   0.691   0.788
 1146SOL    HW2 4338   5.410   0.566   0.828
 1147SOL     OW 4339   0.879   4.559   0.490
 1147SOL    HW1 4340   0.909   4.642   0.537
 1147SOL    HW2 4341   0.954   4.492   0.491
 1148SOL     OW 4342   3.601   6.956   0.331
 1148SOL    HW1 4343   3.653   6.923   0.252
 1148SOL    HW2 4344   3.532   6.887   0.355
 1149SOL     OW 4345   5.672   3.741   3.363
 1149SOL    HW1 4346   5.759   3.698   3.390
 1149SOL    HW2 4347   5.688   3.804   3.287
 1150SOL     OW 4348   1.103   3.997   0.649
 1150SOL    HW1 4349   1.058   4.061   0.586
 1150SOL    HW2 4350   1.198   4.023   0.660
 1151SOL     OW 4351   4.981   5.686   6.816
 1151SOL    HW1 4352   5.006   5.725   6.728
 1151SOL    HW2 4353   5.011   5.591   6.821
 1152SOL     OW 4354   0.643   5.902   5.643
 1152SOL    HW1 4355   0.554   5.906   5.689
 1152SOL    HW2 4356   0.690   5.817   5.668
 1153SOL     OW 4357   2.375   0.046   1.749
 1153SOL    HW1 4358   2.285   0.057   1.789
 1153SOL    HW2 4359   2.367   7.028   1.661
 1154SOL     OW 4360   0.426   3.454   2.075
 1154SOL    HW1 4361   0.489   3.390   2.032
 1154SOL    HW2 4362   0.333   3.437   2.041
 1155SOL     OW 4363   3.071   5.280   7.011
 1155SOL    HW1 4364   3.117   5.340   6.947
 1155SOL    HW2 4365   3.058   5.190   6.970
 1156SOL     OW 4366   1.974   0.571   4.606
 1156SOL    HW1 4367   1.929   0.564   4.518
 1156SOL    HW2 4368   1.908   0.599   4.676
 1157SOL     OW 4369   5.975   1.495   4.487
 1157SOL    HW1 4370   5.963   1.397   4.476
 1157SOL    HW2 4371   6.016   1.534   4.404
 1158SOL     OW 4372   0.220   5.332   5.563
 1158SOL    HW1 4373   0.173   5.407   5.610
 1158SOL    HW2 4374   0.228   5.354   5.465
 1159SOL     OW 4375   5.466   0.066   3.199
 1159SOL    HW1 4376   5.483   0.151   3.250
 1159SOL    HW2 4377   5.393   0.082   3.132
 1160SOL     OW 4378   4.025   4.054   1.702
 1160SOL    HW1 4379   3.952   4.028   1.639
 1160SOL    HW2 4380   4.042   4.152   1.693
 1161SOL     OW 4381   5.179   0.290   6.036
 1161SOL    HW1 4382   5.166   0.293   5.937
 1161SOL    HW2 4383   5.178   0.195   6.067
 1162SOL     OW 4384   3.925   2.720   0.422
 1162SOL    HW1 4385   3.993   2.733   0.495
 1162SOL    HW2 4386   3.972   2.697   0.337
 1163SOL     OW 4387   5.559   3.061   1.871
 1163SOL    HW1 4388   5.514   3.140   1.911
 1163SOL    HW2 4389   5.495   2.984   1.867
 1164SOL     OW 4390   4.896   2.460   4.152
 1164SOL    HW1 4391   4.880   2.401   4.073
 1164SOL    HW2 4392   4.901   2.556   4.122
 1165SOL     OW 4393   2.256   4.652   3.986
 1165SOL    HW1 4394   2.199   4.571   4.000
 1165SOL    HW2 4395   2.199   4.733   3.979
 1166SOL     OW 4396   3.732   0.820   0.052
 1166SOL    HW1 4397   3.738   0.798   0.149
 1166SOL    HW2 4398   3.723   0.736   7.027
 1167SOL     OW 4399   3.265   0.426   6.521
 1167SOL    HW1 4400   3.221   0.415   6.610
 1167SOL    HW2 4401   3.310   0.341   6.495
 1168SOL     OW 4402   0.071   0.188   2.236
 1168SOL    HW1 4403   0.094   0.193   2.139
 1168SOL    HW2 4404   7.002   0.169   2.247
 1169SOL     OW 4405   6.405   3.004   6.931
 1169SOL    HW1 4406   6.434   2.941   7.003
 1169SOL    HW2 4407   6.400   2.955   6.844
 1170SOL     OW 4408   4.699   0.735   2.261
 1170SOL    HW1 4409   4.619   0.725   2.319
 1170SOL    HW2 4410   4.717   0.832   2.245
 1171SOL     OW 4411   2.263   6.507   6.973
 1171SOL    HW1 4412   2.231   6.589   7.020
 1171SOL    HW2 4413   2.341   6.468   7.023
 1172SOL     OW 4414   3.776   4.099   3.061
 1172SOL    HW1 4415   3.819   4.142   2.982
 1172SOL    HW2 4416   3.676   4.105   3.052
 1173SOL     OW 4417   3.113   0.124   6.060
 1173SOL    HW1 4418   3.045   0.136   5.988
 1173SOL    HW2 4419   3.125   0.027   6.079
 1174SOL     OW 4420   2.973   4.979   0.678
 1174SOL    HW1 4421   2.968   4.983   0.777
 1174SOL    HW2 4422   2.889   5.018   0.639
 1175SOL     OW 4423   5.142   3.325   6.457
 1175SOL    HW1 4424   5.231   3.362   6.485
 1175SOL    HW2 4425   5.152   3.229   6.433
 1176SOL     OW 4426   5.858   4.109   0.700
 1176SOL    HW1 4427   5.883   4.174   0.772
 1176SOL    HW2 4428   5.783   4.148   0.645
 1177SOL     OW 4429   6.902   1.563   5.335
 1177SOL    HW1 4430   6.960   1.546   5.255
 1177SOL    HW2 4431   6.806   1.551   5.310
 1178SOL     OW 4432   3.964   3.368   1.125
 1178SOL    HW1 4433   3.938   3.315   1.044
 1178SOL    HW2 4434   4.038   3.432   1.100
 1179SOL     OW 4435   2.978   5.439   0.600
 1179SOL    HW1 4436   2.884   5.409   0.583
 1179SOL    HW2 4437   3.022   5.463   0.514
 1180SOL     OW 4438   3.046   0.125   3.475
 1180SOL    HW1 4439   3.040   0.137   3.575
 1180SOL    HW2 4440   2.955   0.107   3.439
 1181SOL     OW 4441   0.260   2.761   5.235
 1181SOL    HW1 4442   0.227   2.678   5.191
 1181SOL    HW2 4443   0.246   2.839   5.174
 1182SOL     OW 4444   1.852   5.425   3.464
 1182SOL    HW1 4445   1.891   5.491   3.528
 1182SOL    HW2 4446   1.806   5.473   3.390
 1183SOL     OW 4447   3.742   5.646   2.541
 1183SOL    HW1 4448   3.732   5.581   2.617
 1183SOL    HW2 4449   3.676   5.720   2.552
 1184SOL     OW 4450   3.844   1.606   5.260
 1184SOL    HW1 4451   3.877   1.589   5.353
 1184SOL    HW2 4452   3.752   1.568   5.249
 1185SOL     OW 4453   2.151   0.225   0.210
 1185SOL    HW1 4454   2.097   0.299   0.171
 1185SOL    HW2 4455   2.104   0.187   0.289
 1186SOL     OW 4456   6.024   6.476   6.279
 1186SOL    HW1 4457   5.998   6.406   6.213
 1186SOL    HW2 4458   5.970   6.558   6.264
 1187SOL     OW 4459   5.410   6.039   4.892
 1187SOL    HW1 4460   5.443   5.961   4.840
 1187SOL    HW2 4461   5.486   6.082   4.941
 1188SOL     OW 4462   3.469   6.771   6.820
 1188SOL    HW1 4463   3.482   6.688   6.874
 1188SOL    HW2 4464   3.373   6.797   6.821
 1189SOL     OW 4465   5.588   0.328   1.896
 1189SOL    HW1 4466   5.510   0.290   1.945
 1189SOL    HW2 4467   5.582   0.428   1.894
 1190SOL     OW 4468   4.080   4.858   4.845
 1190SOL    HW1 4469   4.034   4.938   4.882
 1190SOL    HW2 4470   4.017   4.780   4.844
 1191SOL     OW 4471   4.380   5.594   5.251
 1191SOL    HW1 4472   4.314   5.634   5.187
 1191SOL    HW2 4473   4.368   5.635   5.342
 1192SOL     OW 4474   5.473   5.280   2.908
 1192SOL    HW1 4475   5.402   5.265   2.977
 1192SOL    HW2 4476   5.431   5.286   2.818
 1193SOL     OW 4477   6.656   0.470   4.536
 1193SOL    HW1 4478   6.726   0.426   4.592
 1193SOL    HW2 4479   6.661   0.436   4.442
 1194SOL     OW 4480   6.981   1.224   1.230
 1194SOL    HW1 4481   0.033   1.181   1.273
 1194SOL    HW2 4482   6.988   1.323   1.238
 1195SOL     OW 4483   6.116   2.335   0.914
 1195SOL    HW1 4484   6.080   2.297   0.999
 1195SOL    HW2 4485   6.054   2.312   0.838
 1196SOL     OW 4486   6.932   4.413   2.093
 1196SOL    HW1 4487   6.924   4.485   2.162
 1196SOL    HW2 4488   6.942   4.454   2.003
 1197SOL     OW 4489   4.061   6.076   4.989
 1197SOL    HW1 4490   4.009   6.156   5.016
 1197SOL    HW2 4491   4.153   6.080   5.028
 1198SOL     OW 4492   2.225   2.807   2.636
 1198SOL    HW1 4493   2.208   2.903   2.614
 1198SOL    HW2 4494   2.194   2.749   2.561
 1199SOL     OW 4495   3.614   2.924   3.182
 1199SOL    HW1 4496   3.619   2.924   3.282
 1199SOL    HW2 4497   3.560   3.002   3.151
 1200SOL     OW 4498   3.617   4.186   4.981
 1200SOL    HW1 4499   3.652   4.213   5.071
 1200SOL    HW2 4500   3.690   4.143   4.928
 1201SOL     OW 4501   0.326   1.346   4.383
 1201SOL    HW1 4502   0.417   1.353   4.342
 1201SOL    HW2 4503   0.275   1.273   4.338
 1202SOL     OW 4504   6.427   0.953   6.042
 1202SOL    HW1 4505   6.339   0.912   6.016
 1202SOL    HW2 4506   6.498   0.922   5.978
 1203SOL     OW 4507   6.131   6.600   1.626
 1203SOL    HW1 4508   6.084   6.664   1.686
 1203SOL    HW2 4509   6.065   6.563   1.560
 1204SOL     OW 4510   4.642   1.536   0.617
 1204SOL    HW1 4511   4.675   1.488   0.536
 1204SOL    HW2 4512   4.547   1.563   0.603
 1205SOL     OW 4513   4.087   3.668   6.322
 1205SOL    HW1 4514   4.015   3.709   6.377
 1205SOL    HW2 4515   4.089   3.569   6.338
 1206SOL     OW 4516   0.984   1.994   4.777
 1206SOL    HW1 4517   0.953   2.069   4.719
 1206SOL    HW2 4518   1.016   1.918   4.720
 1207SOL     OW 4519   1.007   6.772   0.412
 1207SOL    HW1 4520   0.949   6.818   0.345
 1207SOL    HW2 4521   0.951   6.740   0.488
 1208SOL     OW 4522   3.579   4.101   2.434
 1208SOL    HW1 4523   3.558   4.027   2.498
 1208SOL    HW2 4524   3.673   4.091   2.402
 1209SOL     OW 4525   5.543   6.645   4.841
 1209SOL    HW1 4526   5.614   6.684   4.782
 1209SOL    HW2 4527   5.566   6.550   4.862
 1210SOL     OW 4528   4.514   6.725   3.459
 1210SOL    HW1 4529   4.542   6.664   3.533
 1210SOL    HW2 4530   4.416   6.713   3.441
 1211SOL     OW 4531   1.660   2.993   3.026
 1211SOL    HW1 4532   1.599   2.979   3.104
 1211SOL    HW2 4533   1.620   3.061   2.964
 1212SOL     OW 4534   0.181   1.731   5.436
 1212SOL    HW1 4535   0.251   1.764   5.499
 1212SOL    HW2 4536   0.109   1.800   5.426
 1213SOL     OW 4537   5.844   3.097   4.725
 1213SOL    HW1 4538   5.932   3.106   4.679
 1213SOL    HW2 4539   5.824   3.181   4.776
 1214SOL     OW 4540   1.248   3.147   4.777
 1214SOL    HW1 4541   1.345   3.123   4.777
 1214SOL    HW2 4542   1.226   3.198   4.860
 1215SOL     OW 4543   1.555   5.181   2.689
 1215SOL    HW1 4544   1.533   5.083   2.691
 1215SOL    HW2 4545   1.473   5.233   2.666
 1216SOL     OW 4546   0.142   0.132   1.078
 1216SOL    HW1 4547   0.062   0.105   1.132
 1216SOL    HW2 4548   0.152   0.071   1.000
 1217SOL     OW 4549   2.444   5.888   0.866
 1217SOL    HW1 4550   2.473   5.794   0.848
 1217SOL    HW2 4551   2.355   5.887   0.911
 1218SOL     OW 4552   0.528   3.317   4.867
 1218SOL    HW1 4553   0.602   3.279   4.922
 1218SOL    HW2 4554   0.531   3.278   4.775
 1219SOL     OW 4555   4.502   5.297   1.710
 1219SOL    HW1 4556   4.600   5.292   1.727
 1219SOL    HW2 4557   4.473   5.219   1.655
 1220SOL     OW 4558   5.467   3.942   2.957
 1220SOL    HW1 4559   5.495   4.024   2.906
 1220SOL    HW2 4560   5.432   3.874   2.893
 1221SOL     OW 4561   5.824   3.941   6.416
 1221SOL    HW1 4562   5.789   3.858   6.459
 1221SOL    HW2 4563   5.913   3.922   6.375
 1222SOL     OW 4564   6.728   0.113   0.268
 1222SOL    HW1 4565   6.824   0.099   0.293
 1222SOL    HW2 4566   6.706   0.210   0.274
 1223SOL     OW 4567   5.123   1.135   0.734
 1223SOL    HW1 4568   5.105   1.173   0.644
 1223SOL    HW2 4569   5.105   1.204   0.804
 1224SOL     OW 4570   3.188   5.939   0.448
 1224SOL    HW1 4571   3.283   5.911   0.447
 1224SOL    HW2 4572   3.144   5.912   0.362
 1225SOL     OW 4573   3.756   2.647   0.807
 1225SOL    HW1 4574   3.706   2.704   0.872
 1225SOL    HW2 4575   3.709   2.646   0.719
 1226SOL     OW 4576   4.906   5.980   0.702
 1226SOL    HW1 4577   4.899   5.998   0.603
 1226SOL    HW2 4578   4.885   6.063   0.752
 1227SOL     OW 4579   6.072   5.164   6.537
 1227SOL    HW1 4580   6.056   5.213   6.451
 1227SOL    HW2 4581   6.161   5.119   6.534
 1228SOL     OW 4582   4.058   3.367   0.675
 1228SOL    HW1 4583   3.964   3.342   0.695
 1228SOL    HW2 4584   4.062   3.414   0.587
 1229SOL     OW 4585   1.876   6.000   1.475
 1229SOL    HW1 4586   1.921   5.968   1.559
 1229SOL    HW2 4587   1.939   6.058   1.423
 1230SOL     OW 4588   5.505   5.548   2.714
 1230SOL    HW1 4589   5.505   5.503   2.803
 1230SOL    HW2 4590   5.444   5.499   2.651
 1231SOL     OW 4591   1.053   2.112   6.132
 1231SOL    HW1 4592   1.053   2.031   6.074
 1231SOL    HW2 4593   1.123   2.176   6.101
 1232SOL     OW 4594   4.661   0.935   5.234
 1232SOL    HW1 4595   4.574   0.974   5.264
 1232SOL    HW2 4596   4.736   0.994   5.263
 1233SOL     OW 4597   0.889   5.787   3.428
 1233SOL    HW1 4598   0.838   5.855   3.481
 1233SOL    HW2 4599   0.902   5.822   3.335
 1234SOL     OW 4600   6.913   2.604   6.081
 1234SOL    HW1 4601   6.964   2.675   6.031
 1234SOL    HW2 4602   6.973   2.563   6.150
 1235SOL     OW 4603   6.613   4.551   0.577
 1235SOL    HW1 4604   6.667   4.556   0.662
 1235SOL    HW2 4605   6.564   4.637   0.565
 1236SOL     OW 4606   4.144   1.635   1.423
 1236SOL    HW1 4607   4.063   1.623   1.481
 1236SOL    HW2 4608   4.191   1.720   1.450
 1237SOL     OW 4609   1.398   5.884   4.868
 1237SOL    HW1 4610   1.313   5.936   4.879
 1237SOL    HW2 4611   1.390   5.822   4.790
 1238SOL     OW 4612   0.370   0.042   3.974
 1238SOL    HW1 4613   0.284   7.022   3.992
 1238SOL    HW2 4614   0.441   0.008   4.035
 1239SOL     OW 4615   6.093   6.246   5.493
 1239SOL    HW1 4616   6.191   6.228   5.506
 1239SOL    HW2 4617   6.081   6.328   5.438
 1240SOL     OW 4618   6.095   5.009   2.305
 1240SOL    HW1 4619   6.117   5.044   2.214
 1240SOL    HW2 4620   6.168   4.948   2.336
 1241SOL     OW 4621   6.787   4.575   5.117
 1241SOL    HW1 4622   6.818   4.546   5.208
 1241SOL    HW2 4623   6.866   4.580   5.055
 1242SOL     OW 4624   2.135   3.029   0.490
 1242SOL    HW1 4625   2.179   3.119   0.494
 1242SOL    HW2 4626   2.037   3.040   0.503
 1243SOL     OW 4627   0.774   0.933   4.537
 1243SOL    HW1 4628   0.711   0.990   4.484
 1243SOL    HW2 4629   0.860   0.923   4.486
 1244SOL     OW 4630   5.056   6.589   5.218
 1244SOL    HW1 4631   5.034   6.686   5.216
 1244SOL    HW2 4632   5.133   6.573   5.280
 1245SOL     OW 4633   5.499   5.516   0.731
 1245SOL    HW1 4634   5.407   5.537   0.763
 1245SOL    HW2 4635   5.554   5.600   0.732
 1246SOL     OW 4636   3.327   1.175   2.737
 1246SOL    HW1 4637   3.309   1.129   2.824
 1246SOL    HW2 4638   3.241   1.194   2.690
 1247SOL     OW 4639   5.568   0.017   5.021
 1247SOL    HW1 4640   5.488   0.044   5.075
 1247SOL    HW2 4641   5.539   6.991   4.942
 1248SOL     OW 4642   1.382   6.660   4.077
 1248SOL    HW1 4643   1.447   6.666   4.002
 1248SOL    HW2 4644   1.412   6.592   4.143
 1249SOL     OW 4645   6.819   4.006   1.710
 1249SOL    HW1 4646   6.860   3.930   1.761
 1249SOL    HW2 4647   6.848   4.002   1.615
 1250SOL     OW 4648   6.207   3.825   4.089
 1250SOL    HW1 4649   6.164   3.867   4.010
 1250SOL    HW2 4650   6.266   3.891   4.135
 1251SOL     OW 4651   2.198   0.739   2.854
 1251SOL    HW1 4652   2.139   0.691   2.918
 1251SOL    HW2 4653   2.232   0.823   2.896
 1252SOL     OW 4654   3.572   5.600   7.026
 1252SOL    HW1 4655   3.551   5.512   0.040
 1252SOL    HW2 4656   3.604   5.586   6.932
 1253SOL     OW 4657   2.629   7.006   1.424
 1253SOL    HW1 4658   2.626   0.059   1.482
 1253SOL    HW2 4659   2.718   6.960   1.435
 1254SOL     OW 4660   6.410   2.968   2.856
 1254SOL    HW1 4661   6.469   2.966   2.936
 1254SOL    HW2 4662   6.466   2.958   2.773
 1255SOL     OW 4663   5.744   2.665   6.026
 1255SOL    HW1 4664   5.689   2.743   6.057
 1255SOL    HW2 4665   5.708   2.632   5.938
 1256SOL     OW 4666   0.683   6.381   3.777
 1256SOL    HW1 4667   0.695   6.458   3.715
 1256SOL    HW2 4668   0.772   6.349   3.809
 1257SOL     OW 4669   0.234   4.865   4.558
 1257SOL    HW1 4670   0.152   4.823   4.597
 1257SOL    HW2 4671   0.218   4.962   4.541
 1258SOL     OW 4672   1.930   5.825   2.941
 1258SOL    HW1 4673   1.906   5.741   2.991
 1258SOL    HW2 4674   1.869   5.835   2.862
 1259SOL     OW 4675   3.293   6.232   5.609
 1259SOL    HW1 4676   3.294   6.161   5.537
 1259SOL    HW2 4677   3.361   6.301   5.588
 1260SOL     OW 4678   3.200   0.996   1.234
 1260SOL    HW1 4679   3.254   1.046   1.167
 1260SOL    HW2 4680   3.121   0.954   1.189
 1261SOL     OW 4681   0.209   4.179   6.988
 1261SOL    HW1 4682   0.185   4.087   7.019
 1261SOL    HW2 4683   0.307   4.193   6.999
 1262SOL     OW 4684   5.079   5.674   1.519
 1262SOL    HW1 4685   4.992   5.686   1.566
 1262SOL    HW2 4686   5.067   5.612   1.442
 1263SOL     OW 4687   6.513   1.448   0.566
 1263SOL    HW1 4688   6.414   1.439   0.551
 1263SOL    HW2 4689   6.554   1.496   0.488
 1264SOL     OW 4690   0.848   3.698   1.819
 1264SOL    HW1 4691   0.748   3.691   1.827
 1264SOL    HW2 4692   0.875   3.794   1.816
 1265SOL     OW 4693   6.655   4.634   3.731
 1265SOL    HW1 4694   6.639   4.704   3.801
 1265SOL    HW2 4695   6.750   4.602   3.738
 1266SOL     OW 4696   2.245   0.917   3.988
 1266SOL    HW1 4697   2.189   0.928   4.070
 1266SOL    HW2 4698   2.185   0.911   3.908
 1267SOL     OW 4699   5.505   6.288   1.029
 1267SOL    HW1 4700   5.447   6.300   0.949
 1267SOL    HW2 4701   5.453   6.243   1.102
 1268SOL     OW 4702   4.617   2.627   6.781
 1268SOL    HW1 4703   4.609   2.612   6.682
 1268SOL    HW2 4704   4.556   2.566   6.829
 1269SOL     OW 4705   5.748   6.335   5.189
 1269SOL    HW1 4706   5.733   6.386   5.273
 1269SOL    HW2 4707   5.776   6.398   5.116
 1270SOL     OW 4708   2.087   3.441   4.233
 1270SOL    HW1 4709   2.112   3.412   4.141
 1270SOL    HW2 4710   2.091   3.540   4.240
 1271SOL     OW 4711   3.483   2.051   3.754
 1271SOL    HW1 4712   3.428   2.055   3.837
 1271SOL    HW2 4713   3.438   2.103   3.682
 1272SOL     OW 4714   6.296   6.093   1.098
 1272SOL    HW1 4715   6.289   6.173   1.157
 1272SOL    HW2 4716   6.240   6.019   1.135
 1273SOL     OW 4717   1.598   4.736   6.888
 1273SOL    HW1 4718   1.548   4.822   6.901
 1273SOL    HW2 4719   1.636   4.706   6.976
 1274SOL     OW 4720   6.191   2.942   1.402
 1274SOL    HW1 4721   6.095   2.916   1.408
 1274SOL    HW2 4722   6.249   2.860   1.403
 1275SOL     OW 4723   4.063   0.268   3.670
 1275SOL    HW1 4724   4.133   0.222   3.615
 1275SOL    HW2 4725   4.055   0.222   3.759
 1276SOL     OW 4726   0.177   1.058   3.675
 1276SOL    HW1 4727   0.105   1.127   3.682
 1276SOL    HW2 4728   0.154   0.981   3.736
 1277SOL     OW 4729   0.152   0.423   5.071
 1277SOL    HW1 4730   0.096   0.491   5.117
 1277SOL    HW2 4731   0.239   0.413   5.121
 1278SOL     OW 4732   1.373   1.001   5.450
 1278SOL    HW1 4733   1.447   1.024   5.514
 1278SOL    HW2 4734   1.360   0.902   5.449
 1279SOL     OW 4735   2.813   6.000   0.203
 1279SOL    HW1 4736   2.907   6.023   0.229
 1279SOL    HW2 4737   2.752   6.018   0.279
 1280SOL     OW 4738   3.112   6.351   3.856
 1280SOL    HW1 4739   3.151   6.328   3.767
 1280SOL    HW2 4740   3.018   6.383   3.845
 1281SOL     OW 4741   1.118   6.106   3.287
 1281SOL    HW1 4742   1.045   6.049   3.250
 1281SOL    HW2 4743   1.207   6.069   3.258
 1282SOL     OW 4744   0.404   1.034   0.181
 1282SOL    HW1 4745   0.356   1.110   0.136
 1282SOL    HW2 4746   0.408   0.956   0.118
 1283SOL     OW 4747   5.518   2.874   5.109
 1283SOL    HW1 4748   5.585   2.800   5.104
 1283SOL    HW2 4749   5.426   2.837   5.096
 1284SOL     OW 4750   4.327   3.248   1.461
 1284SOL    HW1 4751   4.231   3.275   1.449
 1284SOL    HW2 4752   4.335   3.191   1.542
 1285SOL     OW 4753   5.244   3.548   6.053
 1285SOL    HW1 4754   5.263   3.603   5.971
 1285SOL    HW2 4755   5.145   3.536   6.063
 1286SOL     OW 4756   4.846   4.464   2.883
 1286SOL    HW1 4757   4.798   4.523   2.949
 1286SOL    HW2 4758   4.784   4.391   2.853
 1287SOL     OW 4759   4.520   4.082   5.799
 1287SOL    HW1 4760   4.506   4.134   5.883
 1287SOL    HW2 4761   4.536   3.986   5.821
 1288SOL     OW 4762   6.276   3.878   0.631
 1288SOL    HW1 4763   6.184   3.893   0.668
 1288SOL    HW2 4764   6.328   3.820   0.694
 1289SOL     OW 4765   0.373   5.938   1.561
 1289SOL    HW1 4766   0.420   5.957   1.646
 1289SOL    HW2 4767   0.290   5.885   1.580
 1290SOL     OW 4768   1.256   0.128   0.342
 1290SOL    HW1 4769   1.294   0.181   0.266
 1290SOL    HW2 4770   1.262   0.030   0.319
 1291SOL     OW 4771   0.406   3.298   5.803
 1291SOL    HW1 4772   0.400   3.247   5.889
 1291SOL    HW2 4773   0.438   3.391   5.822
 1292SOL     OW 4774   5.795   5.676   2.624
 1292SOL    HW1 4775   5.878   5.683   2.678
 1292SOL    HW2 4776   5.730   5.615   2.670
 1293SOL     OW 4777   1.827   1.236   6.584
 1293SOL    HW1 4778   1.816   1.234   6.484
 1293SOL    HW2 4779   1.743   1.272   6.625
 1294SOL     OW 4780   1.172   3.540   0.470
 1294SOL    HW1 4781   1.219   3.628   0.470
 1294SOL    HW2 4782   1.110   3.535   0.549
 1295SOL     OW 4783   6.566   3.636   2.655
 1295SOL    HW1 4784   6.539   3.730   2.635
 1295SOL    HW2 4785   6.524   3.606   2.740
 1296SOL     OW 4786   3.991   0.587   5.603
 1296SOL    HW1 4787   3.962   0.517   5.538
 1296SOL    HW2 4788   4.069   0.637   5.566
 1297SOL     OW 4789   5.924   0.603   6.314
 1297SOL    HW1 4790   6.016   0.569   6.333
 1297SOL    HW2 4791   5.878   0.540   6.251
 1298SOL     OW 4792   6.106   3.803   3.081
 1298SOL    HW1 4793   6.143   3.743   3.011
 1298SOL    HW2 4794   6.007   3.809   3.072
 1299SOL     OW 4795   0.798   3.517   2.971
 1299SOL    HW1 4796   0.712   3.502   2.923
 1299SOL    HW2 4797   0.869   3.458   2.933
 1300SOL     OW 4798   3.385   4.134   1.816
 1300SOL    HW1 4799   3.379   4.124   1.916
 1300SOL    HW2 4800   3.476   4.107   1.786
 1301SOL     OW 4801   0.576   5.958   2.093
 1301SOL    HW1 4802   0.545   6.003   2.177
 1301SOL    HW2 4803   0.634   5.880   2.116
 1302SOL     OW 4804   2.743   0.516   5.089
 1302SOL    HW1 4805   2.770   0.610   5.068
 1302SOL    HW2 4806   2.677   0.516   5.163
 1303SOL     OW 4807   4.641   1.911   1.053
 1303SOL    HW1 4808   4.649   1.932   1.150
 1303SOL    HW2 4809   4.586   1.828   1.041
 1304SOL     OW 4810   1.550   1.148   6.600
 1304SOL    HW1 4811   1.511   1.235   6.571
 1304SOL    HW2 4812   1.523   1.077   6.535
 1305SOL     OW 4813   5.689   4.113   6.917
 1305SOL    HW1 4814   5.771   4.170   6.913
 1305SOL    HW2 4815   5.629   4.147   6.990
 1306SOL     OW 4816   1.065   4.602   5.293
 1306SOL    HW1 4817   1.099   4.695   5.308
 1306SOL    HW2 4818   1.138   4.546   5.255
 1307SOL     OW 4819   1.772   2.669   4.701
 1307SOL    HW1 4820   1.823   2.751   4.728
 1307SOL    HW2 4821   1.676   2.680   4.727
 1308SOL     OW 4822   4.541   5.245   4.584
 1308SOL    HW1 4823   4.478   5.236   4.507
 1308SOL    HW2 4824   4.567   5.155   4.618
 1309SOL     OW 4825   5.579   3.693   5.757
 1309SOL    HW1 4826   5.656   3.640   5.792
 1309SOL    HW2 4827   5.607   3.739   5.672
 1310SOL     OW 4828   0.058   3.897   4.973
 1310SOL    HW1 4829   6.998   3.896   5.019
 1310SOL    HW2 4830   0.049   3.945   4.886
 1311SOL     OW 4831   6.841   6.963   3.743
 1311SOL    HW1 4832   6.857   0.018   3.795
 1311SOL    HW2 4833   6.799   6.894   3.802
 1312SOL     OW 4834   1.118   0.322   6.567
 1312SOL    HW1 4835   1.177   0.373   6.630
 1312SOL    HW2 4836   1.068   0.252   6.618
 1313SOL     OW 4837   1.187   5.002   4.949
 1313SOL    HW1 4838   1.113   5.068   4.937
 1313SOL    HW2 4839   1.275   5.047   4.935
 1314SOL     OW 4840   2.961   1.972   5.899
 1314SOL    HW1 4841   3.041   1.915   5.918
 1314SOL    HW2 4842   2.988   2.049   5.842
 1315SOL     OW 4843   0.408   0.862   0.434
 1315SOL    HW1 4844   0.387   0.774   0.390
 1315SOL    HW2 4845   0.407   0.934   0.364
 1316SOL     OW 4846   2.424   6.660   4.023
 1316SOL    HW1 4847   2.462   6.570   4.000
 1316SOL    HW2 4848   2.463   6.691   4.110
 1317SOL     OW 4849   0.452   4.147   4.451
 1317SOL    HW1 4850   0.384   4.102   4.394
 1317SOL    HW2 4851   0.450   4.246   4.434
 1318SOL     OW 4852   7.022   0.436   0.759
 1318SOL    HW1 4853   6.932   0.397   0.778
 1318SOL    HW2 4854   0.032   0.393   0.678
 1319SOL     OW 4855   6.889   0.396   0.369
 1319SOL    HW1 4856   6.868   0.460   0.295
 1319SOL    HW2 4857   6.932   0.314   0.331
 1320SOL     OW 4858   6.319   3.643   0.148
 1320SOL    HW1 4859   6.310   3.623   0.245
 1320SOL    HW2 4860   6.237   3.613   0.100
 1321SOL     OW 4861   4.275   2.196   6.464
 1321SOL    HW1 4862   4.226   2.111   6.443
 1321SOL    HW2 4863   4.209   2.268   6.487
 1322SOL     OW 4864   4.961   0.831   3.486
 1322SOL    HW1 4865   4.958   0.897   3.412
 1322SOL    HW2 4866   4.889   0.762   3.473
 1323SOL     OW 4867   5.310   1.940   5.398
 1323SOL    HW1 4868   5.210   1.942   5.395
 1323SOL    HW2 4869   5.343   1.869   5.335
 1324SOL     OW 4870   1.311   2.825   1.178
 1324SOL    HW1 4871   1.398   2.794   1.141
 1324SOL    HW2 4872   1.237   2.768   1.142
 1325SOL     OW 4873   1.740   6.758   2.050
 1325SOL    HW1 4874   1.776   6.689   2.113
 1325SOL    HW2 4875   1.720   6.715   1.962
 1326SOL     OW 4876   5.342   2.740   4.736
 1326SOL    HW1 4877   5.242   2.741   4.747
 1326SOL    HW2 4878   5.365   2.722   4.641
 1327SOL     OW 4879   2.670   5.000   2.289
 1327SOL    HW1 4880   2.748   5.046   2.330
 1327SOL    HW2 4881   2.701   4.940   2.215
 1328SOL     OW 4882   1.520   2.710   1.017
 1328SOL    HW1 4883   1.506   2.628   1.073
 1328SOL    HW2 4884   1.558   2.683   0.928
 1329SOL     OW 4885   0.362   2.198   0.939
 1329SOL    HW1 4886   0.333   2.133   1.010
 1329SOL    HW2 4887   0.377   2.148   0.853
 1330SOL     OW 4888   6.572   0.892   1.368
 1330SOL    HW1 4889   6.567   0.820   1.437
 1330SOL    HW2 4890   6.668   0.916   1.351
 1331SOL     OW 4891   4.646   2.177   3.408
 1331SOL    HW1 4892   4.671   2.224   3.323
 1331SOL    HW2 4893   4.641   2.078   3.391
 1332SOL     OW 4894   3.863   0.265   6.961
 1332SOL    HW1 4895   3.859   0.251   0.032
 1332SOL    HW2 4896   3.921   0.344   6.941
 1333SOL     OW 4897   3.571   3.659   6.203
 1333SOL    HW1 4898   3.648   3.621   6.255
 1333SOL    HW2 4899   3.604   3.695   6.116
 1334SOL     OW 4900   0.244   2.505   5.130
 1334SOL    HW1 4901   0.330   2.463   5.099
 1334SOL    HW2 4902   0.173   2.490   5.061
 1335SOL     OW 4903   2.928   0.240   2.875
 1335SOL    HW1 4904   2.975   0.179   2.812
 1335SOL    HW2 4905   2.876   0.308   2.823
 1336SOL     OW 4906   2.176   1.334   6.466
 1336SOL    HW1 4907   2.110   1.392   6.514
 1336SOL    HW2 4908   2.140   1.241   6.460
 1337SOL     OW 4909   1.290   1.566   4.742
 1337SOL    HW1 4910   1.367   1.505   4.758
 1337SOL    HW2 4911   1.207   1.512   4.726
 1338SOL     OW 4912   4.271   2.628   6.192
 1338SOL    HW1 4913   4.228   2.647   6.281
 1338SOL    HW2 4914   4.217   2.560   6.143
 1339SOL     OW 4915   0.993   7.020   7.007
 1339SOL    HW1 4916   1.067   0.056   6.989
 1339SOL    HW2 4917   0.908   0.042   7.023
 1340SOL     OW 4918   0.765   1.535   1.551
 1340SOL    HW1 4919   0.786   1.588   1.468
 1340SOL    HW2 4920   0.666   1.519   1.556
 1341SOL     OW 4921   4.419   0.612   5.539
 1341SOL    HW1 4922   4.431   0.580   5.445
 1341SOL    HW2 4923   4.460   0.546   5.602
 1342SOL     OW 4924   2.092   4.693   6.247
 1342SOL    HW1 4925   2.071   4.595   6.241
 1342SOL    HW2 4926   2.183   4.705   6.287
 1343SOL     OW 4927   4.179   5.795   2.659
 1343SOL    HW1 4928   4.129   5.862   2.714
 1343SOL    HW2 4929   4.120   5.761   2.586
 1344SOL     OW 4930   6.702   4.217   3.725
 1344SOL    HW1 4931   6.750   4.132   3.742
 1344SOL    HW2 4932   6.762   4.281   3.677
 1345SOL     OW 4933   1.523   1.737   3.491
 1345SOL    HW1 4934   1.454   1.666   3.502
 1345SOL    HW2 4935   1.563   1.732   3.400
 1346SOL     OW 4936   1.252   0.349   3.088
 1346SOL    HW1 4937   1.289   0.416   3.153
 1346SOL    HW2 4938   1.328   0.308   3.037
 1347SOL     OW 4939   6.191   6.449   4.156
 1347SOL    HW1 4940   6.198   6.548   4.171
 1347SOL    HW2 4941   6.278   6.415   4.120
 1348SOL     OW 4942   5.241   5.775   3.055
 1348SOL    HW1 4943   5.230   5.869   3.022
 1348SOL    HW2 4944   5.339   5.756   3.067
 1349SOL     OW 4945   4.729   2.645   5.916
 1349SOL    HW1 4946   4.677   2.619   5.997
 1349SOL    HW2 4947   4.743   2.744   5.916
 1350SOL     OW 4948   4.231   4.653   0.008
 1350SOL    HW1 4949   4.329   4.669   0.021
 1350SOL    HW2 4950   4.183   4.740   7.024
 1351SOL     OW 4951   6.550   2.278   2.983
 1351SOL    HW1 4952   6.611   2.243   3.054
 1351SOL    HW2 4953   6.552   2.218   2.904
 1352SOL     OW 4954   0.498   0.585   3.213
 1352SOL    HW1 4955   0.418   0.553   3.163
 1352SOL    HW2 4956   0.472   0.657   3.277
 1353SOL     OW 4957   6.042   4.017   5.643
 1353SOL    HW1 4958   5.975   4.070   5.696
 1353SOL    HW2 4959   5.994   3.951   5.586
 1354SOL     OW 4960   0.653   2.103   0.304
 1354SOL    HW1 4961   0.659   2.153   0.390
 1354SOL    HW2 4962   0.588   2.028   0.313
 1355SOL     OW 4963   6.181   2.617   5.613
 1355SOL    HW1 4964   6.269   2.617   5.567
 1355SOL    HW2 4965   6.192   2.582   5.706
 1356SOL     OW 4966   2.988   3.237   3.778
 1356SOL    HW1 4967   2.951   3.303   3.844
 1356SOL    HW2 4968   2.967   3.269   3.685
 1357SOL     OW 4969   1.164   4.590   5.838
 1357SOL    HW1 4970   1.204   4.660   5.898
 1357SOL    HW2 4971   1.184   4.613   5.743
 1358SOL     OW 4972   3.822   1.393   5.737
 1358SOL    HW1 4973   3.853   1.479   5.777
 1358SOL    HW2 4974   3.803   1.327   5.810
 1359SOL     OW 4975   6.608   4.765   1.528
 1359SOL    HW1 4976   6.670   4.812   1.465
 1359SOL    HW2 4977   6.610   4.667   1.509
 1360SOL     OW 4978   4.039   3.382   2.266
 1360SOL    HW1 4979   4.079   3.387   2.357
 1360SOL    HW2 4980   4.058   3.292   2.226
 1361SOL     OW 4981   6.920   6.626   5.724
 1361SOL    HW1 4982   6.949   6.649   5.631
 1361SOL    HW2 4983   6.991   6.571   5.768
 1362SOL     OW 4984   2.922   3.690   4.333
 1362SOL    HW1 4985   2.898   3.742   4.416
 1362SOL    HW2 4986   3.004   3.636   4.350
 1363SOL     OW 4987   6.416   6.068   3.453
 1363SOL    HW1 4988   6.458   6.056   3.543
 1363SOL    HW2 4989   6.482   6.045   3.382
 1364SOL     OW 4990   0.644   2.220   0.558
 1364SOL    HW1 4991   0.573   2.273   0.604
 1364SOL    HW2 4992   0.733   2.265   0.573
 1365SOL     OW 4993   0.565   3.506   5.905
 1365SOL    HW1 4994   0.606   3.449   5.976
 1365SOL    HW2 4995   0.628   3.579   5.879
 1366SOL     OW 4996   0.441   4.042   0.485
 1366SOL    HW1 4997   0.403   3.979   0.553
 1366SOL    HW2 4998   0.523   4.000   0.444
 1367SOL     OW 4999   1.376   5.973   3.019
 1367SOL    HW1 5000   1.452   5.958   2.956
 1367SOL    HW2 5001   1.308   6.032   2.976
 1368SOL     OW 5002   6.747   0.676   3.864
 1368SOL    HW1 5003   6.683   0.621   3.810
 1368SOL    HW2 5004   6.697   0.748   3.912
 1369SOL     OW 5005   2.085   0.028   2.557
 1369SOL    HW1 5006   2.074   7.020   2.464
 1369SOL    HW2 5007   2.029   7.002   2.620
 1370SOL     OW 5008   5.335   1.794   4.186
 1370SOL    HW1 5009   5.357   1.736   4.107
 1370SOL    HW2 5010   5.396   1.772   4.262
 1371SOL     OW 5011   4.994   1.252   4.931
 1371SOL    HW1 5012   5.039   1.234   5.018
 1371SOL    HW2 5013   4.933   1.175   4.909
 1372SOL     OW 5014   1.077   1.786   0.899
 1372SOL    HW1 5015   1.091   1.692   0.869
 1372SOL    HW2 5016   0.990   1.820   0.865
 1373SOL     OW 5017   4.634   2.195   6.817
 1373SOL    HW1 5018   4.733   2.188   6.802
 1373SOL    HW2 5019   4.589   2.216   6.731
 1374SOL     OW 5020   4.645   3.078   0.544
 1374SOL    HW1 5021   4.646   2.982   0.515
 1374SOL    HW2 5022   4.652   3.083   0.644
 1375SOL     OW 5023   0.620   6.901   6.181
 1375SOL    HW1 5024   0.690   6.831   6.165
 1375SOL    HW2 5025   0.662   6.991   6.177
 1376SOL     OW 5026   3.681   4.708   5.372
 1376SOL    HW1 5027   3.767   4.714   5.320
 1376SOL    HW2 5028   3.702   4.703   5.470
 1377SOL     OW 5029   0.964   3.596   3.205
 1377SOL    HW1 5030   0.917   3.591   3.117
 1377SOL    HW2 5031   1.051   3.645   3.193
 1378SOL     OW 5032   5.765   2.530   5.495
 1378SOL    HW1 5033   5.745   2.439   5.530
 1378SOL    HW2 5034   5.824   2.579   5.560
 1379SOL     OW 5035   4.138   5.975   3.226
 1379SOL    HW1 5036   4.221   5.996   3.174
 1379SOL    HW2 5037   4.141   5.880   3.257
 1380SOL     OW 5038   0.333   6.101   3.627
 1380SOL    HW1 5039   0.406   6.094   3.695
 1380SOL    HW2 5040   0.296   6.010   3.608
 1381SOL     OW 5041   5.577   1.834   0.031
 1381SOL    HW1 5042   5.507   1.854   0.100
 1381SOL    HW2 5043   5.662   1.809   0.077
 1382SOL     OW 5044   5.212   3.323   1.564
 1382SOL    HW1 5045   5.265   3.298   1.483
 1382SOL    HW2 5046   5.119   3.288   1.554
 1383SOL     OW 5047   1.370   0.228   1.466
 1383SOL    HW1 5048   1.459   0.271   1.449
 1383SOL    HW2 5049   1.366   0.198   1.561
 1384SOL     OW 5050   4.957   0.352   2.203
 1384SOL    HW1 5051   4.897   0.424   2.169
 1384SOL    HW2 5052   4.902   0.273   2.231
 1385SOL     OW 5053   2.884   4.780   3.524
 1385SOL    HW1 5054   2.963   4.830   3.489
 1385SOL    HW2 5055   2.810   4.782   3.457
 1386SOL     OW 5056   3.094   1.036   4.003
 1386SOL    HW1 5057   3.163   1.104   4.025
 1386SOL    HW2 5058   3.138   0.947   3.988
 1387SOL     OW 5059   4.310   5.398   2.918
 1387SOL    HW1 5060   4.392   5.416   2.973
 1387SOL    HW2 5061   4.337   5.370   2.826
 1388SOL     OW 5062   6.432   0.092   2.650
 1388SOL    HW1 5063   6.366   0.111   2.578
 1388SOL    HW2 5064   6.500   0.026   2.618
 1389SOL     OW 5065   6.032   1.027   3.812
 1389SOL    HW1 5066   5.966   0.977   3.756
 1389SOL    HW2 5067   6.121   1.027   3.768
 1390SOL     OW 5068   6.998   3.377   6.860
 1390SOL    HW1 5069   6.996   3.338   6.768
 1390SOL    HW2 5070   7.025   3.306   6.926
 1391SOL     OW 5071   6.487   6.176   4.796
 1391SOL    HW1 5072   6.389   6.167   4.776
 1391SOL    HW2 5073   6.539   6.123   4.729
 1392SOL     OW 5074   5.221   6.671   5.803
 1392SOL    HW1 5075   5.230   6.573   5.820
 1392SOL    HW2 5076   5.133   6.690   5.759
 1393SOL     OW 5077   6.450   4.704   5.712
 1393SOL    HW1 5078   6.361   4.662   5.728
 1393SOL    HW2 5079   6.438   4.803   5.698
 1394SOL     OW 5080   3.368   5.165   5.781
 1394SOL    HW1 5081   3.276   5.170   5.819
 1394SOL    HW2 5082   3.388   5.249   5.730
 1395SOL     OW 5083   2.500   4.508   5.295
 1395SOL    HW1 5084   2.421   4.492   5.235
 1395SOL    HW2 5085   2.516   4.427   5.351
 1396SOL     OW 5086   0.960   1.551   5.232
 1396SOL    HW1 5087   0.961   1.481   5.304
 1396SOL    HW2 5088   1.053   1.580   5.212
 1397SOL     OW 5089   0.574   6.896   4.043
 1397SOL    HW1 5090   0.587   6.924   4.138
 1397SOL    HW2 5091   0.548   6.800   4.039
 1398SOL     OW 5092   3.103   0.916   6.623
 1398SOL    HW1 5093   3.158   0.887   6.701
 1398SOL    HW2 5094   3.014   0.869   6.624
 1399SOL     OW 5095   3.582   5.460   0.897
 1399SOL    HW1 5096   3.488   5.493   0.900
 1399SOL    HW2 5097   3.590   5.388   0.829
 1400SOL     OW 5098   6.904   1.601   4.067
 1400SOL    HW1 5099   6.996   1.562   4.071
 1400SOL    HW2 5100   6.888   1.657   4.149
 1401SOL     OW 5101   6.298   1.106   4.687
 1401SOL    HW1 5102   6.356   1.165   4.630
 1401SOL    HW2 5103   6.350   1.026   4.716
 1402SOL     OW 5104   6.230   3.687   6.320
 1402SOL    HW1 5105   6.160   3.669   6.388
 1402SOL    HW2 5106   6.238   3.609   6.258
 1403SOL     OW 5107   2.469   2.399   1.799
 1403SOL    HW1 5108   2.528   2.329   1.838
 1403SOL    HW2 5109   2.477   2.397   1.699
 1404SOL     OW 5110   6.556   6.574   0.330
 1404SOL    HW1 5111   6.608   6.595   0.413
 1404SOL    HW2 5112   6.461   6.600   0.343
 1405SOL     OW 5113   2.399   3.247   0.709
 1405SOL    HW1 5114   2.456   3.186   0.654
 1405SOL    HW2 5115   2.392   3.336   0.664
 1406SOL     OW 5116   0.649   5.246   0.696
 1406SOL    HW1 5117   0.567   5.302   0.688
 1406SOL    HW2 5118   0.650   5.201   0.785
 1407SOL     OW 5119   0.476   3.213   2.315
 1407SOL    HW1 5120   0.434   3.227   2.405
 1407SOL    HW2 5121   0.559   3.268   2.308
 1408SOL     OW 5122   5.588   0.916   5.872
 1408SOL    HW1 5123   5.593   0.872   5.782
 1408SOL    HW2 5124   5.612   1.012   5.863
 1409SOL     OW 5125   6.548   0.198   4.868
 1409SOL    HW1 5126   6.638   0.216   4.828
 1409SOL    HW2 5127   6.532   0.261   4.944
 1410SOL     OW 5128   1.197   3.932   6.215
 1410SOL    HW1 5129   1.282   3.958   6.170
 1410SOL    HW2 5130   1.173   4.001   6.282
 1411SOL     OW 5131   3.777   6.823   0.866
 1411SOL    HW1 5132   3.820   6.891   0.926
 1411SOL    HW2 5133   3.697   6.864   0.822
 1412SOL     OW 5134   1.314   1.879   0.984
 1412SOL    HW1 5135   1.390   1.824   0.950
 1412SOL    HW2 5136   1.227   1.834   0.963
 1413SOL     OW 5137   1.805   2.049   5.284
 1413SOL    HW1 5138   1.723   2.102   5.262
 1413SOL    HW2 5139   1.828   2.061   5.381
 1414SOL     OW 5140   2.848   1.233   2.003
 1414SOL    HW1 5141   2.929   1.292   2.000
 1414SOL    HW2 5142   2.768   1.287   2.027
 1415SOL     OW 5143   2.085   1.077   4.150
 1415SOL    HW1 5144   2.147   1.155   4.138
 1415SOL    HW2 5145   2.015   1.101   4.218
 1416SOL     OW 5146   5.238   5.283   3.932
 1416SOL    HW1 5147   5.280   5.207   3.982
 1416SOL    HW2 5148   5.142   5.291   3.957
 1417SOL     OW 5149   3.162   2.380   0.202
 1417SOL    HW1 5150   3.179   2.310   0.133
 1417SOL    HW2 5151   3.186   2.470   0.165
 1418SOL     OW 5152   3.608   4.154   2.745
 1418SOL    HW1 5153   3.589   4.205   2.661
 1418SOL    HW2 5154   3.529   4.099   2.770
 1419SOL     OW 5155   2.726   5.575   4.002
 1419SOL    HW1 5156   2.722   5.533   4.093
 1419SOL    HW2 5157   2.804   5.638   3.998
 1420SOL     OW 5158   2.357   6.743   1.988
 1420SOL    HW1 5159   2.329   6.706   1.899
 1420SOL    HW2 5160   2.418   6.820   1.974
 1421SOL     OW 5161   2.279   4.806   3.240
 1421SOL    HW1 5162   2.284   4.732   3.308
 1421SOL    HW2 5163   2.353   4.871   3.256
 1422SOL     OW 5164   1.486   3.850   0.367
 1422SOL    HW1 5165   1.433   3.819   0.288
 1422SOL    HW2 5166   1.494   3.949   0.364
 1423SOL     OW 5167   5.059   6.215   3.676
 1423SOL    HW1 5168   5.104   6.190   3.590
 1423SOL    HW2 5169   5.035   6.133   3.726
 1424SOL     OW 5170   6.900   5.043   5.708
 1424SOL    HW1 5171   6.861   5.133   5.729
 1424SOL    HW2 5172   6.836   4.992   5.650
 1425SOL     OW 5173   1.881   5.541   5.532
 1425SOL    HW1 5174   1.954   5.608   5.524
 1425SOL    HW2 5175   1.912   5.464   5.588
 1426SOL     OW 5176   2.184   4.167   6.558
 1426SOL    HW1 5177   2.202   4.265   6.547
 1426SOL    HW2 5178   2.165   4.126   6.468
 1427SOL     OW 5179   0.291   0.348   3.608
 1427SOL    HW1 5180   0.375   0.350   3.662
 1427SOL    HW2 5181   0.313   0.327   3.512
 1428SOL     OW 5182   0.329   3.017   6.886
 1428SOL    HW1 5183   0.243   3.031   6.934
 1428SOL    HW2 5184   0.397   2.980   6.950
 1429SOL     OW 5185   4.360   1.530   7.016
 1429SOL    HW1 5186   4.264   1.508   7.005
 1429SOL    HW2 5187   4.408   1.518   6.929
 1430SOL     OW 5188   1.466   4.621   3.480
 1430SOL    HW1 5189   1.505   4.708   3.449
 1430SOL    HW2 5190   1.439   4.567   3.400
 1431SOL     OW 5191   2.714   2.086   0.758
 1431SOL    HW1 5192   2.780   2.012   0.762
 1431SOL    HW2 5193   2.741   2.151   0.687
 1432SOL     OW 5194   2.911   1.647   1.805
 1432SOL    HW1 5195   2.960   1.632   1.719
 1432SOL    HW2 5196   2.827   1.698   1.787
 1433SOL     OW 5197   4.625   0.519   5.053
 1433SOL    HW1 5198   4.571   0.555   4.977
 1433SOL    HW2 5199   4.575   0.534   5.139
 1434SOL     OW 5200   0.636   0.550   5.994
 1434SOL    HW1 5201   0.538   0.536   5.976
 1434SOL    HW2 5202   0.648   0.628   6.056
 1435SOL     OW 5203   6.463   0.022   2.955
 1435SOL    HW1 5204   6.456   0.077   3.038
 1435SOL    HW2 5205   6.481   0.082   2.877
 1436SOL     OW 5206   5.274   4.082   6.630
 1436SOL    HW1 5207   5.315   3.990   6.635
 1436SOL    HW2 5208   5.215   4.096   6.710
 1437SOL     OW 5209   2.925   1.958   4.703
 1437SOL    HW1 5210   2.945   1.879   4.761
 1437SOL    HW2 5211   2.925   2.041   4.758
 1438SOL     OW 5212   2.720   6.235   1.829
 1438SOL    HW1 5213   2.624   6.256   1.817
 1438SOL    HW2 5214   2.747   6.162   1.766
 1439SOL     OW 5215   6.450   5.747   0.958
 1439SOL    HW1 5216   6.378   5.689   0.919
 1439SOL    HW2 5217   6.540   5.709   0.933
 1440SOL     OW 5218   2.938   3.129   7.015
 1440SOL    HW1 5219   3.019   3.157   0.039
 1440SOL    HW2 5220   2.923   3.194   6.940
 1441SOL     OW 5221   6.322   0.561   3.569
 1441SOL    HW1 5222   6.370   0.588   3.485
 1441SOL    HW2 5223   6.248   0.626   3.587
 1442SOL     OW 5224   0.147   6.031   6.812
 1442SOL    HW1 5225   0.181   5.980   6.891
 1442SOL    HW2 5226   0.083   5.975   6.760
 1443SOL     OW 5227   0.717   2.548   4.359
 1443SOL    HW1 5228   0.674   2.554   4.268
 1443SOL    HW2 5229   0.789   2.617   4.367
 1444SOL     OW 5230   5.242   5.628   0.824
 1444SOL    HW1 5231   5.165   5.655   0.882
 1444SOL    HW2 5232   5.233   5.673   0.735
 1445SOL     OW 5233   1.016   2.590   2.911
 1445SOL    HW1 5234   0.923   2.611   2.940
 1445SOL    HW2 5235   1.080   2.614   2.985
 1446SOL     OW 5236   6.036   2.252   0.370
 1446SOL    HW1 5237   6.008   2.183   0.436
 1446SOL    HW2 5238   6.021   2.343   0.409
 1447SOL     OW 5239   6.003   6.339   4.779
 1447SOL    HW1 5240   6.075   6.281   4.742
 1447SOL    HW2 5241   6.043   6.407   4.840
 1448SOL     OW 5242   6.963   2.283   5.427
 1448SOL    HW1 5243   6.942   2.292   5.524
 1448SOL    HW2 5244   7.007   2.366   5.394
 1449SOL     OW 5245   1.035   2.062   6.784
 1449SOL    HW1 5246   0.949   2.023   6.817
 1449SOL    HW2 5247   1.069   2.128   6.851
 1450SOL     OW 5248   1.133   2.764   1.417
 1450SOL    HW1 5249   1.056   2.827   1.405
 1450SOL    HW2 5250   1.193   2.769   1.337
 1451SOL     OW 5251   0.509   6.907   2.219
 1451SOL    HW1 5252   0.454   6.976   2.267
 1451SOL    HW2 5253   0.461   6.819   2.221
 1452SOL     OW 5254   4.386   1.800   5.015
 1452SOL    HW1 5255   4.350   1.789   5.108
 1452SOL    HW2 5256   4.312   1.791   4.949
 1453SOL     OW 5257   6.836   3.546   5.944
 1453SOL    HW1 5258   6.790   3.604   6.012
 1453SOL    HW2 5259   6.920   3.590   5.913
 1454SOL     OW 5260   0.674   2.856   2.295
 1454SOL    HW1 5261   0.742   2.804   2.345
 1454SOL    HW2 5262   0.666   2.948   2.335
 1455SOL     OW 5263   1.569   0.408   1.436
 1455SOL    HW1 5264   1.666   0.398   1.416
 1455SOL    HW2 5265   1.531   0.484   1.383
 1456SOL     OW 5266   0.012   6.334   5.701
 1456SOL    HW1 5267   0.089   6.391   5.671
 1456SOL    HW2 5268   6.967   6.339   5.633
 1457SOL     OW 5269   0.665   6.809   1.671
 1457SOL    HW1 5270   0.673   6.838   1.576
 1457SOL    HW2 5271   0.602   6.871   1.719
 1458SOL     OW 5272   5.665   5.234   4.277
 1458SOL    HW1 5273   5.596   5.194   4.337
 1458SOL    HW2 5274   5.724   5.162   4.241
 1459SOL     OW 5275   3.562   5.719   5.771
 1459SOL    HW1 5276   3.595   5.703   5.678
 1459SOL    HW2 5277   3.593   5.809   5.802
 1460SOL     OW 5278   0.356   6.943   5.292
 1460SOL    HW1 5279   0.260   6.915   5.286
 1460SOL    HW2 5280   0.363   0.013   5.276
 1461SOL     OW 5281   6.090   4.527   2.795
 1461SOL    HW1 5282   6.095   4.579   2.880
 1461SOL    HW2 5283   6.094   4.590   2.717
 1462SOL     OW 5284   1.619   0.274   0.118
 1462SOL    HW1 5285   1.556   0.324   0.177
 1462SOL    HW2 5286   1.707   0.323   0.115
 1463SOL     OW 5287   0.004   5.585   6.395
 1463SOL    HW1 5288   6.945   5.564   6.352
 1463SOL    HW2 5289   0.071   5.515   6.371
 1464SOL     OW 5290   0.203   6.300   2.107
 1464SOL    HW1 5291   0.162   6.390   2.126
 1464SOL    HW2 5292   0.226   6.256   2.194
 1465SOL     OW 5293   1.545   0.514   3.603
 1465SOL    HW1 5294   1.457   0.477   3.634
 1465SOL    HW2 5295   1.607   0.438   3.583
 1466SOL     OW 5296   2.506   2.588   2.486
 1466SOL    HW1 5297   2.425   2.637   2.517
 1466SOL    HW2 5298   2.511   2.590   2.386
 1467SOL     OW 5299   1.984   1.577   2.539
 1467SOL    HW1 5300   1.961   1.634   2.617
 1467SOL    HW2 5301   2.040   1.500   2.569
 1468SOL     OW 5302   3.256   5.810   2.664
 1468SOL    HW1 5303   3.341   5.807   2.716
 1468SOL    HW2 5304   3.200   5.730   2.688
 1469SOL     OW 5305   0.595   1.028   2.268
 1469SOL    HW1 5306   0.682   1.055   2.310
 1469SOL    HW2 5307   0.519   1.064   2.322
 1470SOL     OW 5308   0.997   1.966   2.177
 1470SOL    HW1 5309   1.073   2.023   2.144
 1470SOL    HW2 5310   0.990   1.974   2.276
 1471SOL     OW 5311   0.954   6.997   0.646
 1471SOL    HW1 5312   0.989   6.932   0.578
 1471SOL    HW2 5313   0.898   6.949   0.713
 1472SOL     OW 5314   2.997   5.319   5.376
 1472SOL    HW1 5315   2.906   5.279   5.376
 1472SOL    HW2 5316   3.050   5.282   5.299
 1473SOL     OW 5317   4.272   5.182   5.008
 1473SOL    HW1 5318   4.306   5.207   5.098
 1473SOL    HW2 5319   4.172   5.184   5.007
 1474SOL     OW 5320   5.857   5.305   2.358
 1474SOL    HW1 5321   5.830   5.212   2.385
 1474SOL    HW2 5322   5.898   5.303   2.266
 1475SOL     OW 5323   5.809   0.833   1.769
 1475SOL    HW1 5324   5.906   0.859   1.760
 1475SOL    HW2 5325   5.776   0.863   1.859
 1476SOL     OW 5326   3.388   0.672   1.008
 1476SOL    HW1 5327   3.417   0.643   1.099
 1476SOL    HW2 5328   3.430   0.761   0.986
 1477SOL     OW 5329   2.904   6.960   5.883
 1477SOL    HW1 5330   2.954   6.968   5.797
 1477SOL    HW2 5331   2.925   6.871   5.925
 1478SOL     OW 5332   6.353   5.041   5.812
 1478SOL    HW1 5333   6.377   5.111   5.745
 1478SOL    HW2 5334   6.427   5.032   5.879
 1479SOL     OW 5335   1.759   2.219   0.780
 1479SOL    HW1 5336   1.707   2.183   0.703
 1479SOL    HW2 5337   1.730   2.173   0.864
 1480SOL     OW 5338   3.306   0.855   4.949
 1480SOL    HW1 5339   3.379   0.818   5.006
 1480SOL    HW2 5340   3.326   0.952   4.929
 1481SOL     OW 5341   6.653   3.187   6.678
 1481SOL    HW1 5342   6.696   3.169   6.766
 1481SOL    HW2 5343   6.604   3.105   6.648
 1482SOL     OW 5344   4.105   1.573   1.995
 1482SOL    HW1 5345   4.072   1.639   1.927
 1482SOL    HW2 5346   4.156   1.622   2.066
 1483SOL     OW 5347   4.410   1.890   6.378
 1483SOL    HW1 5348   4.314   1.893   6.406
 1483SOL    HW2 5349   4.419   1.838   6.293
 1484SOL     OW 5350   5.348   4.513   4.355
 1484SOL    HW1 5351   5.373   4.558   4.441
 1484SOL    HW2 5352   5.426   4.515   4.292
 1485SOL     OW 5353   3.767   1.136   4.162
 1485SOL    HW1 5354   3.788   1.124   4.259
 1485SOL    HW2 5355   3.754   1.046   4.119
 1486SOL     OW 5356   5.554   1.071   2.660
 1486SOL    HW1 5357   5.650   1.085   2.636
 1486SOL    HW2 5358   5.508   1.159   2.666
 1487SOL     OW 5359   0.660   2.440   6.955
 1487SOL    HW1 5360   0.636   2.415   6.862
 1487SOL    HW2 5361   0.581   2.482   7.000
 1488SOL     OW 5362   5.233   0.766   3.509
 1488SOL    HW1 5363   5.156   0.775   3.445
 1488SOL    HW2 5364   5.247   0.669   3.529
 1489SOL     OW 5365   3.997   4.846   5.285
 1489SOL    HW1 5366   4.073   4.910   5.275
 1489SOL    HW2 5367   4.032   4.753   5.292
 1490SOL     OW 5368   0.890   3.329   1.594
 1490SOL    HW1 5369   0.868   3.233   1.579
 1490SOL    HW2 5370   0.970   3.355   1.540
 1491SOL     OW 5371   6.236   4.753   2.400
 1491SOL    HW1 5372   6.220   4.714   2.309
 1491SOL    HW2 5373   6.234   4.680   2.468
 1492SOL     OW 5374   6.559   0.936   2.491
 1492SOL    HW1 5375   6.494   0.936   2.566
 1492SOL    HW2 5376   6.643   0.982   2.520
 1493SOL     OW 5377   3.301   7.025   5.781
 1493SOL    HW1 5378   3.283   0.092   5.758
 1493SOL    HW2 5379   3.227   6.967   5.746
 1494SOL     OW 5380   4.727   1.560   6.365
 1494SOL    HW1 5381   4.826   1.565   6.378
 1494SOL    HW2 5382   4.693   1.474   6.403
 1495SOL     OW 5383   0.034   3.089   5.214
 1495SOL    HW1 5384   7.002   3.067   5.137
 1495SOL    HW2 5385   0.123   3.045   5.200
 1496SOL     OW 5386   0.004   1.655   1.743
 1496SOL    HW1 5387   0.025   1.752   1.751
 1496SOL    HW2 5388   0.085   1.606   1.708
 1497SOL     OW 5389   5.739   3.348   2.724
 1497SOL    HW1 5390   5.708   3.298   2.643
 1497SOL    HW2 5391   5.690   3.435   2.731
 1498SOL     OW 5392   2.386   4.841   7.015
 1498SOL    HW1 5393   2.368   4.748   0.019
 1498SOL    HW2 5394   2.370   4.845   6.916
 1499SOL     OW 5395   0.787   2.726   5.818
 1499SOL    HW1 5396   0.764   2.680   5.732
 1499SOL    HW2 5397   0.706   2.731   5.876
 1500SOL     OW 5398   0.150   6.906   6.849
 1500SOL    HW1 5399   0.096   6.918   6.766
 1500SOL    HW2 5400   0.132   6.816   6.888
 1501SOL     OW 5401   4.978   2.423   6.520
 1501SOL    HW1 5402   4.949   2.469   6.436
 1501SOL    HW2 5403   5.020   2.489   6.582
 1502SOL     OW 5404   4.221   0.212   0.169
 1502SOL    HW1 5405   4.298   0.222   0.106
 1502SOL    HW2 5406   4.240   0.261   0.254
 1503SOL     OW 5407   0.905   2.972   1.831
 1503SOL    HW1 5408   0.954   2.976   1.918
 1503SOL    HW2 5409   0.963   2.929   1.761
 1504SOL     OW 5410   0.272   0.301   4.389
 1504SOL    HW1 5411   0.214   0.345   4.458
 1504SOL    HW2 5412   0.366   0.331   4.401
 1505SOL     OW 5413   4.894   0.115   4.897
 1505SOL    HW1 5414   4.800   0.082   4.902
 1505SOL    HW2 5415   4.937   0.106   4.987
 1506SOL     OW 5416   0.563   6.109   0.093
 1506SOL    HW1 5417   0.635   6.084   0.158
 1506SOL    HW2 5418   0.571   6.051   0.012
 1507SOL     OW 5419   0.729   1.728   5.994
 1507SOL    HW1 5420   0.779   1.661   5.940
 1507SOL    HW2 5421   0.762   1.820   5.973
 1508SOL     OW 5422   6.398   1.479   1.617
 1508SOL    HW1 5423   6.438   1.406   1.671
 1508SOL    HW2 5424   6.469   1.545   1.592
 1509SOL     OW 5425   3.951   1.788   5.624
 1509SOL    HW1 5426   3.909   1.832   5.545
 1509SOL    HW2 5427   3.966   1.856   5.696
 1510SOL     OW 5428   4.735   1.633   4.767
 1510SOL    HW1 5429   4.817   1.669   4.724
 1510SOL    HW2 5430   4.694   1.703   4.825
 1511SOL     OW 5431   3.757   3.238   3.501
 1511SOL    HW1 5432   3.781   3.246   3.404
 1511SOL    HW2 5433   3.788   3.150   3.536
 1512SOL     OW 5434   0.230   5.092   0.725
 1512SOL    HW1 5435   0.313   5.100   0.781
 1512SOL    HW2 5436   0.155   5.139   0.771
 1513SOL     OW 5437   4.014   0.548   5.259
 1513SOL    HW1 5438   3.942   0.617   5.271
 1513SOL    HW2 5439   4.086   0.563   5.327
 1514SOL     OW 5440   4.186   2.112   5.535
 1514SOL    HW1 5441   4.127   2.179   5.491
 1514SOL    HW2 5442   4.265   2.157   5.575
 1515SOL     OW 5443   5.751   1.539   2.547
 1515SOL    HW1 5444   5.819   1.585   2.490
 1515SOL    HW2 5445   5.728   1.598   2.625
 1516SOL     OW 5446   6.985   6.067   6.257
 1516SOL    HW1 5447   0.020   6.144   6.269
 1516SOL    HW2 5448   6.978   6.015   6.342
 1517SOL     OW 5449   4.425   6.054   3.127
 1517SOL    HW1 5450   4.422   5.956   3.145
 1517SOL    HW2 5451   4.487   6.098   3.192
 1518SOL     OW 5452   0.910   2.271   0.685
 1518SOL    HW1 5453   0.960   2.189   0.711
 1518SOL    HW2 5454   0.944   2.349   0.738
 1519SOL     OW 5455   6.708   4.779   1.780
 1519SOL    HW1 5456   6.679   4.793   1.685
 1519SOL    HW2 5457   6.808   4.782   1.784
 1520SOL     OW 5458   6.971   4.062   1.984
 1520SOL    HW1 5459   6.903   4.109   1.929
 1520SOL    HW2 5460   0.008   4.128   2.021
 1521SOL     OW 5461   1.838   3.878   6.168
 1521SOL    HW1 5462   1.906   3.936   6.213
 1521SOL    HW2 5463   1.806   3.923   6.085
 1522SOL     OW 5464   5.361   6.360   5.017
 1522SOL    HW1 5465   5.376   6.321   5.108
 1522SOL    HW2 5466   5.357   6.286   4.949
 1523SOL     OW 5467   4.700   5.847   0.390
 1523SOL    HW1 5468   4.667   5.764   0.345
 1523SOL    HW2 5469   4.631   5.879   0.455
 1524SOL     OW 5470   2.573   1.906   2.284
 1524SOL    HW1 5471   2.512   1.967   2.233
 1524SOL    HW2 5472   2.519   1.837   2.332
 1525SOL     OW 5473   6.875   3.252   0.569
 1525SOL    HW1 5474   6.967   3.287   0.553
 1525SOL    HW2 5475   6.860   3.171   0.512
 1526SOL     OW 5476   0.405   0.819   0.020
 1526SOL    HW1 5477   0.478   0.798   6.982
 1526SOL    HW2 5478   0.401   0.747   0.088
 1527SOL     OW 5479   4.463   0.621   4.861
 1527SOL    HW1 5480   4.455   0.719   4.882
 1527SOL    HW2 5481   4.466   0.609   4.762
 1528SOL     OW 5482   4.018   5.073   2.851
 1528SOL    HW1 5483   4.082   5.109   2.919
 1528SOL    HW2 5484   4.064   5.063   2.763
 1529SOL     OW 5485   4.680   0.745   0.250
 1529SOL    HW1 5486   4.684   0.844   0.233
 1529SOL    HW2 5487   4.584   0.716   0.248
 1530SOL     OW 5488   3.643   2.010   1.960
 1530SOL    HW1 5489   3.678   2.104   1.968
 1530SOL    HW2 5490   3.720   1.946   1.960
 1531SOL     OW 5491   4.597   0.123   5.814
 1531SOL    HW1 5492   4.610   0.026   5.793
 1531SOL    HW2 5493   4.683   0.172   5.798
 1532SOL     OW 5494   3.195   3.117   6.686
 1532SOL    HW1 5495   3.110   3.170   6.697
 1532SOL    HW2 5496   3.273   3.172   6.716
 1533SOL     OW 5497   6.229   4.299   6.371
 1533SOL    HW1 5498   6.227   4.217   6.429
 1533SOL    HW2 5499   6.206   4.379   6.426
 1534SOL     OW 5500   2.640   4.946   0.043
 1534SOL    HW1 5501   2.559   4.889   0.027
 1534SOL    HW2 5502   2.692   4.956   6.987
 1535SOL     OW 5503   5.009   6.568   4.599
 1535SOL    HW1 5504   5.011   6.662   4.564
 1535SOL    HW2 5505   4.918   6.529   4.586
 1536SOL     OW 5506   3.543   4.513   5.859
 1536SOL    HW1 5507   3.601   4.461   5.922
 1536SOL    HW2 5508   3.459   4.540   5.906
 1537SOL     OW 5509   4.630   6.117   3.863
 1537SOL    HW1 5510   4.562   6.096   3.934
 1537SOL    HW2 5511   4.583   6.158   3.784
 1538SOL     OW 5512   3.681   6.321   6.890
 1538SOL    HW1 5513   3.623   6.373   6.953
 1538SOL    HW2 5514   3.670   6.223   6.908
 1539SOL     OW 5515   4.862   3.971   1.572
 1539SOL    HW1 5516   4.953   3.956   1.611
 1539SOL    HW2 5517   4.793   3.952   1.641
 1540SOL     OW 5518   0.833   6.083   5.266
 1540SOL    HW1 5519   0.882   6.088   5.179
 1540SOL    HW2 5520   0.836   5.990   5.300
 1541SOL     OW 5521   3.636   3.149   3.803
 1541SOL    HW1 5522   3.606   3.117   3.893
 1541SOL    HW2 5523   3.715   3.096   3.773
 1542SOL     OW 5524   6.137   6.800   2.998
 1542SOL    HW1 5525   6.143   6.871   2.928
 1542SOL    HW2 5526   6.059   6.740   2.979
 1543SOL     OW 5527   3.131   5.164   5.199
 1543SOL    HW1 5528   3.203   5.197   5.139
 1543SOL    HW2 5529   3.067   5.107   5.148
 1544SOL     OW 5530   2.867   3.537   2.769
 1544SOL    HW1 5531   2.773   3.561   2.744
 1544SOL    HW2 5532   2.925   3.541   2.688
 1545SOL     OW 5533   5.196   0.781   3.192
 1545SOL    HW1 5534   5.255   0.851   3.232
 1545SOL    HW2 5535   5.110   0.823   3.162
 1546SOL     OW 5536   3.848   6.867   6.098
 1546SOL    HW1 5537   3.880   6.949   6.051
 1546SOL    HW2 5538   3.771   6.828   6.048
 1547SOL     OW 5539   1.765   4.130   2.639
 1547SOL    HW1 5540   1.669   4.120   2.662
 1547SOL    HW2 5541   1.803   4.208   2.688
 1548SOL     OW 5542   5.301   3.984   5.796
 1548SOL    HW1 5543   5.369   4.043   5.840
 1548SOL    HW2 5544   5.215   3.988   5.847
 1549SOL     OW 5545   4.628   1.362   2.147
 1549SOL    HW1 5546   4.594   1.406   2.063
 1549SOL    HW2 5547   4.595   1.413   2.227
 1550SOL     OW 5548   3.229   3.788   0.172
 1550SOL    HW1 5549   3.302   3.814   0.108
 1550SOL    HW2 5550   3.217   3.689   0.169
 1551SOL     OW 5551   2.547   4.129   6.040
 1551SOL    HW1 5552   2.610   4.076   5.983
 1551SOL    HW2 5553   2.479   4.173   5.982
 1552SOL     OW 5554   0.791   6.033   0.286
 1552SOL    HW1 5555   0.796   5.933   0.285
 1552SOL    HW2 5556   0.881   6.071   0.306
 1553SOL     OW 5557   0.126   1.919   5.763
 1553SOL    HW1 5558   0.044   1.886   5.716
 1553SOL    HW2 5559   0.176   1.841   5.800
 1554SOL     OW 5560   3.952   2.172   2.936
 1554SOL    HW1 5561   4.007   2.172   2.853
 1554SOL    HW2 5562   3.856   2.157   2.914
 1555SOL     OW 5563   4.919   2.524   6.800
 1555SOL    HW1 5564   4.846   2.592   6.806
 1555SOL    HW2 5565   4.903   2.452   6.868
 1556SOL     OW 5566   3.643   1.543   0.366
 1556SOL    HW1 5567   3.718   1.600   0.333
 1556SOL    HW2 5568   3.645   1.539   0.466
 1557SOL     OW 5569   2.553   2.161   6.209
 1557SOL    HW1 5570   2.601   2.165   6.121
 1557SOL    HW2 5571   2.478   2.096   6.203
 1558SOL     OW 5572   5.212   0.948   4.658
 1558SOL    HW1 5573   5.154   0.911   4.586
 1558SOL    HW2 5574   5.189   0.906   4.746
 1559SOL     OW 5575   0.943   2.483   0.018
 1559SOL    HW1 5576   0.867   2.422   7.024
 1559SOL    HW2 5577   0.975   2.528   6.963
 1560SOL     OW 5578   0.819   0.958   6.137
 1560SOL    HW1 5579   0.857   0.881   6.087
 1560SOL    HW2 5580   0.769   1.017   6.074
 1561SOL     OW 5581   6.532   6.714   3.797
 1561SOL    HW1 5582   6.487   6.710   3.708
 1561SOL    HW2 5583   6.486   6.782   3.854
 1562SOL     OW 5584   3.878   5.953   3.130
 1562SOL    HW1 5585   3.913   5.908   3.048
 1562SOL    HW2 5586   3.944   6.023   3.160
 1563SOL     OW 5587   1.811   0.039   6.146
 1563SOL    HW1 5588   1.804   6.991   6.082
 1563SOL    HW2 5589   1.720   0.070   6.173
 1564SOL     OW 5590   1.195   2.729   3.446
 1564SOL    HW1 5591   1.278   2.781   3.468
 1564SOL    HW2 5592   1.146   2.707   3.531
 1565SOL     OW 5593   4.213   4.947   4.609
 1565SOL    HW1 5594   4.212   5.047   4.610
 1565SOL    HW2 5595   4.149   4.913   4.678
 1566SOL     OW 5596   5.783   4.870   3.055
 1566SOL    HW1 5597   5.744   4.786   3.093
 1566SOL    HW2 5598   5.721   4.907   2.986
 1567SOL     OW 5599   5.946   5.763   0.355
 1567SOL    HW1 5600   5.983   5.676   0.388
 1567SOL    HW2 5601   5.989   5.839   0.404
 1568SOL     OW 5602   1.763   6.176   1.098
 1568SOL    HW1 5603   1.850   6.146   1.136
 1568SOL    HW2 5604   1.697   6.190   1.172
 1569SOL     OW 5605   4.295   6.101   3.817
 1569SOL    HW1 5606   4.270   6.028   3.881
 1569SOL    HW2 5607   4.285   6.069   3.723
 1570SOL     OW 5608   1.671   0.262   0.515
 1570SOL    HW1 5609   1.591   0.269   0.575
 1570SOL    HW2 5610   1.697   0.166   0.504
 1571SOL     OW 5611   5.400   1.852   1.350
 1571SOL    HW1 5612   5.424   1.883   1.443
 1571SOL    HW2 5613   5.443   1.913   1.283
 1572SOL     OW 5614   0.825   6.884   0.842
 1572SOL    HW1 5615   0.737   6.837   0.838
 1572SOL    HW2 5616   0.826   6.947   0.920
 1573SOL     OW 5617   5.348   3.559   1.537
 1573SOL    HW1 5618   5.355   3.623   1.614
 1573SOL    HW2 5619   5.292   3.481   1.564
 1574SOL     OW 5620   6.804   0.843   1.993
 1574SOL    HW1 5621   6.886   0.823   2.048
 1574SOL    HW2 5622   6.823   0.919   1.932
 1575SOL     OW 5623   4.129   1.332   0.782
 1575SOL    HW1 5624   4.100   1.261   0.846
 1575SOL    HW2 5625   4.124   1.296   0.689
 1576SOL     OW 5626   1.706   6.758   3.717
 1576SOL    HW1 5627   1.624   6.705   3.696
 1576SOL    HW2 5628   1.720   6.828   3.647
 1577SOL     OW 5629   3.045   1.391   5.100
 1577SOL    HW1 5630   3.055   1.440   5.014
 1577SOL    HW2 5631   3.096   1.438   5.172
 1578SOL     OW 5632   6.265   3.111   5.631
 1578SOL    HW1 5633   6.182   3.113   5.576
 1578SOL    HW2 5634   6.344   3.125   5.571
 1579SOL     OW 5635   0.225   1.359   2.157
 1579SOL    HW1 5636   0.231   1.276   2.211
 1579SOL    HW2 5637   0.178   1.339   2.071
 1580SOL     OW 5638   3.004   3.830   4.912
 1580SOL    HW1 5639   3.080   3.896   4.904
 1580SOL    HW2 5640   2.960   3.820   4.824
 1581SOL     OW 5641   0.578   3.798   4.644
 1581SOL    HW1 5642   0.610   3.890   4.623
 1581SOL    HW2 5643   0.561   3.791   4.742
 1582SOL     OW 5644   1.279   0.043   4.010
 1582SOL    HW1 5645   1.225   6.999   4.051
 1582SOL    HW2 5646   1.325   0.096   4.082
 1583SOL     OW 5647   1.150   4.636   3.613
 1583SOL    HW1 5648   1.233   4.666   3.567
 1583SOL    HW2 5649   1.171   4.610   3.707
 1584SOL     OW 5650   1.086   6.877   5.333
 1584SOL    HW1 5651   1.151   6.847   5.403
 1584SOL    HW2 5652   1.108   6.971   5.307
 1585SOL     OW 5653   5.871   2.009   3.795
 1585SOL    HW1 5654   5.867   2.040   3.699
 1585SOL    HW2 5655   5.796   2.051   3.846
 1586SOL     OW 5656   3.616   4.855   1.644
 1586SOL    HW1 5657   3.595   4.795   1.722
 1586SOL    HW2 5658   3.587   4.948   1.666
 1587SOL     OW 5659   3.201   5.973   6.628
 1587SOL    HW1 5660   3.232   5.957   6.722
 1587SOL    HW2 5661   3.245   6.055   6.592
 1588SOL     OW 5662   4.663   1.359   3.158
 1588SOL    HW1 5663   4.615   1.425   3.215
 1588SOL    HW2 5664   4.724   1.303   3.215
 1589SOL     OW 5665   5.625   3.966   1.454
 1589SOL    HW1 5666   5.597   3.898   1.387
 1589SOL    HW2 5667   5.625   4.057   1.413
 1590SOL     OW 5668   3.273   6.037   6.309
 1590SOL    HW1 5669   3.270   5.963   6.377
 1590SOL    HW2 5670   3.186   6.039   6.259
 1591SOL     OW 5671   6.405   5.285   2.836
 1591SOL    HW1 5672   6.462   5.279   2.918
 1591SOL    HW2 5673   6.449   5.344   2.769
 1592SOL     OW 5674   2.197   4.280   0.444
 1592SOL    HW1 5675   2.295   4.264   0.430
 1592SOL    HW2 5676   2.160   4.331   0.367
 1593SOL     OW 5677   1.060   6.794   4.408
 1593SOL    HW1 5678   1.146   6.793   4.458
 1593SOL    HW2 5679   1.027   6.701   4.395
 1594SOL     OW 5680   0.225   6.246   2.388
 1594SOL    HW1 5681   0.288   6.188   2.441
 1594SOL    HW2 5682   0.218   6.336   2.431
 1595SOL     OW 5683   1.122   5.607   6.983
 1595SOL    HW1 5684   1.087   5.588   6.892
 1595SOL    HW2 5685   1.082   5.544   0.021
 1596SOL     OW 5686   0.206   2.659   4.173
 1596SOL    HW1 5687   0.207   2.599   4.093
 1596SOL    HW2 5688   0.174   2.749   4.146
 1597SOL     OW 5689   1.906   6.442   6.650
 1597SOL    HW1 5690   1.888   6.524   6.705
 1597SOL    HW2 5691   1.956   6.467   6.568
 1598SOL     OW 5692   0.872   3.536   6.424
 1598SOL    HW1 5693   0.972   3.529   6.422
 1598SOL    HW2 5694   0.845   3.627   6.392
 1599SOL     OW 5695   4.515   4.398   5.938
 1599SOL    HW1 5696   4.611   4.405   5.965
 1599SOL    HW2 5697   4.476   4.316   5.978
 1600SOL     OW 5698   5.242   1.420   4.696
 1600SOL    HW1 5699   5.299   1.496   4.664
 1600SOL    HW2 5700   5.151   1.426   4.655
 1601SOL     OW 5701   6.954   4.936   4.856
 1601SOL    HW1 5702   7.016   4.966   4.928
 1601SOL    HW2 5703   7.005   4.890   4.784
 1602SOL     OW 5704   2.212   5.027   3.546
 1602SOL    HW1 5705   2.307   4.997   3.557
 1602SOL    HW2 5706   2.170   5.037   3.636
 1603SOL     OW 5707   6.765   6.188   2.798
 1603SOL    HW1 5708   6.801   6.202   2.706
 1603SOL    HW2 5709   6.724   6.274   2.831
 1604SOL     OW 5710   6.269   4.539   0.716
 1604SOL    HW1 5711   6.292   4.593   0.797
 1604SOL    HW2 5712   6.344   4.476   0.695
 1605SOL     OW 5713   6.906   6.504   1.919
 1605SOL    HW1 5714   6.901   6.424   1.979
 1605SOL    HW2 5715   6.832   6.567   1.942
 1606SOL     OW 5716   3.530   0.770   5.118
 1606SOL    HW1 5717   3.577   0.684   5.138
 1606SOL    HW2 5718   3.598   0.842   5.102
 1607SOL     OW 5719   3.853   2.180   0.886
 1607SOL    HW1 5720   3.917   2.206   0.814
 1607SOL    HW2 5721   3.783   2.120   0.849
 1608SOL     OW 5722   1.051   0.170   4.302
 1608SOL    HW1 5723   0.986   0.233   4.259
 1608SOL    HW2 5724   1.001   0.091   4.338
 1609SOL     OW 5725   3.984   0.476   0.503
 1609SOL    HW1 5726   4.055   0.545   0.491
 1609SOL    HW2 5727   3.901   0.520   0.538
 1610SOL     OW 5728   5.578   4.453   6.993
 1610SOL    HW1 5729   5.500   4.414   0.013
 1610SOL    HW2 5730   5.561   4.451   6.895
 1611SOL     OW 5731   2.472   3.800   1.659
 1611SOL    HW1 5732   2.548   3.738   1.641
 1611SOL    HW2 5733   2.507   3.894   1.663
 1612SOL     OW 5734   2.300   0.754   5.318
 1612SOL    HW1 5735   2.290   0.774   5.221
 1612SOL    HW2 5736   2.381   0.798   5.354
 1613SOL     OW 5737   1.786   5.244   1.565
 1613SOL    HW1 5738   1.874   5.285   1.591
 1613SOL    HW2 5739   1.802   5.151   1.533
 1614SOL     OW 5740   6.364   3.305   6.919
 1614SOL    HW1 5741   6.378   3.342   6.828
 1614SOL    HW2 5742   6.368   3.205   6.916
 1615SOL     OW 5743   6.717   5.439   1.125
 1615SOL    HW1 5744   6.617   5.436   1.123
 1615SOL    HW2 5745   6.753   5.359   1.078
 1616SOL     OW 5746   3.501   2.006   5.000
 1616SOL    HW1 5747   3.481   2.086   5.057
 1616SOL    HW2 5748   3.551   2.035   4.918
 1617SOL     OW 5749   6.072   0.647   1.994
 1617SOL    HW1 5750   5.980   0.609   1.996
 1617SOL    HW2 5751   6.105   0.660   2.088
 1618SOL     OW 5752   1.352   4.380   1.897
 1618SOL    HW1 5753   1.427   4.425   1.850
 1618SOL    HW2 5754   1.334   4.426   1.985
 1619SOL     OW 5755   0.673   2.259   2.561
 1619SOL    HW1 5756   0.714   2.325   2.624
 1619SOL    HW2 5757   0.714   2.269   2.471
 1620SOL     OW 5758   2.818   5.399   1.141
 1620SOL    HW1 5759   2.809   5.301   1.158
 1620SOL    HW2 5760   2.880   5.414   1.063
 1621SOL     OW 5761   0.368   1.520   0.771
 1621SOL    HW1 5762   0.368   1.571   0.858
 1621SOL    HW2 5763   0.460   1.486   0.753
 1622SOL     OW 5764   0.326   2.545   4.688
 1622SOL    HW1 5765   0.334   2.445   4.697
 1622SOL    HW2 5766   0.353   2.573   4.596
 1623SOL     OW 5767   2.376   3.465   5.322
 1623SOL    HW1 5768   2.322   3.466   5.238
 1623SOL    HW2 5769   2.415   3.556   5.338
 1624SOL     OW 5770   2.554   1.192   5.024
 1624SOL    HW1 5771   2.464   1.168   5.062
 1624SOL    HW2 5772   2.621   1.199   5.098
 1625SOL     OW 5773   1.333   5.639   1.728
 1625SOL    HW1 5774   1.238   5.667   1.745
 1625SOL    HW2 5775   1.371   5.599   1.812
 1626SOL     OW 5776   3.399   2.424   6.174
 1626SOL    HW1 5777   3.301   2.409   6.160
 1626SOL    HW2 5778   3.435   2.483   6.102
 1627SOL     OW 5779   6.330   2.903   3.746
 1627SOL    HW1 5780   6.269   2.954   3.685
 1627SOL    HW2 5781   6.287   2.815   3.769
 1628SOL     OW 5782   4.436   4.865   0.238
 1628SOL    HW1 5783   4.336   4.859   0.235
 1628SOL    HW2 5784   4.472   4.788   0.292
 1629SOL     OW 5785   2.872   1.136   3.785
 1629SOL    HW1 5786   2.971   1.136   3.799
 1629SOL    HW2 5787   2.828   1.174   3.866
 1630SOL     OW 5788   1.382   5.942   5.744
 1630SOL    HW1 5789   1.389   5.964   5.841
 1630SOL    HW2 5790   1.462   5.977   5.695
 1631SOL     OW 5791   0.315   1.793   6.711
 1631SOL    HW1 5792   0.366   1.711   6.687
 1631SOL    HW2 5793   0.305   1.851   6.631
 1632SOL     OW 5794   0.084   1.792   6.877
 1632SOL    HW1 5795   0.156   1.827   6.817
 1632SOL    HW2 5796   0.102   1.695   6.897
 1633SOL     OW 5797   5.021   2.348   4.374
 1633SOL    HW1 5798   5.004   2.393   4.286
 1633SOL    HW2 5799   4.934   2.317   4.413
 1634SOL     OW 5800   4.236   5.012   0.031
 1634SOL    HW1 5801   4.202   5.106   0.030
 1634SOL    HW2 5802   4.197   4.963   0.109
 1635SOL     OW 5803   0.072   6.135   5.897
 1635SOL    HW1 5804   0.010   6.197   5.848
 1635SOL    HW2 5805   0.164   6.173   5.897
 1636SOL     OW 5806   2.537   4.105   1.309
 1636SOL    HW1 5807   2.629   4.132   1.337
 1636SOL    HW2 5808   2.540   4.012   1.273
 1637SOL     OW 5809   0.372   0.276   3.358
 1637SOL    HW1 5810   0.342   0.189   3.317
 1637SOL    HW2 5811   0.384   0.344   3.286
 1638SOL     OW 5812   0.459   4.351   3.833
 1638SOL    HW1 5813   0.520   4.406   3.775
 1638SOL    HW2 5814   0.496   4.348   3.926
 1639SOL     OW 5815   4.506   0.130   3.061
 1639SOL    HW1 5816   4.465   0.205   3.113
 1639SOL    HW2 5817   4.462   0.124   2.971
 1640SOL     OW 5818   5.666   1.565   0.672
 1640SOL    HW1 5819   5.578   1.524   0.648
 1640SOL    HW2 5820   5.706   1.516   0.749
 1641SOL     OW 5821   5.034   2.581   4.500
 1641SOL    HW1 5822   5.052   2.490   4.464
 1641SOL    HW2 5823   4.944   2.583   4.543
 1642SOL     OW 5824   6.060   3.893   6.240
 1642SOL    HW1 5825   6.081   3.903   6.143
 1642SOL    HW2 5826   6.134   3.843   6.285
 1643SOL     OW 5827   3.064   4.867   3.777
 1643SOL    HW1 5828   3.057   4.795   3.708
 1643SOL    HW2 5829   2.986   4.861   3.840
 1644SOL     OW 5830   0.375   3.057   1.325
 1644SOL    HW1 5831   0.354   3.012   1.238
 1644SOL    HW2 5832   0.464   3.101   1.319
 1645SOL     OW 5833   2.853   5.878   5.866
 1645SOL    HW1 5834   2.836   5.824   5.949
 1645SOL    HW2 5835   2.947   5.862   5.835
 1646SOL     OW 5836   2.677   5.519   0.756
 1646SOL    HW1 5837   2.721   5.530   0.667
 1646SOL    HW2 5838   2.578   5.514   0.744
 1647SOL     OW 5839   6.212   2.752   4.867
 1647SOL    HW1 5840   6.259   2.705   4.942
 1647SOL    HW2 5841   6.134   2.697   4.837
 1648SOL     OW 5842   6.153   6.080   0.668
 1648SOL    HW1 5843   6.224   6.120   0.726
 1648SOL    HW2 5844   6.083   6.148   0.648
 1649SOL     OW 5845   3.610   0.128   4.932
 1649SOL    HW1 5846   3.514   0.110   4.912
 1649SOL    HW2 5847   3.649   0.050   4.980
 1650SOL     OW 5848   1.996   6.656   5.653
 1650SOL    HW1 5849   2.089   6.668   5.618
 1650SOL    HW2 5850   1.992   6.574   5.710
 1651SOL     OW 5851   0.418   1.422   1.825
 1651SOL    HW1 5852   0.444   1.326   1.820
 1651SOL    HW2 5853   0.438   1.467   1.738
 1652SOL     OW 5854   1.404   3.256   1.953
 1652SOL    HW1 5855   1.383   3.254   1.855
 1652SOL    HW2 5856   1.470   3.329   1.972
 1653SOL     OW 5857   0.998   6.952   1.221
 1653SOL    HW1 5858   1.021   0.011   1.263
 1653SOL    HW2 5859   0.922   6.966   1.157
 1654SOL     OW 5860   6.680   3.352   2.214
 1654SOL    HW1 5861   6.703   3.434   2.265
 1654SOL    HW2 5862   6.727   3.352   2.126
 1655SOL     OW 5863   6.285   2.255   5.321
 1655SOL    HW1 5864   6.204   2.292   5.275
 1655SOL    HW2 5865   6.366   2.307   5.293
 1656SOL     OW 5866   2.421   4.506   2.331
 1656SOL    HW1 5867   2.397   4.599   2.305
 1656SOL    HW2 5868   2.338   4.449   2.335
 1657SOL     OW 5869   6.865   0.969   4.169
 1657SOL    HW1 5870   6.952   1.001   4.132
 1657SOL    HW2 5871   6.813   0.922   4.097
 1658SOL     OW 5872   0.891   7.027   1.670
 1658SOL    HW1 5873   0.898   6.965   1.748
 1658SOL    HW2 5874   0.877   6.975   1.586
 1659SOL     OW 5875   3.814   1.044   5.632
 1659SOL    HW1 5876   3.775   0.954   5.612
 1659SOL    HW2 5877   3.749   1.096   5.688
 1660SOL     OW 5878   1.071   5.338   4.064
 1660SOL    HW1 5879   1.010   5.315   3.988
 1660SOL    HW2 5880   1.065   5.436   4.082
 1661SOL     OW 5881   3.402   1.509   2.442
 1661SOL    HW1 5882   3.311   1.472   2.462
 1661SOL    HW2 5883   3.407   1.603   2.474
 1662SOL     OW 5884   6.647   0.897   3.991
 1662SOL    HW1 5885   6.573   0.937   4.046
 1662SOL    HW2 5886   6.672   0.960   3.917
 1663SOL     OW 5887   3.544   0.530   2.950
 1663SOL    HW1 5888   3.482   0.579   2.888
 1663SOL    HW2 5889   3.549   0.434   2.922
 1664SOL     OW 5890   2.542   6.908   3.885
 1664SOL    HW1 5891   2.534   6.850   3.966
 1664SOL    HW2 5892   2.583   6.856   3.811
 1665SOL     OW 5893   0.446   1.001   3.195
 1665SOL    HW1 5894   0.423   0.915   3.240
 1665SOL    HW2 5895   0.363   1.043   3.158
 1666SOL     OW 5896   5.230   3.488   0.608
 1666SOL    HW1 5897   5.271   3.432   0.680
 1666SOL    HW2 5898   5.210   3.430   0.529
 1667SOL     OW 5899   6.609   6.695   1.193
 1667SOL    HW1 5900   6.596   6.719   1.289
 1667SOL    HW2 5901   6.666   6.613   1.186
 1668SOL     OW 5902   5.159   5.904   5.304
 1668SOL    HW1 5903   5.149   5.994   5.346
 1668SOL    HW2 5904   5.091   5.841   5.341
 1669SOL     OW 5905   6.622   6.362   6.210
 1669SOL    HW1 5906   6.572   6.446   6.189
 1669SOL    HW2 5907   6.684   6.380   6.287
 1670SOL     OW 5908   6.938   4.685   6.491
 1670SOL    HW1 5909   6.859   4.634   6.526
 1670SOL    HW2 5910   6.939   4.680   6.391
 1671SOL     OW 5911   4.417   2.915   0.881
 1671SOL    HW1 5912   4.418   2.854   0.961
 1671SOL    HW2 5913   4.358   2.994   0.901
 1672SOL     OW 5914   1.930   3.647   1.549
 1672SOL    HW1 5915   1.974   3.569   1.506
 1672SOL    HW2 5916   1.831   3.642   1.535
 1673SOL     OW 5917   6.702   2.103   4.263
 1673SOL    HW1 5918   6.613   2.148   4.270
 1673SOL    HW2 5919   6.734   2.077   4.354
 1674SOL     OW 5920   0.672   3.939   2.804
 1674SOL    HW1 5921   0.749   3.945   2.740
 1674SOL    HW2 5922   0.691   3.870   2.873
 1675SOL     OW 5923   4.429   0.304   5.650
 1675SOL    HW1 5924   4.478   0.227   5.689
 1675SOL    HW2 5925   4.334   0.278   5.631
 1676SOL     OW 5926   2.205   1.379   2.085
 1676SOL    HW1 5927   2.157   1.345   2.005
 1676SOL    HW2 5928   2.297   1.340   2.088
 1677SOL     OW 5929   3.939   3.706   5.533
 1677SOL    HW1 5930   3.905   3.677   5.623
 1677SOL    HW2 5931   3.917   3.803   5.519
 1678SOL     OW 5932   5.169   4.783   5.193
 1678SOL    HW1 5933   5.189   4.829   5.107
 1678SOL    HW2 5934   5.247   4.793   5.255
 1679SOL     OW 5935   2.162   3.217   5.004
 1679SOL    HW1 5936   2.245   3.161   5.014
 1679SOL    HW2 5937   2.102   3.175   4.936
 1680SOL     OW 5938   0.402   2.653   4.390
 1680SOL    HW1 5939   0.491   2.628   4.351
 1680SOL    HW2 5940   0.334   2.658   4.318
 1681SOL     OW 5941   6.257   5.837   0.543
 1681SOL    HW1 5942   6.237   5.918   0.599
 1681SOL    HW2 5943   6.346   5.848   0.498
 1682SOL     OW 5944   0.450   1.921   4.938
 1682SOL    HW1 5945   0.374   1.894   4.878
 1682SOL    HW2 5946   0.535   1.921   4.886
 1683SOL     OW 5947   3.822   5.814   1.046
 1683SOL    HW1 5948   3.853   5.730   1.002
 1683SOL    HW2 5949   3.818   5.887   0.978
 1684SOL     OW 5950   1.155   6.377   3.315
 1684SOL    HW1 5951   1.146   6.278   3.297
 1684SOL    HW2 5952   1.099   6.427   3.249
 1685SOL     OW 5953   2.693   0.864   6.223
 1685SOL    HW1 5954   2.745   0.913   6.293
 1685SOL    HW2 5955   2.602   0.906   6.213
 1686SOL     OW 5956   2.361   4.949   5.270
 1686SOL    HW1 5957   2.306   4.880   5.224
 1686SOL    HW2 5958   2.329   4.960   5.365
 1687SOL     OW 5959   2.395   3.335   1.441
 1687SOL    HW1 5960   2.419   3.430   1.462
 1687SOL    HW2 5961   2.468   3.294   1.386
 1688SOL     OW 5962   1.767   2.529   3.832
 1688SOL    HW1 5963   1.736   2.588   3.907
 1688SOL    HW2 5964   1.695   2.462   3.811
 1689SOL     OW 5965   4.502   0.691   2.431
 1689SOL    HW1 5966   4.496   0.631   2.511
 1689SOL    HW2 5967   4.414   0.738   2.418
 1690SOL     OW 5968   1.830   3.036   3.541
 1690SOL    HW1 5969   1.809   3.051   3.637
 1690SOL    HW2 5970   1.765   3.087   3.484
 1691SOL     OW 5971   5.460   4.256   3.266
 1691SOL    HW1 5972   5.400   4.325   3.227
 1691SOL    HW2 5973   5.549   4.259   3.219
 1692SOL     OW 5974   5.725   0.313   1.577
 1692SOL    HW1 5975   5.783   0.371   1.634
 1692SOL    HW2 5976   5.662   0.261   1.635
 1693SOL     OW 5977   6.927   2.178   2.549
 1693SOL    HW1 5978   6.969   2.202   2.637
 1693SOL    HW2 5979   6.883   2.089   2.557
 1694SOL     OW 5980   5.248   0.487   3.553
 1694SOL    HW1 5981   5.303   0.467   3.635
 1694SOL    HW2 5982   5.283   0.433   3.476
 1695SOL     OW 5983   2.751   1.558   5.981
 1695SOL    HW1 5984   2.719   1.612   5.904
 1695SOL    HW2 5985   2.712   1.593   6.066
 1696SOL     OW 5986   4.893   4.719   0.799
 1696SOL    HW1 5987   4.921   4.778   0.723
 1696SOL    HW2 5988   4.938   4.750   0.883
 1697SOL     OW 5989   5.697   6.548   1.725
 1697SOL    HW1 5990   5.703   6.480   1.799
 1697SOL    HW2 5991   5.696   6.640   1.765
 1698SOL     OW 5992   5.497   1.035   0.494
 1698SOL    HW1 5993   5.451   1.007   0.578
 1698SOL    HW2 5994   5.593   1.054   0.513
 1699SOL     OW 5995   2.990   1.230   0.995
 1699SOL    HW1 5996   3.023   1.322   0.973
 1699SOL    HW2 5997   2.953   1.229   1.088
 1700SOL     OW 5998   5.962   2.559   3.175
 1700SOL    HW1 5999   5.980   2.625   3.249
 1700SOL    HW2 6000   5.946   2.608   3.090
 1701SOL     OW 6001   5.601   3.765   6.045
 1701SOL    HW1 6002   5.594   3.780   5.946
 1701SOL    HW2 6003   5.695   3.737   6.067
 1702SOL     OW 6004   6.546   2.832   0.542
 1702SOL    HW1 6005   6.597   2.748   0.560
 1702SOL    HW2 6006   6.481   2.847   0.617
 1703SOL     OW 6007   4.007   3.411   2.809
 1703SOL    HW1 6008   4.001   3.312   2.815
 1703SOL    HW2 6009   4.036   3.448   2.898
 1704SOL     OW 6010   0.736   1.203   2.046
 1704SOL    HW1 6011   0.686   1.138   2.104
 1704SOL    HW2 6012   0.805   1.155   1.993
 1705SOL     OW 6013   3.645   2.744   1.498
 1705SOL    HW1 6014   3.728   2.795   1.519
 1705SOL    HW2 6015   3.654   2.700   1.409
 1706SOL     OW 6016   4.757   0.382   1.238
 1706SOL    HW1 6017   4.683   0.326   1.276
 1706SOL    HW2 6018   4.734   0.409   1.145
 1707SOL     OW 6019   4.770   1.817   2.581
 1707SOL    HW1 6020   4.697   1.861   2.529
 1707SOL    HW2 6021   4.734   1.737   2.629
 1708SOL     OW 6022   4.925   5.006   2.304
 1708SOL    HW1 6023   4.927   4.908   2.323
 1708SOL    HW2 6024   4.964   5.022   2.213
 1709SOL     OW 6025   2.176   5.683   1.672
 1709SOL    HW1 6026   2.257   5.690   1.615
 1709SOL    HW2 6027   2.109   5.751   1.643
 1710SOL     OW 6028   5.638   4.779   3.795
 1710SOL    HW1 6029   5.718   4.728   3.762
 1710SOL    HW2 6030   5.650   4.876   3.775
 1711SOL     OW 6031   1.077   4.827   4.717
 1711SOL    HW1 6032   1.150   4.786   4.662
 1711SOL    HW2 6033   1.116   4.900   4.773
 1712SOL     OW 6034   0.599   2.982   6.273
 1712SOL    HW1 6035   0.559   2.981   6.365
 1712SOL    HW2 6036   0.649   2.896   6.258
 1713SOL     OW 6037   3.969   2.400   1.571
 1713SOL    HW1 6038   4.042   2.420   1.506
 1713SOL    HW2 6039   3.886   2.373   1.520
 1714SOL     OW 6040   4.389   1.740   6.070
 1714SOL    HW1 6041   4.485   1.712   6.080
 1714SOL    HW2 6042   4.353   1.704   5.984
 1715SOL     OW 6043   6.960   3.915   2.734
 1715SOL    HW1 6044   6.951   3.906   2.634
 1715SOL    HW2 6045   6.879   3.960   2.770
 1716SOL     OW 6046   4.845   0.058   2.767
 1716SOL    HW1 6047   4.791   0.036   2.848
 1716SOL    HW2 6048   4.930   0.005   2.768
 1717SOL     OW 6049   2.303   6.452   6.159
 1717SOL    HW1 6050   2.366   6.387   6.115
 1717SOL    HW2 6051   2.339   6.478   6.248
 1718SOL     OW 6052   2.289   2.441   2.356
 1718SOL    HW1 6053   2.317   2.417   2.263
 1718SOL    HW2 6054   2.368   2.434   2.417
 1719SOL     OW 6055   2.126   4.106   0.797
 1719SOL    HW1 6056   2.106   4.077   0.891
 1719SOL    HW2 6057   2.082   4.194   0.780
 1720SOL     OW 6058   0.537   1.938   0.733
 1720SOL    HW1 6059   0.493   1.908   0.818
 1720SOL    HW2 6060   0.469   1.981   0.674
 1721SOL     OW 6061   1.300   6.512   2.546
 1721SOL    HW1 6062   1.258   6.460   2.620
 1721SOL    HW2 6063   1.305   6.456   2.463
 1722SOL     OW 6064   4.664   2.317   4.250
 1722SOL    HW1 6065   4.745   2.372   4.229
 1722SOL    HW2 6066   4.609   2.364   4.319
 1723SOL     OW 6067   0.044   2.673   2.274
 1723SOL    HW1 6068   6.981   2.652   2.309
 1723SOL    HW2 6069   0.090   2.588   2.248
 1724SOL     OW 6070   6.113   1.730   1.031
 1724SOL    HW1 6071   6.014   1.728   1.047
 1724SOL    HW2 6072   6.159   1.683   1.107
 1725SOL     OW 6073   2.128   4.601   6.896
 1725SOL    HW1 6074   2.166   4.691   6.875
 1725SOL    HW2 6075   2.196   4.546   6.945
 1726SOL     OW 6076   5.773   4.762   5.474
 1726SOL    HW1 6077   5.674   4.759   5.489
 1726SOL    HW2 6078   5.797   4.849   5.432
 1727SOL     OW 6079   3.834   3.355   4.547
 1727SOL    HW1 6080   3.902   3.410   4.595
 1727SOL    HW2 6081   3.749   3.407   4.538
 1728SOL     OW 6082   5.356   5.085   4.746
 1728SOL    HW1 6083   5.410   5.168   4.731
 1728SOL    HW2 6084   5.260   5.110   4.760
 1729SOL     OW 6085   2.122   3.692   3.602
 1729SOL    HW1 6086   2.051   3.624   3.582
 1729SOL    HW2 6087   2.191   3.690   3.530
 1730SOL     OW 6088   6.572   0.358   5.365
 1730SOL    HW1 6089   6.540   0.449   5.391
 1730SOL    HW2 6090   6.502   0.290   5.389
 1731SOL     OW 6091   0.029   4.844   2.050
 1731SOL    HW1 6092   0.005   4.816   1.957
 1731SOL    HW2 6093   7.012   4.783   2.115
 1732SOL     OW 6094   2.613   4.573   5.619
 1732SOL    HW1 6095   2.575   4.489   5.659
 1732SOL    HW2 6096   2.676   4.548   5.546
 1733SOL     OW 6097   0.931   3.921   2.658
 1733SOL    HW1 6098   0.959   3.879   2.572
 1733SOL    HW2 6099   0.998   3.989   2.685
 1734SOL     OW 6100   4.733   3.277   1.765
 1734SOL    HW1 6101   4.787   3.329   1.830
 1734SOL    HW2 6102   4.695   3.196   1.811
 1735SOL     OW 6103   5.989   5.729   1.211
 1735SOL    HW1 6104   6.044   5.811   1.197
 1735SOL    HW2 6105   5.919   5.747   1.279
 1736SOL     OW 6106   4.215   2.579   1.152
 1736SOL    HW1 6107   4.178   2.666   1.119
 1736SOL    HW2 6108   4.283   2.545   1.086
 1737SOL     OW 6109   2.946   1.159   4.220
 1737SOL    HW1 6110   3.021   1.098   4.247
 1737SOL    HW2 6111   2.948   1.172   4.121
 1738SOL     OW 6112   1.917   1.805   3.949
 1738SOL    HW1 6113   2.003   1.796   3.899
 1738SOL    HW2 6114   1.933   1.851   4.036
 1739SOL     OW 6115   5.723   2.295   5.642
 1739SOL    HW1 6116   5.664   2.220   5.671
 1739SOL    HW2 6117   5.755   2.346   5.722
 1740SOL     OW 6118   0.448   1.274   6.267
 1740SOL    HW1 6119   0.478   1.183   6.297
 1740SOL    HW2 6120   0.423   1.270   6.170
 1741SOL     OW 6121   2.248   0.616   3.981
 1741SOL    HW1 6122   2.227   0.711   4.002
 1741SOL    HW2 6123   2.205   0.590   3.895
 1742SOL     OW 6124   4.672   6.518   6.069
 1742SOL    HW1 6125   4.598   6.577   6.102
 1742SOL    HW2 6126   4.636   6.452   6.004
 1743SOL     OW 6127   2.056   2.226   2.172
 1743SOL    HW1 6128   2.114   2.151   2.140
 1743SOL    HW2 6129   2.072   2.242   2.269
 1744SOL     OW 6130   0.701   0.580   1.728
 1744SOL    HW1 6131   0.778   0.607   1.786
 1744SOL    HW2 6132   0.640   0.519   1.778
 1745SOL     OW 6133   6.224   0.781   3.264
 1745SOL    HW1 6134   6.312   0.739   3.288
 1745SOL    HW2 6135   6.161   0.772   3.341
 1746SOL     OW 6136   2.374   4.666   5.504
 1746SOL    HW1 6137   2.450   4.633   5.560
 1746SOL    HW2 6138   2.407   4.693   5.414
 1747SOL     OW 6139   5.734   1.260   3.023
 1747SOL    HW1 6140   5.810   1.259   2.958
 1747SOL    HW2 6141   5.752   1.328   3.094
 1748SOL     OW 6142   0.319   0.766   3.971
 1748SOL    HW1 6143   0.236   0.733   3.925
 1748SOL    HW2 6144   0.351   0.849   3.926
 1749SOL     OW 6145   2.402   6.771   5.153
 1749SOL    HW1 6146   2.404   6.671   5.152
 1749SOL    HW2 6147   2.483   6.806   5.107
 1750SOL     OW 6148   6.699   0.135   3.536
 1750SOL    HW1 6149   6.788   0.128   3.490
 1750SOL    HW2 6150   6.659   0.044   3.545
 1751SOL     OW 6151   4.055   5.618   4.584
 1751SOL    HW1 6152   4.073   5.685   4.512
 1751SOL    HW2 6153   4.112   5.639   4.664
 1752SOL     OW 6154   0.170   2.306   2.185
 1752SOL    HW1 6155   0.230   2.284   2.109
 1752SOL    HW2 6156   0.204   2.387   2.232
 1753SOL     OW 6157   0.288   2.021   0.612
 1753SOL    HW1 6158   0.225   1.950   0.579
 1753SOL    HW2 6159   0.242   2.110   0.609
 1754SOL     OW 6160   3.185   3.404   0.964
 1754SOL    HW1 6161   3.233   3.471   1.020
 1754SOL    HW2 6162   3.143   3.449   0.886
 1755SOL     OW 6163   5.976   6.069   2.006
 1755SOL    HW1 6164   6.002   6.129   2.081
 1755SOL    HW2 6165   6.058   6.038   1.958
 1756SOL     OW 6166   4.045   4.311   6.109
 1756SOL    HW1 6167   3.950   4.306   6.078
 1756SOL    HW2 6168   4.090   4.224   6.093
 1757SOL     OW 6169   2.733   5.033   4.900
 1757SOL    HW1 6170   2.723   5.043   4.801
 1757SOL    HW2 6171   2.682   5.106   4.946
 1758SOL     OW 6172   2.788   0.383   4.117
 1758SOL    HW1 6173   2.723   0.308   4.124
 1758SOL    HW2 6174   2.770   0.435   4.033
 1759SOL     OW 6175   1.944   5.245   6.568
 1759SOL    HW1 6176   1.977   5.153   6.547
 1759SOL    HW2 6177   1.940   5.257   6.667
 1760SOL     OW 6178   5.391   2.186   2.183
 1760SOL    HW1 6179   5.420   2.092   2.197
 1760SOL    HW2 6180   5.465   2.248   2.209
 1761SOL     OW 6181   0.701   0.416   0.698
 1761SOL    HW1 6182   0.686   0.381   0.790
 1761SOL    HW2 6183   0.770   0.359   0.652
 1762SOL     OW 6184   0.033   1.863   5.010
 1762SOL    HW1 6185   0.097   1.851   4.934
 1762SOL    HW2 6186   6.982   1.915   4.979
 1763SOL     OW 6187   1.481   3.656   3.645
 1763SOL    HW1 6188   1.474   3.573   3.590
 1763SOL    HW2 6189   1.502   3.632   3.740
 1764SOL     OW 6190   2.172   3.783   1.968
 1764SOL    HW1 6191   2.263   3.807   1.933
 1764SOL    HW2 6192   2.177   3.697   2.018
 1765SOL     OW 6193   4.280   1.767   0.110
 1765SOL    HW1 6194   4.308   1.705   0.037
 1765SOL    HW2 6195   4.252   1.854   0.070
 1766SOL     OW 6196   4.884   3.685   2.972
 1766SOL    HW1 6197   4.892   3.589   2.996
 1766SOL    HW2 6198   4.788   3.713   2.971
 1767SOL     OW 6199   6.438   3.932   3.105
 1767SOL    HW1 6200   6.340   3.925   3.125
 1767SOL    HW2 6201   6.469   4.025   3.121
 1768SOL     OW 6202   3.647   1.333   5.062
 1768SOL    HW1 6203   3.742   1.304   5.049
 1768SOL    HW2 6204   3.598   1.328   4.975
 1769SOL     OW 6205   4.480   2.594   5.120
 1769SOL    HW1 6206   4.563   2.601   5.064
 1769SOL    HW2 6207   4.486   2.660   5.196
 1770SOL     OW 6208   0.272   5.116   4.430
 1770SOL    HW1 6209   0.370   5.109   4.411
 1770SOL    HW2 6210   0.220   5.090   4.348
 1771SOL     OW 6211   1.925   4.991   0.401
 1771SOL    HW1 6212   1.917   5.084   0.364
 1771SOL    HW2 6213   1.999   4.943   0.354
 1772SOL     OW 6214   3.180   6.305   3.586
 1772SOL    HW1 6215   3.134   6.258   3.511
 1772SOL    HW2 6216   3.253   6.363   3.550
 1773SOL     OW 6217   2.838   5.008   6.284
 1773SOL    HW1 6218   2.901   4.935   6.258
 1773SOL    HW2 6219   2.772   5.023   6.211
 1774SOL     OW 6220   4.578   6.760   2.092
 1774SOL    HW1 6221   4.661   6.787   2.141
 1774SOL    HW2 6222   4.527   6.694   2.147
 1775SOL     OW 6223   1.050   4.792   3.943
 1775SOL    HW1 6224   1.102   4.853   4.002
 1775SOL    HW2 6225   1.112   4.738   3.887
 1776SOL     OW 6226   3.407   1.037   5.498
 1776SOL    HW1 6227   3.492   1.083   5.472
 1776SOL    HW2 6228   3.395   1.044   5.597
 1777SOL     OW 6229   3.851   5.305   5.840
 1777SOL    HW1 6230   3.798   5.233   5.793
 1777SOL    HW2 6231   3.933   5.264   5.881
 1778SOL     OW 6232   4.765   2.609   5.328
 1778SOL    HW1 6233   4.693   2.604   5.397
 1778SOL    HW2 6234   4.828   2.683   5.350
 1779SOL     OW 6235   4.509   1.199   4.651
 1779SOL    HW1 6236   4.492   1.295   4.631
 1779SOL    HW2 6237   4.603   1.188   4.686
 1780SOL     OW 6238   2.915   3.900   6.008
 1780SOL    HW1 6239   2.850   3.953   5.954
 1780SOL    HW2 6240   2.894   3.803   6.000
 1781SOL     OW 6241   4.301   5.367   3.792
 1781SOL    HW1 6242   4.332   5.287   3.741
 1781SOL    HW2 6243   4.208   5.390   3.765
 1782SOL     OW 6244   2.702   2.037   3.398
 1782SOL    HW1 6245   2.680   2.115   3.457
 1782SOL    HW2 6246   2.802   2.029   3.390
 1783SOL     OW 6247   1.761   3.754   6.424
 1783SOL    HW1 6248   1.790   3.791   6.336
 1783SOL    HW2 6249   1.777   3.823   6.495
 1784SOL     OW 6250   3.121   1.131   4.800
 1784SOL    HW1 6251   3.030   1.119   4.759
 1784SOL    HW2 6252   3.118   1.104   4.897
 1785SOL     OW 6253   5.274   5.686   3.337
 1785SOL    HW1 6254   5.303   5.590   3.330
 1785SOL    HW2 6255   5.182   5.690   3.376
 1786SOL     OW 6256   1.419   2.826   1.574
 1786SOL    HW1 6257   1.498   2.882   1.548
 1786SOL    HW2 6258   1.436   2.731   1.548
 1787SOL     OW 6259   2.141   0.830   4.301
 1787SOL    HW1 6260   2.177   0.922   4.315
 1787SOL    HW2 6261   2.185   0.766   4.363
 1788SOL     OW 6262   3.137   3.164   0.196
 1788SOL    HW1 6263   3.210   3.192   0.258
 1788SOL    HW2 6264   3.053   3.150   0.248
 1789SOL     OW 6265   6.808   1.898   2.524
 1789SOL    HW1 6266   6.839   1.805   2.546
 1789SOL    HW2 6267   6.838   1.922   2.432
 1790SOL     OW 6268   3.901   6.564   4.233
 1790SOL    HW1 6269   3.894   6.660   4.206
 1790SOL    HW2 6270   3.927   6.559   4.330
 1791SOL     OW 6271   0.148   1.550   4.128
 1791SOL    HW1 6272   0.107   1.545   4.219
 1791SOL    HW2 6273   0.241   1.586   4.136
 1792SOL     OW 6274   6.980   2.454   4.046
 1792SOL    HW1 6275   0.036   2.443   4.098
 1792SOL    HW2 6276   6.994   2.521   3.973
 1793SOL     OW 6277   6.522   0.552   3.763
 1793SOL    HW1 6278   6.454   0.538   3.691
 1793SOL    HW2 6279   6.497   0.501   3.845
 1794SOL     OW 6280   5.248   5.862   6.239
 1794SOL    HW1 6281   5.219   5.858   6.143
 1794SOL    HW2 6282   5.337   5.907   6.245
 1795SOL     OW 6283   0.412   3.086   2.096
 1795SOL    HW1 6284   0.434   3.153   2.167
 1795SOL    HW2 6285   0.336   3.028   2.127
 1796SOL     OW 6286   1.934   0.834   4.110
 1796SOL    HW1 6287   1.990   0.833   4.193
 1796SOL    HW2 6288   1.939   0.924   4.068
 1797SOL     OW 6289   1.168   0.983   6.539
 1797SOL    HW1 6290   1.253   0.931   6.541
 1797SOL    HW2 6291   1.132   0.991   6.631
 1798SOL     OW 6292   5.277   2.173   5.071
 1798SOL    HW1 6293   5.209   2.216   5.012
 1798SOL    HW2 6294   5.250   2.078   5.089
 1799SOL     OW 6295   6.521   1.522   6.402
 1799SOL    HW1 6296   6.587   1.560   6.467
 1799SOL    HW2 6297   6.478   1.596   6.351
 1800SOL     OW 6298   4.514   5.568   3.046
 1800SOL    HW1 6299   4.607   5.558   3.012
 1800SOL    HW2 6300   4.489   5.665   3.046
 1801SOL     OW 6301   1.009   0.970   2.171
 1801SOL    HW1 6302   1.104   0.982   2.200
 1801SOL    HW2 6303   0.979   1.053   2.124
 1802SOL     OW 6304   5.505   5.110   2.100
 1802SOL    HW1 6305   5.586   5.168   2.110
 1802SOL    HW2 6306   5.474   5.080   2.190
 1803SOL     OW 6307   7.018   6.121   0.302
 1803SOL    HW1 6308   7.014   6.221   0.298
 1803SOL    HW2 6309   6.999   6.084   0.211
 1804SOL     OW 6310   2.063   4.082   6.008
 1804SOL    HW1 6311   2.152   4.035   6.003
 1804SOL    HW2 6312   2.049   4.135   5.925
 1805SOL     OW 6313   6.510   3.798   5.636
 1805SOL    HW1 6314   6.563   3.825   5.716
 1805SOL    HW2 6315   6.564   3.734   5.580
 1806SOL     OW 6316   1.158   1.003   0.420
 1806SOL    HW1 6317   1.247   1.001   0.375
 1806SOL    HW2 6318   1.148   0.922   0.478
 1807SOL     OW 6319   4.865   2.428   6.077
 1807SOL    HW1 6320   4.821   2.356   6.129
 1807SOL    HW2 6321   4.818   2.439   5.989
 1808SOL     OW 6322   6.859   3.292   6.028
 1808SOL    HW1 6323   6.849   3.379   5.981
 1808SOL    HW2 6324   6.914   3.230   5.972
 1809SOL     OW 6325   2.314   2.880   4.253
 1809SOL    HW1 6326   2.394   2.939   4.262
 1809SOL    HW2 6327   2.270   2.870   4.342
 1810SOL     OW 6328   2.697   0.904   5.267
 1810SOL    HW1 6329   2.781   0.874   5.312
 1810SOL    HW2 6330   2.712   0.913   5.169
 1811SOL     OW 6331   4.435   4.543   3.711
 1811SOL    HW1 6332   4.442   4.588   3.622
 1811SOL    HW2 6333   4.527   4.524   3.746
 1812SOL     OW 6334   3.923   6.623   6.332
 1812SOL    HW1 6335   3.823   6.616   6.323
 1812SOL    HW2 6336   3.947   6.716   6.358
 1813SOL     OW 6337   4.979   4.841   0.555
 1813SOL    HW1 6338   4.982   4.828   0.456
 1813SOL    HW2 6339   4.909   4.909   0.577
 1814SOL     OW 6340   0.074   0.783   0.179
 1814SOL    HW1 6341   0.018   0.732   0.244
 1814SOL    HW2 6342   0.164   0.740   0.171
 1815SOL     OW 6343   6.337   2.459   1.663
 1815SOL    HW1 6344   6.317   2.555   1.641
 1815SOL    HW2 6345   6.367   2.453   1.759
 1816SOL     OW 6346   1.996   4.060   1.158
 1816SOL    HW1 6347   2.038   3.993   1.219
 1816SOL    HW2 6348   1.935   4.013   1.094
 1817SOL     OW 6349   2.921   6.642   3.706
 1817SOL    HW1 6350   2.912   6.542   3.703
 1817SOL    HW2 6351   2.972   6.673   3.626
 1818SOL     OW 6352   1.845   6.777   2.384
 1818SOL    HW1 6353   1.773   6.846   2.388
 1818SOL    HW2 6354   1.933   6.821   2.363
 1819SOL     OW 6355   0.218   5.152   1.688
 1819SOL    HW1 6356   0.162   5.195   1.759
 1819SOL    HW2 6357   0.241   5.220   1.618
 1820SOL     OW 6358   4.247   0.793   2.732
 1820SOL    HW1 6359   4.216   0.839   2.815
 1820SOL    HW2 6360   4.223   0.848   2.652
 1821SOL     OW 6361   2.879   0.478   1.588
 1821SOL    HW1 6362   2.880   0.391   1.637
 1821SOL    HW2 6363   2.858   0.461   1.491
 1822SOL     OW 6364   2.161   2.633   1.211
 1822SOL    HW1 6365   2.133   2.599   1.300
 1822SOL    HW2 6366   2.113   2.583   1.139
 1823SOL     OW 6367   2.915   5.448   3.134
 1823SOL    HW1 6368   2.846   5.511   3.097
 1823SOL    HW2 6369   2.877   5.399   3.212
 1824SOL     OW 6370   3.830   3.634   1.583
 1824SOL    HW1 6371   3.927   3.627   1.605
 1824SOL    HW2 6372   3.780   3.559   1.625
 1825SOL     OW 6373   1.270   1.865   3.785
 1825SOL    HW1 6374   1.308   1.899   3.699
 1825SOL    HW2 6375   1.335   1.805   3.830
 1826SOL     OW 6376   3.069   0.310   0.766
 1826SOL    HW1 6377   3.009   0.259   0.829
 1826SOL    HW2 6378   3.141   0.355   0.819
 1827SOL     OW 6379   0.194   5.690   1.370
 1827SOL    HW1 6380   0.194   5.694   1.470
 1827SOL    HW2 6381   0.239   5.606   1.340
 1828SOL     OW 6382   1.109   2.245   1.047
 1828SOL    HW1 6383   1.099   2.261   0.949
 1828SOL    HW2 6384   1.136   2.330   1.092
 1829SOL     OW 6385   2.812   0.537   3.181
 1829SOL    HW1 6386   2.767   0.617   3.140
 1829SOL    HW2 6387   2.911   0.551   3.180
 1830SOL     OW 6388   6.019   6.517   3.923
 1830SOL    HW1 6389   6.025   6.454   3.846
 1830SOL    HW2 6390   6.072   6.481   4.000
 1831SOL     OW 6391   6.064   0.352   2.507
 1831SOL    HW1 6392   6.010   0.269   2.523
 1831SOL    HW2 6393   6.137   0.357   2.575
 1832SOL     OW 6394   4.620   1.376   1.535
 1832SOL    HW1 6395   4.631   1.476   1.528
 1832SOL    HW2 6396   4.647   1.334   1.448
 1833SOL     OW 6397   5.305   0.416   6.540
 1833SOL    HW1 6398   5.214   0.447   6.566
 1833SOL    HW2 6399   5.347   0.482   6.479
 1834SOL     OW 6400   2.918   4.018   0.485
 1834SOL    HW1 6401   2.914   4.045   0.389
 1834SOL    HW2 6402   2.839   4.056   0.533
 1835SOL     OW 6403   0.031   4.112   2.347
 1835SOL    HW1 6404   0.065   4.184   2.407
 1835SOL    HW2 6405   0.064   4.128   2.254
 1836SOL     OW 6406   4.840   2.839   1.354
 1836SOL    HW1 6407   4.806   2.748   1.331
 1836SOL    HW2 6408   4.929   2.831   1.398
 1837SOL     OW 6409   0.844   0.834   5.233
 1837SOL    HW1 6410   0.777   0.845   5.159
 1837SOL    HW2 6411   0.855   0.921   5.281
 1838SOL     OW 6412   0.051   1.482   4.360
 1838SOL    HW1 6413   7.015   1.427   4.413
 1838SOL    HW2 6414   0.144   1.452   4.381
 1839SOL     OW 6415   5.793   2.088   5.305
 1839SOL    HW1 6416   5.708   2.135   5.328
 1839SOL    HW2 6417   5.855   2.091   5.383
 1840SOL     OW 6418   3.432   6.660   1.360
 1840SOL    HW1 6419   3.449   6.607   1.277
 1840SOL    HW2 6420   3.334   6.672   1.373
 1841SOL     OW 6421   2.324   1.007   3.688
 1841SOL    HW1 6422   2.240   0.953   3.687
 1841SOL    HW2 6423   2.371   0.996   3.775
 1842SOL     OW 6424   1.531   5.701   0.218
 1842SOL    HW1 6425   1.583   5.626   0.259
 1842SOL    HW2 6426   1.445   5.666   0.182
 1843SOL     OW 6427   6.069   2.317   3.125
 1843SOL    HW1 6428   6.002   2.391   3.134
 1843SOL    HW2 6429   6.156   2.348   3.162
 1844SOL     OW 6430   3.015   0.196   5.714
 1844SOL    HW1 6431   2.926   0.222   5.751
 1844SOL    HW2 6432   3.082   0.267   5.735
 1845SOL     OW 6433   2.120   6.994   5.383
 1845SOL    HW1 6434   2.125   6.901   5.346
 1845SOL    HW2 6435   2.057   0.020   5.327
 1846SOL     OW 6436   3.916   2.499   1.267
 1846SOL    HW1 6437   3.942   2.457   1.180
 1846SOL    HW2 6438   3.999   2.527   1.316
 1847SOL     OW 6439   1.843   1.156   6.986
 1847SOL    HW1 6440   1.858   1.137   0.055
 1847SOL    HW2 6441   1.786   1.084   6.946
 1848SOL     OW 6442   0.884   6.595   3.520
 1848SOL    HW1 6443   0.784   6.597   3.527
 1848SOL    HW2 6444   0.914   6.502   3.496
 1849SOL     OW 6445   3.990   2.440   0.540
 1849SOL    HW1 6446   4.077   2.480   0.511
 1849SOL    HW2 6447   3.938   2.411   0.460
 1850SOL     OW 6448   0.994   2.499   1.931
 1850SOL    HW1 6449   1.089   2.524   1.948
 1850SOL    HW2 6450   0.941   2.506   2.015
 1851SOL     OW 6451   0.058   2.725   0.584
 1851SOL    HW1 6452   0.081   2.628   0.585
 1851SOL    HW2 6453   7.010   2.741   0.521
 1852SOL     OW 6454   6.389   4.435   2.195
 1852SOL    HW1 6455   6.357   4.341   2.195
 1852SOL    HW2 6456   6.311   4.497   2.204
 1853SOL     OW 6457   0.016   2.244   2.802
 1853SOL    HW1 6458   0.113   2.260   2.819
 1853SOL    HW2 6459   7.007   2.189   2.877
 1854SOL     OW 6460   2.460   6.041   2.833
 1854SOL    HW1 6461   2.400   5.982   2.779
 1854SOL    HW2 6462   2.463   6.132   2.793
 1855SOL     OW 6463   5.316   3.040   5.621
 1855SOL    HW1 6464   5.300   3.137   5.641
 1855SOL    HW2 6465   5.248   2.985   5.670
 1856SOL     OW 6466   6.144   3.866   5.936
 1856SOL    HW1 6467   6.067   3.913   5.895
 1856SOL    HW2 6468   6.147   3.771   5.903
 1857SOL     OW 6469   4.744   1.425   5.713
 1857SOL    HW1 6470   4.782   1.458   5.627
 1857SOL    HW2 6471   4.741   1.500   5.779
 1858SOL     OW 6472   6.095   3.980   3.905
 1858SOL    HW1 6473   6.120   4.054   3.967
 1858SOL    HW2 6474   6.108   4.010   3.810
 1859SOL     OW 6475   5.115   2.105   3.103
 1859SOL    HW1 6476   5.195   2.129   3.049
 1859SOL    HW2 6477   5.136   2.026   3.161
 1860SOL     OW 6478   6.191   0.400   5.119
 1860SOL    HW1 6479   6.228   0.454   5.195
 1860SOL    HW2 6480   6.094   0.383   5.134
 1861SOL     OW 6481   6.041   6.849   2.150
 1861SOL    HW1 6482   6.039   6.871   2.052
 1861SOL    HW2 6483   6.077   6.756   2.162
 1862SOL     OW 6484   2.158   0.210   6.262
 1862SOL    HW1 6485   2.239   0.251   6.305
 1862SOL    HW2 6486   2.143   0.119   6.300
 1863SOL     OW 6487   0.953   2.234   2.815
 1863SOL    HW1 6488   0.894   2.172   2.764
 1863SOL    HW2 6489   1.030   2.183   2.855
 1864SOL     OW 6490   1.494   0.448   5.353
 1864SOL    HW1 6491   1.593   0.439   5.344
 1864SOL    HW2 6492   1.457   0.368   5.401
 1865SOL     OW 6493   3.398   6.683   6.383
 1865SOL    HW1 6494   3.381   6.780   6.400
 1865SOL    HW2 6495   3.352   6.656   6.298
 1866SOL     OW 6496   4.322   5.058   3.325
 1866SOL    HW1 6497   4.360   5.146   3.355
 1866SOL    HW2 6498   4.270   5.072   3.241
 1867SOL     OW 6499   0.688   4.068   0.151
 1867SOL    HW1 6500   0.705   4.011   0.231
 1867SOL    HW2 6501   0.738   4.154   0.161
 1868SOL     OW 6502   4.755   3.657   6.628
 1868SOL    HW1 6503   4.790   3.735   6.679
 1868SOL    HW2 6504   4.746   3.682   6.531
 1869SOL     OW 6505   5.851   2.897   5.722
 1869SOL    HW1 6506   5.752   2.913   5.723
 1869SOL    HW2 6507   5.897   2.972   5.675
 1870SOL     OW 6508   1.179   3.345   5.264
 1870SOL    HW1 6509   1.229   3.431   5.281
 1870SOL    HW2 6510   1.116   3.328   5.340
 1871SOL     OW 6511   0.754   0.810   0.056
 1871SOL    HW1 6512   0.753   0.713   0.080
 1871SOL    HW2 6513   0.841   0.851   0.086
 1872SOL     OW 6514   3.695   1.644   6.655
 1872SOL    HW1 6515   3.761   1.620   6.726
 1872SOL    HW2 6516   3.684   1.567   6.592
 1873SOL     OW 6517   5.148   1.245   5.723
 1873SOL    HW1 6518   5.078   1.174   5.713
 1873SOL    HW2 6519   5.104   1.334   5.726
 1874SOL     OW 6520   3.337   1.779   0.478
 1874SOL    HW1 6521   3.430   1.815   0.488
 1874SOL    HW2 6522   3.282   1.806   0.557
 1875SOL     OW 6523   0.639   0.729   6.864
 1875SOL    HW1 6524   0.695   0.751   6.943
 1875SOL    HW2 6525   0.674   0.777   6.784
 1876SOL     OW 6526   3.228   6.320   6.150
 1876SOL    HW1 6527   3.243   6.314   6.052
 1876SOL    HW2 6528   3.295   6.262   6.197
 1877SOL     OW 6529   0.839   0.742   3.034
 1877SOL    HW1 6530   0.809   0.823   3.084
 1877SOL    HW2 6531   0.769   0.670   3.042
 1878SOL     OW 6532   6.701   2.698   3.750
 1878SOL    HW1 6533   6.792   2.669   3.779
 1878SOL    HW2 6534   6.639   2.620   3.750
 1879SOL     OW 6535   1.531   5.157   3.900
 1879SOL    HW1 6536   1.600   5.228   3.891
 1879SOL    HW2 6537   1.447   5.196   3.939
 1880SOL     OW 6538   6.731   0.812   4.427
 1880SOL    HW1 6539   6.777   0.865   4.356
 1880SOL    HW2 6540   6.710   0.721   4.391
 1881SOL     OW 6541   6.300   2.845   2.504
 1881SOL    HW1 6542   6.243   2.884   2.576
 1881SOL    HW2 6543   6.324   2.916   2.438
 1882SOL     OW 6544   0.822   3.201   6.819
 1882SOL    HW1 6545   0.870   3.226   6.735
 1882SOL    HW2 6546   0.724   3.200   6.802
 1883SOL     OW 6547   1.107   2.060   3.848
 1883SOL    HW1 6548   1.035   2.063   3.779
 1883SOL    HW2 6549   1.173   1.988   3.825
 1884SOL     OW 6550   6.459   2.807   0.117
 1884SOL    HW1 6551   6.530   2.775   0.179
 1884SOL    HW2 6552   6.381   2.745   0.121
 1885SOL     OW 6553   1.302   2.222   6.013
 1885SOL    HW1 6554   1.351   2.212   6.100
 1885SOL    HW2 6555   1.344   2.295   5.959
 1886SOL     OW 6556   2.488   0.467   1.305
 1886SOL    HW1 6557   2.554   0.529   1.263
 1886SOL    HW2 6558   2.516   0.449   1.400
 1887SOL     OW 6559   0.988   5.865   5.062
 1887SOL    HW1 6560   0.903   5.859   5.009
 1887SOL    HW2 6561   1.011   5.775   5.098
 1888SOL     OW 6562   2.695   2.509   6.860
 1888SOL    HW1 6563   2.722   2.508   6.956
 1888SOL    HW2 6564   2.663   2.600   6.835
 1889SOL     OW 6565   0.477   2.909   6.028
 1889SOL    HW1 6566   0.518   2.957   6.105
 1889SOL    HW2 6567   0.511   2.948   5.942
 1890SOL     OW 6568   1.601   6.703   4.876
 1890SOL    HW1 6569   1.651   6.731   4.793
 1890SOL    HW2 6570   1.617   6.770   4.948
 1891SOL     OW 6571   5.157   1.589   2.031
 1891SOL    HW1 6572   5.245   1.618   2.067
 1891SOL    HW2 6573   5.099   1.558   2.106
 1892SOL     OW 6574   2.457   1.361   2.241
 1892SOL    HW1 6575   2.381   1.323   2.294
 1892SOL    HW2 6576   2.486   1.448   2.281
 1893SOL     OW 6577   3.628   2.781   6.846
 1893SOL    HW1 6578   3.619   2.729   6.760
 1893SOL    HW2 6579   3.721   2.769   6.882
 1894SOL     OW 6580   3.706   3.882   3.670
 1894SOL    HW1 6581   3.642   3.894   3.745
 1894SOL    HW2 6582   3.686   3.796   3.622
 1895SOL     OW 6583   5.038   0.106   1.753
 1895SOL    HW1 6584   4.985   0.187   1.729
 1895SOL    HW2 6585   5.036   0.040   1.678
 1896SOL     OW 6586   5.710   0.031   1.375
 1896SOL    HW1 6587   5.623   7.018   1.347
 1896SOL    HW2 6588   5.696   0.128   1.393
 1897SOL     OW 6589   1.255   4.423   1.393
 1897SOL    HW1 6590   1.354   4.408   1.397
 1897SOL    HW2 6591   1.217   4.422   1.485
 1898SOL     OW 6592   2.417   5.871   3.173
 1898SOL    HW1 6593   2.396   5.966   3.195
 1898SOL    HW2 6594   2.342   5.831   3.121
 1899SOL     OW 6595   1.291   1.026   2.217
 1899SOL    HW1 6596   1.374   0.988   2.257
 1899SOL    HW2 6597   1.257   1.101   2.275
 1900SOL     OW 6598   1.330   0.372   6.131
 1900SOL    HW1 6599   1.267   0.371   6.209
 1900SOL    HW2 6600   1.291   0.318   6.057
 1901SOL     OW 6601   2.005   1.547   0.825
 1901SOL    HW1 6602   2.086   1.533   0.883
 1901SOL    HW2 6603   1.969   1.639   0.840
 1902SOL     OW 6604   1.996   2.216   4.676
 1902SOL    HW1 6605   2.034   2.169   4.596
 1902SOL    HW2 6606   2.069   2.231   4.743
 1903SOL     OW 6607   6.976   3.373   2.305
 1903SOL    HW1 6608   6.920   3.420   2.374
 1903SOL    HW2 6609   7.014   3.440   2.242
 1904SOL     OW 6610   5.467   5.760   3.576
 1904SOL    HW1 6611   5.459   5.853   3.540
 1904SOL    HW2 6612   5.422   5.696   3.514
 1905SOL     OW 6613   1.577   0.247   4.004
 1905SOL    HW1 6614   1.538   0.322   3.951
 1905SOL    HW2 6615   1.552   0.160   3.962
 1906SOL     OW 6616   2.190   0.505   5.394
 1906SOL    HW1 6617   2.224   0.599   5.389
 1906SOL    HW2 6618   2.262   0.442   5.365
 1907SOL     OW 6619   3.728   0.671   2.225
 1907SOL    HW1 6620   3.659   0.602   2.204
 1907SOL    HW2 6621   3.696   0.728   2.301
 1908SOL     OW 6622   3.762   6.940   5.587
 1908SOL    HW1 6623   3.717   7.018   5.629
 1908SOL    HW2 6624   3.719   6.919   5.499
 1909SOL     OW 6625   0.345   3.644   2.763
 1909SOL    HW1 6626   0.301   3.591   2.691
 1909SOL    HW2 6627   0.368   3.735   2.728
 1910SOL     OW 6628   0.394   3.481   6.767
 1910SOL    HW1 6629   0.448   3.520   6.693
 1910SOL    HW2 6630   0.306   3.448   6.730
 1911SOL     OW 6631   6.547   3.431   5.174
 1911SOL    HW1 6632   6.621   3.364   5.182
 1911SOL    HW2 6633   6.462   3.383   5.153
 1912SOL     OW 6634   3.789   5.618   0.817
 1912SOL    HW1 6635   3.717   5.563   0.858
 1912SOL    HW2 6636   3.749   5.695   0.767
 1913SOL     OW 6637   2.284   6.460   4.752
 1913SOL    HW1 6638   2.234   6.473   4.838
 1913SOL    HW2 6639   2.288   6.548   4.703
 1914SOL     OW 6640   3.923   3.038   6.144
 1914SOL    HW1 6641   3.989   3.099   6.100
 1914SOL    HW2 6642   3.839   3.089   6.164
 1915SOL     OW 6643   3.911   2.003   5.204
 1915SOL    HW1 6644   3.846   2.018   5.130
 1915SOL    HW2 6645   3.987   2.068   5.196
 1916SOL     OW 6646   4.121   5.669   1.482
 1916SOL    HW1 6647   4.205   5.708   1.517
 1916SOL    HW2 6648   4.057   5.654   1.557
 1917SOL     OW 6649   2.570   2.975   5.922
 1917SOL    HW1 6650   2.491   3.036   5.916
 1917SOL    HW2 6651   2.558   2.898   5.860
 1918SOL     OW 6652   1.171   1.222   5.482
 1918SOL    HW1 6653   1.237   1.296   5.475
 1918SOL    HW2 6654   1.201   1.145   5.425
 1919SOL     OW 6655   1.993   0.292   2.002
 1919SOL    HW1 6656   1.929   0.278   2.078
 1919SOL    HW2 6657   2.027   0.386   2.003
 1920SOL     OW 6658   0.556   3.879   3.210
 1920SOL    HW1 6659   0.467   3.864   3.167
 1920SOL    HW2 6660   0.543   3.932   3.294
 1921SOL     OW 6661   1.413   4.028   6.090
 1921SOL    HW1 6662   1.379   4.055   6.000
 1921SOL    HW2 6663   1.480   4.095   6.122
 1922SOL     OW 6664   2.099   3.528   0.894
 1922SOL    HW1 6665   2.094   3.453   0.828
 1922SOL    HW2 6666   2.023   3.592   0.877
 1923SOL     OW 6667   3.764   0.748   5.675
 1923SOL    HW1 6668   3.862   0.730   5.666
 1923SOL    HW2 6669   3.712   0.671   5.639
 1924SOL     OW 6670   4.884   5.711   0.723
 1924SOL    HW1 6671   4.818   5.662   0.665
 1924SOL    HW2 6672   4.897   5.803   0.688
 1925SOL     OW 6673   1.616   4.894   0.903
 1925SOL    HW1 6674   1.621   4.819   0.968
 1925SOL    HW2 6675   1.662   4.974   0.940
 1926SOL     OW 6676   2.663   6.932   2.846
 1926SOL    HW1 6677   2.733   6.951   2.915
 1926SOL    HW2 6678   2.608   7.014   2.831
 1927SOL     OW 6679   2.359   4.449   0.030
 1927SOL    HW1 6680   2.341   4.352   0.011
 1927SOL    HW2 6681   2.454   4.459   0.061
 1928SOL     OW 6682   6.743   4.058   5.600
 1928SOL    HW1 6683   6.720   4.006   5.682
 1928SOL    HW2 6684   6.659   4.095   5.560
 1929SOL     OW 6685   2.039   6.455   1.610
 1929SOL    HW1 6686   2.091   6.397   1.547
 1929SOL    HW2 6687   1.982   6.518   1.557
 1930SOL     OW 6688   3.879   3.916   6.639
 1930SOL    HW1 6689   3.821   3.951   6.564
 1930SOL    HW2 6690   3.881   3.983   6.713
 1931SOL     OW 6691   1.230   2.585   1.610
 1931SOL    HW1 6692   1.213   2.641   1.529
 1931SOL    HW2 6693   1.162   2.511   1.615
 1932SOL     OW 6694   4.519   2.519   3.131
 1932SOL    HW1 6695   4.513   2.527   3.032
 1932SOL    HW2 6696   4.585   2.585   3.166
 1933SOL     OW 6697   1.924   3.153   0.986
 1933SOL    HW1 6698   1.996   3.195   1.041
 1933SOL    HW2 6699   1.960   3.072   0.940
 1934SOL     OW 6700   0.066   6.829   5.257
 1934SOL    HW1 6701   0.030   6.769   5.328
 1934SOL    HW2 6702   0.061   6.783   5.169
 1935SOL     OW 6703   4.222   6.007   4.126
 1935SOL    HW1 6704   4.202   6.057   4.210
 1935SOL    HW2 6705   4.315   6.027   4.096
 1936SOL     OW 6706   5.633   4.079   3.622
 1936SOL    HW1 6707   5.698   4.042   3.688
 1936SOL    HW2 6708   5.667   4.061   3.529
 1937SOL     OW 6709   4.289   6.251   0.849
 1937SOL    HW1 6710   4.290   6.166   0.901
 1937SOL    HW2 6711   4.217   6.247   0.780
 1938SOL     OW 6712   1.672   1.537   1.808
 1938SOL    HW1 6713   1.730   1.614   1.784
 1938SOL    HW2 6714   1.595   1.570   1.864
 1939SOL     OW 6715   6.784   6.742   4.324
 1939SOL    HW1 6716   6.821   6.832   4.297
 1939SOL    HW2 6717   6.689   6.735   4.295
 1940SOL     OW 6718   5.676   5.399   1.136
 1940SOL    HW1 6719   5.702   5.420   1.042
 1940SOL    HW2 6720   5.626   5.312   1.138
 1941SOL     OW 6721   0.987   3.458   4.343
 1941SOL    HW1 6722   0.949   3.515   4.270
 1941SOL    HW2 6723   0.945   3.367   4.340
 1942SOL     OW 6724   5.525   3.369   1.351
 1942SOL    HW1 6725   5.570   3.390   1.438
 1942SOL    HW2 6726   5.595   3.355   1.281
 1943SOL     OW 6727   2.107   0.042   3.324
 1943SOL    HW1 6728   2.201   0.072   3.341
 1943SOL    HW2 6729   2.092   6.981   3.364
 1944SOL     OW 6730   6.194   3.050   0.162
 1944SOL    HW1 6731   6.262   3.110   0.203
 1944SOL    HW2 6732   6.240   2.972   0.119
 1945SOL     OW 6733   4.027   5.108   0.576
 1945SOL    HW1 6734   4.027   5.035   0.644
 1945SOL    HW2 6735   3.933   5.128   0.548
 1946SOL     OW 6736   6.248   6.292   0.806
 1946SOL    HW1 6737   6.323   6.256   0.862
 1946SOL    HW2 6738   6.275   6.380   0.767
 1947SOL     OW 6739   5.246   6.127   4.311
 1947SOL    HW1 6740   5.222   6.160   4.403
 1947SOL    HW2 6741   5.262   6.205   4.251
 1948SOL     OW 6742   6.204   5.295   3.412
 1948SOL    HW1 6743   6.124   5.261   3.462
 1948SOL    HW2 6744   6.286   5.250   3.448
 1949SOL     OW 6745   3.166   3.575   6.545
 1949SOL    HW1 6746   3.249   3.559   6.492
 1949SOL    HW2 6747   3.115   3.651   6.505
 1950SOL     OW 6748   3.814   2.969   1.059
 1950SOL    HW1 6749   3.910   2.942   1.053
 1950SOL    HW2 6750   3.807   3.069   1.065
 1951SOL     OW 6751   6.781   5.039   0.055
 1951SOL    HW1 6752   6.702   5.028   7.024
 1951SOL    HW2 6753   6.847   5.101   0.012
 1952SOL     OW 6754   4.934   4.076   1.327
 1952SOL    HW1 6755   5.030   4.058   1.310
 1952SOL    HW2 6756   4.914   4.065   1.424
 1953SOL     OW 6757   6.186   1.646   5.603
 1953SOL    HW1 6758   6.136   1.732   5.588
 1953SOL    HW2 6759   6.144   1.574   5.548
 1954SOL     OW 6760   6.781   0.443   1.180
 1954SOL    HW1 6761   6.775   0.539   1.208
 1954SOL    HW2 6762   6.871   0.407   1.205
 1955SOL     OW 6763   0.755   0.279   3.266
 1955SOL    HW1 6764   0.725   0.343   3.195
 1955SOL    HW2 6765   0.854   0.271   3.264
 1956SOL     OW 6766   4.833   6.567   1.904
 1956SOL    HW1 6767   4.761   6.625   1.943
 1956SOL    HW2 6768   4.897   6.624   1.853
 1957SOL     OW 6769   5.499   4.326   3.829
 1957SOL    HW1 6770   5.495   4.250   3.764
 1957SOL    HW2 6771   5.470   4.295   3.919
 1958SOL     OW 6772   4.497   1.970   2.113
 1958SOL    HW1 6773   4.529   2.049   2.166
 1958SOL    HW2 6774   4.479   1.999   2.019
 1959SOL     OW 6775   1.498   0.030   3.814
 1959SOL    HW1 6776   1.495   0.094   3.737
 1959SOL    HW2 6777   1.414   0.039   3.867
 1960SOL     OW 6778   0.287   4.069   2.526
 1960SOL    HW1 6779   0.324   4.149   2.478
 1960SOL    HW2 6780   0.193   4.088   2.554
 1961SOL     OW 6781   6.511   4.498   5.150
 1961SOL    HW1 6782   6.607   4.524   5.133
 1961SOL    HW2 6783   6.486   4.524   5.243
 1962SOL     OW 6784   1.390   6.241   2.650
 1962SOL    HW1 6785   1.473   6.294   2.669
 1962SOL    HW2 6786   1.358   6.262   2.558
 1963SOL     OW 6787   0.882   1.698   1.341
 1963SOL    HW1 6788   0.977   1.678   1.360
 1963SOL    HW2 6789   0.867   1.797   1.348
 1964SOL     OW 6790   4.478   4.669   1.868
 1964SOL    HW1 6791   4.536   4.588   1.862
 1964SOL    HW2 6792   4.465   4.707   1.776
 1965SOL     OW 6793   1.403   3.385   4.194
 1965SOL    HW1 6794   1.325   3.325   4.212
 1965SOL    HW2 6795   1.372   3.467   4.146
 1966SOL     OW 6796   0.655   6.193   1.162
 1966SOL    HW1 6797   0.658   6.268   1.228
 1966SOL    HW2 6798   0.748   6.166   1.139
 1967SOL     OW 6799   5.275   2.939   4.325
 1967SOL    HW1 6800   5.318   2.849   4.326
 1967SOL    HW2 6801   5.345   3.010   4.320
 1968SOL     OW 6802   1.886   0.590   5.688
 1968SOL    HW1 6803   1.918   0.526   5.759
 1968SOL    HW2 6804   1.880   0.542   5.600
 1969SOL     OW 6805   2.388   1.557   0.845
 1969SOL    HW1 6806   2.389   1.472   0.792
 1969SOL    HW2 6807   2.328   1.546   0.924
 1970SOL     OW 6808   2.340   6.803   5.912
 1970SOL    HW1 6809   2.284   6.721   5.927
 1970SOL    HW2 6810   2.285   6.873   5.867
 1971SOL     OW 6811   0.382   0.585   5.189
 1971SOL    HW1 6812   0.311   0.576   5.259
 1971SOL    HW2 6813   0.467   0.545   5.222
 1972SOL     OW 6814   5.519   2.015   1.146
 1972SOL    HW1 6815   5.443   1.987   1.087
 1972SOL    HW2 6816   5.581   1.938   1.159
 1973SOL     OW 6817   2.892   3.733   0.543
 1973SOL    HW1 6818   2.926   3.825   0.522
 1973SOL    HW2 6819   2.912   3.672   0.466
 1974SOL     OW 6820   5.135   0.500   4.702
 1974SOL    HW1 6821   5.230   0.531   4.707
 1974SOL    HW2 6822   5.093   0.535   4.618
 1975SOL     OW 6823   2.016   1.633   4.357
 1975SOL    HW1 6824   2.017   1.539   4.390
 1975SOL    HW2 6825   1.966   1.690   4.422
 1976SOL     OW 6826   6.820   6.780   0.320
 1976SOL    HW1 6827   6.721   6.795   0.318
 1976SOL    HW2 6828   6.856   6.783   0.227
 1977SOL     OW 6829   1.843   2.937   4.803
 1977SOL    HW1 6830   1.758   2.977   4.769
 1977SOL    HW2 6831   1.919   2.999   4.782
 1978SOL     OW 6832   1.982   5.888   3.426
 1978SOL    HW1 6833   2.009   5.796   3.454
 1978SOL    HW2 6834   1.953   5.940   3.507
 1979SOL     OW 6835   5.694   4.920   6.757
 1979SOL    HW1 6836   5.650   5.006   6.779
 1979SOL    HW2 6837   5.787   4.919   6.793
 1980SOL     OW 6838   3.576   0.019   4.130
 1980SOL    HW1 6839   3.546   0.051   4.220
 1980SOL    HW2 6840   3.504   6.991   4.089
 1981SOL     OW 6841   6.327   3.616   2.013
 1981SOL    HW1 6842   6.299   3.656   2.100
 1981SOL    HW2 6843   6.312   3.517   2.015
 1982SOL     OW 6844   0.101   4.472   4.183
 1982SOL    HW1 6845   0.044   4.533   4.128
 1982SOL    HW2 6846   0.055   4.452   4.269
 1983SOL     OW 6847   1.770   0.169   1.599
 1983SOL    HW1 6848   1.678   0.176   1.560
 1983SOL    HW2 6849   1.837   0.165   1.525
 1984SOL     OW 6850   5.320   3.030   4.773
 1984SOL    HW1 6851   5.320   2.934   4.746
 1984SOL    HW2 6852   5.390   3.046   4.843
 1985SOL     OW 6853   0.393   6.352   2.816
 1985SOL    HW1 6854   0.488   6.375   2.794
 1985SOL    HW2 6855   0.339   6.436   2.821
 1986SOL     OW 6856   2.816   1.065   6.995
 1986SOL    HW1 6857   2.885   1.083   6.926
 1986SOL    HW2 6858   2.817   1.137   0.035
 1987SOL     OW 6859   2.036   1.695   3.224
 1987SOL    HW1 6860   2.115   1.690   3.163
 1987SOL    HW2 6861   2.056   1.647   3.309
 1988SOL     OW 6862   6.556   3.102   0.485
 1988SOL    HW1 6863   6.565   3.111   0.584
 1988SOL    HW2 6864   6.530   3.008   0.463
 1989SOL     OW 6865   1.888   5.756   5.230
 1989SOL    HW1 6866   1.933   5.684   5.176
 1989SOL    HW2 6867   1.911   5.746   5.326
 1990SOL     OW 6868   4.240   5.786   0.883
 1990SOL    HW1 6869   4.216   5.786   0.786
 1990SOL    HW2 6870   4.213   5.699   0.924
 1991SOL     OW 6871   2.994   5.784   6.797
 1991SOL    HW1 6872   2.948   5.834   6.871
 1991SOL    HW2 6873   3.058   5.845   6.751
 1992SOL     OW 6874   0.277   0.421   0.301
 1992SOL    HW1 6875   0.361   0.392   0.346
 1992SOL    HW2 6876   0.246   0.348   0.239
 1993SOL     OW 6877   3.683   1.862   5.880
 1993SOL    HW1 6878   3.594   1.858   5.833
 1993SOL    HW2 6879   3.751   1.902   5.819
 1994SOL     OW 6880   6.944   2.116   0.518
 1994SOL    HW1 6881   7.025   2.156   0.559
 1994SOL    HW2 6882   6.969   2.069   0.433
 1995SOL     OW 6883   4.772   2.869   3.608
 1995SOL    HW1 6884   4.791   2.923   3.526
 1995SOL    HW2 6885   4.703   2.800   3.587
 1996SOL     OW 6886   2.252   2.435   0.982
 1996SOL    HW1 6887   2.325   2.482   1.031
 1996SOL    HW2 6888   2.270   2.337   0.980
 1997SOL     OW 6889   3.589   2.041   4.726
 1997SOL    HW1 6890   3.540   2.100   4.663
 1997SOL    HW2 6891   3.584   1.946   4.695
 1998SOL     OW 6892   1.734   3.298   0.797
 1998SOL    HW1 6893   1.666   3.297   0.723
 1998SOL    HW2 6894   1.699   3.352   0.874
 1999SOL     OW 6895   2.127   6.282   6.332
 1999SOL    HW1 6896   2.092   6.370   6.364
 1999SOL    HW2 6897   2.190   6.297   6.255
 2000SOL     OW 6898   4.052   2.817   5.992
 2000SOL    HW1 6899   4.054   2.732   6.045
 2000SOL    HW2 6900   4.006   2.888   6.046
 2001SOL     OW 6901   2.146   0.923   1.348
 2001SOL    HW1 6902   2.151   0.881   1.257
 2001SOL    HW2 6903   2.211   0.878   1.409
 2002SOL     OW 6904   0.518   4.305   0.490
 2002SOL    HW1 6905   0.487   4.211   0.479
 2002SOL    HW2 6906   0.446   4.358   0.536
 2003SOL     OW 6907   6.434   4.941   2.456
 2003SOL    HW1 6908   6.514   4.886   2.479
 2003SOL    HW2 6909   6.352   4.884   2.458
 2004SOL     OW 6910   5.559   1.094   4.148
 2004SOL    HW1 6911   5.469   1.106   4.190
 2004SOL    HW2 6912   5.628   1.082   4.219
 2005SOL     OW 6913   0.347   4.481   0.593
 2005SOL    HW1 6914   0.347   4.537   0.676
 2005SOL    HW2 6915   0.340   4.541   0.513
 2006SOL     OW 6916   5.491   0.329   3.307
 2006SOL    HW1 6917   5.426   0.383   3.254
 2006SOL    HW2 6918   5.575   0.381   3.320
 2007SOL     OW 6919   4.842   4.529   1.163
 2007SOL    HW1 6920   4.805   4.448   1.118
 2007SOL    HW2 6921   4.861   4.508   1.259
 2008SOL     OW 6922   2.081   3.998   3.572
 2008SOL    HW1 6923   2.087   3.899   3.581
 2008SOL    HW2 6924   2.002   4.032   3.623
 2009SOL     OW 6925   5.034   0.304   2.602
 2009SOL    HW1 6926   5.000   0.297   2.696
 2009SOL    HW2 6927   4.968   0.353   2.546
 2010SOL     OW 6928   3.118   1.762   1.947
 2010SOL    HW1 6929   3.165   1.833   1.895
 2010SOL    HW2 6930   3.041   1.727   1.894
 2011SOL     OW 6931   0.455   0.833   4.782
 2011SOL    HW1 6932   0.377   0.882   4.820
 2011SOL    HW2 6933   0.422   0.751   4.734
 2012SOL     OW 6934   1.057   3.915   2.381
 2012SOL    HW1 6935   1.103   3.989   2.333
 2012SOL    HW2 6936   0.965   3.903   2.344
 2013SOL     OW 6937   6.114   3.016   3.380
 2013SOL    HW1 6938   6.118   3.044   3.476
 2013SOL    HW2 6939   6.031   3.051   3.338
 2014SOL     OW 6940   2.729   6.814   3.272
 2014SOL    HW1 6941   2.763   6.721   3.282
 2014SOL    HW2 6942   2.651   6.829   3.332
 2015SOL     OW 6943   2.310   0.251   0.847
 2015SOL    HW1 6944   2.225   0.267   0.897
 2015SOL    HW2 6945   2.298   0.174   0.784
 2016SOL     OW 6946   1.743   5.733   6.320
 2016SOL    HW1 6947   1.664   5.794   6.314
 2016SOL    HW2 6948   1.780   5.736   6.413
 2017SOL     OW 6949   3.964   0.375   3.430
 2017SOL    HW1 6950   3.958   0.335   3.522
 2017SOL    HW2 6951   3.889   0.340   3.374
 2018SOL     OW 6952   5.779   2.855   4.031
 2018SOL    HW1 6953   5.874   2.863   4.058
 2018SOL    HW2 6954   5.729   2.938   4.055
 2019SOL     OW 6955   5.364   3.835   6.687
 2019SOL    HW1 6956   5.455   3.867   6.714
 2019SOL    HW2 6957   5.330   3.770   6.754
 2020SOL     OW 6958   2.137   6.979   6.361
 2020SOL    HW1 6959   2.115   0.003   6.443
 2020SOL    HW2 6960   2.210   6.914   6.382
 2021SOL     OW 6961   6.621   6.557   5.010
 2021SOL    HW1 6962   6.614   6.615   5.091
 2021SOL    HW2 6963   6.680   6.601   4.942
 2022SOL     OW 6964   1.802   4.536   3.753
 2022SOL    HW1 6965   1.807   4.478   3.672
 2022SOL    HW2 6966   1.797   4.479   3.835
 2023SOL     OW 6967   0.483   0.282   6.456
 2023SOL    HW1 6968   0.551   0.227   6.407
 2023SOL    HW2 6969   0.525   0.367   6.486
 2024SOL     OW 6970   0.262   5.851   3.529
 2024SOL    HW1 6971   0.190   5.791   3.495
 2024SOL    HW2 6972   0.340   5.848   3.467
 2025SOL     OW 6973   3.978   0.812   3.957
 2025SOL    HW1 6974   3.983   0.763   3.870
 2025SOL    HW2 6975   4.026   0.761   4.028
 2026SOL     OW 6976   6.440   2.822   6.026
 2026SOL    HW1 6977   6.372   2.848   5.958
 2026SOL    HW2 6978   6.487   2.739   5.996
 2027SOL     OW 6979   1.276   0.206   1.074
 2027SOL    HW1 6980   1.218   0.164   1.004
 2027SOL    HW2 6981   1.254   0.167   1.164
 2028SOL     OW 6982   3.562   5.726   4.832
 2028SOL    HW1 6983   3.530   5.711   4.926
 2028SOL    HW2 6984   3.580   5.638   4.788
 2029SOL     OW 6985   6.237   1.893   0.265
 2029SOL    HW1 6986   6.232   1.793   0.269
 2029SOL    HW2 6987   6.248   1.930   0.357
 2030SOL     OW 6988   3.204   0.507   3.465
 2030SOL    HW1 6989   3.160   0.434   3.413
 2030SOL    HW2 6990   3.140   0.584   3.476
 2031SOL     OW 6991   6.721   5.948   1.517
 2031SOL    HW1 6992   6.738   5.916   1.424
 2031SOL    HW2 6993   6.806   5.981   1.557
 2032SOL     OW 6994   3.959   1.145   1.908
 2032SOL    HW1 6995   4.032   1.195   1.861
 2032SOL    HW2 6996   3.991   1.116   1.999
 2033SOL     OW 6997   2.288   2.161   0.215
 2033SOL    HW1 6998   2.216   2.231   0.220
 2033SOL    HW2 6999   2.344   2.176   0.134
 2034SOL     OW 7000   2.700   4.725   5.975
 2034SOL    HW1 7001   2.665   4.767   5.891
 2034SOL    HW2 7002   2.688   4.789   6.052
 2035SOL     OW 7003   6.430   6.517   3.380
 2035SOL    HW1 7004   6.444   6.616   3.376
 2035SOL    HW2 7005   6.332   6.498   3.394
 2036SOL     OW 7006   1.233   3.370   2.681
 2036SOL    HW1 7007   1.247   3.324   2.593
 2036SOL    HW2 7008   1.274   3.461   2.679
 2037SOL     OW 7009   6.289   2.896   5.805
 2037SOL    HW1 7010   6.271   2.964   5.735
 2037SOL    HW2 7011   6.321   2.812   5.761
 2038SOL     OW 7012   2.034   1.391   0.338
 2038SOL    HW1 7013   1.948   1.347   0.309
 2038SOL    HW2 7014   2.014   1.483   0.370
 2039SOL     OW 7015   6.826   6.098   3.283
 2039SOL    HW1 7016   6.791   6.192   3.275
 2039SOL    HW2 7017   6.751   6.033   3.271
 2040SOL     OW 7018   1.558   2.296   6.916
 2040SOL    HW1 7019   1.462   2.312   6.938
 2040SOL    HW2 7020   1.565   2.247   6.829
 2041SOL     OW 7021   1.058   0.047   5.108
 2041SOL    HW1 7022   0.977   7.017   5.113
 2041SOL    HW2 7023   1.116   0.016   5.032
 2042SOL     OW 7024   5.126   6.237   6.757
 2042SOL    HW1 7025   5.047   6.177   6.749
 2042SOL    HW2 7026   5.170   6.222   6.846
 2043SOL     OW 7027   6.482   2.897   3.160
 2043SOL    HW1 7028   6.561   2.877   3.218
 2043SOL    HW2 7029   6.454   2.993   3.173
 2044SOL     OW 7030   6.496   0.489   1.413
 2044SOL    HW1 7031   6.417   0.549   1.409
 2044SOL    HW2 7032   6.507   0.443   1.324
 2045SOL     OW 7033   1.654   4.782   4.513
 2045SOL    HW1 7034   1.566   4.817   4.479
 2045SOL    HW2 7035   1.713   4.762   4.435
 2046SOL     OW 7036   6.342   1.879   4.676
 2046SOL    HW1 7037   6.295   1.904   4.761
 2046SOL    HW2 7038   6.399   1.956   4.646
 2047SOL     OW 7039   7.007   2.499   0.266
 2047SOL    HW1 7040   6.932   2.436   0.286
 2047SOL    HW2 7041   6.969   2.585   0.233
 2048SOL     OW 7042   0.111   0.092   5.214
 2048SOL    HW1 7043   0.085   0.025   5.144
 2048SOL    HW2 7044   0.191   0.143   5.182
 2049SOL     OW 7045   5.730   1.416   4.262
 2049SOL    HW1 7046   5.809   1.360   4.236
 2049SOL    HW2 7047   5.681   1.372   4.337
 2050SOL     OW 7048   6.239   2.663   4.092
 2050SOL    HW1 7049   6.194   2.577   4.117
 2050SOL    HW2 7050   6.338   2.650   4.093
 2051SOL     OW 7051   1.911   5.926   6.653
 2051SOL    HW1 7052   1.824   5.967   6.681
 2051SOL    HW2 7053   1.944   5.972   6.571
 2052SOL     OW 7054   1.727   2.550   1.228
 2052SOL    HW1 7055   1.707   2.454   1.208
 2052SOL    HW2 7056   1.796   2.584   1.165
 2053SOL     OW 7057   0.037   5.475   4.732
 2053SOL    HW1 7058   6.976   5.508   4.762
 2053SOL    HW2 7059   0.027   5.389   4.682
 2054SOL     OW 7060   3.381   3.714   2.937
 2054SOL    HW1 7061   3.326   3.644   2.983
 2054SOL    HW2 7062   3.456   3.742   2.997
 2055SOL     OW 7063   6.388   2.980   4.853
 2055SOL    HW1 7064   6.380   3.045   4.778
 2055SOL    HW2 7065   6.313   2.913   4.847
 2056SOL     OW 7066   4.289   5.472   1.383
 2056SOL    HW1 7067   4.215   5.524   1.426
 2056SOL    HW2 7068   4.286   5.486   1.284
 2057SOL     OW 7069   4.988   3.883   5.691
 2057SOL    HW1 7070   5.047   3.915   5.766
 2057SOL    HW2 7071   4.953   3.962   5.641
 2058SOL     OW 7072   0.198   6.581   2.579
 2058SOL    HW1 7073   0.294   6.560   2.558
 2058SOL    HW2 7074   0.149   6.600   2.494
 2059SOL     OW 7075   2.151   6.369   6.765
 2059SOL    HW1 7076   2.077   6.411   6.713
 2059SOL    HW2 7077   2.170   6.424   6.846
 2060SOL     OW 7078   0.176   3.604   1.775
 2060SOL    HW1 7079   0.172   3.513   1.815
 2060SOL    HW2 7080   0.171   3.597   1.675
 2061SOL     OW 7081   1.517   2.064   2.475
 2061SOL    HW1 7082   1.514   2.115   2.561
 2061SOL    HW2 7083   1.552   2.122   2.402
 2062SOL     OW 7084   0.116   6.122   5.464
 2062SOL    HW1 7085   0.089   6.051   5.399
 2062SOL    HW2 7086   0.058   6.116   5.546
 2063SOL     OW 7087   1.226   6.644   5.147
 2063SOL    HW1 7088   1.137   6.688   5.161
 2063SOL    HW2 7089   1.249   6.646   5.049
 2064SOL     OW 7090   0.080   2.328   4.936
 2064SOL    HW1 7091   0.033   2.364   5.017
 2064SOL    HW2 7092   0.089   2.229   4.945
 2065SOL     OW 7093   6.031   2.992   6.142
 2065SOL    HW1 7094   6.037   2.921   6.072
 2065SOL    HW2 7095   6.121   3.009   6.181
 2066SOL     OW 7096   6.732   3.886   5.377
 2066SOL    HW1 7097   6.725   3.954   5.450
 2066SOL    HW2 7098   6.644   3.880   5.329
 2067SOL     OW 7099   0.029   4.835   0.751
 2067SOL    HW1 7100   0.108   4.896   0.763
 2067SOL    HW2 7101   7.008   4.862   0.668
 2068SOL     OW 7102   3.601   0.282   4.012
 2068SOL    HW1 7103   3.645   0.277   3.922
 2068SOL    HW2 7104   3.584   0.189   4.045
 2069SOL     OW 7105   6.759   2.332   4.405
 2069SOL    HW1 7106   6.666   2.357   4.432
 2069SOL    HW2 7107   6.755   2.275   4.323
 2070SOL     OW 7108   0.843   1.525   0.859
 2070SOL    HW1 7109   0.844   1.557   0.954
 2070SOL    HW2 7110   0.810   1.431   0.856
 2071SOL     OW 7111   6.193   0.789   5.773
 2071SOL    HW1 7112   6.181   0.791   5.872
 2071SOL    HW2 7113   6.110   0.822   5.728
 2072SOL     OW 7114   4.488   5.444   4.801
 2072SOL    HW1 7115   4.529   5.388   4.873
 2072SOL    HW2 7116   4.480   5.390   4.718
 2073SOL     OW 7117   4.201   6.202   5.205
 2073SOL    HW1 7118   4.169   6.278   5.263
 2073SOL    HW2 7119   4.284   6.231   5.157
 2074SOL     OW 7120   1.700   2.702   6.672
 2074SOL    HW1 7121   1.705   2.799   6.651
 2074SOL    HW2 7122   1.792   2.663   6.678
 2075SOL     OW 7123   6.656   2.708   2.762
 2075SOL    HW1 7124   6.661   2.609   2.774
 2075SOL    HW2 7125   6.680   2.753   2.848
 2076SOL     OW 7126   5.347   6.175   6.288
 2076SOL    HW1 7127   5.371   6.260   6.335
 2076SOL    HW2 7128   5.265   6.190   6.233
 2077SOL     OW 7129   6.663   2.273   1.867
 2077SOL    HW1 7130   6.715   2.312   1.943
 2077SOL    HW2 7131   6.663   2.336   1.790
 2078SOL     OW 7132   2.284   5.162   6.516
 2078SOL    HW1 7133   2.347   5.171   6.593
 2078SOL    HW2 7134   2.208   5.103   6.542
 2079SOL     OW 7135   6.964   1.088   2.883
 2079SOL    HW1 7136   0.003   1.122   2.817
 2079SOL    HW2 7137   6.992   0.996   2.914
 2080SOL     OW 7138   2.627   1.004   4.821
 2080SOL    HW1 7139   2.544   1.011   4.765
 2080SOL    HW2 7140   2.622   1.068   4.898
 2081SOL     OW 7141   1.018   6.910   4.802
 2081SOL    HW1 7142   1.066   6.847   4.863
 2081SOL    HW2 7143   0.932   6.869   4.773
 2082SOL     OW 7144   0.958   6.279   3.786
 2082SOL    HW1 7145   0.987   6.328   3.704
 2082SOL    HW2 7146   0.998   6.321   3.867
 2083SOL     OW 7147   1.424   6.003   5.153
 2083SOL    HW1 7148   1.412   5.903   5.151
 2083SOL    HW2 7149   1.500   6.026   5.213
 2084SOL     OW 7150   0.819   2.670   2.072
 2084SOL    HW1 7151   0.735   2.687   2.020
 2084SOL    HW2 7152   0.843   2.752   2.123
 2085SOL     OW 7153   4.715   6.863   1.083
 2085SOL    HW1 7154   4.728   6.857   1.182
 2085SOL    HW2 7155   4.800   6.838   1.036
 2086SOL     OW 7156   3.729   5.898   0.348
 2086SOL    HW1 7157   3.764   5.976   0.296
 2086SOL    HW2 7158   3.700   5.826   0.286
 2087SOL     OW 7159   4.529   2.147   0.978
 2087SOL    HW1 7160   4.440   2.164   1.020
 2087SOL    HW2 7161   4.564   2.059   1.009
 2088SOL     OW 7162   1.316   5.826   6.384
 2088SOL    HW1 7163   1.331   5.727   6.391
 2088SOL    HW2 7164   1.307   5.865   6.476
 2089SOL     OW 7165   4.449   2.452   5.466
 2089SOL    HW1 7166   4.501   2.509   5.529
 2089SOL    HW2 7167   4.433   2.362   5.507
 2090SOL     OW 7168   4.916   2.823   5.501
 2090SOL    HW1 7169   4.971   2.743   5.523
 2090SOL    HW2 7170   4.905   2.879   5.583
 2091SOL     OW 7171   0.032   5.746   0.953
 2091SOL    HW1 7172   7.023   5.682   1.021
 2091SOL    HW2 7173   6.986   5.788   0.902
 2092SOL     OW 7174   5.630   3.434   0.665
 2092SOL    HW1 7175   5.651   3.360   0.600
 2092SOL    HW2 7176   5.658   3.522   0.627
 2093SOL     OW 7177   3.274   1.992   1.814
 2093SOL    HW1 7178   3.248   1.983   1.718
 2093SOL    HW2 7179   3.323   2.079   1.826
 2094SOL     OW 7180   5.149   1.683   1.480
 2094SOL    HW1 7181   5.206   1.728   1.412
 2094SOL    HW2 7182   5.160   1.730   1.568
 2095SOL     OW 7183   6.181   6.674   4.298
 2095SOL    HW1 7184   6.125   6.756   4.288
 2095SOL    HW2 7185   6.207   6.664   4.394
 2096SOL     OW 7186   4.734   5.540   3.317
 2096SOL    HW1 7187   4.722   5.443   3.297
 2096SOL    HW2 7188   4.688   5.595   3.247
 2097SOL     OW 7189   2.881   3.577   6.887
 2097SOL    HW1 7190   2.869   3.610   6.981
 2097SOL    HW2 7191   2.907   3.653   6.828
 2098SOL     OW 7192   4.045   6.266   2.939
 2098SOL    HW1 7193   4.004   6.357   2.949
 2098SOL    HW2 7194   4.140   6.269   2.968
 2099SOL     OW 7195   4.184   1.422   6.702
 2099SOL    HW1 7196   4.244   1.355   6.746
 2099SOL    HW2 7197   4.113   1.450   6.766
 2100SOL     OW 7198   5.256   1.489   0.783
 2100SOL    HW1 7199   5.170   1.449   0.814
 2100SOL    HW2 7200   5.312   1.513   0.863
 2101SOL     OW 7201   6.993   6.083   0.774
 2101SOL    HW1 7202   6.904   6.038   0.778
 2101SOL    HW2 7203   7.014   6.122   0.864
 2102SOL     OW 7204   4.896   3.619   1.544
 2102SOL    HW1 7205   4.931   3.573   1.626
 2102SOL    HW2 7206   4.957   3.693   1.518
 2103SOL     OW 7207   4.053   4.075   0.385
 2103SOL    HW1 7208   4.096   3.985   0.377
 2103SOL    HW2 7209   4.051   4.102   0.482
 2104SOL     OW 7210   1.240   4.608   1.721
 2104SOL    HW1 7211   1.178   4.593   1.797
 2104SOL    HW2 7212   1.324   4.556   1.735
 2105SOL     OW 7213   4.572   5.081   0.125
 2105SOL    HW1 7214   4.538   5.001   0.175
 2105SOL    HW2 7215   4.671   5.071   0.110
 2106SOL     OW 7216   4.902   3.825   1.007
 2106SOL    HW1 7217   4.821   3.770   0.985
 2106SOL    HW2 7218   4.894   3.914   0.963
 2107SOL     OW 7219   5.922   2.648   5.678
 2107SOL    HW1 7220   5.895   2.743   5.694
 2107SOL    HW2 7221   6.015   2.645   5.641
 2108SOL     OW 7222   6.141   5.911   4.821
 2108SOL    HW1 7223   6.062   5.858   4.788
 2108SOL    HW2 7224   6.162   5.884   4.915
 2109SOL     OW 7225   2.920   5.928   2.695
 2109SOL    HW1 7226   2.936   6.013   2.746
 2109SOL    HW2 7227   2.859   5.946   2.618
 2110SOL     OW 7228   3.555   0.767   6.341
 2110SOL    HW1 7229   3.472   0.737   6.387
 2110SOL    HW2 7230   3.619   0.805   6.409
 2111SOL     OW 7231   1.745   3.189   5.194
 2111SOL    HW1 7232   1.777   3.270   5.244
 2111SOL    HW2 7233   1.805   3.112   5.214
 2112SOL     OW 7234   5.077   2.128   0.112
 2112SOL    HW1 7235   5.068   2.165   0.204
 2112SOL    HW2 7236   5.074   2.028   0.116
 2113SOL     OW 7237   2.008   0.126   5.201
 2113SOL    HW1 7238   2.094   0.120   5.150
 2113SOL    HW2 7239   1.975   0.221   5.198
 2114SOL     OW 7240   1.946   2.579   6.675
 2114SOL    HW1 7241   1.938   2.518   6.753
 2114SOL    HW2 7242   2.035   2.564   6.630
 2115SOL     OW 7243   0.987   4.315   2.361
 2115SOL    HW1 7244   0.928   4.352   2.289
 2115SOL    HW2 7245   1.002   4.384   2.431
 2116SOL     OW 7246   1.355   3.245   1.648
 2116SOL    HW1 7247   1.405   3.234   1.562
 2116SOL    HW2 7248   1.274   3.187   1.648
 2117SOL     OW 7249   5.536   3.803   1.267
 2117SOL    HW1 7250   5.449   3.757   1.250
 2117SOL    HW2 7251   5.610   3.736   1.268
 2118SOL     OW 7252   6.408   3.441   2.507
 2118SOL    HW1 7253   6.481   3.508   2.517
 2118SOL    HW2 7254   6.320   3.488   2.503
 2119SOL     OW 7255   1.529   1.332   0.806
 2119SOL    HW1 7256   1.454   1.374   0.857
 2119SOL    HW2 7257   1.558   1.394   0.733
 2120SOL     OW 7258   0.120   3.157   2.089
 2120SOL    HW1 7259   0.062   3.133   2.168
 2120SOL    HW2 7260   0.216   3.148   2.114
 2121SOL     OW 7261   1.854   3.147   5.779
 2121SOL    HW1 7262   1.935   3.107   5.735
 2121SOL    HW2 7263   1.866   3.246   5.787
 2122SOL     OW 7264   5.331   6.140   5.805
 2122SOL    HW1 7265   5.427   6.165   5.814
 2122SOL    HW2 7266   5.319   6.044   5.830
 2123SOL     OW 7267   6.316   6.297   1.943
 2123SOL    HW1 7268   6.298   6.390   1.911
 2123SOL    HW2 7269   6.391   6.298   2.009
 2124SOL     OW 7270   2.971   1.676   0.095
 2124SOL    HW1 7271   2.996   1.757   0.041
 2124SOL    HW2 7272   2.971   1.595   0.036
 2125SOL     OW 7273   0.571   5.294   2.171
 2125SOL    HW1 7274   0.501   5.361   2.144
 2125SOL    HW2 7275   0.658   5.320   2.131
 2126SOL     OW 7276   3.575   2.774   6.227
 2126SOL    HW1 7277   3.487   2.778   6.180
 2126SOL    HW2 7278   3.628   2.856   6.205
 2127SOL     OW 7279   0.938   1.826   5.557
 2127SOL    HW1 7280   1.037   1.838   5.565
 2127SOL    HW2 7281   0.893   1.864   5.638
 2128SOL     OW 7282   5.726   2.481   1.803
 2128SOL    HW1 7283   5.764   2.441   1.887
 2128SOL    HW2 7284   5.710   2.409   1.736
 2129SOL     OW 7285   4.410   4.766   4.689
 2129SOL    HW1 7286   4.375   4.682   4.646
 2129SOL    HW2 7287   4.351   4.843   4.666
 2130SOL     OW 7288   2.714   0.921   1.691
 2130SOL    HW1 7289   2.749   0.853   1.756
 2130SOL    HW2 7290   2.754   1.010   1.712
 2131SOL     OW 7291   4.825   1.464   1.082
 2131SOL    HW1 7292   4.891   1.473   1.157
 2131SOL    HW2 7293   4.824   1.369   1.050
 2132SOL     OW 7294   2.980   1.409   6.970
 2132SOL    HW1 7295   3.023   1.324   6.941
 2132SOL    HW2 7296   2.993   1.422   0.039
 2133SOL     OW 7297   3.583   2.052   0.749
 2133SOL    HW1 7298   3.560   2.148   0.734
 2133SOL    HW2 7299   3.541   2.020   0.833
 2134SOL     OW 7300   1.042   1.004   4.837
 2134SOL    HW1 7301   1.029   0.916   4.884
 2134SOL    HW2 7302   0.991   1.075   4.885
 2135SOL     OW 7303   0.435   1.519   4.738
 2135SOL    HW1 7304   0.480   1.556   4.819
 2135SOL    HW2 7305   0.494   1.529   4.659
 2136SOL     OW 7306   1.328   3.631   4.105
 2136SOL    HW1 7307   1.291   3.686   4.030
 2136SOL    HW2 7308   1.294   3.666   4.192
 2137SOL     OW 7309   0.551   6.663   4.335
 2137SOL    HW1 7310   0.522   6.758   4.346
 2137SOL    HW2 7311   0.599   6.653   4.248
 2138SOL     OW 7312   6.060   2.412   2.000
 2138SOL    HW1 7313   5.973   2.371   2.026
 2138SOL    HW2 7314   6.055   2.511   2.011
 2139SOL     OW 7315   4.005   1.329   3.297
 2139SOL    HW1 7316   4.050   1.385   3.367
 2139SOL    HW2 7317   3.974   1.387   3.222
 2140SOL     OW 7318   3.035   6.208   3.394
 2140SOL    HW1 7319   3.057   6.143   3.321
 2140SOL    HW2 7320   2.952   6.179   3.442
 2141SOL     OW 7321   6.714   2.994   1.096
 2141SOL    HW1 7322   6.791   3.019   1.037
 2141SOL    HW2 7323   6.641   3.062   1.087
 2142SOL     OW 7324   1.315   2.463   3.387
 2142SOL    HW1 7325   1.267   2.548   3.365
 2142SOL    HW2 7326   1.278   2.426   3.473
 2143SOL     OW 7327   3.307   4.758   0.916
 2143SOL    HW1 7328   3.249   4.754   0.834
 2143SOL    HW2 7329   3.328   4.854   0.936
 2144SOL     OW 7330   1.757   0.752   2.761
 2144SOL    HW1 7331   1.807   0.838   2.748
 2144SOL    HW2 7332   1.812   0.676   2.729
 2145SOL     OW 7333   3.622   5.739   4.224
 2145SOL    HW1 7334   3.660   5.648   4.237
 2145SOL    HW2 7335   3.643   5.772   4.133
 2146SOL     OW 7336   2.994   3.567   2.054
 2146SOL    HW1 7337   3.091   3.545   2.068
 2146SOL    HW2 7338   2.956   3.506   1.984
 2147SOL     OW 7339   6.605   0.986   0.045
 2147SOL    HW1 7340   6.653   1.033   0.119
 2147SOL    HW2 7341   6.661   0.988   6.991
 2148SOL     OW 7342   4.841   2.999   4.485
 2148SOL    HW1 7343   4.822   3.045   4.572
 2148SOL    HW2 7344   4.925   2.945   4.493
 2149SOL     OW 7345   3.380   0.328   1.122
 2149SOL    HW1 7346   3.426   0.316   1.034
 2149SOL    HW2 7347   3.314   0.402   1.115
 2150SOL     OW 7348   3.133   2.204   2.481
 2150SOL    HW1 7349   3.111   2.211   2.384
 2150SOL    HW2 7350   3.183   2.118   2.497
 2151SOL     OW 7351   2.567   1.649   4.196
 2151SOL    HW1 7352   2.545   1.653   4.098
 2151SOL    HW2 7353   2.655   1.693   4.212
 2152SOL     OW 7354   4.016   6.588   1.901
 2152SOL    HW1 7355   3.938   6.569   1.960
 2152SOL    HW2 7356   4.079   6.649   1.949
 2153SOL     OW 7357   4.295   0.672   3.722
 2153SOL    HW1 7358   4.239   0.630   3.793
 2153SOL    HW2 7359   4.273   0.769   3.714
 2154SOL     OW 7360   3.496   6.380   5.049
 2154SOL    HW1 7361   3.428   6.441   5.089
 2154SOL    HW2 7362   3.588   6.409   5.077
 2155SOL     OW 7363   1.576   5.394   0.091
 2155SOL    HW1 7364   1.494   5.425   0.140
 2155SOL    HW2 7365   1.624   5.327   0.147
 2156SOL     OW 7366   2.891   0.258   1.795
 2156SOL    HW1 7367   2.872   0.301   1.884
 2156SOL    HW2 7368   2.854   0.165   1.794
 2157SOL     OW 7369   6.813   1.082   3.121
 2157SOL    HW1 7370   6.906   1.086   3.084
 2157SOL    HW2 7371   6.772   0.994   3.098
 2158SOL     OW 7372   3.934   6.562   0.710
 2158SOL    HW1 7373   3.910   6.652   0.673
 2158SOL    HW2 7374   3.929   6.566   0.810
 2159SOL     OW 7375   1.613   6.091   5.366
 2159SOL    HW1 7376   1.696   6.065   5.315
 2159SOL    HW2 7377   1.622   6.061   5.461
 2160SOL     OW 7378   4.340   3.447   1.719
 2160SOL    HW1 7379   4.408   3.492   1.661
 2160SOL    HW2 7380   4.354   3.348   1.716
 2161SOL     OW 7381   5.133   2.998   3.771
 2161SOL    HW1 7382   5.059   3.060   3.743
 2161SOL    HW2 7383   5.130   2.916   3.714
 2162SOL     OW 7384   2.550   0.511   0.398
 2162SOL    HW1 7385   2.594   0.601   0.406
 2162SOL    HW2 7386   2.481   0.502   0.470
 2163SOL     OW 7387   6.740   5.838   6.088
 2163SOL    HW1 7388   6.833   5.861   6.057
 2163SOL    HW2 7389   6.690   5.923   6.108
 2164SOL     OW 7390   1.875   1.622   6.974
 2164SOL    HW1 7391   1.898   1.683   0.022
 2164SOL    HW2 7392   1.806   1.665   6.917
 2165SOL     OW 7393   1.221   1.465   3.148
 2165SOL    HW1 7394   1.179   1.385   3.192
 2165SOL    HW2 7395   1.212   1.456   3.049
 2166SOL     OW 7396   2.166   2.335   5.542
 2166SOL    HW1 7397   2.128   2.368   5.628
 2166SOL    HW2 7398   2.124   2.386   5.466
 2167SOL     OW 7399   2.601   0.237   2.428
 2167SOL    HW1 7400   2.697   0.259   2.443
 2167SOL    HW2 7401   2.552   0.241   2.515
 2168SOL     OW 7402   6.444   2.176   4.291
 2168SOL    HW1 7403   6.396   2.242   4.233
 2168SOL    HW2 7404   6.396   2.167   4.378
 2169SOL     OW 7405   5.720   2.096   6.133
 2169SOL    HW1 7406   5.658   2.167   6.101
 2169SOL    HW2 7407   5.815   2.128   6.128
 2170SOL     OW 7408   5.856   4.987   5.355
 2170SOL    HW1 7409   5.800   5.047   5.297
 2170SOL    HW2 7410   5.946   5.028   5.368
 2171SOL     OW 7411   6.137   2.945   0.539
 2171SOL    HW1 7412   6.040   2.919   0.546
 2171SOL    HW2 7413   6.144   3.045   0.538
 2172SOL     OW 7414   2.936   1.808   0.567
 2172SOL    HW1 7415   2.993   1.725   0.571
 2172SOL    HW2 7416   2.842   1.782   0.545
 2173SOL     OW 7417   3.588   0.349   5.536
 2173SOL    HW1 7418   3.509   0.298   5.502
 2173SOL    HW2 7419   3.572   0.447   5.526
 2174SOL     OW 7420   6.589   4.991   5.943
 2174SOL    HW1 7421   6.669   5.041   5.976
 2174SOL    HW2 7422   6.618   4.921   5.878
 2175SOL     OW 7423   2.766   2.370   3.335
 2175SOL    HW1 7424   2.759   2.345   3.431
 2175SOL    HW2 7425   2.828   2.307   3.288
 2176SOL     OW 7426   0.982   2.240   1.416
 2176SOL    HW1 7427   0.936   2.319   1.457
 2176SOL    HW2 7428   1.078   2.239   1.445
 2177SOL     OW 7429   6.539   0.496   1.904
 2177SOL    HW1 7430   6.461   0.530   1.851
 2177SOL    HW2 7431   6.511   0.413   1.953
 2178SOL     OW 7432   1.109   4.407   0.500
 2178SOL    HW1 7433   1.163   4.424   0.417
 2178SOL    HW2 7434   1.165   4.425   0.581
 2179SOL     OW 7435   2.282   5.506   4.336
 2179SOL    HW1 7436   2.266   5.581   4.400
 2179SOL    HW2 7437   2.248   5.421   4.376
 2180SOL     OW 7438   3.030   3.181   1.843
 2180SOL    HW1 7439   3.044   3.264   1.788
 2180SOL    HW2 7440   3.012   3.104   1.782
 2181SOL     OW 7441   4.428   4.172   6.067
 2181SOL    HW1 7442   4.333   4.141   6.067
 2181SOL    HW2 7443   4.482   4.114   6.128
 2182SOL     OW 7444   6.375   3.194   6.093
 2182SOL    HW1 7445   6.455   3.136   6.080
 2182SOL    HW2 7446   6.315   3.187   6.014
 2183SOL     OW 7447   3.872   3.682   0.500
 2183SOL    HW1 7448   3.817   3.621   0.444
 2183SOL    HW2 7449   3.846   3.672   0.596
 2184SOL     OW 7450   3.176   1.178   5.355
 2184SOL    HW1 7451   3.228   1.263   5.345
 2184SOL    HW2 7452   3.225   1.117   5.416
 2185SOL     OW 7453   1.953   1.478   1.198
 2185SOL    HW1 7454   1.883   1.510   1.133
 2185SOL    HW2 7455   1.913   1.410   1.259
 2186SOL     OW 7456   7.027   4.624   2.269
 2186SOL    HW1 7457   0.071   4.582   2.323
 2186SOL    HW2 7458   6.969   4.679   2.329
 2187SOL     OW 7459   0.425   0.999   1.993
 2187SOL    HW1 7460   0.438   1.056   2.074
 2187SOL    HW2 7461   0.341   1.025   1.946
 2188SOL     OW 7462   4.496   5.793   3.684
 2188SOL    HW1 7463   4.470   5.702   3.649
 2188SOL    HW2 7464   4.558   5.782   3.761
 2189SOL     OW 7465   1.464   6.620   6.143
 2189SOL    HW1 7466   1.396   6.585   6.208
 2189SOL    HW2 7467   1.506   6.702   6.181
 2190SOL     OW 7468   6.487   2.070   1.547
 2190SOL    HW1 7469   6.552   2.106   1.479
 2190SOL    HW2 7470   6.535   2.056   1.634
 2191SOL     OW 7471   3.811   1.834   6.368
 2191SOL    HW1 7472   3.744   1.909   6.364
 2191SOL    HW2 7473   3.795   1.779   6.449
 2192SOL     OW 7474   4.086   0.010   4.813
 2192SOL    HW1 7475   4.128   0.097   4.840
 2192SOL    HW2 7476   4.141   6.963   4.849
 2193SOL     OW 7477   6.408   5.415   5.835
 2193SOL    HW1 7478   6.398   5.392   5.932
 2193SOL    HW2 7479   6.433   5.512   5.827
 2194SOL     OW 7480   2.598   5.260   0.236
 2194SOL    HW1 7481   2.552   5.174   0.257
 2194SOL    HW2 7482   2.537   5.316   0.180
 2195SOL     OW 7483   7.028   6.812   1.959
 2195SOL    HW1 7484   0.007   6.750   1.881
 2195SOL    HW2 7485   6.932   6.816   1.989
 2196SOL     OW 7486   2.303   0.213   5.732
 2196SOL    HW1 7487   2.323   0.309   5.749
 2196SOL    HW2 7488   2.206   0.202   5.709
 2197SOL     OW 7489   5.130   3.939   1.671
 2197SOL    HW1 7490   5.217   3.989   1.678
 2197SOL    HW2 7491   5.129   3.888   1.585
 2198SOL     OW 7492   6.917   2.529   6.914
 2198SOL    HW1 7493   6.903   2.432   6.936
 2198SOL    HW2 7494   6.989   2.537   6.845
 2199SOL     OW 7495   5.144   0.167   1.044
 2199SOL    HW1 7496   5.224   0.173   0.984
 2199SOL    HW2 7497   5.061   0.174   0.988
 2200SOL     OW 7498   4.142   0.524   4.502
 2200SOL    HW1 7499   4.180   0.434   4.523
 2200SOL    HW2 7500   4.045   0.515   4.481
 2201SOL     OW 7501   6.186   3.825   2.244
 2201SOL    HW1 7502   6.119   3.891   2.210
 2201SOL    HW2 7503   6.144   3.735   2.253
 2202SOL     OW 7504   3.380   5.367   4.800
 2202SOL    HW1 7505   3.336   5.450   4.833
 2202SOL    HW2 7506   3.401   5.307   4.877
 2203SOL     OW 7507   2.981   1.799   2.781
 2203SOL    HW1 7508   2.951   1.834   2.869
 2203SOL    HW2 7509   2.909   1.815   2.713
 2204SOL     OW 7510   3.523   1.524   6.417
 2204SOL    HW1 7511   3.505   1.462   6.341
 2204SOL    HW2 7512   3.448   1.591   6.423
 2205SOL     OW 7513   1.310   0.431   6.698
 2205SOL    HW1 7514   1.371   0.409   6.621
 2205SOL    HW2 7515   1.349   0.396   6.783
 2206SOL     OW 7516   3.066   4.176   5.748
 2206SOL    HW1 7517   3.116   4.263   5.744
 2206SOL    HW2 7518   3.113   4.108   5.692
 2207SOL     OW 7519   1.914   4.177   6.467
 2207SOL    HW1 7520   2.006   4.191   6.505
 2207SOL    HW2 7521   1.858   4.258   6.483
 2208SOL     OW 7522   1.532   4.537   1.734
 2208SOL    HW1 7523   1.552   4.490   1.648
 2208SOL    HW2 7524   1.617   4.554   1.783
 2209SOL     OW 7525   1.234   5.968   5.376
 2209SOL    HW1 7526   1.166   6.025   5.422
 2209SOL    HW2 7527   1.280   6.022   5.306
 2210SOL     OW 7528   0.769   5.246   2.995
 2210SOL    HW1 7529   0.784   5.271   3.090
 2210SOL    HW2 7530   0.683   5.196   2.987
 2211SOL     OW 7531   5.463   1.409   5.913
 2211SOL    HW1 7532   5.543   1.437   5.966
 2211SOL    HW2 7533   5.399   1.486   5.908
 2212SOL     OW 7534   0.588   6.501   6.648
 2212SOL    HW1 7535   0.512   6.565   6.657
 2212SOL    HW2 7536   0.557   6.409   6.669
 2213SOL     OW 7537   4.642   2.665   4.902
 2213SOL    HW1 7538   4.653   2.761   4.874
 2213SOL    HW2 7539   4.590   2.616   4.832
 2214SOL     OW 7540   4.732   0.647   5.304
 2214SOL    HW1 7541   4.720   0.746   5.305
 2214SOL    HW2 7542   4.660   0.605   5.248
 2215SOL     OW 7543   6.897   1.051   5.580
 2215SOL    HW1 7544   6.924   1.139   5.621
 2215SOL    HW2 7545   6.874   0.986   5.652
 2216SOL     OW 7546   1.792   0.437   6.731
 2216SOL    HW1 7547   1.749   0.497   6.798
 2216SOL    HW2 7548   1.885   0.469   6.711
 2217SOL     OW 7549   2.825   0.439   1.229
 2217SOL    HW1 7550   2.726   0.425   1.229
 2217SOL    HW2 7551   2.847   0.520   1.174
 2218SOL     OW 7552   1.213   6.488   0.587
 2218SOL    HW1 7553   1.236   6.528   0.676
 2218SOL    HW2 7554   1.261   6.537   0.515
 2219SOL     OW 7555   1.554   3.840   3.127
 2219SOL    HW1 7556   1.617   3.779   3.079
 2219SOL    HW2 7557   1.598   3.928   3.143
 2220SOL     OW 7558   0.577   1.335   4.290
 2220SOL    HW1 7559   0.671   1.315   4.316
 2220SOL    HW2 7560   0.572   1.348   4.191
 2221SOL     OW 7561   0.175   1.430   0.152
 2221SOL    HW1 7562   0.176   1.360   0.223
 2221SOL    HW2 7563   0.150   1.518   0.192
 2222SOL     OW 7564   3.828   1.136   0.638
 2222SOL    HW1 7565   3.884   1.212   0.603
 2222SOL    HW2 7566   3.821   1.065   0.568
 2223SOL     OW 7567   5.556   5.576   3.747
 2223SOL    HW1 7568   5.524   5.649   3.687
 2223SOL    HW2 7569   5.656   5.575   3.749
 2224SOL     OW 7570   1.587   4.380   1.512
 2224SOL    HW1 7571   1.660   4.381   1.443
 2224SOL    HW2 7572   1.556   4.287   1.527
 2225SOL     OW 7573   6.400   4.811   2.910
 2225SOL    HW1 7574   6.310   4.851   2.930
 2225SOL    HW2 7575   6.467   4.883   2.895
 2226SOL     OW 7576   3.738   3.304   0.664
 2226SOL    HW1 7577   3.684   3.389   0.667
 2226SOL    HW2 7578   3.703   3.245   0.591
 2227SOL     OW 7579   6.301   4.334   6.790
 2227SOL    HW1 7580   6.215   4.285   6.789
 2227SOL    HW2 7581   6.283   4.433   6.791
 2228SOL     OW 7582   3.326   5.517   0.934
 2228SOL    HW1 7583   3.315   5.590   1.000
 2228SOL    HW2 7584   3.265   5.532   0.856
 2229SOL     OW 7585   4.444   2.085   3.879
 2229SOL    HW1 7586   4.417   2.109   3.786
 2229SOL    HW2 7587   4.411   1.993   3.901
 2230SOL     OW 7588   1.040   6.422   4.018
 2230SOL    HW1 7589   1.009   6.436   4.112
 2230SOL    HW2 7590   1.139   6.410   4.017
 2231SOL     OW 7591   1.724   1.817   2.037
 2231SOL    HW1 7592   1.786   1.769   2.100
 2231SOL    HW2 7593   1.643   1.761   2.022
 2232SOL     OW 7594   0.669   2.953   4.301
 2232SOL    HW1 7595   0.601   2.981   4.368
 2232SOL    HW2 7596   0.626   2.940   4.212
 2233SOL     OW 7597   3.335   5.152   0.257
 2233SOL    HW1 7598   3.321   5.101   0.173
 2233SOL    HW2 7599   3.330   5.090   0.335
 2234SOL     OW 7600   4.296   2.183   0.776
 2234SOL    HW1 7601   4.365   2.236   0.727
 2234SOL    HW2 7602   4.295   2.211   0.872
 2235SOL     OW 7603   1.544   0.450   0.361
 2235SOL    HW1 7604   1.473   0.480   0.425
 2235SOL    HW2 7605   1.590   0.370   0.398
 2236SOL     OW 7606   0.721   4.698   1.006
 2236SOL    HW1 7607   0.687   4.651   0.924
 2236SOL    HW2 7608   0.728   4.796   0.988
 2237SOL     OW 7609   6.309   3.629   4.807
 2237SOL    HW1 7610   6.347   3.657   4.895
 2237SOL    HW2 7611   6.241   3.557   4.822
 2238SOL     OW 7612   0.003   4.896   2.402
 2238SOL    HW1 7613   0.055   4.932   2.324
 2238SOL    HW2 7614   6.953   4.955   2.419
 2239SOL     OW 7615   4.000   4.853   3.829
 2239SOL    HW1 7616   3.976   4.814   3.919
 2239SOL    HW2 7617   4.096   4.834   3.809
 2240SOL     OW 7618   6.074   5.066   3.559
 2240SOL    HW1 7619   6.015   5.059   3.640
 2240SOL    HW2 7620   6.166   5.036   3.583
 2241SOL     OW 7621   6.976   6.135   2.299
 2241SOL    HW1 7622   0.042   6.149   2.328
 2241SOL    HW2 7623   6.926   6.088   2.372
 2242SOL     OW 7624   5.599   1.546   3.252
 2242SOL    HW1 7625   5.659   1.592   3.186
 2242SOL    HW2 7626   5.511   1.527   3.209
 2243SOL     OW 7627   2.124   5.970   5.343
 2243SOL    HW1 7628   2.109   5.974   5.244
 2243SOL    HW2 7629   2.090   6.053   5.386
 2244SOL     OW 7630   4.048   0.605   3.244
 2244SOL    HW1 7631   4.053   0.522   3.299
 2244SOL    HW2 7632   3.984   0.591   3.169
 2245SOL     OW 7633   0.465   2.107   2.456
 2245SOL    HW1 7634   0.387   2.147   2.503
 2245SOL    HW2 7635   0.550   2.140   2.498
 2246SOL     OW 7636   1.789   2.100   5.548
 2246SOL    HW1 7637   1.736   2.020   5.575
 2246SOL    HW2 7638   1.734   2.182   5.558
 2247SOL     OW 7639   2.468   2.352   6.417
 2247SOL    HW1 7640   2.529   2.428   6.441
 2247SOL    HW2 7641   2.510   2.296   6.346
 2248SOL     OW 7642   4.962   4.599   5.665
 2248SOL    HW1 7643   4.890   4.653   5.709
 2248SOL    HW2 7644   5.051   4.621   5.706
 2249SOL     OW 7645   6.242   6.542   2.603
 2249SOL    HW1 7646   6.315   6.483   2.639
 2249SOL    HW2 7647   6.268   6.638   2.617
 2250SOL     OW 7648   5.329   4.089   1.044
 2250SOL    HW1 7649   5.296   4.033   0.968
 2250SOL    HW2 7650   5.306   4.185   1.027
 2251SOL     OW 7651   6.063   1.658   0.468
 2251SOL    HW1 7652   6.135   1.653   0.538
 2251SOL    HW2 7653   6.104   1.646   0.377
 2252SOL     OW 7654   6.478   2.421   5.241
 2252SOL    HW1 7655   6.452   2.462   5.153
 2252SOL    HW2 7656   6.575   2.442   5.259
 2253SOL     OW 7657   0.897   2.797   6.478
 2253SOL    HW1 7658   0.811   2.842   6.503
 2253SOL    HW2 7659   0.959   2.798   6.557
 2254SOL     OW 7660   2.161   3.144   6.119
 2254SOL    HW1 7661   2.143   3.079   6.046
 2254SOL    HW2 7662   2.076   3.187   6.147
 2255SOL     OW 7663   6.667   2.180   0.983
 2255SOL    HW1 7664   6.707   2.174   0.891
 2255SOL    HW2 7665   6.572   2.148   0.980
 2256SOL     OW 7666   3.853   6.112   2.177
 2256SOL    HW1 7667   3.883   6.139   2.085
 2256SOL    HW2 7668   3.813   6.191   2.223
 2257SOL     OW 7669   1.057   2.618   4.659
 2257SOL    HW1 7670   0.970   2.584   4.624
 2257SOL    HW2 7671   1.128   2.548   4.645
 2258SOL     OW 7672   1.694   5.844   4.154
 2258SOL    HW1 7673   1.719   5.759   4.107
 2258SOL    HW2 7674   1.775   5.901   4.165
 2259SOL     OW 7675   5.115   3.824   6.214
 2259SOL    HW1 7676   5.170   3.873   6.283
 2259SOL    HW2 7677   5.089   3.735   6.250
 2260SOL     OW 7678   4.587   4.349   3.005
 2260SOL    HW1 7679   4.560   4.309   2.917
 2260SOL    HW2 7680   4.633   4.280   3.061
 2261SOL     OW 7681   5.850   6.492   0.733
 2261SOL    HW1 7682   5.872   6.550   0.655
 2261SOL    HW2 7683   5.877   6.398   0.714
 2262SOL     OW 7684   5.696   2.113   2.672
 2262SOL    HW1 7685   5.645   2.197   2.657
 2262SOL    HW2 7686   5.731   2.079   2.585
 2263SOL     OW 7687   2.759   5.930   6.154
 2263SOL    HW1 7688   2.741   5.918   6.251
 2263SOL    HW2 7689   2.712   5.859   6.102
 2264SOL     OW 7690   3.344   4.117   2.296
 2264SOL    HW1 7691   3.291   4.075   2.369
 2264SOL    HW2 7692   3.440   4.120   2.322
 2265SOL     OW 7693   0.413   1.226   3.648
 2265SOL    HW1 7694   0.334   1.166   3.664
 2265SOL    HW2 7695   0.381   1.318   3.626
 2266SOL     OW 7696   6.775   1.498   1.278
 2266SOL    HW1 7697   6.747   1.594   1.268
 2266SOL    HW2 7698   6.867   1.495   1.317
 2267SOL     OW 7699   5.468   2.751   4.486
 2267SOL    HW1 7700   5.524   2.668   4.495
 2267SOL    HW2 7701   5.523   2.831   4.512
 2268SOL     OW 7702   6.713   5.491   0.293
 2268SOL    HW1 7703   6.618   5.517   0.312
 2268SOL    HW2 7704   6.714   5.410   0.233
 2269SOL     OW 7705   5.859   5.814   4.963
 2269SOL    HW1 7706   5.760   5.815   4.975
 2269SOL    HW2 7707   5.881   5.821   4.866
 2270SOL     OW 7708   3.451   3.908   0.949
 2270SOL    HW1 7709   3.436   3.896   0.851
 2270SOL    HW2 7710   3.467   4.005   0.969
 2271SOL     OW 7711   6.076   4.040   0.944
 2271SOL    HW1 7712   6.142   4.008   1.013
 2271SOL    HW2 7713   6.031   3.961   0.903
 2272SOL     OW 7714   6.006   2.185   4.807
 2272SOL    HW1 7715   5.953   2.174   4.891
 2272SOL    HW2 7716   5.944   2.207   4.732
 2273SOL     OW 7717   1.890   1.769   2.733
 2273SOL    HW1 7718   1.823   1.811   2.673
 2273SOL    HW2 7719   1.859   1.774   2.828
 2274SOL     OW 7720   1.679   3.404   4.889
 2274SOL    HW1 7721   1.625   3.393   4.972
 2274SOL    HW2 7722   1.755   3.467   4.906
 2275SOL     OW 7723   4.402   0.067   4.591
 2275SOL    HW1 7724   4.406   0.023   4.680
 2275SOL    HW2 7725   4.417   7.028   4.519
 2276SOL     OW 7726   3.386   4.994   1.018
 2276SOL    HW1 7727   3.452   4.977   1.092
 2276SOL    HW2 7728   3.337   5.079   1.037
 2277SOL     OW 7729   3.205   3.520   4.760
 2277SOL    HW1 7730   3.141   3.454   4.799
 2277SOL    HW2 7731   3.298   3.493   4.785
 2278SOL     OW 7732   4.702   6.857   3.646
 2278SOL    HW1 7733   4.661   6.823   3.561
 2278SOL    HW2 7734   4.643   6.833   3.723
 2279SOL     OW 7735   5.884   4.472   4.229
 2279SOL    HW1 7736   5.962   4.532   4.249
 2279SOL    HW2 7737   5.870   4.410   4.306
 2280SOL     OW 7738   6.653   6.287   4.979
 2280SOL    HW1 7739   6.648   6.387   4.983
 2280SOL    HW2 7740   6.577   6.252   4.925
 2281SOL     OW 7741   3.737   1.410   1.602
 2281SOL    HW1 7742   3.733   1.343   1.528
 2281SOL    HW2 7743   3.732   1.362   1.690
 2282SOL     OW 7744   5.254   6.219   4.764
 2282SOL    HW1 7745   5.308   6.136   4.782
 2282SOL    HW2 7746   5.175   6.222   4.826
 2283SOL     OW 7747   6.758   3.443   1.935
 2283SOL    HW1 7748   6.854   3.414   1.933
 2283SOL    HW2 7749   6.701   3.370   1.896
 2284SOL     OW 7750   2.729   1.827   1.697
 2284SOL    HW1 7751   2.635   1.807   1.723
 2284SOL    HW2 7752   2.729   1.882   1.614
 2285SOL     OW 7753   1.384   3.400   0.312
 2285SOL    HW1 7754   1.364   3.329   0.244
 2285SOL    HW2 7755   1.334   3.483   0.289
 2286SOL     OW 7756   6.781   5.788   4.968
 2286SOL    HW1 7757   6.853   5.770   5.036
 2286SOL    HW2 7758   6.772   5.887   4.955
 2287SOL     OW 7759   2.493   2.885   1.562
 2287SOL    HW1 7760   2.467   2.890   1.466
 2287SOL    HW2 7761   2.411   2.871   1.618
 2288SOL     OW 7762   0.366   6.088   4.226
 2288SOL    HW1 7763   0.327   6.178   4.244
 2288SOL    HW2 7764   0.456   6.081   4.268
 2289SOL     OW 7765   5.779   3.172   1.675
 2289SOL    HW1 7766   5.861   3.136   1.719
 2289SOL    HW2 7767   5.706   3.182   1.743
 2290SOL     OW 7768   2.908   3.269   2.080
 2290SOL    HW1 7769   2.963   3.246   2.159
 2290SOL    HW2 7770   2.954   3.239   1.996
 2291SOL     OW 7771   2.247   2.116   0.978
 2291SOL    HW1 7772   2.158   2.127   0.934
 2291SOL    HW2 7773   2.248   2.030   1.029
 2292SOL     OW 7774   5.265   3.610   3.862
 2292SOL    HW1 7775   5.229   3.642   3.774
 2292SOL    HW2 7776   5.189   3.597   3.926
 2293SOL     OW 7777   6.013   1.279   0.420
 2293SOL    HW1 7778   5.981   1.188   0.392
 2293SOL    HW2 7779   5.955   1.349   0.378
 2294SOL     OW 7780   3.143   2.003   6.188
 2294SOL    HW1 7781   3.145   1.922   6.129
 2294SOL    HW2 7782   3.078   1.988   6.262
 2295SOL     OW 7783   6.647   0.708   2.387
 2295SOL    HW1 7784   6.616   0.794   2.427
 2295SOL    HW2 7785   6.610   0.699   2.295
 2296SOL     OW 7786   2.632   5.094   2.667
 2296SOL    HW1 7787   2.656   5.004   2.633
 2296SOL    HW2 7788   2.608   5.154   2.591
 2297SOL     OW 7789   4.432   4.815   5.654
 2297SOL    HW1 7790   4.506   4.868   5.614
 2297SOL    HW2 7791   4.444   4.809   5.754
 2298SOL     OW 7792   3.477   3.582   3.312
 2298SOL    HW1 7793   3.554   3.645   3.304
 2298SOL    HW2 7794   3.508   3.488   3.295
 2299SOL     OW 7795   4.808   3.967   5.044
 2299SOL    HW1 7796   4.829   4.058   5.078
 2299SOL    HW2 7797   4.711   3.962   5.018
 2300SOL     OW 7798   3.431   6.772   3.381
 2300SOL    HW1 7799   3.522   6.790   3.345
 2300SOL    HW2 7800   3.367   6.841   3.346
 2301SOL     OW 7801   3.521   3.010   4.047
 2301SOL    HW1 7802   3.432   2.967   4.027
 2301SOL    HW2 7803   3.508   3.085   4.111
 2302SOL     OW 7804   3.643   0.479   1.445
 2302SOL    HW1 7805   3.546   0.456   1.443
 2302SOL    HW2 7806   3.654   0.578   1.457
 2303SOL     OW 7807   2.358   2.975   1.330
 2303SOL    HW1 7808   2.332   3.051   1.391
 2303SOL    HW2 7809   2.277   2.925   1.302
 2304SOL     OW 7810   5.997   5.632   3.573
 2304SOL    HW1 7811   5.970   5.601   3.664
 2304SOL    HW2 7812   5.931   5.597   3.505
 2305SOL     OW 7813   1.855   0.299   3.992
 2305SOL    HW1 7814   1.858   0.398   4.008
 2305SOL    HW2 7815   1.769   0.262   4.028
 2306SOL     OW 7816   1.317   5.283   2.452
 2306SOL    HW1 7817   1.327   5.188   2.424
 2306SOL    HW2 7818   1.287   5.287   2.548
 2307SOL     OW 7819   0.880   3.242   5.206
 2307SOL    HW1 7820   0.979   3.260   5.203
 2307SOL    HW2 7821   0.842   3.279   5.290
 2308SOL     OW 7822   2.722   4.741   0.987
 2308SOL    HW1 7823   2.778   4.670   0.943
 2308SOL    HW2 7824   2.696   4.710   1.078
 2309SOL     OW 7825   1.528   0.473   3.891
 2309SOL    HW1 7826   1.509   0.513   3.801
 2309SOL    HW2 7827   1.616   0.506   3.924
 2310SOL     OW 7828   6.069   6.551   2.216
 2310SOL    HW1 7829   6.071   6.503   2.128
 2310SOL    HW2 7830   6.080   6.485   2.290
 2311SOL     OW 7831   2.187   5.783   6.465
 2311SOL    HW1 7832   2.142   5.781   6.376
 2311SOL    HW2 7833   2.131   5.837   6.529
 2312SOL     OW 7834   3.898   5.367   3.575
 2312SOL    HW1 7835   3.945   5.279   3.576
 2312SOL    HW2 7836   3.809   5.358   3.618
 2313SOL     OW 7837   5.054   4.968   2.051
 2313SOL    HW1 7838   5.146   4.965   2.010
 2313SOL    HW2 7839   4.992   4.913   1.996
 2314SOL     OW 7840   3.488   6.326   2.663
 2314SOL    HW1 7841   3.544   6.292   2.738
 2314SOL    HW2 7842   3.391   6.315   2.687
 2315SOL     OW 7843   5.331   3.713   5.832
 2315SOL    HW1 7844   5.321   3.810   5.809
 2315SOL    HW2 7845   5.425   3.684   5.812
 2316SOL     OW 7846   5.109   1.921   3.678
 2316SOL    HW1 7847   5.204   1.891   3.675
 2316SOL    HW2 7848   5.105   2.020   3.689
 2317SOL     OW 7849   0.762   5.041   2.851
 2317SOL    HW1 7850   0.799   5.128   2.883
 2317SOL    HW2 7851   0.766   5.038   2.751
 2318SOL     OW 7852   6.986   2.593   3.813
 2318SOL    HW1 7853   0.030   2.653   3.781
 2318SOL    HW2 7854   6.942   2.548   3.734
 2319SOL     OW 7855   1.787   4.311   4.951
 2319SOL    HW1 7856   1.828   4.391   4.995
 2319SOL    HW2 7857   1.768   4.332   4.855
 2320SOL     OW 7858   6.855   2.671   4.557
 2320SOL    HW1 7859   6.910   2.621   4.623
 2320SOL    HW2 7860   6.913   2.704   4.483
 2321SOL     OW 7861   3.912   0.846   5.245
 2321SOL    HW1 7862   3.837   0.783   5.264
 2321SOL    HW2 7863   3.877   0.928   5.201
 2322SOL     OW 7864   2.399   1.796   5.599
 2322SOL    HW1 7865   2.422   1.890   5.575
 2322SOL    HW2 7866   2.398   1.787   5.699
 2323SOL     OW 7867   3.209   5.355   3.103
 2323SOL    HW1 7868   3.237   5.316   3.191
 2323SOL    HW2 7869   3.112   5.338   3.088
 2324SOL     OW 7870   0.469   6.006   2.795
 2324SOL    HW1 7871   0.465   6.063   2.877
 2324SOL    HW2 7872   0.554   5.954   2.795
 2325SOL     OW 7873   1.111   3.897   1.744
 2325SOL    HW1 7874   1.034   3.940   1.790
 2325SOL    HW2 7875   1.163   3.842   1.810
 2326SOL     OW 7876   2.313   3.876   6.097
 2326SOL    HW1 7877   2.309   3.892   5.998
 2326SOL    HW2 7878   2.407   3.853   6.123
 2327SOL     OW 7879   4.706   2.793   4.628
 2327SOL    HW1 7880   4.695   2.788   4.529
 2327SOL    HW2 7881   4.741   2.705   4.662
 2328SOL     OW 7882   5.218   0.939   3.736
 2328SOL    HW1 7883   5.141   0.998   3.710
 2328SOL    HW2 7884   5.190   0.843   3.730
 2329SOL     OW 7885   1.475   5.136   4.239
 2329SOL    HW1 7886   1.444   5.217   4.190
 2329SOL    HW2 7887   1.546   5.161   4.304
 2330SOL     OW 7888   7.027   4.818   1.748
 2330SOL    HW1 7889   6.984   4.907   1.763
 2330SOL    HW2 7890   0.069   4.826   1.678
 2331SOL     OW 7891   6.872   4.497   6.002
 2331SOL    HW1 7892   6.837   4.570   5.944
 2331SOL    HW2 7893   6.871   4.411   5.951
 2332SOL     OW 7894   5.114   2.101   5.799
 2332SOL    HW1 7895   5.059   2.018   5.786
 2332SOL    HW2 7896   5.188   2.103   5.731
 2333SOL     OW 7897   0.512   5.030   2.623
 2333SOL    HW1 7898   0.555   5.065   2.540
 2333SOL    HW2 7899   0.489   4.934   2.611
 2334SOL     OW 7900   3.255   0.076   6.984
 2334SOL    HW1 7901   3.313   0.099   0.033
 2334SOL    HW2 7902   3.188   0.007   7.012
 2335SOL     OW 7903   6.236   1.143   3.057
 2335SOL    HW1 7904   6.151   1.096   3.037
 2335SOL    HW2 7905   6.280   1.103   3.137
 2336SOL     OW 7906   4.622   1.230   5.509
 2336SOL    HW1 7907   4.656   1.323   5.524
 2336SOL    HW2 7908   4.525   1.234   5.484
 2337SOL     OW 7909   5.195   0.435   3.078
 2337SOL    HW1 7910   5.186   0.442   2.978
 2337SOL    HW2 7911   5.280   0.478   3.108
 2338SOL     OW 7912   0.588   6.967   0.168
 2338SOL    HW1 7913   0.637   0.020   0.139
 2338SOL    HW2 7914   0.499   6.963   0.123
 2339SOL     OW 7915   3.387   3.359   5.654
 2339SOL    HW1 7916   3.452   3.331   5.584
 2339SOL    HW2 7917   3.317   3.288   5.666
 2340SOL     OW 7918   3.792   6.621   5.316
 2340SOL    HW1 7919   3.890   6.637   5.301
 2340SOL    HW2 7920   3.778   6.529   5.353
 2341SOL     OW 7921   5.255   4.367   0.490
 2341SOL    HW1 7922   5.173   4.363   0.433
 2341SOL    HW2 7923   5.335   4.347   0.434
 2342SOL     OW 7924   0.604   6.750   5.563
 2342SOL    HW1 7925   0.667   6.724   5.636
 2342SOL    HW2 7926   0.545   6.824   5.594
 2343SOL     OW 7927   1.599   6.696   1.134
 2343SOL    HW1 7928   1.551   6.632   1.073
 2343SOL    HW2 7929   1.692   6.709   1.101
 2344SOL     OW 7930   2.732   1.861   2.613
 2344SOL    HW1 7931   2.639   1.871   2.647
 2344SOL    HW2 7932   2.750   1.931   2.544
 2345SOL     OW 7933   1.550   0.041   5.334
 2345SOL    HW1 7934   1.504   0.108   5.393
 2345SOL    HW2 7935   1.505   6.981   5.344
 2346SOL     OW 7936   4.936   2.693   4.994
 2346SOL    HW1 7937   4.950   2.776   5.048
 2346SOL    HW2 7938   4.841   2.663   5.001
 2347SOL     OW 7939   1.789   4.120   1.723
 2347SOL    HW1 7940   1.768   4.028   1.755
 2347SOL    HW2 7941   1.849   4.166   1.788
 2348SOL     OW 7942   2.272   6.692   3.400
 2348SOL    HW1 7943   2.243   6.597   3.387
 2348SOL    HW2 7944   2.198   6.744   3.444
 2349SOL     OW 7945   0.277   6.115   6.192
 2349SOL    HW1 7946   0.237   6.170   6.265
 2349SOL    HW2 7947   0.257   6.158   6.104
 2350SOL     OW 7948   3.264   0.630   5.833
 2350SOL    HW1 7949   3.358   0.605   5.857
 2350SOL    HW2 7950   3.206   0.549   5.839
 2351SOL     OW 7951   2.853   5.093   3.606
 2351SOL    HW1 7952   2.952   5.078   3.607
 2351SOL    HW2 7953   2.828   5.155   3.679
 2352SOL     OW 7954   6.200   4.014   3.576
 2352SOL    HW1 7955   6.298   4.023   3.593
 2352SOL    HW2 7956   6.151   4.091   3.616
 2353SOL     OW 7957   2.438   4.075   5.440
 2353SOL    HW1 7958   2.454   4.045   5.346
 2353SOL    HW2 7959   2.442   3.996   5.501
 2354SOL     OW 7960   3.451   2.531   6.919
 2354SOL    HW1 7961   3.466   2.620   6.964
 2354SOL    HW2 7962   3.536   2.502   6.875
 2355SOL     OW 7963   1.275   6.659   0.789
 2355SOL    HW1 7964   1.309   6.735   0.845
 2355SOL    HW2 7965   1.198   6.616   0.834
 2356SOL     OW 7966   2.077   4.530   1.928
 2356SOL    HW1 7967   2.068   4.567   2.020
 2356SOL    HW2 7968   1.991   4.490   1.899
 2357SOL     OW 7969   5.222   4.770   3.923
 2357SOL    HW1 7970   5.167   4.786   4.005
 2357SOL    HW2 7971   5.174   4.806   3.843
 2358SOL     OW 7972   3.040   6.974   3.963
 2358SOL    HW1 7973   3.005   0.037   3.947
 2358SOL    HW2 7974   3.119   6.978   4.025
 2359SOL     OW 7975   2.707   1.287   6.009
 2359SOL    HW1 7976   2.733   1.379   5.981
 2359SOL    HW2 7977   2.628   1.292   6.070
 2360SOL     OW 7978   3.909   4.872   0.044
 2360SOL    HW1 7979   4.003   4.895   0.067
 2360SOL    HW2 7980   3.894   4.886   6.975
 2361SOL     OW 7981   2.796   0.066   3.367
 2361SOL    HW1 7982   2.834   0.117   3.291
 2361SOL    HW2 7983   2.755   7.010   3.334
 2362SOL     OW 7984   4.685   5.917   5.170
 2362SOL    HW1 7985   4.745   5.845   5.136
 2362SOL    HW2 7986   4.723   6.007   5.147
 2363SOL     OW 7987   4.303   2.009   5.311
 2363SOL    HW1 7988   4.247   2.060   5.245
 2363SOL    HW2 7989   4.293   2.050   5.401
 2364SOL     OW 7990   5.637   2.026   1.774
 2364SOL    HW1 7991   5.566   2.075   1.825
 2364SOL    HW2 7992   5.595   1.952   1.721
 2365SOL     OW 7993   6.378   4.454   4.916
 2365SOL    HW1 7994   6.283   4.449   4.946
 2365SOL    HW2 7995   6.436   4.480   4.993
 2366SOL     OW 7996   1.514   4.287   5.354
 2366SOL    HW1 7997   1.494   4.289   5.256
 2366SOL    HW2 7998   1.606   4.251   5.368
 2367SOL     OW 7999   0.761   3.424   5.382
 2367SOL    HW1 8000   0.806   3.510   5.407
 2367SOL    HW2 8001   0.688   3.442   5.316
 2368SOL     OW 8002   4.315   0.868   4.906
 2368SOL    HW1 8003   4.241   0.897   4.967
 2368SOL    HW2 8004   4.317   0.927   4.825
 2369SOL     OW 8005   3.081   2.047   3.451
 2369SOL    HW1 8006   3.045   2.067   3.542
 2369SOL    HW2 8007   3.163   1.990   3.459
 2370SOL     OW 8008   4.418   2.724   0.469
 2370SOL    HW1 8009   4.513   2.748   0.447
 2370SOL    HW2 8010   4.376   2.800   0.520
 2371SOL     OW 8011   1.011   6.513   2.814
 2371SOL    HW1 8012   1.097   6.498   2.863
 2371SOL    HW2 8013   0.948   6.564   2.872
 2372SOL     OW 8014   0.022   0.758   6.735
 2372SOL    HW1 8015   0.080   0.788   6.660
 2372SOL    HW2 8016   0.072   0.693   6.792
 2373SOL     OW 8017   6.188   0.738   6.394
 2373SOL    HW1 8018   6.188   0.828   6.437
 2373SOL    HW2 8019   6.274   0.725   6.344
 2374SOL     OW 8020   5.832   5.675   2.966
 2374SOL    HW1 8021   5.874   5.762   2.991
 2374SOL    HW2 8022   5.735   5.677   2.990
 2375SOL     OW 8023   0.566   0.503   3.702
 2375SOL    HW1 8024   0.589   0.443   3.626
 2375SOL    HW2 8025   0.520   0.451   3.774
 2376SOL     OW 8026   6.461   2.486   3.350
 2376SOL    HW1 8027   6.424   2.566   3.302
 2376SOL    HW2 8028   6.411   2.473   3.436
 2377SOL     OW 8029   3.259   4.190   6.017
 2377SOL    HW1 8030   3.266   4.252   5.938
 2377SOL    HW2 8031   3.163   4.167   6.033
 2378SOL     OW 8032   5.578   2.104   0.016
 2378SOL    HW1 8033   5.575   2.004   0.015
 2378SOL    HW2 8034   5.625   2.136   6.962
 2379SOL     OW 8035   6.736   4.453   0.031
 2379SOL    HW1 8036   6.723   4.430   0.127
 2379SOL    HW2 8037   6.809   4.396   7.021
 2380SOL     OW 8038   6.233   1.555   5.194
 2380SOL    HW1 8039   6.208   1.544   5.098
 2380SOL    HW2 8040   6.180   1.630   5.234
 2381SOL     OW 8041   2.336   5.035   4.960
 2381SOL    HW1 8042   2.347   4.953   4.905
 2381SOL    HW2 8043   2.343   5.011   5.057
 2382SOL     OW 8044   1.736   6.261   2.896
 2382SOL    HW1 8045   1.828   6.247   2.859
 2382SOL    HW2 8046   1.683   6.177   2.885
 2383SOL     OW 8047   5.246   5.436   5.637
 2383SOL    HW1 8048   5.155   5.445   5.679
 2383SOL    HW2 8049   5.288   5.351   5.668
 2384SOL     OW 8050   1.356   2.152   1.308
 2384SOL    HW1 8051   1.273   2.131   1.255
 2384SOL    HW2 8052   1.348   2.114   1.400
 2385SOL     OW 8053   0.835   1.663   0.226
 2385SOL    HW1 8054   0.842   1.617   0.314
 2385SOL    HW2 8055   0.739   1.673   0.200
 2386SOL     OW 8056   3.338   4.934   4.838
 2386SOL    HW1 8057   3.383   4.902   4.755
 2386SOL    HW2 8058   3.246   4.897   4.844
 2387SOL     OW 8059   6.653   3.505   3.891
 2387SOL    HW1 8060   6.625   3.409   3.888
 2387SOL    HW2 8061   6.745   3.514   3.853
 2388SOL     OW 8062   0.259   1.343   5.688
 2388SOL    HW1 8063   0.226   1.328   5.781
 2388SOL    HW2 8064   0.240   1.437   5.660
 2389SOL     OW 8065   5.037   4.629   4.106
 2389SOL    HW1 8066   5.080   4.554   4.056
 2389SOL    HW2 8067   5.005   4.595   4.195
 2390SOL     OW 8068   3.542   3.518   5.249
 2390SOL    HW1 8069   3.635   3.521   5.286
 2390SOL    HW2 8070   3.485   3.585   5.297
 2391SOL     OW 8071   3.704   3.931   6.194
 2391SOL    HW1 8072   3.618   3.974   6.170
 2391SOL    HW2 8073   3.728   3.955   6.288
 2392SOL     OW 8074   3.087   4.108   6.665
 2392SOL    HW1 8075   3.137   4.032   6.625
 2392SOL    HW2 8076   3.104   4.111   6.764
 2393SOL     OW 8077   3.959   5.575   1.151
 2393SOL    HW1 8078   4.009   5.492   1.126
 2393SOL    HW2 8079   3.864   5.551   1.173
 2394SOL     OW 8080   0.497   3.748   3.834
 2394SOL    HW1 8081   0.481   3.715   3.927
 2394SOL    HW2 8082   0.409   3.765   3.789
 2395SOL     OW 8083   0.089   3.029   7.026
 2395SOL    HW1 8084   0.020   3.052   0.066
 2395SOL    HW2 8085   0.051   3.045   6.934
 2396SOL     OW 8086   5.314   0.283   0.381
 2396SOL    HW1 8087   5.240   0.237   0.430
 2396SOL    HW2 8088   5.348   0.359   0.436
 2397SOL     OW 8089   6.819   4.704   7.016
 2397SOL    HW1 8090   6.764   4.766   0.043
 2397SOL    HW2 8091   6.778   4.613   7.018
 2398SOL     OW 8092   2.841   5.091   4.503
 2398SOL    HW1 8093   2.804   5.171   4.550
 2398SOL    HW2 8094   2.937   5.079   4.526
 2399SOL     OW 8095   3.698   2.148   3.910
 2399SOL    HW1 8096   3.671   2.116   4.001
 2399SOL    HW2 8097   3.621   2.135   3.846
 2400SOL     OW 8098   1.805   3.315   0.413
 2400SOL    HW1 8099   1.779   3.357   0.500
 2400SOL    HW2 8100   1.785   3.217   0.416
 2401SOL     OW 8101   3.380   0.039   3.686
 2401SOL    HW1 8102   3.377   0.114   3.753
 2401SOL    HW2 8103   3.468   0.040   3.639
 2402SOL     OW 8104   6.781   1.866   3.688
 2402SOL    HW1 8105   6.762   1.808   3.609
 2402SOL    HW2 8106   6.785   1.810   3.771
 2403SOL     OW 8107   3.757   3.550   1.072
 2403SOL    HW1 8108   3.769   3.642   1.111
 2403SOL    HW2 8109   3.836   3.494   1.095
 2404SOL     OW 8110   5.822   1.719   1.381
 2404SOL    HW1 8111   5.867   1.630   1.379
 2404SOL    HW2 8112   5.841   1.764   1.469
 2405SOL     OW 8113   3.092   5.119   5.825
 2405SOL    HW1 8114   3.108   5.027   5.790
 2405SOL    HW2 8115   3.003   5.124   5.870
 2406SOL     OW 8116   2.597   0.142   3.872
 2406SOL    HW1 8117   2.618   0.161   3.776
 2406SOL    HW2 8118   2.607   0.044   3.890
 2407SOL     OW 8119   4.473   2.227   2.980
 2407SOL    HW1 8120   4.492   2.154   2.915
 2407SOL    HW2 8121   4.508   2.314   2.944
 2408SOL     OW 8122   2.201   5.464   2.929
 2408SOL    HW1 8123   2.177   5.460   2.832
 2408SOL    HW2 8124   2.301   5.468   2.939
 2409SOL     OW 8125   2.603   3.029   0.642
 2409SOL    HW1 8126   2.644   3.021   0.733
 2409SOL    HW2 8127   2.659   3.090   0.585
 2410SOL     OW 8128   6.246   3.278   5.867
 2410SOL    HW1 8129   6.259   3.217   5.788
 2410SOL    HW2 8130   6.299   3.362   5.853
 2411SOL     OW 8131   2.662   3.949   5.868
 2411SOL    HW1 8132   2.648   3.856   5.903
 2411SOL    HW2 8133   2.627   3.955   5.775
 2412SOL     OW 8134   2.454   2.813   0.685
 2412SOL    HW1 8135   2.516   2.881   0.645
 2412SOL    HW2 8136   2.377   2.798   0.623
 2413SOL     OW 8137   5.653   3.475   6.646
 2413SOL    HW1 8138   5.582   3.445   6.583
 2413SOL    HW2 8139   5.728   3.409   6.645
 2414SOL     OW 8140   5.911   2.858   3.783
 2414SOL    HW1 8141   5.871   2.859   3.875
 2414SOL    HW2 8142   5.878   2.938   3.732
 2415SOL     OW 8143   2.320   0.151   1.101
 2415SOL    HW1 8144   2.238   0.096   1.086
 2415SOL    HW2 8145   2.340   0.204   1.019
 2416SOL     OW 8146   1.266   3.017   3.787
 2416SOL    HW1 8147   1.188   2.957   3.808
 2416SOL    HW2 8148   1.281   3.081   3.862
 2417SOL     OW 8149   4.740   1.840   6.717
 2417SOL    HW1 8150   4.825   1.789   6.727
 2417SOL    HW2 8151   4.699   1.854   6.808
 2418SOL     OW 8152   3.776   3.799   4.782
 2418SOL    HW1 8153   3.872   3.792   4.755
 2418SOL    HW2 8154   3.753   3.722   4.842
 2419SOL     OW 8155   1.978   6.776   4.516
 2419SOL    HW1 8156   1.919   6.732   4.584
 2419SOL    HW2 8157   1.938   6.765   4.425
 2420SOL     OW 8158   3.435   5.833   1.873
 2420SOL    HW1 8159   3.433   5.750   1.927
 2420SOL    HW2 8160   3.523   5.841   1.827
 2421SOL     OW 8161   3.887   6.824   4.109
 2421SOL    HW1 8162   3.921   6.761   4.040
 2421SOL    HW2 8163   3.866   6.912   4.067
 2422SOL     OW 8164   3.919   0.140   1.168
 2422SOL    HW1 8165   3.887   0.079   1.241
 2422SOL    HW2 8166   3.903   0.097   1.079
 2423SOL     OW 8167   1.550   5.456   1.170
 2423SOL    HW1 8168   1.507   5.542   1.142
 2423SOL    HW2 8169   1.554   5.394   1.092
 2424SOL     OW 8170   5.838   6.548   7.027
 2424SOL    HW1 8171   5.816   6.465   6.976
 2424SOL    HW2 8172   5.764   6.615   7.015
 2425SOL     OW 8173   4.893   6.294   5.802
 2425SOL    HW1 8174   4.897   6.393   5.792
 2425SOL    HW2 8175   4.904   6.270   5.898
 2426SOL     OW 8176   1.289   4.976   4.050
 2426SOL    HW1 8177   1.221   5.015   4.112
 2426SOL    HW2 8178   1.379   4.976   4.094
 2427SOL     OW 8179   5.222   5.586   6.948
 2427SOL    HW1 8180   5.156   5.618   7.016
 2427SOL    HW2 8181   5.296   5.653   6.939
 2428SOL     OW 8182   0.240   0.642   2.776
 2428SOL    HW1 8183   0.285   0.632   2.688
 2428SOL    HW2 8184   0.289   0.710   2.831
 2429SOL     OW 8185   5.794   4.707   2.770
 2429SOL    HW1 8186   5.876   4.693   2.714
 2429SOL    HW2 8187   5.801   4.653   2.854
 2430SOL     OW 8188   5.382   2.254   0.150
 2430SOL    HW1 8189   5.446   2.190   0.108
 2430SOL    HW2 8190   5.311   2.279   0.083
 2431SOL     OW 8191   5.037   1.471   1.240
 2431SOL    HW1 8192   5.051   1.563   1.204
 2431SOL    HW2 8193   5.008   1.476   1.336
 2432SOL     OW 8194   3.138   6.480   1.559
 2432SOL    HW1 8195   3.230   6.441   1.565
 2432SOL    HW2 8196   3.073   6.419   1.604
 2433SOL     OW 8197   1.271   6.842   0.325
 2433SOL    HW1 8198   1.176   6.840   0.356
 2433SOL    HW2 8199   1.331   6.813   0.399
 2434SOL     OW 8200   5.315   1.761   2.475
 2434SOL    HW1 8201   5.226   1.761   2.430
 2434SOL    HW2 8202   5.303   1.745   2.573
 2435SOL     OW 8203   5.830   5.208   6.931
 2435SOL    HW1 8204   5.902   5.219   7.000
 2435SOL    HW2 8205   5.862   5.246   6.844
 2436SOL     OW 8206   1.536   0.768   1.375
 2436SOL    HW1 8207   1.518   0.795   1.470
 2436SOL    HW2 8208   1.635   0.763   1.360
 2437SOL     OW 8209   5.380   6.604   1.025
 2437SOL    HW1 8210   5.453   6.572   1.085
 2437SOL    HW2 8211   5.412   6.684   0.973
 2438SOL     OW 8212   4.227   1.469   4.473
 2438SOL    HW1 8213   4.254   1.565   4.472
 2438SOL    HW2 8214   4.231   1.433   4.380
 2439SOL     OW 8215   0.551   4.951   0.684
 2439SOL    HW1 8216   0.572   4.873   0.625
 2439SOL    HW2 8217   0.544   5.034   0.628
 2440SOL     OW 8218   3.550   0.109   6.196
 2440SOL    HW1 8219   3.547   0.081   6.100
 2440SOL    HW2 8220   3.638   0.153   6.214
 2441SOL     OW 8221   5.875   1.316   0.087
 2441SOL    HW1 8222   5.974   1.303   0.095
 2441SOL    HW2 8223   5.830   1.227   0.084
 2442SOL     OW 8224   5.571   5.019   2.944
 2442SOL    HW1 8225   5.564   5.117   2.961
 2442SOL    HW2 8226   5.560   5.001   2.846
 2443SOL     OW 8227   2.589   0.825   0.274
 2443SOL    HW1 8228   2.550   0.814   0.366
 2443SOL    HW2 8229   2.549   0.907   0.231
 2444SOL     OW 8230   3.952   4.761   0.397
 2444SOL    HW1 8231   3.968   4.747   0.495
 2444SOL    HW2 8232   3.889   4.838   0.384
 2445SOL     OW 8233   5.552   1.302   1.879
 2445SOL    HW1 8234   5.470   1.301   1.822
 2445SOL    HW2 8235   5.526   1.318   1.974
 2446SOL     OW 8236   1.021   2.917   3.912
 2446SOL    HW1 8237   0.933   2.883   3.945
 2446SOL    HW2 8238   1.091   2.902   3.981
 2447SOL     OW 8239   2.461   0.889   0.925
 2447SOL    HW1 8240   2.396   0.891   0.848
 2447SOL    HW2 8241   2.449   0.804   0.977
 2448SOL     OW 8242   6.190   1.337   4.122
 2448SOL    HW1 8243   6.176   1.417   4.063
 2448SOL    HW2 8244   6.283   1.340   4.159
 2449SOL     OW 8245   1.664   3.573   1.489
 2449SOL    HW1 8246   1.615   3.659   1.482
 2449SOL    HW2 8247   1.613   3.510   1.548
 2450SOL     OW 8248   2.926   5.250   6.511
 2450SOL    HW1 8249   2.900   5.330   6.457
 2450SOL    HW2 8250   2.845   5.193   6.526
 2451SOL     OW 8251   1.415   0.534   3.242
 2451SOL    HW1 8252   1.479   0.550   3.317
 2451SOL    HW2 8253   1.466   0.516   3.158
 2452SOL     OW 8254   2.796   1.935   4.180
 2452SOL    HW1 8255   2.815   1.919   4.277
 2452SOL    HW2 8256   2.792   2.033   4.163
 2453SOL     OW 8257   0.275   3.011   0.336
 2453SOL    HW1 8258   0.356   3.050   0.292
 2453SOL    HW2 8259   0.260   2.919   0.301
 2454SOL     OW 8260   2.952   6.389   0.172
 2454SOL    HW1 8261   3.027   6.324   0.181
 2454SOL    HW2 8262   2.934   6.407   0.076
 2455SOL     OW 8263   4.213   1.031   0.619
 2455SOL    HW1 8264   4.299   1.075   0.592
 2455SOL    HW2 8265   4.167   0.995   0.538
 2456SOL     OW 8266   0.277   2.625   6.604
 2456SOL    HW1 8267   0.298   2.633   6.702
 2456SOL    HW2 8268   0.196   2.679   6.582
 2457SOL     OW 8269   6.391   1.011   6.501
 2457SOL    HW1 8270   6.294   1.014   6.525
 2457SOL    HW2 8271   6.415   1.096   6.453
 2458SOL     OW 8272   1.763   6.331   3.867
 2458SOL    HW1 8273   1.853   6.375   3.865
 2458SOL    HW2 8274   1.696   6.391   3.822
 2459SOL     OW 8275   2.783   6.681   5.587
 2459SOL    HW1 8276   2.839   6.612   5.541
 2459SOL    HW2 8277   2.821   6.772   5.569
 2460SOL     OW 8278   1.307   1.448   0.632
 2460SOL    HW1 8279   1.327   1.350   0.622
 2460SOL    HW2 8280   1.330   1.496   0.548
 2461SOL     OW 8281   5.341   0.567   4.061
 2461SOL    HW1 8282   5.332   0.519   4.149
 2461SOL    HW2 8283   5.373   0.504   3.991
 2462SOL     OW 8284   1.830   4.832   6.750
 2462SOL    HW1 8285   1.746   4.855   6.702
 2462SOL    HW2 8286   1.810   4.765   6.822
 2463SOL     OW 8287   5.803   2.113   6.875
 2463SOL    HW1 8288   5.833   2.164   6.955
 2463SOL    HW2 8289   5.801   2.015   6.897
 2464SOL     OW 8290   2.087   3.203   2.879
 2464SOL    HW1 8291   2.114   3.247   2.964
 2464SOL    HW2 8292   2.128   3.112   2.874
 2465SOL     OW 8293   1.061   6.643   6.284
 2465SOL    HW1 8294   0.973   6.615   6.245
 2465SOL    HW2 8295   1.105   6.711   6.224
 2466SOL     OW 8296   2.215   1.739   2.878
 2466SOL    HW1 8297   2.123   1.701   2.874
 2466SOL    HW2 8298   2.222   1.816   2.814
 2467SOL     OW 8299   5.102   1.677   5.167
 2467SOL    HW1 8300   5.117   1.617   5.089
 2467SOL    HW2 8301   5.004   1.695   5.178
 2468SOL     OW 8302   4.185   0.089   1.154
 2468SOL    HW1 8303   4.195   7.020   1.137
 2468SOL    HW2 8304   4.088   0.114   1.146
 2469SOL     OW 8305   4.043   3.513   4.630
 2469SOL    HW1 8306   4.050   3.569   4.713
 2469SOL    HW2 8307   4.086   3.424   4.646
 2470SOL     OW 8308   4.121   4.300   5.701
 2470SOL    HW1 8309   4.180   4.366   5.747
 2470SOL    HW2 8310   4.177   4.228   5.659
 2471SOL     OW 8311   2.953   6.122   0.485
 2471SOL    HW1 8312   2.961   6.222   0.479
 2471SOL    HW2 8313   3.037   6.080   0.452
 2472SOL     OW 8314   5.236   2.216   3.371
 2472SOL    HW1 8315   5.177   2.213   3.290
 2472SOL    HW2 8316   5.180   2.205   3.453
 2473SOL     OW 8317   0.881   3.634   4.522
 2473SOL    HW1 8318   0.883   3.715   4.464
 2473SOL    HW2 8319   0.906   3.554   4.468
 2474SOL     OW 8320   0.157   5.719   1.620
 2474SOL    HW1 8321   0.204   5.750   1.702
 2474SOL    HW2 8322   0.058   5.719   1.636
 2475SOL     OW 8323   4.043   1.059   2.519
 2475SOL    HW1 8324   4.106   1.126   2.558
 2475SOL    HW2 8325   3.961   1.106   2.486
 2476SOL     OW 8326   6.134   1.301   2.441
 2476SOL    HW1 8327   6.126   1.333   2.347
 2476SOL    HW2 8328   6.182   1.213   2.443
 2477SOL     OW 8329   4.441   1.324   2.983
 2477SOL    HW1 8330   4.357   1.376   3.001
 2477SOL    HW2 8331   4.521   1.382   3.003
 2478SOL     OW 8332   6.231   1.621   1.243
 2478SOL    HW1 8333   6.315   1.653   1.199
 2478SOL    HW2 8334   6.245   1.618   1.342
 2479SOL     OW 8335   0.914   2.777   2.391
 2479SOL    HW1 8336   0.993   2.730   2.352
 2479SOL    HW2 8337   0.945   2.848   2.454
 2480SOL     OW 8338   4.714   4.312   0.947
 2480SOL    HW1 8339   4.774   4.373   0.895
 2480SOL    HW2 8340   4.762   4.226   0.965
 2481SOL     OW 8341   3.973   6.507   0.435
 2481SOL    HW1 8342   3.981   6.536   0.530
 2481SOL    HW2 8343   3.954   6.408   0.431
 2482SOL     OW 8344   5.338   3.700   5.491
 2482SOL    HW1 8345   5.432   3.732   5.501
 2482SOL    HW2 8346   5.312   3.646   5.571
 2483SOL     OW 8347   1.960   1.648   0.423
 2483SOL    HW1 8348   2.023   1.669   0.498
 2483SOL    HW2 8349   1.986   1.701   0.342
 2484SOL     OW 8350   3.951   0.584   6.987
 2484SOL    HW1 8351   4.015   0.543   6.923
 2484SOL    HW2 8352   3.983   0.571   0.052
 2485SOL     OW 8353   5.973   3.830   1.477
 2485SOL    HW1 8354   5.898   3.823   1.543
 2485SOL    HW2 8355   6.000   3.926   1.467
 2486SOL     OW 8356   2.260   4.721   5.178
 2486SOL    HW1 8357   2.326   4.697   5.107
 2486SOL    HW2 8358   2.212   4.638   5.208
 2487SOL     OW 8359   4.284   6.102   0.180
 2487SOL    HW1 8360   4.316   6.124   0.272
 2487SOL    HW2 8361   4.333   6.021   0.146
 2488SOL     OW 8362   1.305   4.594   2.176
 2488SOL    HW1 8363   1.267   4.617   2.266
 2488SOL    HW2 8364   1.386   4.537   2.188
 2489SOL     OW 8365   1.309   6.880   3.631
 2489SOL    HW1 8366   1.225   6.829   3.654
 2489SOL    HW2 8367   1.340   6.930   3.712
 2490SOL     OW 8368   6.966   5.587   1.151
 2490SOL    HW1 8369   6.880   5.538   1.163
 2490SOL    HW2 8370   7.021   5.580   1.234
 2491SOL     OW 8371   2.306   4.574   0.378
 2491SOL    HW1 8372   2.245   4.577   0.457
 2491SOL    HW2 8373   2.401   4.571   0.409
 2492SOL     OW 8374   4.741   3.627   0.868
 2492SOL    HW1 8375   4.644   3.614   0.885
 2492SOL    HW2 8376   4.770   3.572   0.790
 2493SOL     OW 8377   5.762   0.245   2.171
 2493SOL    HW1 8378   5.838   0.306   2.193
 2493SOL    HW2 8379   5.792   0.175   2.107
 2494SOL     OW 8380   5.435   4.707   2.927
 2494SOL    HW1 8381   5.417   4.779   2.995
 2494SOL    HW2 8382   5.353   4.651   2.915
 2495SOL     OW 8383   5.230   6.784   4.232
 2495SOL    HW1 8384   5.177   6.866   4.256
 2495SOL    HW2 8385   5.301   6.770   4.301
 2496SOL     OW 8386   6.974   2.847   5.909
 2496SOL    HW1 8387   6.913   2.927   5.913
 2496SOL    HW2 8388   6.952   2.793   5.828
 2497SOL     OW 8389   0.475   0.547   0.592
 2497SOL    HW1 8390   0.484   0.566   0.494
 2497SOL    HW2 8391   0.563   0.515   0.627
 2498SOL     OW 8392   2.898   1.900   4.442
 2498SOL    HW1 8393   2.911   1.922   4.538
 2498SOL    HW2 8394   2.913   1.803   4.426
 2499SOL     OW 8395   6.373   2.460   1.966
 2499SOL    HW1 8396   6.387   2.559   1.967
 2499SOL    HW2 8397   6.275   2.441   1.969
 2500SOL     OW 8398   4.540   3.904   6.497
 2500SOL    HW1 8399   4.474   3.979   6.503
 2500SOL    HW2 8400   4.492   3.817   6.503
 2501SOL     OW 8401   5.939   5.109   0.639
 2501SOL    HW1 8402   5.865   5.047   0.663
 2501SOL    HW2 8403   5.902   5.188   0.590
 2502SOL     OW 8404   1.079   6.830   3.301
 2502SOL    HW1 8405   1.111   6.759   3.364
 2502SOL    HW2 8406   0.998   6.875   3.339
 2503SOL     OW 8407   2.547   5.858   4.321
 2503SOL    HW1 8408   2.579   5.951   4.336
 2503SOL    HW2 8409   2.617   5.793   4.351
 2504SOL     OW 8410   3.452   5.289   4.538
 2504SOL    HW1 8411   3.408   5.310   4.626
 2504SOL    HW2 8412   3.548   5.315   4.542
 2505SOL     OW 8413   0.773   6.478   3.030
 2505SOL    HW1 8414   0.781   6.389   3.075
 2505SOL    HW2 8415   0.725   6.541   3.090
 2506SOL     OW 8416   5.625   4.036   5.766
 2506SOL    HW1 8417   5.575   4.053   5.851
 2506SOL    HW2 8418   5.714   3.994   5.788
 2507SOL     OW 8419   0.117   3.770   0.634
 2507SOL    HW1 8420   0.100   3.764   0.733
 2507SOL    HW2 8421   0.211   3.798   0.618
 2508SOL     OW 8422   2.388   1.696   3.453
 2508SOL    HW1 8423   2.472   1.748   3.468
 2508SOL    HW2 8424   2.383   1.668   3.357
 2509SOL     OW 8425   0.112   3.662   0.902
 2509SOL    HW1 8426   0.046   3.590   0.878
 2509SOL    HW2 8427   0.203   3.622   0.909
 2510SOL     OW 8428   2.693   4.626   1.251
 2510SOL    HW1 8429   2.706   4.527   1.245
 2510SOL    HW2 8430   2.726   4.658   1.339
 2511SOL     OW 8431   3.856   2.168   4.715
 2511SOL    HW1 8432   3.766   2.127   4.696
 2511SOL    HW2 8433   3.876   2.160   4.813
 2512SOL     OW 8434   5.229   3.740   4.984
 2512SOL    HW1 8435   5.235   3.644   5.010
 2512SOL    HW2 8436   5.143   3.779   5.018
 2513SOL     OW 8437   1.939   4.337   5.460
 2513SOL    HW1 8438   2.032   4.317   5.489
 2513SOL    HW2 8439   1.887   4.251   5.453
 2514SOL     OW 8440   6.652   3.022   4.940
 2514SOL    HW1 8441   6.635   3.060   5.031
 2514SOL    HW2 8442   6.566   2.992   4.900
 2515SOL     OW 8443   1.604   6.860   0.771
 2515SOL    HW1 8444   1.667   6.937   0.755
 2515SOL    HW2 8445   1.570   6.864   0.865
 2516SOL     OW 8446   5.911   1.606   2.307
 2516SOL    HW1 8447   6.009   1.604   2.289
 2516SOL    HW2 8448   5.863   1.640   2.226
 2517SOL     OW 8449   1.227   6.244   5.648
 2517SOL    HW1 8450   1.144   6.231   5.593
 2517SOL    HW2 8451   1.273   6.157   5.660
 2518SOL     OW 8452   1.086   4.367   6.870
 2518SOL    HW1 8453   1.143   4.378   6.789
 2518SOL    HW2 8454   1.070   4.456   6.912
 2519SOL     OW 8455   3.965   6.520   3.039
 2519SOL    HW1 8456   3.880   6.510   3.090
 2519SOL    HW2 8457   4.042   6.521   3.102
 2520SOL     OW 8458   3.015   2.055   0.469
 2520SOL    HW1 8459   2.991   1.963   0.501
 2520SOL    HW2 8460   2.959   2.077   0.389
 2521SOL     OW 8461   2.002   1.093   5.410
 2521SOL    HW1 8462   1.980   1.183   5.371
 2521SOL    HW2 8463   2.058   1.042   5.344
 2522SOL     OW 8464   0.221   3.387   4.850
 2522SOL    HW1 8465   0.198   3.472   4.897
 2522SOL    HW2 8466   0.315   3.392   4.816
 2523SOL     OW 8467   0.140   3.234   1.487
 2523SOL    HW1 8468   0.049   3.226   1.447
 2523SOL    HW2 8469   0.209   3.221   1.415
 2524SOL     OW 8470   1.121   5.928   4.840
 2524SOL    HW1 8471   1.060   5.987   4.787
 2524SOL    HW2 8472   1.080   5.912   4.930
 2525SOL     OW 8473   0.972   2.590   5.957
 2525SOL    HW1 8474   0.933   2.498   5.951
 2525SOL    HW2 8475   0.904   2.656   5.925
 2526SOL     OW 8476   1.219   4.400   6.637
 2526SOL    HW1 8477   1.261   4.479   6.592
 2526SOL    HW2 8478   1.185   4.337   6.567
 2527SOL     OW 8479   5.321   5.711   4.965
 2527SOL    HW1 8480   5.293   5.807   4.963
 2527SOL    HW2 8481   5.421   5.706   4.966
 2528SOL     OW 8482   5.798   4.658   0.501
 2528SOL    HW1 8483   5.893   4.629   0.516
 2528SOL    HW2 8484   5.786   4.682   0.404
 2529SOL     OW 8485   6.447   6.336   6.613
 2529SOL    HW1 8486   6.540   6.330   6.578
 2529SOL    HW2 8487   6.394   6.399   6.557
 2530SOL     OW 8488   2.918   6.619   5.313
 2530SOL    HW1 8489   2.882   6.618   5.220
 2530SOL    HW2 8490   2.881   6.540   5.363
 2531SOL     OW 8491   5.048   6.109   4.105
 2531SOL    HW1 8492   5.111   6.070   4.038
 2531SOL    HW2 8493   5.086   6.098   4.196
 2532SOL     OW 8494   0.693   6.311   0.765
 2532SOL    HW1 8495   0.784   6.351   0.749
 2532SOL    HW2 8496   0.695   6.213   0.744
 2533SOL     OW 8497   3.161   6.609   4.144
 2533SOL    HW1 8498   3.067   6.580   4.162
 2533SOL    HW2 8499   3.175   6.616   4.045
 2534SOL     OW 8500   3.809   0.755   3.353
 2534SOL    HW1 8501   3.800   0.855   3.353
 2534SOL    HW2 8502   3.904   0.731   3.332
 2535SOL     OW 8503   3.691   2.399   5.328
 2535SOL    HW1 8504   3.618   2.338   5.296
 2535SOL    HW2 8505   3.657   2.493   5.332
 2536SOL     OW 8506   1.176   1.962   5.022
 2536SOL    HW1 8507   1.122   1.974   4.939
 2536SOL    HW2 8508   1.155   2.035   5.087
 2537SOL     OW 8509   4.103   0.405   6.836
 2537SOL    HW1 8510   4.178   0.374   6.894
 2537SOL    HW2 8511   4.086   0.336   6.765
 2538SOL     OW 8512   1.225   4.545   3.869
 2538SOL    HW1 8513   1.320   4.564   3.893
 2538SOL    HW2 8514   1.181   4.495   3.944
 2539SOL     OW 8515   5.180   1.235   5.460
 2539SOL    HW1 8516   5.143   1.315   5.414
 2539SOL    HW2 8517   5.179   1.249   5.559
 2540SOL     OW 8518   4.339   1.692   2.800
 2540SOL    HW1 8519   4.298   1.612   2.843
 2540SOL    HW2 8520   4.293   1.775   2.832
 2541SOL     OW 8521   2.579   6.856   5.406
 2541SOL    HW1 8522   2.542   6.782   5.348
 2541SOL    HW2 8523   2.508   6.886   5.469
 2542SOL     OW 8524   3.514   1.307   6.263
 2542SOL    HW1 8525   3.463   1.253   6.196
 2542SOL    HW2 8526   3.612   1.292   6.252
 2543SOL     OW 8527   1.447   1.285   3.217
 2543SOL    HW1 8528   1.385   1.321   3.286
 2543SOL    HW2 8529   1.479   1.360   3.158
 2544SOL     OW 8530   0.670   6.253   1.517
 2544SOL    HW1 8531   0.697   6.315   1.443
 2544SOL    HW2 8532   0.600   6.190   1.484
 2545SOL     OW 8533   1.191   6.945   1.600
 2545SOL    HW1 8534   1.138   7.004   1.539
 2545SOL    HW2 8535   1.152   6.948   1.692
 2546SOL     OW 8536   0.203   1.525   1.624
 2546SOL    HW1 8537   0.214   1.426   1.621
 2546SOL    HW2 8538   0.286   1.567   1.659
 2547SOL     OW 8539   6.034   5.421   0.595
 2547SOL    HW1 8540   5.934   5.414   0.588
 2547SOL    HW2 8541   6.064   5.383   0.682
 2548SOL     OW 8542   1.620   6.568   5.912
 2548SOL    HW1 8543   1.715   6.595   5.927
 2548SOL    HW2 8544   1.574   6.557   6.001
 2549SOL     OW 8545   2.279   0.928   0.736
 2549SOL    HW1 8546   2.204   0.866   0.716
 2549SOL    HW2 8547   2.254   1.021   0.709
 2550SOL     OW 8548   0.367   6.996   6.273
 2550SOL    HW1 8549   0.466   7.009   6.260
 2550SOL    HW2 8550   0.318   0.048   6.240
 2551SOL     OW 8551   3.287   5.388   0.392
 2551SOL    HW1 8552   3.202   5.437   0.372
 2551SOL    HW2 8553   3.285   5.299   0.347
 2552SOL     OW 8554   2.298   5.659   5.572
 2552SOL    HW1 8555   2.309   5.677   5.669
 2552SOL    HW2 8556   2.337   5.570   5.549
 2553SOL     OW 8557   5.215   2.798   5.201
 2553SOL    HW1 8558   5.144   2.819   5.135
 2553SOL    HW2 8559   5.224   2.872   5.267
 2554SOL     OW 8560   2.179   6.518   0.731
 2554SOL    HW1 8561   2.167   6.611   0.766
 2554SOL    HW2 8562   2.101   6.462   0.758
 2555SOL     OW 8563   5.990   6.953   5.700
 2555SOL    HW1 8564   5.925   6.877   5.708
 2555SOL    HW2 8565   5.944   0.005   5.663
 2556SOL     OW 8566   4.499   5.673   0.707
 2556SOL    HW1 8567   4.419   5.619   0.734
 2556SOL    HW2 8568   4.555   5.620   0.643
 2557SOL     OW 8569   2.592   3.654   6.826
 2557SOL    HW1 8570   2.669   3.590   6.828
 2557SOL    HW2 8571   2.511   3.608   6.791
 2558SOL     OW 8572   5.015   1.897   4.997
 2558SOL    HW1 8573   4.984   1.818   5.051
 2558SOL    HW2 8574   4.946   1.969   5.000
 2559SOL     OW 8575   6.911   3.875   4.241
 2559SOL    HW1 8576   6.832   3.935   4.226
 2559SOL    HW2 8577   6.883   3.780   4.224
 2560SOL     OW 8578   5.948   3.573   4.496
 2560SOL    HW1 8579   5.988   3.657   4.459
 2560SOL    HW2 8580   5.858   3.592   4.534
 2561SOL     OW 8581   3.448   6.082   5.090
 2561SOL    HW1 8582   3.436   6.181   5.078
 2561SOL    HW2 8583   3.531   6.065   5.142
 2562SOL     OW 8584   1.649   5.249   2.137
 2562SOL    HW1 8585   1.675   5.314   2.065
 2562SOL    HW2 8586   1.578   5.189   2.103
 2563SOL     OW 8587   4.206   2.374   0.233
 2563SOL    HW1 8588   4.252   2.287   0.247
 2563SOL    HW2 8589   4.153   2.372   0.148
 2564SOL     OW 8590   2.241   6.259   5.718
 2564SOL    HW1 8591   2.221   6.206   5.800
 2564SOL    HW2 8592   2.339   6.261   5.702
 2565SOL     OW 8593   0.903   0.373   6.896
 2565SOL    HW1 8594   0.979   0.308   6.891
 2565SOL    HW2 8595   0.890   0.417   6.807
 2566SOL     OW 8596   2.879   6.868   0.752
 2566SOL    HW1 8597   2.973   6.891   0.774
 2566SOL    HW2 8598   2.855   6.905   0.662
 2567SOL     OW 8599   0.470   1.063   1.562
 2567SOL    HW1 8600   0.426   0.974   1.567
 2567SOL    HW2 8601   0.500   1.081   1.468
 2568SOL     OW 8602   4.458   0.069   0.390
 2568SOL    HW1 8603   4.430   0.004   0.320
 2568SOL    HW2 8604   4.377   0.104   0.437
 2569SOL     OW 8605   3.232   1.317   1.657
 2569SOL    HW1 8606   3.184   1.233   1.632
 2569SOL    HW2 8607   3.330   1.305   1.643
 2570SOL     OW 8608   5.471   0.197   6.458
 2570SOL    HW1 8609   5.460   0.128   6.529
 2570SOL    HW2 8610   5.429   0.283   6.488
 2571SOL     OW 8611   2.206   4.253   5.397
 2571SOL    HW1 8612   2.304   4.261   5.412
 2571SOL    HW2 8613   2.187   4.166   5.352
 2572SOL     OW 8614   2.065   4.783   0.171
 2572SOL    HW1 8615   2.068   4.797   0.072
 2572SOL    HW2 8616   2.052   4.686   0.190
 2573SOL     OW 8617   6.458   2.717   1.948
 2573SOL    HW1 8618   6.537   2.750   1.999
 2573SOL    HW2 8619   6.438   2.780   1.873
 2574SOL     OW 8620   6.498   3.878   0.062
 2574SOL    HW1 8621   6.494   3.824   7.007
 2574SOL    HW2 8622   6.544   3.825   0.134
 2575SOL     OW 8623   5.382   5.305   0.925
 2575SOL    HW1 8624   5.357   5.392   0.884
 2575SOL    HW2 8625   5.376   5.312   1.024
 2576SOL     OW 8626   3.584   6.605   4.540
 2576SOL    HW1 8627   3.558   6.588   4.445
 2576SOL    HW2 8628   3.511   6.655   4.587
 2577SOL     OW 8629   3.800   6.572   2.069
 2577SOL    HW1 8630   3.734   6.645   2.048
 2577SOL    HW2 8631   3.775   6.528   2.155
 2578SOL     OW 8632   4.993   1.144   4.315
 2578SOL    HW1 8633   5.039   1.232   4.331
 2578SOL    HW2 8634   5.003   1.117   4.220
 2579SOL     OW 8635   1.586   6.220   3.413
 2579SOL    HW1 8636   1.645   6.244   3.336
 2579SOL    HW2 8637   1.513   6.287   3.422
 2580SOL     OW 8638   2.952   3.329   6.556
 2580SOL    HW1 8639   3.007   3.394   6.505
 2580SOL    HW2 8640   2.881   3.292   6.497
 2581SOL     OW 8641   0.557   4.850   1.350
 2581SOL    HW1 8642   0.652   4.879   1.339
 2581SOL    HW2 8643   0.544   4.762   1.306
 2582SOL     OW 8644   0.734   4.458   2.289
 2582SOL    HW1 8645   0.671   4.514   2.236
 2582SOL    HW2 8646   0.760   4.378   2.235
 2583SOL     OW 8647   0.630   1.174   0.566
 2583SOL    HW1 8648   0.650   1.167   0.468
 2583SOL    HW2 8649   0.671   1.096   0.614
 2584SOL     OW 8650   4.407   5.577   6.608
 2584SOL    HW1 8651   4.491   5.632   6.601
 2584SOL    HW2 8652   4.328   5.637   6.598
 2585SOL     OW 8653   4.290   2.725   6.890
 2585SOL    HW1 8654   4.318   2.633   6.917
 2585SOL    HW2 8655   4.260   2.775   6.971
 2586SOL     OW 8656   3.632   1.402   3.351
 2586SOL    HW1 8657   3.643   1.337   3.276
 2586SOL    HW2 8658   3.675   1.365   3.434
 2587SOL     OW 8659   0.150   0.918   3.420
 2587SOL    HW1 8660   0.163   0.957   3.511
 2587SOL    HW2 8661   0.054   0.930   3.392
 2588SOL     OW 8662   4.311   1.069   6.688
 2588SOL    HW1 8663   4.354   1.148   6.733
 2588SOL    HW2 8664   4.377   1.026   6.626
 2589SOL     OW 8665   0.807   6.060   5.914
 2589SOL    HW1 8666   0.801   6.086   5.818
 2589SOL    HW2 8667   0.824   5.962   5.921
 2590SOL     OW 8668   3.379   5.965   1.198
 2590SOL    HW1 8669   3.359   5.882   1.146
 2590SOL    HW2 8670   3.469   5.958   1.241
 2591SOL     OW 8671   0.079   4.640   3.089
 2591SOL    HW1 8672   0.175   4.610   3.094
 2591SOL    HW2 8673   0.076   4.740   3.091
 2592SOL     OW 8674   3.778   5.741   0.104
 2592SOL    HW1 8675   3.713   5.676   0.064
 2592SOL    HW2 8676   3.827   5.788   0.032
 2593SOL     OW 8677   3.697   5.520   1.159
 2593SOL    HW1 8678   3.653   5.529   1.069
 2593SOL    HW2 8679   3.679   5.428   1.196
 2594SOL     OW 8680   2.195   4.447   6.597
 2594SOL    HW1 8681   2.182   4.455   6.696
 2594SOL    HW2 8682   2.151   4.525   6.552
 2595SOL     OW 8683   6.841   1.297   3.860
 2595SOL    HW1 8684   6.787   1.222   3.823
 2595SOL    HW2 8685   6.786   1.350   3.925
 2596SOL     OW 8686   3.076   1.573   1.542
 2596SOL    HW1 8687   3.045   1.484   1.510
 2596SOL    HW2 8688   3.173   1.585   1.520
 2597SOL     OW 8689   1.370   4.737   5.986
 2597SOL    HW1 8690   1.289   4.773   6.031
 2597SOL    HW2 8691   1.408   4.806   5.924
 2598SOL     OW 8692   6.945   1.272   3.517
 2598SOL    HW1 8693   6.938   1.351   3.456
 2598SOL    HW2 8694   7.001   1.296   3.596
 2599SOL     OW 8695   2.057   6.291   1.041
 2599SOL    HW1 8696   2.135   6.229   1.033
 2599SOL    HW2 8697   2.003   6.287   0.957
 2600SOL     OW 8698   5.623   2.971   4.602
 2600SOL    HW1 8699   5.587   2.948   4.692
 2600SOL    HW2 8700   5.712   3.015   4.611
 2601SOL     OW 8701   1.901   1.258   2.349
 2601SOL    HW1 8702   1.896   1.332   2.283
 2601SOL    HW2 8703   1.815   1.251   2.399
 2602SOL     OW 8704   1.173   4.748   5.026
 2602SOL    HW1 8705   1.169   4.845   5.000
 2602SOL    HW2 8706   1.088   4.703   4.998
 2603SOL     OW 8707   3.334   0.856   3.963
 2603SOL    HW1 8708   3.380   0.778   3.921
 2603SOL    HW2 8709   3.397   0.934   3.967
 2604SOL     OW 8710   5.026   1.839   2.487
 2604SOL    HW1 8711   5.079   1.869   2.567
 2604SOL    HW2 8712   4.929   1.846   2.508
 2605SOL     OW 8713   2.067   3.309   3.951
 2605SOL    HW1 8714   2.100   3.215   3.939
 2605SOL    HW2 8715   2.041   3.347   3.862
 2606SOL     OW 8716   5.498   4.685   1.678
 2606SOL    HW1 8717   5.571   4.687   1.746
 2606SOL    HW2 8718   5.420   4.634   1.713
 2607SOL     OW 8719   1.262   1.685   1.819
 2607SOL    HW1 8720   1.233   1.725   1.906
 2607SOL    HW2 8721   1.191   1.623   1.785
 2608SOL     OW 8722   4.829   5.059   0.158
 2608SOL    HW1 8723   4.908   5.067   0.097
 2608SOL    HW2 8724   4.834   5.130   0.228
 2609SOL     OW 8725   6.382   1.102   1.607
 2609SOL    HW1 8726   6.345   1.012   1.583
 2609SOL    HW2 8727   6.365   1.166   1.532
 2610SOL     OW 8728   1.161   4.383   4.398
 2610SOL    HW1 8729   1.201   4.442   4.327
 2610SOL    HW2 8730   1.069   4.356   4.371
 2611SOL     OW 8731   4.180   6.435   1.083
 2611SOL    HW1 8732   4.233   6.414   1.165
 2611SOL    HW2 8733   4.196   6.365   1.014
 2612SOL     OW 8734   6.279   6.905   4.597
 2612SOL    HW1 8735   6.272   6.984   4.537
 2612SOL    HW2 8736   6.192   6.856   4.597
 2613SOL     OW 8737   2.650   5.477   6.525
 2613SOL    HW1 8738   2.705   5.521   6.596
 2613SOL    HW2 8739   2.567   5.531   6.509
 2614SOL     OW 8740   6.262   1.831   6.827
 2614SOL    HW1 8741   6.267   1.762   6.898
 2614SOL    HW2 8742   6.337   1.818   6.762
 2615SOL     OW 8743   0.732   3.114   2.473
 2615SOL    HW1 8744   0.825   3.087   2.498
 2615SOL    HW2 8745   0.736   3.191   2.408
 2616SOL     OW 8746   2.971   2.888   5.553
 2616SOL    HW1 8747   2.929   2.975   5.577
 2616SOL    HW2 8748   3.018   2.896   5.466
 2617SOL     OW 8749   4.259   6.962   0.848
 2617SOL    HW1 8750   4.293   0.022   0.881
 2617SOL    HW2 8751   4.253   6.898   0.924
 2618SOL     OW 8752   6.596   0.443   3.169
 2618SOL    HW1 8753   6.562   0.384   3.096
 2618SOL    HW2 8754   6.695   0.451   3.162
 2619SOL     OW 8755   4.606   2.167   2.279
 2619SOL    HW1 8756   4.559   2.243   2.234
 2619SOL    HW2 8757   4.705   2.177   2.267
 2620SOL     OW 8758   6.121   6.382   3.666
 2620SOL    HW1 8759   6.199   6.342   3.713
 2620SOL    HW2 8760   6.094   6.323   3.590
 2621SOL     OW 8761   0.826   5.337   1.803
 2621SOL    HW1 8762   0.811   5.371   1.896
 2621SOL    HW2 8763   0.894   5.263   1.805
 2622SOL     OW 8764   1.356   3.863   5.684
 2622SOL    HW1 8765   1.308   3.843   5.599
 2622SOL    HW2 8766   1.304   3.930   5.737
 2623SOL     OW 8767   0.144   0.860   5.269
 2623SOL    HW1 8768   0.053   0.901   5.273
 2623SOL    HW2 8769   0.151   0.803   5.187
 2624SOL     OW 8770   0.374   1.094   4.640
 2624SOL    HW1 8771   0.377   1.173   4.701
 2624SOL    HW2 8772   0.450   1.098   4.575
 2625SOL     OW 8773   2.473   3.711   5.364
 2625SOL    HW1 8774   2.533   3.734   5.440
 2625SOL    HW2 8775   2.472   3.786   5.298
 2626SOL     OW 8776   0.112   0.441   6.119
 2626SOL    HW1 8777   0.034   0.470   6.064
 2626SOL    HW2 8778   0.157   0.520   6.159
 2627SOL     OW 8779   1.149   1.322   6.229
 2627SOL    HW1 8780   1.085   1.258   6.187
 2627SOL    HW2 8781   1.210   1.360   6.160
 2628SOL     OW 8782   2.223   3.626   5.578
 2628SOL    HW1 8783   2.141   3.614   5.635
 2628SOL    HW2 8784   2.204   3.592   5.486
 2629SOL     OW 8785   3.947   3.087   2.414
 2629SOL    HW1 8786   3.968   3.086   2.316
 2629SOL    HW2 8787   4.014   3.144   2.462
 2630SOL     OW 8788   3.264   1.863   2.852
 2630SOL    HW1 8789   3.250   1.842   2.949
 2630SOL    HW2 8790   3.255   1.779   2.798
 2631SOL     OW 8791   5.393   0.722   5.945
 2631SOL    HW1 8792   5.336   0.736   6.025
 2631SOL    HW2 8793   5.460   0.796   5.938
 2632SOL     OW 8794   5.242   3.140   0.504
 2632SOL    HW1 8795   5.238   3.223   0.448
 2632SOL    HW2 8796   5.246   3.164   0.601
 2633SOL     OW 8797   0.578   1.547   4.492
 2633SOL    HW1 8798   0.568   1.458   4.448
 2633SOL    HW2 8799   0.560   1.620   4.426
 2634SOL     OW 8800   0.674   5.315   3.970
 2634SOL    HW1 8801   0.582   5.348   3.949
 2634SOL    HW2 8802   0.741   5.367   3.917
 2635SOL     OW 8803   0.089   6.367   4.790
 2635SOL    HW1 8804   0.114   6.362   4.693
 2635SOL    HW2 8805   0.154   6.424   4.839
 2636SOL     OW 8806   4.175   0.202   5.613
 2636SOL    HW1 8807   4.152   0.180   5.518
 2636SOL    HW2 8808   4.112   0.271   5.647
 2637SOL     OW 8809   6.292   1.978   3.459
 2637SOL    HW1 8810   6.233   2.009   3.385
 2637SOL    HW2 8811   6.246   1.988   3.547
 2638SOL     OW 8812   6.972   7.022   4.084
 2638SOL    HW1 8813   6.972   6.977   4.173
 2638SOL    HW2 8814   0.007   6.976   4.023
 2639SOL     OW 8815   0.690   6.062   0.675
 2639SOL    HW1 8816   0.748   6.006   0.734
 2639SOL    HW2 8817   0.690   6.025   0.583
 2640SOL     OW 8818   6.617   6.494   5.414
 2640SOL    HW1 8819   6.643   6.590   5.429
 2640SOL    HW2 8820   6.529   6.476   5.457
 2641SOL     OW 8821   5.813   2.915   2.192
 2641SOL    HW1 8822   5.812   2.910   2.092
 2641SOL    HW2 8823   5.890   2.971   2.222
 2642SOL     OW 8824   5.815   0.831   3.769
 2642SOL    HW1 8825   5.867   0.773   3.832
 2642SOL    HW2 8826   5.730   0.860   3.812
 2643SOL     OW 8827   1.278   3.660   3.162
 2643SOL    HW1 8828   1.319   3.596   3.227
 2643SOL    HW2 8829   1.348   3.723   3.129
 2644SOL     OW 8830   4.791   5.322   4.640
 2644SOL    HW1 8831   4.695   5.300   4.620
 2644SOL    HW2 8832   4.795   5.384   4.719
 2645SOL     OW 8833   4.094   5.757   3.525
 2645SOL    HW1 8834   4.131   5.706   3.602
 2645SOL    HW2 8835   3.997   5.735   3.513
 2646SOL     OW 8836   6.067   1.630   6.900
 2646SOL    HW1 8837   6.044   1.694   6.974
 2646SOL    HW2 8838   5.985   1.610   6.847
 2647SOL     OW 8839   5.984   0.214   1.390
 2647SOL    HW1 8840   5.910   0.238   1.452
 2647SOL    HW2 8841   6.018   0.297   1.345
 2648SOL     OW 8842   1.002   6.825   3.884
 2648SOL    HW1 8843   1.071   6.823   3.956
 2648SOL    HW2 8844   0.943   6.905   3.898
 2649SOL     OW 8845   6.706   3.237   0.786
 2649SOL    HW1 8846   6.650   3.154   0.791
 2649SOL    HW2 8847   6.775   3.226   0.715
 2650SOL     OW 8848   1.961   4.929   3.479
 2650SOL    HW1 8849   1.895   4.999   3.453
 2650SOL    HW2 8850   2.052   4.971   3.486
 2651SOL     OW 8851   2.817   1.870   1.168
 2651SOL    HW1 8852   2.866   1.810   1.231
 2651SOL    HW2 8853   2.719   1.863   1.185
 2652SOL     OW 8854   4.276   3.271   5.242
 2652SOL    HW1 8855   4.183   3.278   5.208
 2652SOL    HW2 8856   4.302   3.357   5.287
 2653SOL     OW 8857   4.706   6.845   6.028
 2653SOL    HW1 8858   4.621   6.794   6.042
 2653SOL    HW2 8859   4.706   6.927   6.085
 2654SOL     OW 8860   4.134   0.121   1.499
 2654SOL    HW1 8861   4.144   0.121   1.399
 2654SOL    HW2 8862   4.163   0.210   1.535
 2655SOL     OW 8863   5.493   5.965   3.869
 2655SOL    HW1 8864   5.501   6.063   3.854
 2655SOL    HW2 8865   5.585   5.925   3.881
 2656SOL     OW 8866   3.488   4.992   4.575
 2656SOL    HW1 8867   3.506   4.971   4.479
 2656SOL    HW2 8868   3.474   5.091   4.585
 2657SOL     OW 8869   1.686   4.151   6.857
 2657SOL    HW1 8870   1.696   4.051   6.857
 2657SOL    HW2 8871   1.589   4.174   6.848
 2658SOL     OW 8872   5.432   4.958   0.337
 2658SOL    HW1 8873   5.435   4.860   0.317
 2658SOL    HW2 8874   5.507   4.981   0.399
 2659SOL     OW 8875   4.927   2.959   5.079
 2659SOL    HW1 8876   4.891   2.986   4.990
 2659SOL    HW2 8877   4.943   3.040   5.135
 2660SOL     OW 8878   1.582   0.219   1.776
 2660SOL    HW1 8879   1.666   0.217   1.722
 2660SOL    HW2 8880   1.600   0.186   1.868
 2661SOL     OW 8881   2.159   6.873   1.307
 2661SOL    HW1 8882   2.195   6.938   1.374
 2661SOL    HW2 8883   2.075   6.832   1.343
 2662SOL     OW 8884   3.181   6.439   5.418
 2662SOL    HW1 8885   3.194   6.529   5.376
 2662SOL    HW2 8886   3.232   6.435   5.504
 2663SOL     OW 8887   3.765   4.341   6.602
 2663SOL    HW1 8888   3.811   4.271   6.657
 2663SOL    HW2 8889   3.833   4.407   6.570
 2664SOL     OW 8890   4.612   3.375   5.716
 2664SOL    HW1 8891   4.608   3.475   5.718
 2664SOL    HW2 8892   4.534   3.339   5.665
 2665SOL     OW 8893   2.965   3.353   5.107
 2665SOL    HW1 8894   2.947   3.451   5.112
 2665SOL    HW2 8895   2.896   3.304   5.160
 2666SOL     OW 8896   0.956   4.882   1.848
 2666SOL    HW1 8897   0.977   4.980   1.842
 2666SOL    HW2 8898   0.860   4.868   1.824
 2667SOL     OW 8899   1.399   5.557   4.005
 2667SOL    HW1 8900   1.407   5.525   3.910
 2667SOL    HW2 8901   1.396   5.657   4.006
 2668SOL     OW 8902   0.194   2.932   4.989
 2668SOL    HW1 8903   0.116   2.891   4.941
 2668SOL    HW2 8904   0.228   3.010   4.936
 2669SOL     OW 8905   3.022   5.411   5.902
 2669SOL    HW1 8906   2.973   5.438   5.819
 2669SOL    HW2 8907   3.087   5.339   5.881
 2670SOL     OW 8908   6.096   3.855   4.824
 2670SOL    HW1 8909   6.169   3.801   4.782
 2670SOL    HW2 8910   6.133   3.912   4.897
 2671SOL     OW 8911   4.267   5.413   0.372
 2671SOL    HW1 8912   4.354   5.365   0.363
 2671SOL    HW2 8913   4.232   5.434   0.281
 2672SOL     OW 8914   2.772   5.765   1.196
 2672SOL    HW1 8915   2.802   5.779   1.290
 2672SOL    HW2 8916   2.672   5.767   1.192
 2673SOL     OW 8917   6.377   1.815   1.513
 2673SOL    HW1 8918   6.453   1.758   1.545
 2673SOL    HW2 8919   6.398   1.911   1.530
 2674SOL     OW 8920   1.457   4.535   4.180
 2674SOL    HW1 8921   1.441   4.437   4.166
 2674SOL    HW2 8922   1.377   4.574   4.227
 2675SOL     OW 8923   6.579   5.849   3.953
 2675SOL    HW1 8924   6.492   5.893   3.975
 2675SOL    HW2 8925   6.624   5.822   4.038
 2676SOL     OW 8926   2.940   3.365   1.404
 2676SOL    HW1 8927   2.972   3.331   1.316
 2676SOL    HW2 8928   2.907   3.288   1.459
 2677SOL     OW 8929   2.983   4.276   0.018
 2677SOL    HW1 8930   3.006   4.373   0.019
 2677SOL    HW2 8931   2.934   4.252   0.102
 2678SOL     OW 8932   0.296   2.305   2.554
 2678SOL    HW1 8933   0.384   2.332   2.514
 2678SOL    HW2 8934   0.230   2.378   2.541
 2679SOL     OW 8935   2.095   4.962   2.210
 2679SOL    HW1 8936   2.035   4.936   2.286
 2679SOL    HW2 8937   2.042   5.014   2.142
 2680SOL     OW 8938   1.367   1.800   1.341
 2680SOL    HW1 8939   1.367   1.830   1.437
 2680SOL    HW2 8940   1.274   1.776   1.314
 2681SOL     OW 8941   1.237   2.311   4.963
 2681SOL    HW1 8942   1.331   2.337   4.986
 2681SOL    HW2 8943   1.222   2.325   4.865
 2682SOL     OW 8944   4.761   4.438   4.035
 2682SOL    HW1 8945   4.844   4.391   4.004
 2682SOL    HW2 8946   4.697   4.371   4.073
 2683SOL     OW 8947   2.530   4.525   2.047
 2683SOL    HW1 8948   2.628   4.542   2.054
 2683SOL    HW2 8949   2.497   4.484   2.132
 2684SOL     OW 8950   4.417   6.928   2.264
 2684SOL    HW1 8951   4.422   6.828   2.268
 2684SOL    HW2 8952   4.469   6.962   2.186
 2685SOL     OW 8953   6.057   5.839   5.582
 2685SOL    HW1 8954   6.142   5.857   5.532
 2685SOL    HW2 8955   6.078   5.823   5.679
 2686SOL     OW 8956   1.789   2.021   5.878
 2686SOL    HW1 8957   1.806   2.116   5.851
 2686SOL    HW2 8958   1.696   2.013   5.914
 2687SOL     OW 8959   4.555   5.818   0.952
 2687SOL    HW1 8960   4.524   5.805   0.858
 2687SOL    HW2 8961   4.484   5.788   1.016
 2688SOL     OW 8962   2.926   2.839   0.098
 2688SOL    HW1 8963   2.939   2.935   0.073
 2688SOL    HW2 8964   2.991   2.814   0.171
 2689SOL     OW 8965   0.018   3.560   2.115
 2689SOL    HW1 8966   0.036   3.658   2.119
 2689SOL    HW2 8967   0.059   3.522   2.032
 2690SOL     OW 8968   3.463   3.283   5.416
 2690SOL    HW1 8969   3.511   3.195   5.412
 2690SOL    HW2 8970   3.504   3.345   5.348
 2691SOL     OW 8971   0.639   5.558   3.392
 2691SOL    HW1 8972   0.607   5.470   3.357
 2691SOL    HW2 8973   0.738   5.565   3.379
 2692SOL     OW 8974   2.670   6.781   3.684
 2692SOL    HW1 8975   2.622   6.764   3.598
 2692SOL    HW2 8976   2.755   6.730   3.686
 2693SOL     OW 8977   2.490   4.570   3.866
 2693SOL    HW1 8978   2.551   4.625   3.810
 2693SOL    HW2 8979   2.408   4.623   3.888
 2694SOL     OW 8980   4.202   6.747   3.112
 2694SOL    HW1 8981   4.267   6.804   3.163
 2694SOL    HW2 8982   4.188   6.661   3.161
 2695SOL     OW 8983   5.916   0.527   2.914
 2695SOL    HW1 8984   5.881   0.584   2.839
 2695SOL    HW2 8985   6.005   0.489   2.888
 2696SOL     OW 8986   3.720   3.360   5.833
 2696SOL    HW1 8987   3.716   3.276   5.779
 2696SOL    HW2 8988   3.630   3.377   5.875
 2697SOL     OW 8989   3.254   1.889   3.152
 2697SOL    HW1 8990   3.221   1.824   3.220
 2697SOL    HW2 8991   3.192   1.968   3.150
 2698SOL     OW 8992   1.307   4.725   0.658
 2698SOL    HW1 8993   1.406   4.734   0.655
 2698SOL    HW2 8994   1.268   4.792   0.722
 2699SOL     OW 8995   2.512   5.851   1.683
 2699SOL    HW1 8996   2.447   5.819   1.615
 2699SOL    HW2 8997   2.465   5.908   1.750
 2700SOL     OW 8998   2.635   2.318   0.922
 2700SOL    HW1 8999   2.580   2.371   0.857
 2700SOL    HW2 9000   2.648   2.225   0.887
 2701SOL     OW 9001   4.924   2.055   6.056
 2701SOL    HW1 9002   4.938   2.084   5.961
 2701SOL    HW2 9003   4.855   2.114   6.099
 2702SOL     OW 9004   0.743   2.484   3.744
 2702SOL    HW1 9005   0.719   2.391   3.716
 2702SOL    HW2 9006   0.812   2.521   3.682
 2703SOL     OW 9007   1.008   6.166   0.594
 2703SOL    HW1 9008   0.989   6.135   0.687
 2703SOL    HW2 9009   0.930   6.220   0.561
 2704SOL     OW 9010   6.803   6.147   1.853
 2704SOL    HW1 9011   6.891   6.124   1.811
 2704SOL    HW2 9012   6.738   6.174   1.781
 2705SOL     OW 9013   6.027   6.976   4.900
 2705SOL    HW1 9014   6.040   6.951   4.804
 2705SOL    HW2 9015   6.097   6.932   4.956
 2706SOL     OW 9016   6.539   5.043   3.255
 2706SOL    HW1 9017   6.504   5.084   3.339
 2706SOL    HW2 9018   6.506   5.095   3.176
 2707SOL     OW 9019   3.551   0.068   4.387
 2707SOL    HW1 9020   3.485   0.127   4.432
 2707SOL    HW2 9021   3.639   0.074   4.434
 2708SOL     OW 9022   6.298   2.834   1.049
 2708SOL    HW1 9023   6.246   2.750   1.068
 2708SOL    HW2 9024   6.388   2.809   1.012
 2709SOL     OW 9025   5.162   0.288   0.089
 2709SOL    HW1 9026   5.086   0.308   0.151
 2709SOL    HW2 9027   5.150   0.196   0.050
 2710SOL     OW 9028   1.024   3.261   3.915
 2710SOL    HW1 9029   0.953   3.225   3.975
 2710SOL    HW2 9030   1.096   3.193   3.903
 2711SOL     OW 9031   2.724   0.757   3.548
 2711SOL    HW1 9032   2.777   0.810   3.614
 2711SOL    HW2 9033   2.655   0.815   3.505
 2712SOL     OW 9034   2.701   4.855   1.598
 2712SOL    HW1 9035   2.626   4.913   1.565
 2712SOL    HW2 9036   2.674   4.813   1.685
 2713SOL     OW 9037   2.576   3.687   5.940
 2713SOL    HW1 9038   2.530   3.672   5.852
 2713SOL    HW2 9039   2.571   3.604   5.995
 2714SOL     OW 9040   4.073   2.681   0.199
 2714SOL    HW1 9041   4.138   2.742   0.156
 2714SOL    HW2 9042   4.118   2.594   0.220
 2715SOL     OW 9043   5.748   2.239   0.942
 2715SOL    HW1 9044   5.662   2.285   0.920
 2715SOL    HW2 9045   5.733   2.173   1.015
 2716SOL     OW 9046   5.060   3.314   4.195
 2716SOL    HW1 9047   5.013   3.230   4.221
 2716SOL    HW2 9048   5.019   3.352   4.113
 2717SOL     OW 9049   0.743   6.982   2.125
 2717SOL    HW1 9050   0.773   0.047   2.145
 2717SOL    HW2 9051   0.645   6.973   2.146
 2718SOL     OW 9052   1.826   1.456   5.525
 2718SOL    HW1 9053   1.883   1.505   5.590
 2718SOL    HW2 9054   1.743   1.509   5.507
 2719SOL     OW 9055   0.707   4.861   1.797
 2719SOL    HW1 9056   0.675   4.903   1.883
 2719SOL    HW2 9057   0.629   4.846   1.737
 2720SOL     OW 9058   1.682   6.999   2.427
 2720SOL    HW1 9059   1.603   6.974   2.483
 2720SOL    HW2 9060   1.731   0.046   2.471
 2721SOL     OW 9061   2.858   6.108   3.084
 2721SOL    HW1 9062   2.835   6.184   3.145
 2721SOL    HW2 9063   2.775   6.060   3.057
 2722SOL     OW 9064   5.806   5.213   0.316
 2722SOL    HW1 9065   5.806   5.123   0.275
 2722SOL    HW2 9066   5.895   5.230   0.359
 2723SOL     OW 9067   1.267   5.568   6.470
 2723SOL    HW1 9068   1.235   5.605   6.557
 2723SOL    HW2 9069   1.192   5.521   6.424
 2724SOL     OW 9070   1.707   6.218   6.530
 2724SOL    HW1 9071   1.637   6.207   6.600
 2724SOL    HW2 9072   1.786   6.266   6.569
 2725SOL     OW 9073   5.278   4.609   4.815
 2725SOL    HW1 9074   5.304   4.666   4.893
 2725SOL    HW2 9075   5.181   4.621   4.795
 2726SOL     OW 9076   0.277   2.524   2.277
 2726SOL    HW1 9077   0.300   2.554   2.184
 2726SOL    HW2 9078   0.360   2.524   2.333
 2727SOL     OW 9079   0.813   4.690   3.964
 2727SOL    HW1 9080   0.906   4.724   3.948
 2727SOL    HW2 9081   0.778   4.727   4.049
 2728SOL     OW 9082   4.460   6.443   5.256
 2728SOL    HW1 9083   4.540   6.504   5.263
 2728SOL    HW2 9084   4.392   6.484   5.195
 2729SOL     OW 9085   0.309   6.298   0.577
 2729SOL    HW1 9086   0.246   6.374   0.559
 2729SOL    HW2 9087   0.349   6.308   0.668
 2730SOL     OW 9088   1.410   5.560   2.006
 2730SOL    HW1 9089   1.486   5.624   2.005
 2730SOL    HW2 9090   1.382   5.542   2.100
 2731SOL     OW 9091   2.973   3.661   3.562
 2731SOL    HW1 9092   2.906   3.700   3.625
 2731SOL    HW2 9093   2.931   3.647   3.473
 2732SOL     OW 9094   6.075   2.017   0.982
 2732SOL    HW1 9095   6.037   2.043   1.071
 2732SOL    HW2 9096   6.098   1.920   0.983
 2733SOL     OW 9097   6.383   1.741   5.006
 2733SOL    HW1 9098   6.383   1.647   5.041
 2733SOL    HW2 9099   6.304   1.754   4.946
 2734SOL     OW 9100   3.107   4.854   1.139
 2734SOL    HW1 9101   3.187   4.813   1.094
 2734SOL    HW2 9102   3.029   4.851   1.077
 2735SOL     OW 9103   1.969   2.674   1.972
 2735SOL    HW1 9104   1.934   2.688   2.065
 2735SOL    HW2 9105   2.007   2.582   1.964
 2736SOL     OW 9106   6.618   5.997   4.350
 2736SOL    HW1 9107   6.639   6.002   4.448
 2736SOL    HW2 9108   6.621   5.902   4.320
 2737SOL     OW 9109   2.856   4.118   5.348
 2737SOL    HW1 9110   2.802   4.056   5.291
 2737SOL    HW2 9111   2.926   4.162   5.293
 2738SOL     OW 9112   5.152   6.363   1.838
 2738SOL    HW1 9113   5.158   6.454   1.797
 2738SOL    HW2 9114   5.148   6.371   1.937
 2739SOL     OW 9115   1.149   5.147   0.770
 2739SOL    HW1 9116   1.151   5.213   0.844
 2739SOL    HW2 9117   1.104   5.063   0.801
 2740SOL     OW 9118   6.334   4.587   1.448
 2740SOL    HW1 9119   6.398   4.603   1.523
 2740SOL    HW2 9120   6.278   4.507   1.469
 2741SOL     OW 9121   6.265   0.480   4.214
 2741SOL    HW1 9122   6.169   0.495   4.236
 2741SOL    HW2 9123   6.277   0.486   4.114
 2742SOL     OW 9124   1.416   4.998   0.424
 2742SOL    HW1 9125   1.404   4.923   0.489
 2742SOL    HW2 9126   1.493   4.978   0.364
 2743SOL     OW 9127   0.124   4.291   2.576
 2743SOL    HW1 9128   0.157   4.338   2.495
 2743SOL    HW2 9129   0.177   4.321   2.656
 2744SOL     OW 9130   4.731   2.508   0.240
 2744SOL    HW1 9131   4.706   2.450   0.161
 2744SOL    HW2 9132   4.821   2.549   0.224
 2745SOL     OW 9133   7.017   1.069   4.569
 2745SOL    HW1 9134   0.037   0.987   4.538
 2745SOL    HW2 9135   6.967   1.049   4.653
 2746SOL     OW 9136   0.987   2.270   5.034
 2746SOL    HW1 9137   1.082   2.296   5.021
 2746SOL    HW2 9138   0.982   2.187   5.089
 2747SOL     OW 9139   4.867   5.339   0.236
 2747SOL    HW1 9140   4.957   5.379   0.219
 2747SOL    HW2 9141   4.864   5.302   0.329
 2748SOL     OW 9142   4.468   1.356   2.633
 2748SOL    HW1 9143   4.370   1.339   2.622
 2748SOL    HW2 9144   4.501   1.310   2.715
 2749SOL     OW 9145   6.788   4.614   0.813
 2749SOL    HW1 9146   6.730   4.586   0.890
 2749SOL    HW2 9147   6.832   4.701   0.835
 2750SOL     OW 9148   1.714   3.858   1.287
 2750SOL    HW1 9149   1.785   3.792   1.311
 2750SOL    HW2 9150   1.629   3.835   1.335
 2751SOL     OW 9151   1.202   3.017   1.610
 2751SOL    HW1 9152   1.248   2.941   1.564
 2751SOL    HW2 9153   1.160   2.984   1.694
 2752SOL     OW 9154   3.437   4.885   5.771
 2752SOL    HW1 9155   3.526   4.852   5.739
 2752SOL    HW2 9156   3.436   4.985   5.769
 2753SOL     OW 9157   6.769   6.652   4.771
 2753SOL    HW1 9158   6.869   6.653   4.774
 2753SOL    HW2 9159   6.738   6.575   4.715
 2754SOL     OW 9160   0.703   0.331   0.944
 2754SOL    HW1 9161   0.626   0.288   0.991
 2754SOL    HW2 9162   0.784   0.328   1.003
 2755SOL     OW 9163   3.277   6.562   2.248
 2755SOL    HW1 9164   3.276   6.463   2.263
 2755SOL    HW2 9165   3.184   6.598   2.256
 2756SOL     OW 9166   5.421   5.444   0.126
 2756SOL    HW1 9167   5.473   5.403   0.200
 2756SOL    HW2 9168   5.476   5.515   0.082
 2757SOL     OW 9169   2.710   6.617   6.799
 2757SOL    HW1 9170   2.652   6.697   6.812
 2757SOL    HW2 9171   2.654   6.542   6.761
 2758SOL     OW 9172   3.930   6.392   3.841
 2758SOL    HW1 9173   3.892   6.416   3.751
 2758SOL    HW2 9174   4.030   6.396   3.837
 2759SOL     OW 9175   5.232   6.805   6.053
 2759SOL    HW1 9176   5.241   6.759   5.964
 2759SOL    HW2 9177   5.258   6.741   6.125
 2760SOL     OW 9178   0.519   5.999   1.804
 2760SOL    HW1 9179   0.568   6.085   1.820
 2760SOL    HW2 9180   0.510   5.949   1.889
 2761SOL     OW 9181   1.965   5.225   4.247
 2761SOL    HW1 9182   2.054   5.215   4.292
 2761SOL    HW2 9183   1.938   5.137   4.207
 2762SOL     OW 9184   1.667   1.339   5.733
 2762SOL    HW1 9185   1.723   1.264   5.767
 2762SOL    HW2 9186   1.701   1.369   5.643
 2763SOL     OW 9187   5.088   1.696   3.918
 2763SOL    HW1 9188   5.136   1.678   3.832
 2763SOL    HW2 9189   4.993   1.665   3.911
 2764SOL     OW 9190   5.969   1.001   0.897
 2764SOL    HW1 9191   5.880   0.962   0.876
 2764SOL    HW2 9192   5.958   1.089   0.942
 2765SOL     OW 9193   5.817   6.716   0.992
 2765SOL    HW1 9194   5.809   6.785   0.920
 2765SOL    HW2 9195   5.807   6.625   0.953
 2766SOL     OW 9196   4.606   2.362   0.036
 2766SOL    HW1 9197   4.609   2.330   6.970
 2766SOL    HW2 9198   4.597   2.284   0.097
 2767SOL     OW 9199   0.016   5.305   0.151
 2767SOL    HW1 9200   0.094   5.363   0.171
 2767SOL    HW2 9201   7.024   5.309   0.053
 2768SOL     OW 9202   4.168   0.946   0.866
 2768SOL    HW1 9203   4.177   1.002   0.783
 2768SOL    HW2 9204   4.205   0.855   0.849
 2769SOL     OW 9205   0.830   4.255   4.183
 2769SOL    HW1 9206   0.904   4.211   4.132
 2769SOL    HW2 9207   0.869   4.326   4.242
 2770SOL     OW 9208   2.945   5.456   5.611
 2770SOL    HW1 9209   3.039   5.489   5.600
 2770SOL    HW2 9210   2.918   5.404   5.530
 2771SOL     OW 9211   6.941   1.037   3.383
 2771SOL    HW1 9212   6.941   1.118   3.443
 2771SOL    HW2 9213   6.900   1.062   3.295
 2772SOL     OW 9214   4.357   1.726   1.024
 2772SOL    HW1 9215   4.359   1.799   0.955
 2772SOL    HW2 9216   4.267   1.725   1.068
 2773SOL     OW 9217   6.163   2.341   5.673
 2773SOL    HW1 9218   6.143   2.276   5.599
 2773SOL    HW2 9219   6.179   2.432   5.634
 2774SOL     OW 9220   5.522   3.622   3.135
 2774SOL    HW1 9221   5.594   3.623   3.204
 2774SOL    HW2 9222   5.497   3.716   3.112
 2775SOL     OW 9223   6.572   5.874   6.409
 2775SOL    HW1 9224   6.542   5.948   6.469
 2775SOL    HW2 9225   6.629   5.912   6.336
 2776SOL     OW 9226   4.364   4.684   6.148
 2776SOL    HW1 9227   4.350   4.719   6.240
 2776SOL    HW2 9228   4.277   4.647   6.114
 2777SOL     OW 9229   2.639   1.405   2.032
 2777SOL    HW1 9230   2.559   1.394   2.091
 2777SOL    HW2 9231   2.611   1.444   1.945
 2778SOL     OW 9232   1.329   0.394   5.749
 2778SOL    HW1 9233   1.412   0.445   5.724
 2778SOL    HW2 9234   1.249   0.450   5.731
 2779SOL     OW 9235   4.821   6.501   1.256
 2779SOL    HW1 9236   4.855   6.477   1.165
 2779SOL    HW2 9237   4.722   6.488   1.259
 2780SOL     OW 9238   6.134   6.320   6.707
 2780SOL    HW1 9239   6.230   6.324   6.736
 2780SOL    HW2 9240   6.087   6.248   6.758
 2781SOL     OW 9241   5.205   6.616   1.726
 2781SOL    HW1 9242   5.281   6.673   1.758
 2781SOL    HW2 9243   5.129   6.675   1.698
 2782SOL     OW 9244   4.012   2.036   5.726
 2782SOL    HW1 9245   4.086   2.056   5.662
 2782SOL    HW2 9246   4.012   2.104   5.799
 2783SOL     OW 9247   5.023   4.358   3.947
 2783SOL    HW1 9248   5.023   4.296   3.869
 2783SOL    HW2 9249   5.090   4.327   4.015
 2784SOL     OW 9250   3.937   1.605   1.627
 2784SOL    HW1 9251   3.870   1.536   1.603
 2784SOL    HW2 9252   3.899   1.696   1.610
 2785SOL     OW 9253   4.697   1.255   0.677
 2785SOL    HW1 9254   4.619   1.309   0.705
 2785SOL    HW2 9255   4.742   1.298   0.599
 2786SOL     OW 9256   4.993   6.437   2.064
 2786SOL    HW1 9257   5.066   6.484   2.113
 2786SOL    HW2 9258   4.943   6.503   2.007
 2787SOL     OW 9259   3.515   1.812   6.526
 2787SOL    HW1 9260   3.491   1.872   6.602
 2787SOL    HW2 9261   3.584   1.746   6.556
 2788SOL     OW 9262   2.739   4.474   6.259
 2788SOL    HW1 9263   2.662   4.491   6.197
 2788SOL    HW2 9264   2.747   4.376   6.275
 2789SOL     OW 9265   1.989   2.514   3.696
 2789SOL    HW1 9266   1.897   2.538   3.729
 2789SOL    HW2 9267   2.057   2.569   3.745
 2790SOL     OW 9268   3.172   5.919   2.227
 2790SOL    HW1 9269   3.252   5.952   2.276
 2790SOL    HW2 9270   3.201   5.874   2.143
 2791SOL     OW 9271   1.164   3.471   2.919
 2791SOL    HW1 9272   1.155   3.429   2.829
 2791SOL    HW2 9273   1.103   3.550   2.925
 2792SOL     OW 9274   1.761   6.945   4.208
 2792SOL    HW1 9275   1.669   6.908   4.223
 2792SOL    HW2 9276   1.765   6.990   4.119
 2793SOL     OW 9277   5.221   3.298   3.289
 2793SOL    HW1 9278   5.248   3.322   3.196
 2793SOL    HW2 9279   5.123   3.315   3.301
 2794SOL     OW 9280   0.452   2.906   0.095
 2794SOL    HW1 9281   0.537   2.853   0.098
 2794SOL    HW2 9282   0.374   2.845   0.108
 2795SOL     OW 9283   1.855   2.421   0.638
 2795SOL    HW1 9284   1.947   2.455   0.651
 2795SOL    HW2 9285   1.837   2.348   0.705
 2796SOL     OW 9286   6.888   5.888   2.211
 2796SOL    HW1 9287   6.792   5.915   2.219
 2796SOL    HW2 9288   6.945   5.970   2.199
 2797SOL     OW 9289   5.852   5.365   4.746
 2797SOL    HW1 9290   5.913   5.295   4.783
 2797SOL    HW2 9291   5.831   5.343   4.650
 2798SOL     OW 9292   0.619   5.003   2.021
 2798SOL    HW1 9293   0.596   5.098   2.000
 2798SOL    HW2 9294   0.617   4.990   2.120
 2799SOL     OW 9295   6.364   6.564   6.993
 2799SOL    HW1 9296   6.312   6.583   6.910
 2799SOL    HW2 9297   6.302   6.529   0.035
 2800SOL     OW 9298   4.542   5.646   0.261
 2800SOL    HW1 9299   4.482   5.583   0.311
 2800SOL    HW2 9300   4.586   5.596   0.186
 2801SOL     OW 9301   5.910   5.441   5.721
 2801SOL    HW1 9302   5.910   5.350   5.763
 2801SOL    HW2 9303   5.835   5.495   5.759
 2802SOL     OW 9304   4.726   1.265   5.082
 2802SOL    HW1 9305   4.739   1.212   4.999
 2802SOL    HW2 9306   4.738   1.363   5.062
 2803SOL     OW 9307   3.803   6.134   6.604
 2803SOL    HW1 9308   3.758   6.223   6.605
 2803SOL    HW2 9309   3.735   6.062   6.621
 2804SOL     OW 9310   0.336   4.689   4.823
 2804SOL    HW1 9311   0.288   4.703   4.909
 2804SOL    HW2 9312   0.279   4.635   4.761
 2805SOL     OW 9313   5.271   3.334   1.841
 2805SOL    HW1 9314   5.242   3.259   1.900
 2805SOL    HW2 9315   5.232   3.321   1.750
 2806SOL     OW 9316   6.318   5.181   5.446
 2806SOL    HW1 9317   6.230   5.221   5.472
 2806SOL    HW2 9318   6.379   5.181   5.526
 2807SOL     OW 9319   5.020   5.690   3.415
 2807SOL    HW1 9320   4.956   5.678   3.340
 2807SOL    HW2 9321   4.984   5.756   3.480
 2808SOL     OW 9322   5.364   3.554   2.506
 2808SOL    HW1 9323   5.437   3.538   2.440
 2808SOL    HW2 9324   5.318   3.468   2.528
 2809SOL     OW 9325   5.914   2.898   0.892
 2809SOL    HW1 9326   5.924   2.827   0.823
 2809SOL    HW2 9327   5.889   2.984   0.848
 2810SOL     OW 9328   2.985   5.758   3.966
 2810SOL    HW1 9329   3.050   5.690   4.001
 2810SOL    HW2 9330   3.014   5.787   3.874
 2811SOL     OW 9331   1.073   1.632   3.495
 2811SOL    HW1 9332   1.141   1.563   3.523
 2811SOL    HW2 9333   1.113   1.723   3.504
 2812SOL     OW 9334   4.924   3.823   6.755
 2812SOL    HW1 9335   4.992   3.896   6.759
 2812SOL    HW2 9336   4.964   3.738   6.788
 2813SOL     OW 9337   6.441   6.723   5.873
 2813SOL    HW1 9338   6.444   6.823   5.864
 2813SOL    HW2 9339   6.533   6.686   5.857
 2814SOL     OW 9340   4.250   3.344   5.666
 2814SOL    HW1 9341   4.233   3.441   5.649
 2814SOL    HW2 9342   4.319   3.310   5.602
 2815SOL     OW 9343   6.280   0.504   5.376
 2815SOL    HW1 9344   6.197   0.555   5.402
 2815SOL    HW2 9345   6.359   0.547   5.419
 2816SOL     OW 9346   6.696   5.463   3.878
 2816SOL    HW1 9347   6.767   5.394   3.865
 2816SOL    HW2 9348   6.611   5.419   3.905
 2817SOL     OW 9349   2.553   6.731   1.352
 2817SOL    HW1 9350   2.579   6.827   1.361
 2817SOL    HW2 9351   2.509   6.717   1.263
 2818SOL     OW 9352   0.099   0.656   0.876
 2818SOL    HW1 9353   0.070   0.564   0.849
 2818SOL    HW2 9354   0.171   0.650   0.945
 2819SOL     OW 9355   0.510   1.173   1.796
 2819SOL    HW1 9356   0.471   1.150   1.707
 2819SOL    HW2 9357   0.499   1.096   1.859
 2820SOL     OW 9358   0.517   2.419   2.921
 2820SOL    HW1 9359   0.521   2.482   2.998
 2820SOL    HW2 9360   0.444   2.447   2.859
 2821SOL     OW 9361   4.106   3.424   0.404
 2821SOL    HW1 9362   4.038   3.427   0.331
 2821SOL    HW2 9363   4.190   3.383   0.371
 2822SOL     OW 9364   4.532   1.560   0.196
 2822SOL    HW1 9365   4.453   1.571   0.136
 2822SOL    HW2 9366   4.560   1.649   0.231
 2823SOL     OW 9367   4.564   6.477   0.124
 2823SOL    HW1 9368   4.574   6.505   0.219
 2823SOL    HW2 9369   4.467   6.458   0.104
 2824SOL     OW 9370   3.233   1.185   3.423
 2824SOL    HW1 9371   3.255   1.135   3.339
 2824SOL    HW2 9372   3.231   1.283   3.404
 2825SOL     OW 9373   6.590   0.192   6.377
 2825SOL    HW1 9374   6.543   0.127   6.317
 2825SOL    HW2 9375   6.555   0.182   6.470
 2826SOL     OW 9376   4.642   1.007   6.850
 2826SOL    HW1 9377   4.713   0.952   6.895
 2826SOL    HW2 9378   4.622   0.969   6.760
 2827SOL     OW 9379   6.834   0.401   5.077
 2827SOL    HW1 9380   6.764   0.424   5.010
 2827SOL    HW2 9381   6.827   0.304   5.102
 2828SOL     OW 9382   3.054   0.820   0.142
 2828SOL    HW1 9383   3.073   0.901   0.087
 2828SOL    HW2 9384   2.968   0.778   0.112
 2829SOL     OW 9385   3.380   3.700   5.402
 2829SOL    HW1 9386   3.331   3.774   5.357
 2829SOL    HW2 9387   3.355   3.697   5.498
 2830SOL     OW 9388   1.470   3.284   5.609
 2830SOL    HW1 9389   1.459   3.383   5.625
 2830SOL    HW2 9390   1.544   3.268   5.545
 2831SOL     OW 9391   0.439   5.320   3.724
 2831SOL    HW1 9392   0.500   5.399   3.716
 2831SOL    HW2 9393   0.404   5.296   3.634
 2832SOL     OW 9394   1.092   1.563   2.490
 2832SOL    HW1 9395   1.082   1.582   2.588
 2832SOL    HW2 9396   1.006   1.526   2.455
 2833SOL     OW 9397   4.050   2.006   2.474
 2833SOL    HW1 9398   4.075   2.049   2.387
 2833SOL    HW2 9399   3.952   1.986   2.474
 2834SOL     OW 9400   3.619   5.528   6.773
 2834SOL    HW1 9401   3.541   5.513   6.712
 2834SOL    HW2 9402   3.676   5.602   6.736
 2835SOL     OW 9403   0.252   0.392   1.516
 2835SOL    HW1 9404   0.193   0.425   1.590
 2835SOL    HW2 9405   0.219   0.428   1.429
 2836SOL     OW 9406   6.114   0.294   2.212
 2836SOL    HW1 9407   6.101   0.212   2.267
 2836SOL    HW2 9408   6.205   0.332   2.229
 2837SOL     OW 9409   5.505   4.163   2.769
 2837SOL    HW1 9410   5.583   4.156   2.708
 2837SOL    HW2 9411   5.500   4.256   2.806
 2838SOL     OW 9412   2.225   4.499   1.052
 2838SOL    HW1 9413   2.314   4.475   1.092
 2838SOL    HW2 9414   2.214   4.599   1.054
 2839SOL     OW 9415   6.715   1.505   1.813
 2839SOL    HW1 9416   6.627   1.462   1.831
 2839SOL    HW2 9417   6.747   1.479   1.721
 2840SOL     OW 9418   2.095   0.751   3.356
 2840SOL    HW1 9419   2.191   0.763   3.332
 2840SOL    HW2 9420   2.059   0.836   3.394
 2841SOL     OW 9421   0.287   1.136   6.528
 2841SOL    HW1 9422   0.353   1.064   6.505
 2841SOL    HW2 9423   0.334   1.214   6.568
 2842SOL     OW 9424   0.178   4.010   4.034
 2842SOL    HW1 9425   0.109   4.078   4.060
 2842SOL    HW2 9426   0.167   3.929   4.091
 2843SOL     OW 9427   2.708   1.599   2.747
 2843SOL    HW1 9428   2.768   1.645   2.682
 2843SOL    HW2 9429   2.753   1.518   2.784
 2844SOL     OW 9430   0.171   5.058   0.393
 2844SOL    HW1 9431   0.237   5.134   0.391
 2844SOL    HW2 9432   0.188   4.998   0.315
 2845SOL     OW 9433   5.932   2.626   1.179
 2845SOL    HW1 9434   5.921   2.650   1.083
 2845SOL    HW2 9435   5.888   2.695   1.236
 2846SOL     OW 9436   4.088   1.107   6.514
 2846SOL    HW1 9437   4.125   1.101   6.606
 2846SOL    HW2 9438   4.144   1.170   6.459
 2847SOL     OW 9439   4.934   3.476   3.543
 2847SOL    HW1 9440   4.889   3.561   3.516
 2847SOL    HW2 9441   5.023   3.497   3.584
 2848SOL     OW 9442   1.356   2.922   5.159
 2848SOL    HW1 9443   1.418   2.992   5.126
 2848SOL    HW2 9444   1.334   2.940   5.255
 2849SOL     OW 9445   3.875   6.180   0.915
 2849SOL    HW1 9446   3.847   6.276   0.910
 2849SOL    HW2 9447   3.839   6.139   0.999
 2850SOL     OW 9448   2.176   0.303   2.272
 2850SOL    HW1 9449   2.083   0.268   2.283
 2850SOL    HW2 9450   2.173   0.389   2.220
 2851SOL     OW 9451   6.165   1.732   5.878
 2851SOL    HW1 9452   6.203   1.689   5.797
 2851SOL    HW2 9453   6.236   1.785   5.925
 2852SOL     OW 9454   6.017   4.717   6.949
 2852SOL    HW1 9455   5.936   4.734   7.005
 2852SOL    HW2 9456   6.026   4.788   6.879
 2853SOL     OW 9457   1.418   2.959   6.744
 2853SOL    HW1 9458   1.375   2.914   6.822
 2853SOL    HW2 9459   1.516   2.969   6.761
 2854SOL     OW 9460   4.166   1.330   5.536
 2854SOL    HW1 9461   4.143   1.248   5.588
 2854SOL    HW2 9462   4.086   1.389   5.529
 2855SOL     OW 9463   2.670   1.698   0.071
 2855SOL    HW1 9464   2.762   1.686   0.032
 2855SOL    HW2 9465   2.613   1.747   0.005
 2856SOL     OW 9466   1.276   2.966   5.416
 2856SOL    HW1 9467   1.330   2.933   5.494
 2856SOL    HW2 9468   1.253   3.063   5.430
 2857SOL     OW 9469   2.766   2.051   2.423
 2857SOL    HW1 9470   2.692   1.996   2.383
 2857SOL    HW2 9471   2.835   2.069   2.353
 2858SOL     OW 9472   4.706   4.355   2.441
 2858SOL    HW1 9473   4.717   4.258   2.420
 2858SOL    HW2 9474   4.649   4.398   2.372
 2859SOL     OW 9475   4.963   1.680   6.411
 2859SOL    HW1 9476   5.035   1.655   6.476
 2859SOL    HW2 9477   4.937   1.775   6.425
 2860SOL     OW 9478   3.585   1.659   1.791
 2860SOL    HW1 9479   3.575   1.749   1.748
 2860SOL    HW2 9480   3.634   1.598   1.729
 2861SOL     OW 9481   3.633   3.854   5.304
 2861SOL    HW1 9482   3.546   3.806   5.303
 2861SOL    HW2 9483   3.628   3.931   5.368
 2862SOL     OW 9484   5.640   1.528   2.926
 2862SOL    HW1 9485   5.554   1.518   2.977
 2862SOL    HW2 9486   5.715   1.487   2.979
 2863SOL     OW 9487   5.257   0.968   6.526
 2863SOL    HW1 9488   5.160   0.974   6.506
 2863SOL    HW2 9489   5.302   1.053   6.498
 2864SOL     OW 9490   4.413   1.773   1.852
 2864SOL    HW1 9491   4.407   1.699   1.786
 2864SOL    HW2 9492   4.502   1.770   1.897
 2865SOL     OW 9493   4.220   4.200   6.665
 2865SOL    HW1 9494   4.236   4.190   6.763
 2865SOL    HW2 9495   4.181   4.290   6.647
 2866SOL     OW 9496   6.752   5.324   0.526
 2866SOL    HW1 9497   6.708   5.411   0.504
 2866SOL    HW2 9498   6.845   5.323   0.491
 2867SOL     OW 9499   6.048   4.734   2.631
 2867SOL    HW1 9500   6.048   4.756   2.534
 2867SOL    HW2 9501   6.055   4.819   2.684
 2868SOL     OW 9502   0.588   1.688   5.347
 2868SOL    HW1 9503   0.599   1.599   5.390
 2868SOL    HW2 9504   0.672   1.741   5.356
 2869SOL     OW 9505   6.397   1.061   2.740
 2869SOL    HW1 9506   6.380   1.151   2.780
 2869SOL    HW2 9507   6.494   1.039   2.747
 2870SOL     OW 9508   0.163   1.576   4.708
 2870SOL    HW1 9509   0.102   1.504   4.742
 2870SOL    HW2 9510   0.258   1.545   4.714
 2871SOL     OW 9511   0.358   1.959   6.982
 2871SOL    HW1 9512   0.305   1.990   6.904
 2871SOL    HW2 9513   0.384   1.863   6.969
 2872SOL     OW 9514   2.664   1.273   2.692
 2872SOL    HW1 9515   2.627   1.237   2.606
 2872SOL    HW2 9516   2.723   1.204   2.734
 2873SOL     OW 9517   0.088   5.223   3.206
 2873SOL    HW1 9518   7.020   5.249   3.205
 2873SOL    HW2 9519   0.103   5.155   3.278
 2874SOL     OW 9520   3.812   6.383   3.253
 2874SOL    HW1 9521   3.891   6.330   3.284
 2874SOL    HW2 9522   3.748   6.396   3.329
 2875SOL     OW 9523   4.852   6.883   0.423
 2875SOL    HW1 9524   4.844   6.855   0.518
 2875SOL    HW2 9525   4.805   6.816   0.364
 2876SOL     OW 9526   1.119   6.911   1.858
 2876SOL    HW1 9527   1.175   6.936   1.937
 2876SOL    HW2 9528   1.031   6.876   1.889
 2877SOL     OW 9529   3.295   2.581   5.345
 2877SOL    HW1 9530   3.288   2.491   5.302
 2877SOL    HW2 9531   3.272   2.574   5.442
 2878SOL     OW 9532   4.699   4.964   4.643
 2878SOL    HW1 9533   4.741   4.874   4.655
 2878SOL    HW2 9534   4.616   4.970   4.699
 2879SOL     OW 9535   5.124   5.081   0.812
 2879SOL    HW1 9536   5.031   5.043   0.805
 2879SOL    HW2 9537   5.169   5.043   0.893
 2880SOL     OW 9538   6.741   0.404   1.577
 2880SOL    HW1 9539   6.682   0.444   1.506
 2880SOL    HW2 9540   6.761   0.473   1.646
 2881SOL     OW 9541   5.491   5.795   6.878
 2881SOL    HW1 9542   5.459   5.877   6.830
 2881SOL    HW2 9543   5.550   5.743   6.817
 2882SOL     OW 9544   0.643   4.267   2.719
 2882SOL    HW1 9545   0.642   4.219   2.631
 2882SOL    HW2 9546   0.656   4.200   2.793
 2883SOL     OW 9547   6.087   0.029   3.532
 2883SOL    HW1 9548   6.002   0.024   3.479
 2883SOL    HW2 9549   6.126   0.121   3.525
 2884SOL     OW 9550   0.825   6.758   2.865
 2884SOL    HW1 9551   0.775   6.733   2.782
 2884SOL    HW2 9552   0.818   6.856   2.880
 2885SOL     OW 9553   0.497   2.864   2.820
 2885SOL    HW1 9554   0.593   2.849   2.844
 2885SOL    HW2 9555   0.493   2.916   2.734
 2886SOL     OW 9556   2.534   4.291   5.568
 2886SOL    HW1 9557   2.493   4.210   5.526
 2886SOL    HW2 9558   2.634   4.286   5.560
 2887SOL     OW 9559   0.434   0.601   4.532
 2887SOL    HW1 9560   0.344   0.595   4.489
 2887SOL    HW2 9561   0.487   0.518   4.511
 2888SOL     OW 9562   0.481   4.186   0.011
 2888SOL    HW1 9563   0.532   4.125   0.072
 2888SOL    HW2 9564   0.541   4.261   7.010
 2889SOL     OW 9565   1.824   0.019   2.049
 2889SOL    HW1 9566   1.869   0.052   1.966
 2889SOL    HW2 9567   1.811   6.949   2.042
 2890SOL     OW 9568   2.171   6.041   0.740
 2890SOL    HW1 9569   2.182   5.986   0.823
 2890SOL    HW2 9570   2.084   6.018   0.697
 2891SOL     OW 9571   1.284   4.324   3.663
 2891SOL    HW1 9572   1.206   4.271   3.628
 2891SOL    HW2 9573   1.251   4.408   3.706
 2892SOL     OW 9574   4.882   3.093   0.321
 2892SOL    HW1 9575   4.809   3.148   0.363
 2892SOL    HW2 9576   4.958   3.154   0.295
 2893SOL     OW 9577   0.747   6.646   4.540
 2893SOL    HW1 9578   0.655   6.615   4.519
 2893SOL    HW2 9579   0.812   6.598   4.481
 2894SOL     OW 9580   2.050   2.503   1.708
 2894SOL    HW1 9581   1.972   2.562   1.730
 2894SOL    HW2 9582   2.113   2.501   1.786
 2895SOL     OW 9583   4.488   2.272   6.043
 2895SOL    HW1 9584   4.460   2.220   6.123
 2895SOL    HW2 9585   4.517   2.363   6.071
 2896SOL     OW 9586   4.491   5.481   5.925
 2896SOL    HW1 9587   4.425   5.460   5.997
 2896SOL    HW2 9588   4.447   5.470   5.836
 2897SOL     OW 9589   3.662   4.893   3.234
 2897SOL    HW1 9590   3.678   4.883   3.136
 2897SOL    HW2 9591   3.662   4.990   3.259
 2898SOL     OW 9592   3.785   5.526   4.272
 2898SOL    HW1 9593   3.872   5.554   4.232
 2898SOL    HW2 9594   3.782   5.554   4.368
 2899SOL     OW 9595   0.759   1.924   0.572
 2899SOL    HW1 9596   0.742   2.008   0.519
 2899SOL    HW2 9597   0.690   1.915   0.643
 2900SOL     OW 9598   1.826   4.549   5.350
 2900SOL    HW1 9599   1.871   4.471   5.395
 2900SOL    HW2 9600   1.863   4.561   5.258
 2901SOL     OW 9601   2.969   6.049   3.853
 2901SOL    HW1 9602   3.022   6.081   3.932
 2901SOL    HW2 9603   3.021   5.979   3.804
 2902SOL     OW 9604   4.915   6.672   2.534
 2902SOL    HW1 9605   4.997   6.621   2.560
 2902SOL    HW2 9606   4.835   6.615   2.546
 2903SOL     OW 9607   3.980   0.899   0.270
 2903SOL    HW1 9608   4.074   0.867   0.273
 2903SOL    HW2 9609   3.970   0.969   0.199
 2904SOL     OW 9610   2.152   4.007   5.280
 2904SOL    HW1 9611   2.065   4.021   5.232
 2904SOL    HW2 9612   2.221   3.975   5.216
 2905SOL     OW 9613   1.470   2.820   3.835
 2905SOL    HW1 9614   1.377   2.856   3.829
 2905SOL    HW2 9615   1.474   2.732   3.788
 2906SOL     OW 9616   4.481   5.838   2.286
 2906SOL    HW1 9617   4.419   5.858   2.211
 2906SOL    HW2 9618   4.432   5.787   2.357
 2907SOL     OW 9619   0.820   1.638   3.472
 2907SOL    HW1 9620   0.804   1.552   3.424
 2907SOL    HW2 9621   0.916   1.645   3.497
 2908SOL     OW 9622   4.360   6.260   4.257
 2908SOL    HW1 9623   4.430   6.285   4.324
 2908SOL    HW2 9624   4.319   6.342   4.219
 2909SOL     OW 9625   1.581   6.496   3.345
 2909SOL    HW1 9626   1.483   6.480   3.360
 2909SOL    HW2 9627   1.606   6.465   3.253
 2910SOL     OW 9628   4.409   6.550   4.683
 2910SOL    HW1 9629   4.484   6.486   4.697
 2910SOL    HW2 9630   4.332   6.502   4.641
 2911SOL     OW 9631   1.144   5.561   3.331
 2911SOL    HW1 9632   1.084   5.640   3.323
 2911SOL    HW2 9633   1.217   5.581   3.396
 2912SOL     OW 9634   4.927   0.387   6.977
 2912SOL    HW1 9635   4.876   0.354   0.028
 2912SOL    HW2 9636   5.025   0.372   6.992
 2913SOL     OW 9637   2.710   4.705   2.929
 2913SOL    HW1 9638   2.666   4.615   2.938
 2913SOL    HW2 9639   2.793   4.706   2.984
 2914SOL     OW 9640   5.500   5.979   6.183
 2914SOL    HW1 9641   5.453   6.047   6.240
 2914SOL    HW2 9642   5.587   6.017   6.151
 2915SOL     OW 9643   5.544   1.736   4.404
 2915SOL    HW1 9644   5.564   1.833   4.392
 2915SOL    HW2 9645   5.628   1.688   4.432
 2916SOL     OW 9646   0.621   6.174   6.518
 2916SOL    HW1 9647   0.637   6.185   6.616
 2916SOL    HW2 9648   0.523   6.159   6.501
 2917SOL     OW 9649   3.020   6.901   2.754
 2917SOL    HW1 9650   3.033   6.998   2.737
 2917SOL    HW2 9651   2.969   6.861   2.678
 2918SOL     OW 9652   0.102   5.014   4.210
 2918SOL    HW1 9653   0.120   4.938   4.147
 2918SOL    HW2 9654   0.004   5.021   4.226
 2919SOL     OW 9655   6.642   1.182   0.987
 2919SOL    HW1 9656   6.585   1.187   0.904
 2919SOL    HW2 9657   6.727   1.134   0.966
 2920SOL     OW 9658   2.670   2.202   1.881
 2920SOL    HW1 9659   2.657   2.115   1.928
 2920SOL    HW2 9660   2.733   2.259   1.935
 2921SOL     OW 9661   1.081   0.931   3.195
 2921SOL    HW1 9662   1.158   0.974   3.243
 2921SOL    HW2 9663   1.065   0.840   3.231
 2922SOL     OW 9664   5.112   0.845   0.548
 2922SOL    HW1 9665   5.050   0.876   0.620
 2922SOL    HW2 9666   5.198   0.814   0.589
 2923SOL     OW 9667   6.984   5.518   1.992
 2923SOL    HW1 9668   7.013   5.504   2.087
 2923SOL    HW2 9669   6.977   5.616   1.973
 2924SOL     OW 9670   6.824   1.513   6.295
 2924SOL    HW1 9671   6.770   1.483   6.374
 2924SOL    HW2 9672   6.880   1.592   6.322
 2925SOL     OW 9673   4.171   1.246   2.662
 2925SOL    HW1 9674   4.137   1.236   2.755
 2925SOL    HW2 9675   4.142   1.334   2.626
 2926SOL     OW 9676   6.388   1.559   4.640
 2926SOL    HW1 9677   6.330   1.550   4.559
 2926SOL    HW2 9678   6.361   1.640   4.691
 2927SOL     OW 9679   0.891   2.029   2.427
 2927SOL    HW1 9680   0.827   2.081   2.370
 2927SOL    HW2 9681   0.847   1.945   2.458
 2928SOL     OW 9682   6.935   1.443   6.064
 2928SOL    HW1 9683   6.894   1.468   6.152
 2928SOL    HW2 9684   6.909   1.511   5.996
 2929SOL     OW 9685   1.183   1.741   6.974
 2929SOL    HW1 9686   1.140   1.710   0.030
 2929SOL    HW2 9687   1.132   1.705   6.895
 2930SOL     OW 9688   4.744   6.172   5.108
 2930SOL    HW1 9689   4.764   6.215   5.020
 2930SOL    HW2 9690   4.796   6.217   5.180
 2931SOL     OW 9691   5.492   4.686   0.349
 2931SOL    HW1 9692   5.513   4.693   0.446
 2931SOL    HW2 9693   5.567   4.638   0.302
 2932SOL     OW 9694   0.380   5.072   1.102
 2932SOL    HW1 9695   0.406   5.087   1.198
 2932SOL    HW2 9696   0.383   4.975   1.082
 2933SOL     OW 9697   5.897   4.443   3.255
 2933SOL    HW1 9698   5.862   4.461   3.163
 2933SOL    HW2 9699   5.874   4.520   3.315
 2934SOL     OW 9700   4.722   1.218   6.988
 2934SOL    HW1 9701   4.676   1.134   6.959
 2934SOL    HW2 9702   4.750   1.270   6.907
 2935SOL     OW 9703   6.264   2.789   0.386
 2935SOL    HW1 9704   6.363   2.804   0.393
 2935SOL    HW2 9705   6.216   2.853   0.445
 2936SOL     OW 9706   3.607   5.799   1.621
 2936SOL    HW1 9707   3.557   5.884   1.636
 2936SOL    HW2 9708   3.657   5.774   1.704
 2937SOL     OW 9709   4.799   4.514   0.440
 2937SOL    HW1 9710   4.776   4.595   0.494
 2937SOL    HW2 9711   4.759   4.433   0.482
 2938SOL     OW 9712   4.735   5.816   6.826
 2938SOL    HW1 9713   4.824   5.776   6.844
 2938SOL    HW2 9714   4.704   5.789   6.735
 2939SOL     OW 9715   1.296   1.024   3.299
 2939SOL    HW1 9716   1.363   1.052   3.230
 2939SOL    HW2 9717   1.313   1.075   3.383
 2940SOL     OW 9718   6.109   5.454   6.048
 2940SOL    HW1 9719   6.124   5.552   6.045
 2940SOL    HW2 9720   6.013   5.435   6.066
 2941SOL     OW 9721   1.571   3.418   4.404
 2941SOL    HW1 9722   1.512   3.409   4.324
 2941SOL    HW2 9723   1.514   3.434   4.485
 2942SOL     OW 9724   3.119   2.987   1.107
 2942SOL    HW1 9725   3.113   2.917   1.178
 2942SOL    HW2 9726   3.091   2.949   1.019
 2943SOL     OW 9727   4.966   4.665   3.066
 2943SOL    HW1 9728   5.004   4.579   3.101
 2943SOL    HW2 9729   4.907   4.707   3.135
 2944SOL     OW 9730   2.858   5.544   5.070
 2944SOL    HW1 9731   2.886   5.595   5.152
 2944SOL    HW2 9732   2.822   5.608   5.002
 2945SOL     OW 9733   3.560   4.118   3.961
 2945SOL    HW1 9734   3.566   4.066   3.875
 2945SOL    HW2 9735   3.635   4.092   4.021
 2946SOL     OW 9736   0.616   5.037   6.662
 2946SOL    HW1 9737   0.615   4.964   6.595
 2946SOL    HW2 9738   0.544   5.103   6.640
 2947SOL     OW 9739   0.420   3.355   0.441
 2947SOL    HW1 9740   0.445   3.429   0.378
 2947SOL    HW2 9741   0.432   3.267   0.394
 2948SOL     OW 9742   0.769   4.759   5.934
 2948SOL    HW1 9743   0.749   4.822   6.009
 2948SOL    HW2 9744   0.754   4.806   5.846
 2949SOL     OW 9745   2.923   4.956   0.954
 2949SOL    HW1 9746   2.853   4.886   0.968
 2949SOL    HW2 9747   2.884   5.047   0.972
 2950SOL     OW 9748   5.294   3.891   4.263
 2950SOL    HW1 9749   5.257   3.943   4.187
 2950SOL    HW2 9750   5.255   3.799   4.263
 2951SOL     OW 9751   5.901   1.459   0.900
 2951SOL    HW1 9752   5.961   1.413   0.834
 2951SOL    HW2 9753   5.940   1.452   0.992
 2952SOL     OW 9754   1.178   5.416   5.065
 2952SOL    HW1 9755   1.136   5.500   5.030
 2952SOL    HW2 9756   1.126   5.337   5.033
 2953SOL     OW 9757   5.105   3.871   2.981
 2953SOL    HW1 9758   5.033   3.803   2.997
 2953SOL    HW2 9759   5.162   3.842   2.905
 2954SOL     OW 9760   0.494   6.083   2.300
 2954SOL    HW1 9761   0.523   6.178   2.312
 2954SOL    HW2 9762   0.439   6.055   2.379
 2955SOL     OW 9763   1.038   3.778   1.478
 2955SOL    HW1 9764   1.057   3.802   1.573
 2955SOL    HW2 9765   0.939   3.777   1.462
 2956SOL     OW 9766   5.704   6.594   3.088
 2956SOL    HW1 9767   5.737   6.654   3.160
 2956SOL    HW2 9768   5.604   6.598   3.084
 2957SOL     OW 9769   6.079   3.027   2.508
 2957SOL    HW1 9770   6.085   3.012   2.409
 2957SOL    HW2 9771   6.082   3.126   2.526
 2958SOL     OW 9772   2.344   4.243   4.705
 2958SOL    HW1 9773   2.273   4.219   4.771
 2958SOL    HW2 9774   2.417   4.174   4.708
 2959SOL     OW 9775   4.879   4.448   0.781
 2959SOL    HW1 9776   4.892   4.547   0.775
 2959SOL    HW2 9777   4.966   4.402   0.763
 2960SOL     OW 9778   4.168   0.159   6.087
 2960SOL    HW1 9779   4.175   0.103   6.169
 2960SOL    HW2 9780   4.073   0.165   6.057
 2961SOL     OW 9781   4.898   3.201   2.962
 2961SOL    HW1 9782   4.937   3.134   3.025
 2961SOL    HW2 9783   4.930   3.293   2.987
 2962SOL     OW 9784   4.132   0.901   3.503
 2962SOL    HW1 9785   4.080   0.855   3.576
 2962SOL    HW2 9786   4.068   0.934   3.433
 2963SOL     OW 9787   2.367   0.300   6.837
 2963SOL    HW1 9788   2.289   0.244   6.864
 2963SOL    HW2 9789   2.348   0.341   6.747
 2964SOL     OW 9790   0.600   6.980   2.584
 2964SOL    HW1 9791   0.557   6.891   2.572
 2964SOL    HW2 9792   0.679   6.988   2.524
 2965SOL     OW 9793   6.470   1.141   4.435
 2965SOL    HW1 9794   6.558   1.111   4.471
 2965SOL    HW2 9795   6.445   1.084   4.356
 2966SOL     OW 9796   6.712   5.755   4.191
 2966SOL    HW1 9797   6.697   5.660   4.218
 2966SOL    HW2 9798   6.810   5.772   4.184
 2967SOL     OW 9799   5.884   1.106   4.641
 2967SOL    HW1 9800   5.922   1.146   4.558
 2967SOL    HW2 9801   5.921   1.014   4.655
 2968SOL     OW 9802   0.408   3.308   6.373
 2968SOL    HW1 9803   0.366   3.398   6.361
 2968SOL    HW2 9804   0.498   3.319   6.415
 2969SOL     OW 9805   5.551   1.245   4.415
 2969SOL    HW1 9806   5.604   1.161   4.410
 2969SOL    HW2 9807   5.477   1.234   4.482
 2970SOL     OW 9808   1.589   4.438   6.219
 2970SOL    HW1 9809   1.560   4.531   6.239
 2970SOL    HW2 9810   1.577   4.419   6.122
 2971SOL     OW 9811   5.812   4.388   6.689
 2971SOL    HW1 9812   5.807   4.290   6.669
 2971SOL    HW2 9813   5.722   4.421   6.716
 2972SOL     OW 9814   6.072   4.383   6.193
 2972SOL    HW1 9815   6.145   4.354   6.255
 2972SOL    HW2 9816   5.986   4.389   6.244
 2973SOL     OW 9817   5.595   0.907   3.929
 2973SOL    HW1 9818   5.585   0.988   3.986
 2973SOL    HW2 9819   5.556   0.925   3.838
 2974SOL     OW 9820   0.884   4.234   3.172
 2974SOL    HW1 9821   0.896   4.146   3.217
 2974SOL    HW2 9822   0.889   4.307   3.240
 2975SOL     OW 9823   6.373   2.618   5.069
 2975SOL    HW1 9824   6.314   2.620   5.150
 2975SOL    HW2 9825   6.434   2.698   5.070
 2976SOL     OW 9826   4.236   2.111   3.056
 2976SOL    HW1 9827   4.156   2.151   3.012
 2976SOL    HW2 9828   4.319   2.157   3.023
 2977SOL     OW 9829   2.420   0.098   3.405
 2977SOL    HW1 9830   2.364   0.178   3.423
 2977SOL    HW2 9831   2.489   0.089   3.478
 2978SOL     OW 9832   4.494   4.760   7.013
 2978SOL    HW1 9833   4.592   4.781   7.008
 2978SOL    HW2 9834   4.448   4.832   0.037
 2979SOL     OW 9835   4.719   1.119   4.420
 2979SOL    HW1 9836   4.730   1.141   4.516
 2979SOL    HW2 9837   4.803   1.141   4.370
 2980SOL     OW 9838   1.713   6.740   3.997
 2980SOL    HW1 9839   1.717   6.743   3.897
 2980SOL    HW2 9840   1.794   6.692   4.032
 2981SOL     OW 9841   1.985   1.015   6.048
 2981SOL    HW1 9842   2.040   0.932   6.043
 2981SOL    HW2 9843   1.916   1.005   6.119
 2982SOL     OW 9844   3.826   5.398   3.308
 2982SOL    HW1 9845   3.857   5.445   3.391
 2982SOL    HW2 9846   3.737   5.433   3.281
 2983SOL     OW 9847   1.178   2.107   3.429
 2983SOL    HW1 9848   1.171   2.066   3.338
 2983SOL    HW2 9849   1.243   2.054   3.484
 2984SOL     OW 9850   5.806   5.788   1.399
 2984SOL    HW1 9851   5.776   5.881   1.379
 2984SOL    HW2 9852   5.730   5.724   1.384
 2985SOL     OW 9853   1.236   2.449   5.581
 2985SOL    HW1 9854   1.295   2.435   5.661
 2985SOL    HW2 9855   1.209   2.360   5.543
 2986SOL     OW 9856   3.229   3.999   5.581
 2986SOL    HW1 9857   3.239   3.906   5.617
 2986SOL    HW2 9858   3.229   3.996   5.481
 2987SOL     OW 9859   5.987   1.244   4.430
 2987SOL    HW1 9860   6.086   1.243   4.415
 2987SOL    HW2 9861   5.940   1.247   4.341
 2988SOL     OW 9862   0.793   6.237   3.208
 2988SOL    HW1 9863   0.758   6.156   3.256
 2988SOL    HW2 9864   0.838   6.208   3.123
 2989SOL     OW 9865   6.717   6.371   6.524
 2989SOL    HW1 9866   6.768   6.308   6.581
 2989SOL    HW2 9867   6.775   6.402   6.448
 2990SOL     OW 9868   4.412   1.766   4.203
 2990SOL    HW1 9869   4.367   1.855   4.215
 2990SOL    HW2 9870   4.487   1.776   4.137
 2991SOL     OW 9871   6.228   4.211   5.846
 2991SOL    HW1 9872   6.229   4.292   5.787
 2991SOL    HW2 9873   6.316   4.203   5.893
 2992SOL     OW 9874   2.707   5.293   5.692
 2992SOL    HW1 9875   2.768   5.367   5.665
 2992SOL    HW2 9876   2.620   5.331   5.724
 2993SOL     OW 9877   0.429   5.283   1.483
 2993SOL    HW1 9878   0.521   5.297   1.520
 2993SOL    HW2 9879   0.418   5.187   1.457
 2994SOL     OW 9880   3.927   6.540   0.163
 2994SOL    HW1 9881   3.920   6.513   0.259
 2994SOL    HW2 9882   3.931   6.459   0.105
 2995SOL     OW 9883   1.721   2.788   0.048
 2995SOL    HW1 9884   1.655   2.851   0.007
 2995SOL    HW2 9885   1.718   2.700   0.001
 2996SOL     OW 9886   2.342   0.140   3.983
 2996SOL    HW1 9887   2.424   0.156   3.929
 2996SOL    HW2 9888   2.276   0.213   3.967
 2997SOL     OW 9889   6.040   1.017   2.332
 2997SOL    HW1 9890   5.941   1.010   2.330
 2997SOL    HW2 9891   6.072   1.017   2.427
 2998SOL     OW 9892   4.417   6.978   4.310
 2998SOL    HW1 9893   4.487   7.017   4.250
 2998SOL    HW2 9894   4.401   6.882   4.285
 2999SOL     OW 9895   2.748   4.827   4.452
 2999SOL    HW1 9896   2.780   4.918   4.480
 2999SOL    HW2 9897   2.706   4.781   4.529
 3000SOL     OW 9898   2.099   3.320   6.827
 3000SOL    HW1 9899   2.142   3.391   6.882
 3000SOL    HW2 9900   2.120   3.335   6.730
 3001SOL     OW 9901   4.939   6.414   6.039
 3001SOL    HW1 9902   4.977   6.455   6.122
 3001SOL    HW2 9903   4.855   6.463   6.013
 3002SOL     OW 9904   4.081   0.644   6.480
 3002SOL    HW1 9905   4.056   0.547   6.472
 3002SOL    HW2 9906   4.132   0.672   6.399
 3003SOL     OW 9907   2.563   6.826   0.090
 3003SOL    HW1 9908   2.580   6.828   7.020
 3003SOL    HW2 9909   2.470   6.792   0.106
 3004SOL     OW 9910   1.601   4.773   3.295
 3004SOL    HW1 9911   1.669   4.713   3.338
 3004SOL    HW2 9912   1.623   4.869   3.316
 3005SOL     OW 9913   3.380   2.729   6.579
 3005SOL    HW1 9914   3.343   2.796   6.514
 3005SOL    HW2 9915   3.418   2.651   6.529
 3006SOL     OW 9916   5.254   2.183   6.026
 3006SOL    HW1 9917   5.346   2.199   5.992
 3006SOL    HW2 9918   5.197   2.146   5.953
 3007SOL     OW 9919   5.813   5.725   0.987
 3007SOL    HW1 9920   5.849   5.802   0.933
 3007SOL    HW2 9921   5.884   5.691   1.047
 3008SOL     OW 9922   3.699   1.265   6.649
 3008SOL    HW1 9923   3.791   1.288   6.619
 3008SOL    HW2 9924   3.677   1.318   6.731
 3009SOL     OW 9925   1.059   1.086   2.943
 3009SOL    HW1 9926   1.065   1.020   3.018
 3009SOL    HW2 9927   1.080   1.040   2.856
 3010SOL     OW 9928   2.991   5.855   3.304
 3010SOL    HW1 9929   2.901   5.891   3.327
 3010SOL    HW2 9930   3.055   5.930   3.287
 3011SOL     OW 9931   5.201   1.171   1.124
 3011SOL    HW1 9932   5.123   1.194   1.183
 3011SOL    HW2 9933   5.221   1.073   1.131
 3012SOL     OW 9934   1.429   3.929   5.192
 3012SOL    HW1 9935   1.379   3.845   5.169
 3012SOL    HW2 9936   1.386   3.972   5.272
 3013SOL     OW 9937   5.305   5.810   4.526
 3013SOL    HW1 9938   5.205   5.807   4.516
 3013SOL    HW2 9939   5.345   5.846   4.442
 3014SOL     OW 9940   5.083   2.713   4.773
 3014SOL    HW1 9941   5.013   2.701   4.844
 3014SOL    HW2 9942   5.046   2.768   4.699
 3015SOL     OW 9943   3.185   2.468   6.946
 3015SOL    HW1 9944   3.120   2.539   6.916
 3015SOL    HW2 9945   3.273   2.510   6.967
 3016SOL     OW 9946   2.461   6.241   4.442
 3016SOL    HW1 9947   2.383   6.229   4.504
 3016SOL    HW2 9948   2.539   6.188   4.474
 3017SOL     OW 9949   0.275   5.159   2.032
 3017SOL    HW1 9950   0.192   5.181   1.980
 3017SOL    HW2 9951   0.348   5.222   2.007
 3018SOL     OW 9952   2.598   6.550   5.999
 3018SOL    HW1 9953   2.559   6.458   6.003
 3018SOL    HW2 9954   2.534   6.615   6.039
 3019SOL     OW 9955   1.111   0.216   6.920
 3019SOL    HW1 9956   1.126   0.266   7.005
 3019SOL    HW2 9957   1.200   0.194   6.879
 3020SOL     OW 9958   3.981   3.150   2.141
 3020SOL    HW1 9959   4.035   3.137   2.058
 3020SOL    HW2 9960   3.888   3.114   2.127
 3021SOL     OW 9961   3.253   0.316   6.799
 3021SOL    HW1 9962   3.194   0.378   6.851
 3021SOL    HW2 9963   3.262   0.230   6.849
 3022SOL     OW 9964   3.776   4.944   4.633
 3022SOL    HW1 9965   3.816   4.941   4.542
 3022SOL    HW2 9966   3.677   4.933   4.626
 3023SOL     OW 9967   4.099   0.442   2.879
 3023SOL    HW1 9968   4.101   0.343   2.885
 3023SOL    HW2 9969   4.165   0.473   2.810
 3024SOL     OW 9970   4.165   6.405   5.366
 3024SOL    HW1 9971   4.192   6.498   5.391
 3024SOL    HW2 9972   4.165   6.347   5.448
 3025SOL     OW 9973   3.397   0.999   0.406
 3025SOL    HW1 9974   3.415   1.095   0.384
 3025SOL    HW2 9975   3.422   0.942   0.328
 3026SOL     OW 9976   1.272   1.149   0.685
 3026SOL    HW1 9977   1.225   1.074   0.639
 3026SOL    HW2 9978   1.288   1.126   0.781
 3027SOL     OW 9979   4.149   0.852   3.148
 3027SOL    HW1 9980   4.246   0.860   3.171
 3027SOL    HW2 9981   4.106   0.781   3.205
 3028SOL     OW 9982   1.173   4.568   5.557
 3028SOL    HW1 9983   1.213   4.477   5.565
 3028SOL    HW2 9984   1.128   4.577   5.468
 3029SOL     OW 9985   6.929   2.995   4.988
 3029SOL    HW1 9986   6.999   3.054   4.947
 3029SOL    HW2 9987   6.840   3.016   4.947
 3030SOL     OW 9988   0.821   3.066   6.110
 3030SOL    HW1 9989   0.768   3.039   6.190
 3030SOL    HW2 9990   0.779   3.027   6.028
 3031SOL     OW 9991   0.485   2.754   0.671
 3031SOL    HW1 9992   0.479   2.841   0.622
 3031SOL    HW2 9993   0.564   2.755   0.732
 3032SOL     OW 9994   4.156   6.460   1.654
 3032SOL    HW1 9995   4.126   6.507   1.737
 3032SOL    HW2 9996   4.080   6.409   1.615
 3033SOL     OW 9997   6.788   2.018   1.553
 3033SOL    HW1 9998   6.755   2.011   1.459
 3033SOL    HW2 9999   6.829   2.108   1.567
 3034SOL     OW10000   1.441   5.764   3.421
 3034SOL    HW110001   1.524   5.793   3.468
 3034SOL    HW210002   1.410   5.836   3.359
 3035SOL     OW10003   6.945   3.068   0.203
 3035SOL    HW110004   6.944   3.163   0.173
 3035SOL    HW210005   6.910   3.062   0.297
 3036SOL     OW10006   1.240   2.497   6.465
 3036SOL    HW110007   1.296   2.423   6.502
 3036SOL    HW210008   1.271   2.584   6.502
 3037SOL     OW10009   6.929   6.206   5.194
 3037SOL    HW110010   6.832   6.214   5.170
 3037SOL    HW210011   6.974   6.143   5.131
 3038SOL     OW10012   5.823   5.940   5.654
 3038SOL    HW110013   5.749   5.922   5.589
 3038SOL    HW210014   5.908   5.901   5.619
 3039SOL     OW10015   6.601   4.053   1.319
 3039SOL    HW110016   6.516   4.012   1.352
 3039SOL    HW210017   6.588   4.084   1.225
 3040SOL     OW10018   3.857   3.413   6.074
 3040SOL    HW110019   3.815   3.408   5.983
 3040SOL    HW210020   3.881   3.507   6.094
 3041SOL     OW10021   2.030   2.883   4.524
 3041SOL    HW110022   2.076   2.967   4.499
 3041SOL    HW210023   2.093   2.806   4.518
 3042SOL     OW10024   4.755   6.440   2.304
 3042SOL    HW110025   4.701   6.361   2.274
 3042SOL    HW210026   4.759   6.508   2.230
 3043SOL     OW10027   0.881   5.542   1.595
 3043SOL    HW110028   0.946   5.498   1.534
 3043SOL    HW210029   0.853   5.478   1.667
 3044SOL     OW10030   3.245   3.549   6.058
 3044SOL    HW110031   3.157   3.502   6.048
 3044SOL    HW210032   3.231   3.648   6.054
 3045SOL     OW10033   4.788   0.860   2.709
 3045SOL    HW110034   4.775   0.901   2.799
 3045SOL    HW210035   4.838   0.774   2.719
 3046SOL     OW10036   2.552   1.072   6.395
 3046SOL    HW110037   2.623   1.012   6.432
 3046SOL    HW210038   2.478   1.016   6.357
 3047SOL     OW10039   5.516   0.298   2.686
 3047SOL    HW110040   5.481   0.214   2.645
 3047SOL    HW210041   5.462   0.376   2.655
 3048SOL     OW10042   4.006   2.783   1.502
 3048SOL    HW110043   4.005   2.725   1.420
 3048SOL    HW210044   3.997   2.725   1.583
 3049SOL     OW10045   0.879   6.832   1.923
 3049SOL    HW110046   0.823   6.772   1.866
 3049SOL    HW210047   0.820   6.879   1.989
 3050SOL     OW10048   3.246   0.873   2.474
 3050SOL    HW110049   3.149   0.887   2.456
 3050SOL    HW210050   3.293   0.850   2.388
 3051SOL     OW10051   2.047   4.121   0.143
 3051SOL    HW110052   1.948   4.126   0.155
 3051SOL    HW210053   2.085   4.054   0.206
 3052SOL     OW10054   5.520   0.318   2.281
 3052SOL    HW110055   5.614   0.312   2.247
 3052SOL    HW210056   5.458   0.336   2.205
 3053SOL     OW10057   0.074   2.075   6.907
 3053SOL    HW110058   0.160   2.124   6.891
 3053SOL    HW210059   0.093   1.978   6.920
 3054SOL     OW10060   6.683   1.753   1.252
 3054SOL    HW110061   6.667   1.732   1.155
 3054SOL    HW210062   6.751   1.826   1.259
 3055SOL     OW10063   5.141   6.913   3.864
 3055SOL    HW110064   5.227   6.870   3.895
 3055SOL    HW210065   5.076   6.841   3.839
 3056SOL     OW10066   5.977   1.026   5.242
 3056SOL    HW110067   5.893   1.050   5.290
 3056SOL    HW210068   5.961   1.028   5.143
 3057SOL     OW10069   3.707   6.033   3.414
 3057SOL    HW110070   3.759   6.006   3.334
 3057SOL    HW210071   3.769   6.055   3.489
 3058SOL     OW10072   6.717   5.669   0.934
 3058SOL    HW110073   6.767   5.657   0.848
 3058SOL    HW210074   6.727   5.588   0.990
 3059SOL     OW10075   2.520   2.031   4.382
 3059SOL    HW110076   2.531   2.090   4.302
 3059SOL    HW210077   2.471   1.948   4.356
 3060SOL     OW10078   0.333   5.305   0.361
 3060SOL    HW110079   0.288   5.356   0.288
 3060SOL    HW210080   0.347   5.365   0.440
 3061SOL     OW10081   6.532   0.005   5.572
 3061SOL    HW110082   6.476   6.973   5.628
 3061SOL    HW210083   6.488   0.018   5.483
 3062SOL     OW10084   1.677   6.416   6.916
 3062SOL    HW110085   1.636   6.327   6.936
 3062SOL    HW210086   1.730   6.409   6.831
 3063SOL     OW10087   2.715   5.514   1.387
 3063SOL    HW110088   2.617   5.508   1.403
 3063SOL    HW210089   2.734   5.497   1.290
 3064SOL     OW10090   5.863   4.108   2.937
 3064SOL    HW110091   5.906   4.137   2.852
 3064SOL    HW210092   5.874   4.009   2.948
 3065SOL     OW10093   2.467   1.028   0.109
 3065SOL    HW110094   2.487   1.099   0.041
 3065SOL    HW210095   2.372   0.999   0.101
 3066SOL     OW10096   5.386   4.990   0.944
 3066SOL    HW110097   5.468   4.949   0.904
 3066SOL    HW210098   5.382   5.087   0.920
 3067SOL     OW10099   3.803   1.917   5.450
 3067SOL    HW110100   3.824   1.926   5.352
 3067SOL    HW210101   3.706   1.899   5.461
 3068SOL     OW10102   6.298   6.564   1.847
 3068SOL    HW110103   6.281   6.563   1.748
 3068SOL    HW210104   6.227   6.618   1.892
 3069SOL     OW10105   6.551   6.627   1.913
 3069SOL    HW110106   6.475   6.585   1.865
 3069SOL    HW210107   6.534   6.625   2.012
 3070SOL     OW10108   1.470   1.325   1.639
 3070SOL    HW110109   1.468   1.240   1.587
 3070SOL    HW210110   1.461   1.305   1.736
 3071SOL     OW10111   6.521   6.119   2.749
 3071SOL    HW110112   6.620   6.127   2.738
 3071SOL    HW210113   6.493   6.169   2.831
 3072SOL     OW10114   1.614   6.839   6.775
 3072SOL    HW110115   1.537   6.900   6.756
 3072SOL    HW210116   1.685   6.890   6.824
 3073SOL     OW10117   6.337   2.755   4.606
 3073SOL    HW110118   6.308   2.746   4.701
 3073SOL    HW210119   6.406   2.828   4.599
 3074SOL     OW10120   5.945   3.283   1.096
 3074SOL    HW110121   5.970   3.187   1.110
 3074SOL    HW210122   5.938   3.329   1.184
 3075SOL     OW10123   2.422   5.985   1.990
 3075SOL    HW110124   2.492   5.946   2.049
 3075SOL    HW210125   2.338   5.933   1.999
 3076SOL     OW10126   6.676   0.566   4.232
 3076SOL    HW110127   6.658   0.470   4.253
 3076SOL    HW210128   6.765   0.574   4.188
 3077SOL     OW10129   4.798   6.121   2.317
 3077SOL    HW110130   4.860   6.157   2.386
 3077SOL    HW210131   4.789   6.022   2.329
 3078SOL     OW10132   1.108   3.243   2.145
 3078SOL    HW110133   1.181   3.175   2.141
 3078SOL    HW210134   1.136   3.325   2.095
 3079SOL     OW10135   2.241   2.141   4.312
 3079SOL    HW110136   2.337   2.169   4.306
 3079SOL    HW210137   2.217   2.089   4.231
 3080SOL     OW10138   4.930   3.758   3.765
 3080SOL    HW110139   5.007   3.815   3.737
 3080SOL    HW210140   4.879   3.729   3.684
 3081SOL     OW10141   0.553   2.445   6.238
 3081SOL    HW110142   0.647   2.412   6.241
 3081SOL    HW210143   0.541   2.506   6.160
 3082SOL     OW10144   2.740   6.954   4.183
 3082SOL    HW110145   2.679   6.881   4.215
 3082SOL    HW210146   2.814   6.914   4.130
 3083SOL     OW10147   3.998   6.202   3.428
 3083SOL    HW110148   4.053   6.122   3.404
 3083SOL    HW210149   3.973   6.198   3.525
 3084SOL     OW10150   5.430   3.800   4.577
 3084SOL    HW110151   5.511   3.746   4.599
 3084SOL    HW210152   5.419   3.807   4.478
 3085SOL     OW10153   6.625   4.567   1.941
 3085SOL    HW110154   6.651   4.587   2.035
 3085SOL    HW210155   6.672   4.629   1.879
 3086SOL     OW10156   3.914   2.055   1.596
 3086SOL    HW110157   3.834   2.115   1.584
 3086SOL    HW210158   3.972   2.093   1.668
 3087SOL     OW10159   0.389   5.465   4.117
 3087SOL    HW110160   0.318   5.505   4.176
 3087SOL    HW210161   0.451   5.410   4.173
 3088SOL     OW10162   2.280   4.391   5.664
 3088SOL    HW110163   2.273   4.467   5.600
 3088SOL    HW210164   2.369   4.346   5.654
 3089SOL     OW10165   1.104   3.279   0.342
 3089SOL    HW110166   1.169   3.265   0.267
 3089SOL    HW210167   1.133   3.358   0.396
 3090SOL     OW10168   1.674   2.067   2.008
 3090SOL    HW110169   1.758   2.112   1.977
 3090SOL    HW210170   1.693   1.971   2.026
 3091SOL     OW10171   1.853   0.936   1.139
 3091SOL    HW110172   1.895   0.888   1.062
 3091SOL    HW210173   1.901   1.023   1.154
 3092SOL     OW10174   5.144   6.776   0.626
 3092SOL    HW110175   5.070   6.745   0.567
 3092SOL    HW210176   5.108   6.839   0.695
 3093SOL     OW10177   5.117   6.144   5.419
 3093SOL    HW110178   5.164   6.162   5.506
 3093SOL    HW210179   5.024   6.181   5.424
 3094SOL     OW10180   2.602   6.514   4.423
 3094SOL    HW110181   2.537   6.438   4.420
 3094SOL    HW210182   2.694   6.479   4.440
 3095SOL     OW10183   2.097   5.421   5.902
 3095SOL    HW110184   2.076   5.380   5.813
 3095SOL    HW210185   2.196   5.416   5.918
 3096SOL     OW10186   1.770   6.134   4.958
 3096SOL    HW110187   1.676   6.130   4.923
 3096SOL    HW210188   1.834   6.108   4.885
 3097SOL     OW10189   6.809   2.539   0.640
 3097SOL    HW110190   6.887   2.497   0.687
 3097SOL    HW210191   6.725   2.490   0.666
 3098SOL     OW10192   2.913   3.308   0.872
 3098SOL    HW110193   2.957   3.269   0.953
 3098SOL    HW210194   2.881   3.400   0.892
 3099SOL     OW10195   0.595   6.706   3.018
 3099SOL    HW110196   0.686   6.674   2.990
 3099SOL    HW210197   0.586   6.803   2.999
 3100SOL     OW10198   6.423   6.839   4.848
 3100SOL    HW110199   6.520   6.819   4.863
 3100SOL    HW210200   6.412   6.889   4.762
 3101SOL     OW10201   4.911   6.658   6.183
 3101SOL    HW110202   4.881   6.658   6.279
 3101SOL    HW210203   4.832   6.653   6.123
 3102SOL     OW10204   0.234   4.433   2.366
 3102SOL    HW110205   0.270   4.522   2.336
 3102SOL    HW210206   0.303   4.362   2.348
 3103SOL     OW10207   4.007   0.643   2.509
 3103SOL    HW110208   4.005   0.564   2.447
 3103SOL    HW210209   3.954   0.622   2.591
 3104SOL     OW10210   5.335   6.529   5.265
 3104SOL    HW110211   5.409   6.557   5.326
 3104SOL    HW210212   5.370   6.526   5.171
 3105SOL     OW10213   6.011   4.552   2.077
 3105SOL    HW110214   5.992   4.473   2.136
 3105SOL    HW210215   5.931   4.572   2.021
 3106SOL     OW10216   6.169   1.733   2.735
 3106SOL    HW110217   6.192   1.640   2.706
 3106SOL    HW210218   6.114   1.778   2.664
 3107SOL     OW10219   4.135   0.986   4.424
 3107SOL    HW110220   4.086   1.070   4.448
 3107SOL    HW210221   4.199   0.963   4.496
 3108SOL     OW10222   0.645   0.110   4.200
 3108SOL    HW110223   0.734   0.066   4.215
 3108SOL    HW210224   0.660   0.205   4.171
 3109SOL     OW10225   5.414   0.038   2.596
 3109SOL    HW110226   5.333   0.022   2.539
 3109SOL    HW210227   5.419   6.996   2.667
 3110SOL     OW10228   1.614   1.969   3.290
 3110SOL    HW110229   1.606   2.031   3.368
 3110SOL    HW210230   1.710   1.948   3.273
 3111SOL     OW10231   5.785   6.059   3.566
 3111SOL    HW110232   5.814   6.035   3.658
 3111SOL    HW210233   5.812   5.987   3.502
 3112SOL     OW10234   4.660   2.380   6.418
 3112SOL    HW110235   4.592   2.327   6.469
 3112SOL    HW210236   4.679   2.465   6.467
 3113SOL     OW10237   2.095   6.130   3.817
 3113SOL    HW110238   2.046   6.078   3.747
 3113SOL    HW210239   2.184   6.088   3.834
 3114SOL     OW10240   4.341   2.003   0.499
 3114SOL    HW110241   4.424   2.051   0.526
 3114SOL    HW210242   4.263   2.038   0.552
 3115SOL     OW10243   4.236   3.278   6.524
 3115SOL    HW110244   4.163   3.294   6.458
 3115SOL    HW210245   4.224   3.189   6.567
 3116SOL     OW10246   0.234   2.757   0.213
 3116SOL    HW110247   0.266   2.701   0.290
 3116SOL    HW210248   0.146   2.721   0.180
 3117SOL     OW10249   4.158   3.597   5.145
 3117SOL    HW110250   4.168   3.497   5.143
 3117SOL    HW210251   4.096   3.623   5.218
 3118SOL     OW10252   0.184   4.567   1.321
 3118SOL    HW110253   0.176   4.643   1.256
 3118SOL    HW210254   0.118   4.497   1.299
 3119SOL     OW10255   1.441   3.662   5.876
 3119SOL    HW110256   1.440   3.702   5.968
 3119SOL    HW210257   1.410   3.731   5.810
 3120SOL     OW10258   3.332   0.068   4.863
 3120SOL    HW110259   3.274   0.075   4.781
 3120SOL    HW210260   3.319   7.006   4.904
 3121SOL     OW10261   6.699   1.660   3.527
 3121SOL    HW110262   6.678   1.607   3.608
 3121SOL    HW210263   6.616   1.707   3.495
 3122SOL     OW10264   3.270   6.722   5.909
 3122SOL    HW110265   3.291   6.819   5.924
 3122SOL    HW210266   3.223   6.685   5.989
 3123SOL     OW10267   4.247   1.403   4.194
 3123SOL    HW110268   4.273   1.449   4.109
 3123SOL    HW210269   4.329   1.362   4.235
 3124SOL     OW10270   3.967   6.627   4.499
 3124SOL    HW110271   4.002   6.711   4.543
 3124SOL    HW210272   3.929   6.567   4.569
 3125SOL     OW10273   6.520   1.882   5.212
 3125SOL    HW110274   6.478   1.828   5.139
 3125SOL    HW210275   6.578   1.823   5.268
 3126SOL     OW10276   4.283   4.910   6.554
 3126SOL    HW110277   4.251   4.833   6.499
 3126SOL    HW210278   4.248   4.902   6.647
 3127SOL     OW10279   0.987   3.431   3.718
 3127SOL    HW110280   1.011   3.357   3.781
 3127SOL    HW210281   0.898   3.411   3.676
 3128SOL     OW10282   2.137   0.734   6.973
 3128SOL    HW110283   2.209   0.669   6.947
 3128SOL    HW210284   2.179   0.817   7.010
 3129SOL     OW10285   0.734   4.113   6.352
 3129SOL    HW110286   0.649   4.089   6.306
 3129SOL    HW210287   0.720   4.196   6.407
 3130SOL     OW10288   1.805   4.380   1.314
 3130SOL    HW110289   1.764   4.289   1.313
 3130SOL    HW210290   1.887   4.381   1.256
 3131SOL     OW10291   6.759   2.736   1.210
 3131SOL    HW110292   6.779   2.650   1.163
 3131SOL    HW210293   6.714   2.799   1.146
 3132SOL     OW10294   4.623   5.686   5.575
 3132SOL    HW110295   4.704   5.738   5.602
 3132SOL    HW210296   4.555   5.749   5.536
 3133SOL     OW10297   3.396   2.062   4.067
 3133SOL    HW110298   3.323   2.110   4.116
 3133SOL    HW210299   3.358   1.980   4.023
 3134SOL     OW10300   4.918   4.790   1.202
 3134SOL    HW110301   4.885   4.696   1.196
 3134SOL    HW210302   4.998   4.794   1.262
 3135SOL     OW10303   5.302   0.479   5.363
 3135SOL    HW110304   5.394   0.504   5.394
 3135SOL    HW210305   5.236   0.545   5.398
 3136SOL     OW10306   5.488   0.460   0.959
 3136SOL    HW110307   5.398   0.429   0.992
 3136SOL    HW210308   5.554   0.386   0.969
 3137SOL     OW10309   6.003   0.719   3.098
 3137SOL    HW110310   5.983   0.642   3.038
 3137SOL    HW210311   6.092   0.704   3.142
 3138SOL     OW10312   6.143   3.375   3.950
 3138SOL    HW110313   6.191   3.447   4.001
 3138SOL    HW210314   6.178   3.286   3.977
 3139SOL     OW10315   5.108   6.424   0.471
 3139SOL    HW110316   5.041   6.363   0.513
 3139SOL    HW210317   5.200   6.386   0.483
 3140SOL     OW10318   6.269   0.123   6.550
 3140SOL    HW110319   6.352   0.154   6.596
 3140SOL    HW210320   6.285   0.033   6.509
 3141SOL     OW10321   6.903   6.500   6.314
 3141SOL    HW110322   6.873   6.516   6.220
 3141SOL    HW210323   6.962   6.576   6.343
 3142SOL     OW10324   3.878   6.733   1.659
 3142SOL    HW110325   3.939   6.807   1.631
 3142SOL    HW210326   3.926   6.675   1.726
 3143SOL     OW10327   6.893   1.744   6.687
 3143SOL    HW110328   6.943   1.723   6.770
 3143SOL    HW210329   6.925   1.832   6.650
 3144SOL     OW10330   4.296   4.633   1.457
 3144SOL    HW110331   4.358   4.657   1.381
 3144SOL    HW210332   4.279   4.535   1.457
 3145SOL     OW10333   1.375   5.309   1.874
 3145SOL    HW110334   1.424   5.234   1.919
 3145SOL    HW210335   1.399   5.395   1.919
 3146SOL     OW10336   1.551   0.404   2.725
 3146SOL    HW110337   1.467   0.457   2.736
 3146SOL    HW210338   1.554   0.363   2.634
 3147SOL     OW10339   3.064   5.019   0.433
 3147SOL    HW110340   3.023   5.053   0.348
 3147SOL    HW210341   2.998   5.028   0.507
 3148SOL     OW10342   4.832   6.085   4.564
 3148SOL    HW110343   4.796   5.993   4.578
 3148SOL    HW210344   4.805   6.119   4.474
 3149SOL     OW10345   2.368   1.165   5.827
 3149SOL    HW110346   2.293   1.169   5.761
 3149SOL    HW210347   2.422   1.249   5.820
 3150SOL     OW10348   6.647   6.233   4.211
 3150SOL    HW110349   6.624   6.138   4.234
 3150SOL    HW210350   6.718   6.266   4.273
 3151SOL     OW10351   4.195   1.505   6.237
 3151SOL    HW110352   4.231   1.517   6.330
 3151SOL    HW210353   4.271   1.490   6.174
 3152SOL     OW10354   1.537   6.068   0.606
 3152SOL    HW110355   1.441   6.083   0.580
 3152SOL    HW210356   1.564   5.975   0.584
 3153SOL     OW10357   6.599   4.706   2.518
 3153SOL    HW110358   6.546   4.672   2.595
 3153SOL    HW210359   6.589   4.644   2.440
 3154SOL     OW10360   6.867   1.094   6.933
 3154SOL    HW110361   6.817   1.166   6.886
 3154SOL    HW210362   6.879   1.016   6.872
 3155SOL     OW10363   6.660   4.470   1.284
 3155SOL    HW110364   6.564   4.494   1.298
 3155SOL    HW210365   6.686   4.397   1.347
 3156SOL     OW10366   3.199   3.592   3.352
 3156SOL    HW110367   3.292   3.604   3.316
 3156SOL    HW210368   3.191   3.503   3.397
 3157SOL     OW10369   2.284   2.969   4.734
 3157SOL    HW110370   2.300   3.010   4.824
 3157SOL    HW210371   2.298   2.870   4.740
 3158SOL     OW10372   4.156   6.992   2.304
 3158SOL    HW110373   4.149   6.922   2.375
 3158SOL    HW210374   4.251   7.003   2.276
 3159SOL     OW10375   5.488   1.495   0.148
 3159SOL    HW110376   5.506   1.441   0.230
 3159SOL    HW210377   5.573   1.533   0.113
 3160SOL     OW10378   0.446   6.253   5.101
 3160SOL    HW110379   0.350   6.258   5.126
 3160SOL    HW210380   0.501   6.238   5.183
 3161SOL     OW10381   1.794   2.257   3.956
 3161SOL    HW110382   1.862   2.302   4.013
 3161SOL    HW210383   1.702   2.285   3.985
 3162SOL     OW10384   1.086   6.633   1.695
 3162SOL    HW110385   1.080   6.730   1.719
 3162SOL    HW210386   1.177   6.599   1.715
 3163SOL     OW10387   3.536   1.926   6.128
 3163SOL    HW110388   3.616   1.986   6.132
 3163SOL    HW210389   3.495   1.932   6.036
 3164SOL     OW10390   4.717   4.437   1.609
 3164SOL    HW110391   4.729   4.456   1.707
 3164SOL    HW210392   4.651   4.364   1.597
 3165SOL     OW10393   0.969   5.756   1.036
 3165SOL    HW110394   0.974   5.846   1.079
 3165SOL    HW210395   1.018   5.689   1.092
 3166SOL     OW10396   4.699   1.016   5.658
 3166SOL    HW110397   4.651   1.085   5.604
 3166SOL    HW210398   4.636   0.944   5.685
 3167SOL     OW10399   6.823   3.960   1.435
 3167SOL    HW110400   6.737   3.995   1.398
 3167SOL    HW210401   6.873   3.910   1.364
 3168SOL     OW10402   4.917   2.769   6.500
 3168SOL    HW110403   4.932   2.845   6.436
 3168SOL    HW210404   4.953   2.685   6.460
 3169SOL     OW10405   1.849   3.304   4.406
 3169SOL    HW110406   1.939   3.335   4.375
 3169SOL    HW210407   1.794   3.384   4.433
 3170SOL     OW10408   4.054   0.653   1.548
 3170SOL    HW110409   4.084   0.716   1.621
 3170SOL    HW210410   4.068   0.559   1.578
 3171SOL     OW10411   0.874   6.615   1.323
 3171SOL    HW110412   0.968   6.629   1.294
 3171SOL    HW210413   0.835   6.702   1.353
 3172SOL     OW10414   0.426   5.111   6.123
 3172SOL    HW110415   0.391   5.110   6.030
 3172SOL    HW210416   0.367   5.055   6.181
 3173SOL     OW10417   3.230   2.058   0.921
 3173SOL    HW110418   3.188   2.136   0.875
 3173SOL    HW210419   3.295   2.090   0.989
 3174SOL     OW10420   2.560   3.033   6.190
 3174SOL    HW110421   2.576   3.016   6.093
 3174SOL    HW210422   2.516   3.122   6.202
 3175SOL     OW10423   0.367   6.625   0.275
 3175SOL    HW110424   0.369   6.563   0.353
 3175SOL    HW210425   0.457   6.668   0.264
 3176SOL     OW10426   2.048   5.206   5.134
 3176SOL    HW110427   2.119   5.268   5.167
 3176SOL    HW210428   2.090   5.118   5.111
 3177SOL     OW10429   4.958   4.555   4.846
 3177SOL    HW110430   4.896   4.489   4.803
 3177SOL    HW210431   4.972   4.530   4.942
 3178SOL     OW10432   6.775   2.090   0.745
 3178SOL    HW110433   6.827   2.009   0.771
 3178SOL    HW210434   6.816   2.132   0.664
 3179SOL     OW10435   1.848   2.761   2.216
 3179SOL    HW110436   1.748   2.763   2.206
 3179SOL    HW210437   1.872   2.770   2.312
 3180SOL     OW10438   4.425   0.995   0.028
 3180SOL    HW110439   4.421   0.910   7.005
 3180SOL    HW210440   4.502   1.051   7.024
 3181SOL     OW10441   1.542   1.184   2.958
 3181SOL    HW110442   1.469   1.227   2.905
 3181SOL    HW210443   1.550   1.228   3.047
 3182SOL     OW10444   2.217   1.607   5.213
 3182SOL    HW110445   2.313   1.600   5.240
 3182SOL    HW210446   2.206   1.683   5.148
 3183SOL     OW10447   4.406   3.922   1.431
 3183SOL    HW110448   4.480   3.863   1.461
 3183SOL    HW210449   4.351   3.949   1.510
 3184SOL     OW10450   1.176   2.650   3.133
 3184SOL    HW110451   1.181   2.686   3.226
 3184SOL    HW210452   1.264   2.660   3.089
 3185SOL     OW10453   5.708   6.870   6.726
 3185SOL    HW110454   5.709   6.787   6.782
 3185SOL    HW210455   5.779   6.933   6.759
 3186SOL     OW10456   4.161   1.741   2.599
 3186SOL    HW110457   4.246   1.738   2.653
 3186SOL    HW210458   4.155   1.829   2.552
 3187SOL     OW10459   4.681   4.336   0.619
 3187SOL    HW110460   4.630   4.262   0.662
 3187SOL    HW210461   4.751   4.370   0.683
 3188SOL     OW10462   3.719   6.568   5.054
 3188SOL    HW110463   3.680   6.643   5.001
 3188SOL    HW210464   3.706   6.586   5.152
 3189SOL     OW10465   2.026   1.087   1.791
 3189SOL    HW110466   2.073   1.169   1.824
 3189SOL    HW210467   2.007   1.095   1.693
 3190SOL     OW10468   0.395   5.848   1.234
 3190SOL    HW110469   0.334   5.854   1.313
 3190SOL    HW210470   0.464   5.777   1.250
 3191SOL     OW10471   4.422   6.100   0.432
 3191SOL    HW110472   4.476   6.062   0.506
 3191SOL    HW210473   4.339   6.142   0.469
 3192SOL     OW10474   0.038   2.297   1.150
 3192SOL    HW110475   0.133   2.324   1.167
 3192SOL    HW210476   7.008   2.378   1.148
 3193SOL     OW10477   4.255   1.582   5.877
 3193SOL    HW110478   4.166   1.539   5.862
 3193SOL    HW210479   4.323   1.541   5.816
 3194SOL     OW10480   0.913   3.514   5.711
 3194SOL    HW110481   1.000   3.494   5.756
 3194SOL    HW210482   0.868   3.428   5.686
 3195SOL     OW10483   2.092   2.598   3.062
 3195SOL    HW110484   2.049   2.602   2.972
 3195SOL    HW210485   2.191   2.591   3.051
 3196SOL     OW10486   6.991   0.564   5.224
 3196SOL    HW110487   6.918   0.627   5.250
 3196SOL    HW210488   6.954   0.490   5.169
 3197SOL     OW10489   1.952   6.319   3.449
 3197SOL    HW110490   2.013   6.255   3.402
 3197SOL    HW210491   1.889   6.268   3.507
 3198SOL     OW10492   6.631   2.166   5.854
 3198SOL    HW110493   6.554   2.218   5.890
 3198SOL    HW210494   6.648   2.086   5.912
 3199SOL     OW10495   4.630   2.871   1.660
 3199SOL    HW110496   4.600   2.914   1.575
 3199SOL    HW210497   4.626   2.938   1.735
 3200SOL     OW10498   6.937   2.314   2.294
 3200SOL    HW110499   7.028   2.319   2.251
 3200SOL    HW210500   6.944   2.266   2.382
 3201SOL     OW10501   5.439   4.635   4.583
 3201SOL    HW110502   5.386   4.598   4.659
 3201SOL    HW210503   5.490   4.716   4.614
 3202SOL     OW10504   1.452   4.800   2.037
 3202SOL    HW110505   1.406   4.717   2.068
 3202SOL    HW210506   1.455   4.801   1.937
 3203SOL     OW10507   5.959   2.151   0.095
 3203SOL    HW110508   6.003   2.214   0.030
 3203SOL    HW210509   6.009   2.153   0.182
 3204SOL     OW10510   5.101   6.338   1.562
 3204SOL    HW110511   5.160   6.356   1.640
 3204SOL    HW210512   5.106   6.415   1.498
 3205SOL     OW10513   0.484   3.558   6.523
 3205SOL    HW110514   0.467   3.654   6.502
 3205SOL    HW210515   0.582   3.541   6.522
 3206SOL     OW10516   6.813   6.548   6.056
 3206SOL    HW110517   6.899   6.520   6.014
 3206SOL    HW210518   6.737   6.500   6.010
 3207SOL     OW10519   0.189   1.368   5.963
 3207SOL    HW110520   0.214   1.465   5.962
 3207SOL    HW210521   0.094   1.359   5.993
 3208SOL     OW10522   4.864   6.243   5.399
 3208SOL    HW110523   4.784   6.190   5.373
 3208SOL    HW210524   4.836   6.328   5.443
 3209SOL     OW10525   3.130   5.161   3.637
 3209SOL    HW110526   3.129   5.241   3.578
 3209SOL    HW210527   3.210   5.164   3.697
 3210SOL     OW10528   0.708   3.816   2.336
 3210SOL    HW110529   0.625   3.768   2.306
 3210SOL    HW210530   0.754   3.761   2.407
 3211SOL     OW10531   2.540   3.319   0.956
 3211SOL    HW110532   2.477   3.306   0.880
 3211SOL    HW210533   2.510   3.396   1.012
 3212SOL     OW10534   3.585   1.504   6.955
 3212SOL    HW110535   3.492   1.538   6.941
 3212SOL    HW210536   3.582   1.423   7.013
 3213SOL     OW10537   6.167   6.205   2.619
 3213SOL    HW110538   6.255   6.170   2.588
 3213SOL    HW210539   6.127   6.262   2.547
 3214SOL     OW10540   5.145   5.359   0.315
 3214SOL    HW110541   5.154   5.348   0.216
 3214SOL    HW210542   5.171   5.274   0.361
 3215SOL     OW10543   0.130   3.103   1.088
 3215SOL    HW110544   0.140   3.046   1.007
 3215SOL    HW210545   0.094   3.048   1.164
 3216SOL     OW10546   5.356   5.459   1.738
 3216SOL    HW110547   5.455   5.464   1.738
 3216SOL    HW210548   5.321   5.474   1.831
 3217SOL     OW10549   0.603   5.541   2.441
 3217SOL    HW110550   0.541   5.581   2.373
 3217SOL    HW210551   0.689   5.515   2.397
 3218SOL     OW10552   3.790   6.469   3.616
 3218SOL    HW110553   3.696   6.435   3.621
 3218SOL    HW210554   3.790   6.567   3.597
 3219SOL     OW10555   0.026   1.753   3.189
 3219SOL    HW110556   6.964   1.778   3.156
 3219SOL    HW210557   0.042   1.796   3.278
 3220SOL     OW10558   6.399   6.087   5.878
 3220SOL    HW110559   6.394   6.172   5.930
 3220SOL    HW210560   6.486   6.041   5.897
 3221SOL     OW10561   3.567   0.469   2.222
 3221SOL    HW110562   3.562   0.498   2.318
 3221SOL    HW210563   3.479   0.484   2.178
 3222SOL     OW10564   4.278   1.794   3.681
 3222SOL    HW110565   4.370   1.830   3.667
 3222SOL    HW210566   4.264   1.777   3.778
 3223SOL     OW10567   1.591   5.058   6.685
 3223SOL    HW110568   1.584   5.119   6.764
 3223SOL    HW210569   1.655   5.097   6.619
 3224SOL     OW10570   3.947   5.032   6.316
 3224SOL    HW110571   4.039   5.056   6.345
 3224SOL    HW210572   3.913   5.099   6.251
 3225SOL     OW10573   4.496   2.820   5.327
 3225SOL    HW110574   4.592   2.847   5.325
 3225SOL    HW210575   4.438   2.901   5.321
 3226SOL     OW10576   1.340   1.806   4.654
 3226SOL    HW110577   1.266   1.847   4.707
 3226SOL    HW210578   1.351   1.710   4.681
 3227SOL     OW10579   3.144   2.310   6.105
 3227SOL    HW110580   3.074   2.358   6.157
 3227SOL    HW210581   3.117   2.214   6.095
 3228SOL     OW10582   5.604   3.342   3.642
 3228SOL    HW110583   5.598   3.380   3.549
 3228SOL    HW210584   5.601   3.417   3.708
 3229SOL     OW10585   3.551   1.837   5.525
 3229SOL    HW110586   3.500   1.857   5.609
 3229SOL    HW210587   3.493   1.788   5.461
 3230SOL     OW10588   0.803   2.829   4.079
 3230SOL    HW110589   0.728   2.763   4.083
 3230SOL    HW210590   0.852   2.830   4.166
 3231SOL     OW10591   3.071   6.665   2.404
 3231SOL    HW110592   2.983   6.638   2.365
 3231SOL    HW210593   3.056   6.735   2.474
 3232SOL     OW10594   4.239   4.932   4.022
 3232SOL    HW110595   4.298   4.902   4.097
 3232SOL    HW210596   4.155   4.877   4.021
 3233SOL     OW10597   2.113   3.235   1.144
 3233SOL    HW110598   2.211   3.214   1.143
 3233SOL    HW210599   2.100   3.328   1.177
 3234SOL     OW10600   0.167   2.265   0.107
 3234SOL    HW110601   0.175   2.358   0.142
 3234SOL    HW210602   0.252   2.215   0.124
 3235SOL     OW10603   4.446   6.736   1.013
 3235SOL    HW110604   4.523   6.797   1.031
 3235SOL    HW210605   4.466   6.644   1.047
 3236SOL     OW10606   1.177   3.536   1.167
 3236SOL    HW110607   1.079   3.534   1.149
 3236SOL    HW210608   1.227   3.514   1.083
 3237SOL     OW10609   5.429   1.638   3.973
 3237SOL    HW110610   5.482   1.553   3.972
 3237SOL    HW210611   5.377   1.646   3.887
 3238SOL     OW10612   0.004   4.632   0.197
 3238SOL    HW110613   0.062   4.713   0.199
 3238SOL    HW210614   6.957   4.646   0.133
 3239SOL     OW10615   5.786   1.731   0.173
 3239SOL    HW110616   5.775   1.798   0.246
 3239SOL    HW210617   5.864   1.756   0.116
 3240SOL     OW10618   1.027   6.519   4.897
 3240SOL    HW110619   1.101   6.457   4.922
 3240SOL    HW210620   1.014   6.587   4.969
 3241SOL     OW10621   5.412   1.431   4.253
 3241SOL    HW110622   5.448   1.484   4.176
 3241SOL    HW210623   5.474   1.356   4.274
 3242SOL     OW10624   3.244   4.632   1.351
 3242SOL    HW110625   3.299   4.704   1.308
 3242SOL    HW210626   3.167   4.609   1.293
 3243SOL     OW10627   6.231   5.105   0.077
 3243SOL    HW110628   6.309   5.162   0.103
 3243SOL    HW210629   6.201   5.131   7.013
 3244SOL     OW10630   4.964   5.674   0.071
 3244SOL    HW110631   5.000   5.759   0.109
 3244SOL    HW210632   4.957   5.681   7.000
 3245SOL     OW10633   4.882   2.235   5.731
 3245SOL    HW110634   4.878   2.331   5.706
 3245SOL    HW210635   4.976   2.209   5.754
 3246SOL     OW10636   6.268   0.796   2.999
 3246SOL    HW110637   6.249   0.810   3.097
 3246SOL    HW210638   6.281   0.884   2.955
 3247SOL     OW10639   6.795   5.137   3.439
 3247SOL    HW110640   6.747   5.098   3.361
 3247SOL    HW210641   6.803   5.068   3.511
 3248SOL     OW10642   6.169   3.345   1.581
 3248SOL    HW110643   6.219   3.409   1.640
 3248SOL    HW210644   6.155   3.259   1.630
 3249SOL     OW10645   3.635   4.069   5.476
 3249SOL    HW110646   3.593   4.114   5.555
 3249SOL    HW210647   3.720   4.025   5.504
 3250SOL     OW10648   5.742   0.558   2.534
 3250SOL    HW110649   5.674   0.489   2.560
 3250SOL    HW210650   5.761   0.617   2.613
 3251SOL     OW10651   4.043   1.231   2.933
 3251SOL    HW110652   3.966   1.172   2.909
 3251SOL    HW210653   4.010   1.324   2.950
 3252SOL     OW10654   3.049   1.020   2.298
 3252SOL    HW110655   2.972   0.967   2.262
 3252SOL    HW210656   3.116   1.035   2.224
 3253SOL     OW10657   5.054   3.515   2.643
 3253SOL    HW110658   4.985   3.454   2.682
 3253SOL    HW210659   5.108   3.465   2.576
 3254SOL     OW10660   4.125   5.089   5.249
 3254SOL    HW110661   4.057   5.111   5.179
 3254SOL    HW210662   4.137   5.167   5.310
 3255SOL     OW10663   4.341   6.162   1.700
 3255SOL    HW110664   4.302   6.118   1.780
 3255SOL    HW210665   4.388   6.246   1.727
 3256SOL     OW10666   5.557   0.414   6.659
 3256SOL    HW110667   5.609   0.488   6.617
 3256SOL    HW210668   5.461   0.421   6.632
 3257SOL     OW10669   1.133   1.604   1.410
 3257SOL    HW110670   1.225   1.592   1.448
 3257SOL    HW210671   1.100   1.516   1.375
 3258SOL     OW10672   4.460   5.539   2.362
 3258SOL    HW110673   4.373   5.493   2.344
 3258SOL    HW210674   4.447   5.606   2.435
 3259SOL     OW10675   4.736   5.943   4.214
 3259SOL    HW110676   4.802   5.884   4.262
 3259SOL    HW210677   4.746   6.037   4.248
 3260SOL     OW10678   2.305   1.690   1.767
 3260SOL    HW110679   2.217   1.686   1.813
 3260SOL    HW210680   2.292   1.688   1.668
 3261SOL     OW10681   4.413   5.859   0.131
 3261SOL    HW110682   4.411   5.863   0.031
 3261SOL    HW210683   4.494   5.810   0.161
 3262SOL     OW10684   3.581   2.076   2.385
 3262SOL    HW110685   3.536   1.987   2.393
 3262SOL    HW210686   3.528   2.135   2.324
 3263SOL     OW10687   4.976   0.458   3.548
 3263SOL    HW110688   4.972   0.400   3.629
 3263SOL    HW210689   5.070   0.492   3.536
 3264SOL     OW10690   0.994   5.005   0.931
 3264SOL    HW110691   0.937   5.038   1.006
 3264SOL    HW210692   1.051   4.929   0.963
 3265SOL     OW10693   4.260   2.063   6.024
 3265SOL    HW110694   4.346   2.113   6.022
 3265SOL    HW210695   4.277   1.967   6.041
 3266SOL     OW10696   1.176   2.509   0.591
 3266SOL    HW110697   1.210   2.454   0.514
 3266SOL    HW210698   1.176   2.606   0.565
 3267SOL     OW10699   3.596   2.232   0.469
 3267SOL    HW110700   3.611   2.170   0.545
 3267SOL    HW210701   3.557   2.182   0.392
 3268SOL     OW10702   1.073   3.835   6.447
 3268SOL    HW110703   0.981   3.844   6.408
 3268SOL    HW210704   1.136   3.805   6.376
 3269SOL     OW10705   4.359   5.439   1.894
 3269SOL    HW110706   4.333   5.533   1.875
 3269SOL    HW210707   4.420   5.406   1.823
 3270SOL     OW10708   1.502   5.103   5.101
 3270SOL    HW110709   1.460   5.171   5.162
 3270SOL    HW210710   1.502   5.014   5.146
 3271SOL     OW10711   5.811   3.266   2.407
 3271SOL    HW110712   5.831   3.244   2.311
 3271SOL    HW210713   5.722   3.228   2.432
 3272SOL     OW10714   3.355   4.623   0.604
 3272SOL    HW110715   3.391   4.562   0.674
 3272SOL    HW210716   3.289   4.686   0.646
 3273SOL     OW10717   1.089   6.600   2.301
 3273SOL    HW110718   1.009   6.657   2.283
 3273SOL    HW210719   1.137   6.634   2.382
 3274SOL     OW10720   3.867   1.980   0.088
 3274SOL    HW110721   3.888   2.024   0.175
 3274SOL    HW210722   3.785   1.924   0.098
 3275SOL     OW10723   1.430   0.770   6.694
 3275SOL    HW110724   1.503   0.755   6.760
 3275SOL    HW210725   1.341   0.758   6.739
 3276SOL     OW10726   3.363   5.199   6.700
 3276SOL    HW110727   3.412   5.135   6.759
 3276SOL    HW210728   3.399   5.192   6.606
 3277SOL     OW10729   5.429   6.450   6.390
 3277SOL    HW110730   5.386   6.529   6.346
 3277SOL    HW210731   5.524   6.471   6.411
 3278SOL     OW10732   6.499   1.503   5.849
 3278SOL    HW110733   6.598   1.485   5.852
 3278SOL    HW210734   6.457   1.467   5.933
 3279SOL     OW10735   0.419   0.839   1.074
 3279SOL    HW110736   0.422   0.751   1.027
 3279SOL    HW210737   0.324   0.863   1.093
 3280SOL     OW10738   3.361   5.433   5.977
 3280SOL    HW110739   3.367   5.490   6.059
 3280SOL    HW210740   3.453   5.418   5.941
 3281SOL     OW10741   1.468   5.656   0.958
 3281SOL    HW110742   1.461   5.627   0.862
 3281SOL    HW210743   1.515   5.744   0.962
 3282SOL     OW10744   2.435   5.101   4.381
 3282SOL    HW110745   2.394   5.027   4.327
 3282SOL    HW210746   2.521   5.130   4.338
 3283SOL     OW10747   2.898   1.137   1.747
 3283SOL    HW110748   2.993   1.123   1.717
 3283SOL    HW210749   2.897   1.192   1.830
 3284SOL     OW10750   6.190   6.722   6.802
 3284SOL    HW110751   6.105   6.735   6.853
 3284SOL    HW210752   6.178   6.648   6.736
 3285SOL     OW10753   6.099   2.722   3.380
 3285SOL    HW110754   6.179   2.706   3.322
 3285SOL    HW210755   6.084   2.820   3.391
 3286SOL     OW10756   4.059   3.529   3.916
 3286SOL    HW110757   4.076   3.552   3.820
 3286SOL    HW210758   4.026   3.435   3.922
 3287SOL     OW10759   1.281   5.881   0.413
 3287SOL    HW110760   1.305   5.932   0.330
 3287SOL    HW210761   1.209   5.930   0.463
 3288SOL     OW10762   0.683   4.853   6.849
 3288SOL    HW110763   0.649   4.923   6.786
 3288SOL    HW210764   0.633   4.768   6.833
 3289SOL     OW10765   2.065   0.052   5.630
 3289SOL    HW110766   1.976   0.093   5.607
 3289SOL    HW210767   2.109   0.019   5.546
 3290SOL     OW10768   0.334   6.694   2.142
 3290SOL    HW110769   0.243   6.656   2.156
 3290SOL    HW210770   0.401   6.621   2.136
 3291SOL     OW10771   1.283   6.437   6.536
 3291SOL    HW110772   1.258   6.422   6.440
 3291SOL    HW210773   1.332   6.524   6.544
 3292SOL     OW10774   0.241   1.172   0.022
 3292SOL    HW110775   0.227   1.259   0.068
 3292SOL    HW210776   0.182   1.166   6.971
 3293SOL     OW10777   6.163   3.214   2.814
 3293SOL    HW110778   6.187   3.251   2.725
 3293SOL    HW210779   6.239   3.159   2.849
 3294SOL     OW10780   0.265   0.656   6.159
 3294SOL    HW110781   0.328   0.727   6.128
 3294SOL    HW210782   0.189   0.698   6.209
 3295SOL     OW10783   2.131   2.489   1.447
 3295SOL    HW110784   2.076   2.501   1.529
 3295SOL    HW210785   2.160   2.393   1.441
 3296SOL     OW10786   2.210   6.345   1.418
 3296SOL    HW110787   2.199   6.396   1.333
 3296SOL    HW210788   2.307   6.343   1.443
 3297SOL     OW10789   2.503   0.635   4.879
 3297SOL    HW110790   2.551   0.722   4.887
 3297SOL    HW210791   2.555   0.573   4.819
 3298SOL     OW10792   6.001   2.614   3.581
 3298SOL    HW110793   6.042   2.664   3.505
 3298SOL    HW210794   6.062   2.617   3.660
 3299SOL     OW10795   2.057   0.013   3.698
 3299SOL    HW110796   2.118   6.993   3.760
 3299SOL    HW210797   2.069   0.111   3.709
 3300SOL     OW10798   6.781   0.592   5.754
 3300SOL    HW110799   6.727   0.676   5.757
 3300SOL    HW210800   6.837   0.592   5.671
 3301SOL     OW10801   2.148   3.877   3.198
 3301SOL    HW110802   2.178   3.959   3.151
 3301SOL    HW210803   2.051   3.884   3.221
 3302SOL     OW10804   1.418   6.053   4.406
 3302SOL    HW110805   1.501   6.032   4.457
 3302SOL    HW210806   1.437   6.048   4.308
 3303SOL     OW10807   3.454   3.382   1.493
 3303SOL    HW110808   3.486   3.289   1.510
 3303SOL    HW210809   3.468   3.404   1.396
 3304SOL     OW10810   1.581   5.060   3.328
 3304SOL    HW110811   1.678   5.066   3.351
 3304SOL    HW210812   1.527   5.067   3.412
 3305SOL     OW10813   2.477   2.235   3.158
 3305SOL    HW110814   2.561   2.211   3.207
 3305SOL    HW210815   2.497   2.240   3.060
 3306SOL     OW10816   2.624   5.109   3.984
 3306SOL    HW110817   2.644   5.184   4.047
 3306SOL    HW210818   2.707   5.055   3.969
 3307SOL     OW10819   0.623   5.498   6.560
 3307SOL    HW110820   0.573   5.413   6.547
 3307SOL    HW210821   0.568   5.561   6.615
 3308SOL     OW10822   4.667   6.054   6.985
 3308SOL    HW110823   4.713   6.065   0.045
 3308SOL    HW210824   4.713   5.982   6.932
 3309SOL     OW10825   0.619   5.197   2.431
 3309SOL    HW110826   0.656   5.124   2.374
 3309SOL    HW210827   0.557   5.254   2.377
 3310SOL     OW10828   7.026   4.225   4.070
 3310SOL    HW110829   0.038   4.302   4.118
 3310SOL    HW210830   6.940   4.253   4.027
 3311SOL     OW10831   2.846   4.651   1.481
 3311SOL    HW110832   2.790   4.718   1.529
 3311SOL    HW210833   2.909   4.607   1.545
 3312SOL     OW10834   3.045   4.488   6.123
 3312SOL    HW110835   3.014   4.557   6.057
 3312SOL    HW210836   3.093   4.534   6.198
 3313SOL     OW10837   0.232   5.127   2.504
 3313SOL    HW110838   0.216   5.041   2.456
 3313SOL    HW210839   0.314   5.119   2.560
 3314SOL     OW10840   1.782   2.355   5.192
 3314SOL    HW110841   1.698   2.310   5.224
 3314SOL    HW210842   1.758   2.426   5.125
 3315SOL     OW10843   6.305   2.940   4.247
 3315SOL    HW110844   6.323   2.915   4.343
 3315SOL    HW210845   6.273   2.860   4.197
 3316SOL     OW10846   3.573   1.628   6.142
 3316SOL    HW110847   3.666   1.613   6.111
 3316SOL    HW210848   3.565   1.719   6.182
 3317SOL     OW10849   4.884   2.916   1.815
 3317SOL    HW110850   4.839   2.985   1.872
 3317SOL    HW210851   4.815   2.853   1.780
 3318SOL     OW10852   2.988   0.138   0.069
 3318SOL    HW110853   2.944   0.171   0.152
 3318SOL    HW210854   3.078   0.181   0.059
 3319SOL     OW10855   6.157   6.981   3.783
 3319SOL    HW110856   6.146   0.004   3.698
 3319SOL    HW210857   6.162   6.883   3.762
 3320SOL     OW10858   5.578   1.401   5.609
 3320SOL    HW110859   5.543   1.352   5.689
 3320SOL    HW210860   5.660   1.453   5.633
 3321SOL     OW10861   3.439   2.472   1.646
 3321SOL    HW110862   3.470   2.419   1.567
 3321SOL    HW210863   3.491   2.444   1.727
 3322SOL     OW10864   5.211   2.613   1.884
 3322SOL    HW110865   5.151   2.599   1.805
 3322SOL    HW210866   5.163   2.589   1.968
 3323SOL     OW10867   2.173   3.731   6.738
 3323SOL    HW110868   2.173   3.829   6.760
 3323SOL    HW210869   2.097   3.711   6.677
 3324SOL     OW10870   0.986   3.800   6.695
 3324SOL    HW110871   1.059   3.805   6.626
 3324SOL    HW210872   1.018   3.841   6.780
 3325SOL     OW10873   2.142   3.410   6.581
 3325SOL    HW110874   2.076   3.484   6.596
 3325SOL    HW210875   2.095   3.331   6.542
 3326SOL     OW10876   5.199   1.750   1.751
 3326SOL    HW110877   5.160   1.658   1.750
 3326SOL    HW210878   5.175   1.795   1.837
 3327SOL     OW10879   2.752   6.089   1.278
 3327SOL    HW110880   2.763   6.057   1.184
 3327SOL    HW210881   2.839   6.125   1.311
 3328SOL     OW10882   4.236   1.501   3.048
 3328SOL    HW110883   4.217   1.587   3.095
 3328SOL    HW210884   4.163   1.435   3.066
 3329SOL     OW10885   4.515   0.023   5.236
 3329SOL    HW110886   4.515   6.956   5.209
 3329SOL    HW210887   4.598   0.044   5.287
 3330SOL     OW10888   5.315   6.307   2.096
 3330SOL    HW110889   5.413   6.314   2.075
 3330SOL    HW210890   5.283   6.392   2.137
 3331SOL     OW10891   1.490   3.007   2.596
 3331SOL    HW110892   1.481   2.929   2.533
 3331SOL    HW210893   1.480   3.092   2.544
 3332SOL     OW10894   6.971   4.341   6.926
 3332SOL    HW110895   0.035   4.312   6.951
 3332SOL    HW210896   6.977   4.425   6.870
 3333SOL     OW10897   2.495   3.252   6.763
 3333SOL    HW110898   2.577   3.248   6.820
 3333SOL    HW210899   2.460   3.160   6.748
 3334SOL     OW10900   2.094   3.302   2.081
 3334SOL    HW110901   2.154   3.379   2.100
 3334SOL    HW210902   2.064   3.306   1.986
 3335SOL     OW10903   4.833   6.003   5.985
 3335SOL    HW110904   4.757   6.066   6.002
 3335SOL    HW210905   4.798   5.919   5.942
 3336SOL     OW10906   2.014   0.069   4.284
 3336SOL    HW110907   2.009   0.044   4.187
 3336SOL    HW210908   1.971   7.025   4.338
 3337SOL     OW10909   2.978   3.720   1.195
 3337SOL    HW110910   3.000   3.749   1.102
 3337SOL    HW210911   3.052   3.664   1.232
 3338SOL     OW10912   0.232   2.538   1.881
 3338SOL    HW110913   0.286   2.601   1.938
 3338SOL    HW210914   0.280   2.523   1.794
 3339SOL     OW10915   1.534   0.095   6.706
 3339SOL    HW110916   1.438   0.083   6.678
 3339SOL    HW210917   1.579   0.159   6.645
 3340SOL     OW10918   4.291   1.032   4.217
 3340SOL    HW110919   4.341   1.115   4.244
 3340SOL    HW210920   4.225   1.009   4.288
 3341SOL     OW10921   2.047   4.301   3.834
 3341SOL    HW110922   2.037   4.371   3.905
 3341SOL    HW210923   2.132   4.317   3.783
 3342SOL     OW10924   0.695   0.440   2.584
 3342SOL    HW110925   0.701   0.518   2.522
 3342SOL    HW210926   0.759   0.369   2.555
 3343SOL     OW10927   5.466   4.939   6.428
 3343SOL    HW110928   5.499   5.020   6.379
 3343SOL    HW210929   5.456   4.863   6.364
 3344SOL     OW10930   6.021   3.089   3.978
 3344SOL    HW110931   6.000   2.998   4.014
 3344SOL    HW210932   5.982   3.159   4.037
 3345SOL     OW10933   0.805   3.808   6.342
 3345SOL    HW110934   0.764   3.764   6.262
 3345SOL    HW210935   0.776   3.904   6.345
 3346SOL     OW10936   1.658   0.637   6.870
 3346SOL    HW110937   1.591   0.678   6.933
 3346SOL    HW210938   1.748   0.675   6.888
 3347SOL     OW10939   1.518   2.903   6.275
 3347SOL    HW110940   1.436   2.879   6.223
 3347SOL    HW210941   1.496   2.904   6.373
 3348SOL     OW10942   4.025   3.330   5.130
 3348SOL    HW110943   4.022   3.302   5.034
 3348SOL    HW210944   3.933   3.324   5.169
 3349SOL     OW10945   2.200   4.805   2.962
 3349SOL    HW110946   2.272   4.765   2.906
 3349SOL    HW210947   2.225   4.799   3.059
 3350SOL     OW10948   0.609   2.674   6.085
 3350SOL    HW110949   0.694   2.695   6.132
 3350SOL    HW210950   0.550   2.755   6.081
 3351SOL     OW10951   4.650   1.209   1.745
 3351SOL    HW110952   4.649   1.266   1.663
 3351SOL    HW210953   4.635   1.267   1.825
 3352SOL     OW10954   5.466   2.357   1.179
 3352SOL    HW110955   5.463   2.263   1.214
 3352SOL    HW210956   5.392   2.371   1.114
 3353SOL     OW10957   2.170   5.904   0.970
 3353SOL    HW110958   2.108   5.835   1.008
 3353SOL    HW210959   2.177   5.980   1.035
 3354SOL     OW10960   4.011   2.737   5.337
 3354SOL    HW110961   4.046   2.672   5.269
 3354SOL    HW210962   4.070   2.735   5.418
 3355SOL     OW10963   2.199   1.164   6.061
 3355SOL    HW110964   2.237   1.163   5.969
 3355SOL    HW210965   2.110   1.120   6.061
 3356SOL     OW10966   1.342   6.001   6.006
 3356SOL    HW110967   1.334   6.100   5.997
 3356SOL    HW210968   1.415   5.979   6.071
 3357SOL     OW10969   3.274   3.217   1.945
 3357SOL    HW110970   3.263   3.250   2.039
 3357SOL    HW210971   3.184   3.202   1.904
 3358SOL     OW10972   5.203   1.370   3.435
 3358SOL    HW110973   5.153   1.362   3.521
 3358SOL    HW210974   5.165   1.446   3.381
 3359SOL     OW10975   6.921   5.844   3.235
 3359SOL    HW110976   6.834   5.794   3.228
 3359SOL    HW210977   6.903   5.941   3.249
 3360SOL     OW10978   0.938   2.065   6.395
 3360SOL    HW110979   0.963   2.046   6.300
 3360SOL    HW210980   0.999   2.015   6.457
 3361SOL     OW10981   0.959   6.735   5.105
 3361SOL    HW110982   0.948   6.770   5.198
 3361SOL    HW210983   0.911   6.795   5.041
 3362SOL     OW10984   3.722   1.575   2.738
 3362SOL    HW110985   3.677   1.636   2.673
 3362SOL    HW210986   3.786   1.627   2.794
 3363SOL     OW10987   6.876   2.668   1.651
 3363SOL    HW110988   6.936   2.599   1.611
 3363SOL    HW210989   6.888   2.668   1.750
 3364SOL     OW10990   2.333   4.795   2.683
 3364SOL    HW110991   2.354   4.867   2.616
 3364SOL    HW210992   2.397   4.802   2.759
 3365SOL     OW10993   0.403   2.710   4.886
 3365SOL    HW110994   0.370   2.655   4.808
 3365SOL    HW210995   0.326   2.759   4.927
 3366SOL     OW10996   6.388   5.034   3.728
 3366SOL    HW110997   6.313   5.089   3.767
 3366SOL    HW210998   6.352   4.946   3.698
 3367SOL     OW10999   3.009   3.320   2.837
 3367SOL    HW111000   3.095   3.325   2.787
 3367SOL    HW211001   2.953   3.400   2.814
 3368SOL     OW11002   0.873   5.419   6.618
 3368SOL    HW111003   0.878   5.398   6.716
 3368SOL    HW211004   0.782   5.452   6.596
 3369SOL     OW11005   4.637   1.929   1.622
 3369SOL    HW111006   4.606   1.837   1.598
 3369SOL    HW211007   4.737   1.928   1.632
 3370SOL     OW11008   6.025   6.292   1.775
 3370SOL    HW111009   6.061   6.215   1.828
 3370SOL    HW211010   6.062   6.289   1.682
 3371SOL     OW11011   2.320   3.577   1.639
 3371SOL    HW111012   2.300   3.550   1.733
 3371SOL    HW211013   2.370   3.664   1.639
 3372SOL     OW11014   0.787   2.102   6.962
 3372SOL    HW111015   0.754   2.014   6.997
 3372SOL    HW211016   0.776   2.173   0.003
 3373SOL     OW11017   0.021   1.996   3.938
 3373SOL    HW111018   0.020   1.977   4.036
 3373SOL    HW211019   6.976   2.059   3.915
 3374SOL     OW11020   1.312   0.408   3.688
 3374SOL    HW111021   1.272   0.365   3.769
 3374SOL    HW211022   1.245   0.408   3.613
 3375SOL     OW11023   0.060   4.210   0.737
 3375SOL    HW111024   0.023   4.259   0.816
 3375SOL    HW211025   0.010   4.124   0.725
 3376SOL     OW11026   3.310   2.989   4.730
 3376SOL    HW111027   3.287   2.947   4.642
 3376SOL    HW211028   3.394   2.948   4.765
 3377SOL     OW11029   6.518   5.161   5.245
 3377SOL    HW111030   6.565   5.244   5.218
 3377SOL    HW211031   6.446   5.184   5.311
 3378SOL     OW11032   1.219   6.401   6.245
 3378SOL    HW111033   1.208   6.410   6.146
 3378SOL    HW211034   1.152   6.457   6.292
 3379SOL     OW11035   0.661   2.639   4.956
 3379SOL    HW111036   0.574   2.662   4.912
 3379SOL    HW211037   0.702   2.723   4.993
 3380SOL     OW11038   4.399   5.517   5.662
 3380SOL    HW111039   4.479   5.573   5.643
 3380SOL    HW211040   4.323   5.545   5.603
 3381SOL     OW11041   6.679   2.666   1.458
 3381SOL    HW111042   6.693   2.704   1.366
 3381SOL    HW211043   6.762   2.679   1.512
 3382SOL     OW11044   0.236   2.932   0.601
 3382SOL    HW111045   0.288   2.952   0.518
 3382SOL    HW211046   0.163   2.867   0.580
 3383SOL     OW11047   3.315   5.012   0.507
 3383SOL    HW111048   3.321   5.087   0.573
 3383SOL    HW211049   3.221   5.006   0.473
 3384SOL     OW11050   2.370   3.487   0.584
 3384SOL    HW111051   2.423   3.560   0.628
 3384SOL    HW211052   2.275   3.516   0.575
 3385SOL     OW11053   6.461   3.350   4.147
 3385SOL    HW111054   6.507   3.356   4.059
 3385SOL    HW211055   6.386   3.417   4.151
 3386SOL     OW11056   6.189   4.573   6.798
 3386SOL    HW111057   6.117   4.621   6.849
 3386SOL    HW211058   6.149   4.530   6.717
 3387SOL     OW11059   4.914   0.333   2.857
 3387SOL    HW111060   4.874   0.284   2.935
 3387SOL    HW211061   4.982   0.399   2.891
 3388SOL     OW11062   5.124   4.053   2.707
 3388SOL    HW111063   5.210   4.025   2.665
 3388SOL    HW211064   5.142   4.120   2.779
 3389SOL     OW11065   6.281   5.764   6.276
 3389SOL    HW111066   6.291   5.828   6.352
 3389SOL    HW211067   6.259   5.673   6.312
 3390SOL     OW11068   4.170   6.720   6.489
 3390SOL    HW111069   4.157   6.638   6.546
 3390SOL    HW211070   4.251   6.770   6.521
 3391SOL     OW11071   4.991   2.359   3.107
 3391SOL    HW111072   5.024   2.413   3.030
 3391SOL    HW211073   5.039   2.271   3.109
 3392SOL     OW11074   3.152   0.088   4.657
 3392SOL    HW111075   3.066   0.048   4.623
 3392SOL    HW211076   3.180   0.162   4.597
 3393SOL     OW11077   5.970   6.248   0.751
 3393SOL    HW111078   5.939   6.185   0.823
 3393SOL    HW211079   6.065   6.274   0.769
 3394SOL     OW11080   4.146   4.229   0.625
 3394SOL    HW111081   4.117   4.207   0.718
 3394SOL    HW211082   4.097   4.311   0.594
 3395SOL     OW11083   5.109   1.670   3.104
 3395SOL    HW111084   5.065   1.741   3.049
 3395SOL    HW211085   5.105   1.583   3.055
 3396SOL     OW11086   5.727   1.600   3.667
 3396SOL    HW111087   5.726   1.649   3.754
 3396SOL    HW211088   5.732   1.666   3.592
 3397SOL     OW11089   3.328   5.616   6.209
 3397SOL    HW111090   3.279   5.701   6.229
 3397SOL    HW211091   3.426   5.631   6.219
 3398SOL     OW11092   0.804   6.968   5.063
 3398SOL    HW111093   0.741   6.900   5.101
 3398SOL    HW211094   0.754   0.021   5.036
 3399SOL     OW11095   6.057   4.636   3.065
 3399SOL    HW111096   6.146   4.603   3.098
 3399SOL    HW211097   6.058   4.735   3.061
 3400SOL     OW11098   6.116   3.420   7.019
 3400SOL    HW111099   6.197   3.362   7.015
 3400SOL    HW211100   6.080   3.434   6.927
 3401SOL     OW11101   6.462   4.027   6.740
 3401SOL    HW111102   6.499   4.114   6.705
 3401SOL    HW211103   6.536   3.961   6.749
 3402SOL     OW11104   6.240   5.555   0.507
 3402SOL    HW111105   6.235   5.655   0.507
 3402SOL    HW211106   6.156   5.517   0.546
 3403SOL     OW11107   4.998   5.591   6.333
 3403SOL    HW111108   4.969   5.687   6.334
 3403SOL    HW211109   4.965   5.547   6.250
 3404SOL     OW11110   4.883   3.073   6.911
 3404SOL    HW111111   4.895   3.170   6.892
 3404SOL    HW211112   4.935   3.019   6.845
 3405SOL     OW11113   5.995   4.653   6.282
 3405SOL    HW111114   5.929   4.601   6.336
 3405SOL    HW211115   6.086   4.645   6.324
 3406SOL     OW11116   1.398   3.744   2.151
 3406SOL    HW111117   1.394   3.840   2.120
 3406SOL    HW211118   1.494   3.718   2.163
 3407SOL     OW11119   2.562   4.628   0.193
 3407SOL    HW111120   2.486   4.676   0.238
 3407SOL    HW211121   2.614   4.578   0.262
 3408SOL     OW11122   5.139   3.245   4.960
 3408SOL    HW111123   5.108   3.211   5.049
 3408SOL    HW211124   5.184   3.171   4.911
 3409SOL     OW11125   3.802   5.926   0.776
 3409SOL    HW111126   3.712   5.943   0.736
 3409SOL    HW211127   3.857   6.009   0.770
 3410SOL     OW11128   5.797   6.379   2.391
 3410SOL    HW111129   5.736   6.301   2.407
 3410SOL    HW211130   5.802   6.398   2.293
 3411SOL     OW11131   0.628   2.673   0.361
 3411SOL    HW111132   0.603   2.760   0.404
 3411SOL    HW211133   0.696   2.626   0.418
 3412SOL     OW11134   5.215   3.789   1.093
 3412SOL    HW111135   5.116   3.800   1.088
 3412SOL    HW211136   5.236   3.716   1.158
 3413SOL     OW11137   5.986   2.339   6.753
 3413SOL    HW111138   6.048   2.265   6.780
 3413SOL    HW211139   5.891   2.308   6.765
 3414SOL     OW11140   3.167   2.176   5.482
 3414SOL    HW111141   3.191   2.079   5.479
 3414SOL    HW211142   3.068   2.187   5.476
 3415SOL     OW11143   2.651   2.380   4.295
 3415SOL    HW111144   2.657   2.335   4.384
 3415SOL    HW211145   2.631   2.477   4.309
 3416SOL     OW11146   6.164   0.518   6.693
 3416SOL    HW111147   6.210   0.476   6.771
 3416SOL    HW211148   6.229   0.576   6.644
 3417SOL     OW11149   6.709   6.611   3.063
 3417SOL    HW111150   6.781   6.651   3.006
 3417SOL    HW211151   6.629   6.671   3.062
 3418SOL     OW11152   3.851   5.775   3.806
 3418SOL    HW111153   3.943   5.813   3.815
 3418SOL    HW211154   3.788   5.825   3.866
 3419SOL     OW11155   3.902   5.695   6.326
 3419SOL    HW111156   3.860   5.633   6.260
 3419SOL    HW211157   3.864   5.787   6.316
 3420SOL     OW11158   5.186   3.648   4.261
 3420SOL    HW111159   5.096   3.683   4.285
 3420SOL    HW211160   5.176   3.575   4.193
 3421SOL     OW11161   5.965   1.794   3.219
 3421SOL    HW111162   5.972   1.754   3.127
 3421SOL    HW211163   6.032   1.866   3.229
 3422SOL     OW11164   2.450   0.531   0.835
 3422SOL    HW111165   2.431   0.441   0.797
 3422SOL    HW211166   2.510   0.582   0.773
 3423SOL     OW11167   0.360   3.954   5.818
 3423SOL    HW111168   0.303   4.035   5.831
 3423SOL    HW211169   0.418   3.941   5.898
 3424SOL     OW11170   3.160   0.583   1.310
 3424SOL    HW111171   3.170   0.500   1.364
 3424SOL    HW211172   3.208   0.659   1.354
 3425SOL     OW11173   4.961   4.347   1.888
 3425SOL    HW111174   4.873   4.339   1.841
 3425SOL    HW211175   4.945   4.353   1.987
 3426SOL     OW11176   5.062   2.716   0.603
 3426SOL    HW111177   5.087   2.752   0.693
 3426SOL    HW211178   5.036   2.792   0.543
 3427SOL     OW11179   0.674   2.444   2.178
 3427SOL    HW111180   0.603   2.433   2.108
 3427SOL    HW211181   0.729   2.525   2.158
 3428SOL     OW11182   4.110   4.439   6.680
 3428SOL    HW111183   4.068   4.461   6.592
 3428SOL    HW211184   4.076   4.502   6.750
 3429SOL     OW11185   0.416   1.145   1.253
 3429SOL    HW111186   0.435   1.063   1.197
 3429SOL    HW211187   0.499   1.171   1.302
 3430SOL     OW11188   2.383   5.456   5.950
 3430SOL    HW111189   2.474   5.496   5.936
 3430SOL    HW211190   2.385   5.398   6.032
 3431SOL     OW11191   1.511   6.419   1.784
 3431SOL    HW111192   1.496   6.369   1.699
 3431SOL    HW211193   1.428   6.469   1.808
 3432SOL     OW11194   2.470   4.985   6.738
 3432SOL    HW111195   2.495   5.082   6.733
 3432SOL    HW211196   2.552   4.929   6.724
 3433SOL     OW11197   1.927   1.603   6.030
 3433SOL    HW111198   1.927   1.586   6.128
 3433SOL    HW211199   2.018   1.636   6.002
 3434SOL     OW11200   3.732   2.110   1.216
 3434SOL    HW111201   3.641   2.134   1.248
 3434SOL    HW211202   3.788   2.193   1.209
 3435SOL     OW11203   2.830   0.932   0.408
 3435SOL    HW111204   2.811   0.905   0.503
 3435SOL    HW211205   2.745   0.930   0.356
 3436SOL     OW11206   3.450   5.877   0.459
 3436SOL    HW111207   3.436   5.778   0.461
 3436SOL    HW211208   3.547   5.897   0.450
 3437SOL     OW11209   2.176   6.587   5.966
 3437SOL    HW111210   2.100   6.538   5.922
 3437SOL    HW211211   2.222   6.527   6.031
 3438SOL     OW11212   0.804   3.983   0.962
 3438SOL    HW111213   0.811   3.885   0.985
 3438SOL    HW211214   0.894   4.018   0.937
 3439SOL     OW11215   3.015   6.059   4.183
 3439SOL    HW111216   2.934   6.003   4.196
 3439SOL    HW211217   3.095   6.000   4.168
 3440SOL     OW11218   4.108   3.468   3.081
 3440SOL    HW111219   4.089   3.440   3.175
 3440SOL    HW211220   4.099   3.567   3.073
 3441SOL     OW11221   0.479   5.856   6.615
 3441SOL    HW111222   0.415   5.798   6.565
 3441SOL    HW211223   0.570   5.848   6.575
 3442SOL     OW11224   2.728   3.697   0.788
 3442SOL    HW111225   2.789   3.713   0.710
 3442SOL    HW211226   2.637   3.673   0.754
 3443SOL     OW11227   3.220   6.254   2.281
 3443SOL    HW111228   3.177   6.278   2.194
 3443SOL    HW211229   3.220   6.154   2.291
 3444SOL     OW11230   5.075   5.852   1.252
 3444SOL    HW111231   5.028   5.814   1.331
 3444SOL    HW211232   5.174   5.837   1.261
 3445SOL     OW11233   6.801   5.220   3.785
 3445SOL    HW111234   6.864   5.232   3.861
 3445SOL    HW211235   6.826   5.137   3.734
 3446SOL     OW11236   5.703   0.704   1.277
 3446SOL    HW111237   5.687   0.753   1.363
 3446SOL    HW211238   5.751   0.618   1.295
 3447SOL     OW11239   5.042   0.494   0.473
 3447SOL    HW111240   5.109   0.522   0.542
 3447SOL    HW211241   5.080   0.509   0.382
 3448SOL     OW11242   3.193   6.611   6.162
 3448SOL    HW111243   3.095   6.625   6.175
 3448SOL    HW211244   3.216   6.515   6.179
 3449SOL     OW11245   6.220   5.220   4.653
 3449SOL    HW111246   6.284   5.248   4.725
 3449SOL    HW211247   6.138   5.180   4.695
 3450SOL     OW11248   1.466   0.902   6.458
 3450SOL    HW111249   1.531   0.869   6.390
 3450SOL    HW211250   1.488   0.862   6.547
 3451SOL     OW11251   1.641   5.913   0.125
 3451SOL    HW111252   1.599   5.822   0.135
 3451SOL    HW211253   1.715   5.908   0.058
 3452SOL     OW11254   5.963   0.177   6.031
 3452SOL    HW111255   5.963   0.207   6.126
 3452SOL    HW211256   5.901   0.099   6.020
 3453SOL     OW11257   5.873   5.839   6.139
 3453SOL    HW111258   5.818   5.795   6.210
 3453SOL    HW211259   5.816   5.857   6.059
 3454SOL     OW11260   1.349   3.906   4.579
 3454SOL    HW111261   1.429   3.919   4.637
 3454SOL    HW211262   1.318   3.811   4.587
 3455SOL     OW11263   2.728   1.279   4.711
 3455SOL    HW111264   2.642   1.308   4.755
 3455SOL    HW211265   2.726   1.181   4.697
 3456SOL     OW11266   4.378   4.926   1.967
 3456SOL    HW111267   4.460   4.957   2.015
 3456SOL    HW211268   4.393   4.834   1.932
 3457SOL     OW11269   3.931   5.289   4.793
 3457SOL    HW111270   3.919   5.368   4.853
 3457SOL    HW211271   3.876   5.301   4.710
 3458SOL     OW11272   4.751   1.737   2.292
 3458SOL    HW111273   4.654   1.717   2.278
 3458SOL    HW211274   4.760   1.826   2.336
 3459SOL     OW11275   5.286   1.880   3.155
 3459SOL    HW111276   5.225   1.803   3.136
 3459SOL    HW211277   5.345   1.897   3.076
 3460SOL     OW11278   3.128   2.175   5.784
 3460SOL    HW111279   3.124   2.275   5.792
 3460SOL    HW211280   3.160   2.150   5.693
 3461SOL     OW11281   6.033   4.229   6.797
 3461SOL    HW111282   5.951   4.285   6.808
 3461SOL    HW211283   6.063   4.197   6.887
 3462SOL     OW11284   0.793   3.741   5.146
 3462SOL    HW111285   0.730   3.731   5.222
 3462SOL    HW211286   0.748   3.714   5.061
 3463SOL     OW11287   0.681   4.304   0.714
 3463SOL    HW111288   0.635   4.323   0.627
 3463SOL    HW211289   0.687   4.205   0.728
 3464SOL     OW11290   0.545   4.519   6.236
 3464SOL    HW111291   0.571   4.614   6.219
 3464SOL    HW211292   0.558   4.466   6.152
 3465SOL     OW11293   2.473   2.645   2.215
 3465SOL    HW111294   2.543   2.688   2.158
 3465SOL    HW211295   2.396   2.616   2.157
 3466SOL     OW11296   7.020   5.518   6.028
 3466SOL    HW111297   0.034   5.608   6.036
 3466SOL    HW211298   0.052   5.449   6.067
 3467SOL     OW11299   1.647   2.148   6.718
 3467SOL    HW111300   1.681   2.213   6.650
 3467SOL    HW211301   1.704   2.155   6.801
 3468SOL     OW11302   3.835   5.415   2.961
 3468SOL    HW111303   3.810   5.472   3.039
 3468SOL    HW211304   3.784   5.329   2.965
 3469SOL     OW11305   6.212   1.535   3.941
 3469SOL    HW111306   6.298   1.584   3.944
 3469SOL    HW211307   6.140   1.595   3.904
 3470SOL     OW11308   6.807   4.926   1.051
 3470SOL    HW111309   6.775   4.985   1.125
 3470SOL    HW211310   6.869   4.856   1.088
 3471SOL     OW11311   3.977   5.130   5.021
 3471SOL    HW111312   3.988   5.174   4.931
 3471SOL    HW211313   3.902   5.064   5.016
 3472SOL     OW11314   2.726   0.780   3.961
 3472SOL    HW111315   2.708   0.852   4.027
 3472SOL    HW211316   2.784   0.815   3.887
 3473SOL     OW11317   5.705   1.514   6.029
 3473SOL    HW111318   5.702   1.607   6.064
 3473SOL    HW211319   5.783   1.503   5.967
 3474SOL     OW11320   2.914   5.010   1.704
 3474SOL    HW111321   2.828   4.965   1.679
 3474SOL    HW211322   2.896   5.077   1.776
 3475SOL     OW11323   1.269   6.603   4.674
 3475SOL    HW111324   1.290   6.562   4.763
 3475SOL    HW211325   1.351   6.602   4.617
 3476SOL     OW11326   3.486   1.024   4.226
 3476SOL    HW111327   3.463   0.929   4.248
 3476SOL    HW211328   3.535   1.028   4.139
 3477SOL     OW11329   3.039   5.585   2.106
 3477SOL    HW111330   2.996   5.510   2.055
 3477SOL    HW211331   3.047   5.665   2.047
 3478SOL     OW11332   2.979   6.381   5.861
 3478SOL    HW111333   2.933   6.304   5.818
 3478SOL    HW211334   2.913   6.433   5.916
 3479SOL     OW11335   0.361   0.203   3.053
 3479SOL    HW111336   0.309   0.126   3.091
 3479SOL    HW211337   0.459   0.183   3.060
 3480SOL     OW11338   6.733   1.302   4.737
 3480SOL    HW111339   6.752   1.265   4.828
 3480SOL    HW211340   6.687   1.233   4.681
 3481SOL     OW11341   4.809   6.624   6.437
 3481SOL    HW111342   4.848   6.706   6.479
 3481SOL    HW211343   4.713   6.615   6.463
 3482SOL     OW11344   5.414   1.356   1.031
 3482SOL    HW111345   5.344   1.295   1.069
 3482SOL    HW211346   5.433   1.429   1.097
 3483SOL     OW11347   3.021   0.238   1.213
 3483SOL    HW111348   3.104   0.282   1.178
 3483SOL    HW211349   2.946   0.304   1.213
 3484SOL     OW11350   2.784   3.394   1.844
 3484SOL    HW111351   2.866   3.366   1.793
 3484SOL    HW211352   2.755   3.319   1.904
 3485SOL     OW11353   1.508   1.074   4.921
 3485SOL    HW111354   1.440   1.126   4.870
 3485SOL    HW211355   1.463   1.002   4.974
 3486SOL     OW11356   3.610   1.768   2.203
 3486SOL    HW111357   3.531   1.825   2.227
 3486SOL    HW211358   3.578   1.684   2.159
 3487SOL     OW11359   5.574   2.025   6.346
 3487SOL    HW111360   5.619   2.042   6.434
 3487SOL    HW211361   5.638   2.045   6.272
 3488SOL     OW11362   5.794   3.161   4.133
 3488SOL    HW111363   5.696   3.149   4.150
 3488SOL    HW211364   5.844   3.150   4.219
 3489SOL     OW11365   3.095   6.838   0.427
 3489SOL    HW111366   3.164   6.904   0.399
 3489SOL    HW211367   3.012   6.887   0.454
 3490SOL     OW11368   4.466   4.436   6.941
 3490SOL    HW111369   4.465   4.502   7.016
 3490SOL    HW211370   4.464   4.343   6.978
 3491SOL     OW11371   6.616   2.982   5.722
 3491SOL    HW111372   6.557   2.902   5.724
 3491SOL    HW211373   6.576   3.052   5.663
 3492SOL     OW11374   0.805   5.764   0.818
 3492SOL    HW111375   0.876   5.730   0.880
 3492SOL    HW211376   0.747   5.830   0.867
 3493SOL     OW11377   6.546   5.127   6.844
 3493SOL    HW111378   6.510   5.218   6.867
 3493SOL    HW211379   6.531   5.065   6.921
 3494SOL     OW11380   4.328   0.325   0.649
 3494SOL    HW111381   4.409   0.310   0.706
 3494SOL    HW211382   4.255   0.362   0.706
 3495SOL     OW11383   4.337   4.927   2.404
 3495SOL    HW111384   4.329   4.891   2.311
 3495SOL    HW211385   4.415   4.884   2.449
 3496SOL     OW11386   1.282   3.109   1.240
 3496SOL    HW111387   1.351   3.140   1.305
 3496SOL    HW211388   1.286   3.009   1.232
 3497SOL     OW11389   3.843   0.593   2.749
 3497SOL    HW111390   3.793   0.680   2.748
 3497SOL    HW211391   3.851   0.561   2.843
 3498SOL     OW11392   3.165   2.305   0.844
 3498SOL    HW111393   3.208   2.371   0.906
 3498SOL    HW211394   3.070   2.332   0.829
 3499SOL     OW11395   5.458   3.140   4.360
 3499SOL    HW111396   5.443   3.226   4.312
 3499SOL    HW211397   5.529   3.153   4.430
 3500SOL     OW11398   6.844   4.198   5.915
 3500SOL    HW111399   6.861   4.102   5.890
 3500SOL    HW211400   6.886   4.257   5.847
 3501SOL     OW11401   0.295   5.148   4.807
 3501SOL    HW111402   0.377   5.091   4.813
 3501SOL    HW211403   0.319   5.234   4.762
 3502SOL     OW11404   6.820   2.475   2.098
 3502SOL    HW111405   6.727   2.485   2.134
 3502SOL    HW211406   6.870   2.407   2.151
 3503SOL     OW11407   5.165   5.598   5.156
 3503SOL    HW111408   5.231   5.633   5.089
 3503SOL    HW211409   5.206   5.601   5.248
 3504SOL     OW11410   2.594   2.917   1.170
 3504SOL    HW111411   2.675   2.883   1.217
 3504SOL    HW211412   2.532   2.960   1.235
 3505SOL     OW11413   5.735   5.201   5.196
 3505SOL    HW111414   5.659   5.208   5.132
 3505SOL    HW211415   5.793   5.282   5.189
 3506SOL     OW11416   3.792   5.666   4.508
 3506SOL    HW111417   3.754   5.742   4.561
 3506SOL    HW211418   3.874   5.631   4.554
 3507SOL     OW11419   1.909   0.770   6.852
 3507SOL    HW111420   1.998   0.757   6.894
 3507SOL    HW211421   1.907   0.859   6.805
 3508SOL     OW11422   4.509   2.210   6.573
 3508SOL    HW111423   4.548   2.119   6.558
 3508SOL    HW211424   4.421   2.217   6.527
 3509SOL     OW11425   5.290   5.760   6.494
 3509SOL    HW111426   5.262   5.766   6.398
 3509SOL    HW211427   5.315   5.851   6.527
 3510SOL     OW11428   1.885   2.223   1.891
 3510SOL    HW111429   1.960   2.278   1.929
 3510SOL    HW211430   1.871   2.250   1.795
 3511SOL     OW11431   1.903   3.590   0.001
 3511SOL    HW111432   1.921   3.516   0.066
 3511SOL    HW211433   1.816   3.633   0.024
 3512SOL     OW11434   0.670   4.584   0.773
 3512SOL    HW111435   0.666   4.488   0.746
 3512SOL    HW211436   0.626   4.640   0.703
 3513SOL     OW11437   6.187   4.098   0.443
 3513SOL    HW111438   6.225   4.029   0.504
 3513SOL    HW211439   6.257   4.167   0.422
 3514SOL     OW11440   1.021   0.714   2.047
 3514SOL    HW111441   1.064   0.641   2.100
 3514SOL    HW211442   0.993   0.788   2.107
 3515SOL     OW11443   3.708   6.095   2.442
 3515SOL    HW111444   3.701   6.017   2.380
 3515SOL    HW211445   3.626   6.152   2.434
 3516SOL     OW11446   3.819   1.212   1.419
 3516SOL    HW111447   3.910   1.255   1.423
 3516SOL    HW211448   3.763   1.259   1.351
 3517SOL     OW11449   0.573   1.185   0.294
 3517SOL    HW111450   0.539   1.279   0.291
 3517SOL    HW211451   0.509   1.124   0.247
 3518SOL     OW11452   4.638   4.116   5.578
 3518SOL    HW111453   4.654   4.214   5.564
 3518SOL    HW211454   4.619   4.099   5.674
 3519SOL     OW11455   1.531   0.610   6.320
 3519SOL    HW111456   1.473   0.620   6.239
 3519SOL    HW211457   1.479   0.567   6.394
 3520SOL     OW11458   3.607   4.239   1.421
 3520SOL    HW111459   3.520   4.288   1.411
 3520SOL    HW211460   3.637   4.244   1.517
 3521SOL     OW11461   5.702   2.946   1.506
 3521SOL    HW111462   5.730   3.032   1.548
 3521SOL    HW211463   5.617   2.959   1.456
 3522SOL     OW11464   3.248   5.453   1.859
 3522SOL    HW111465   3.302   5.413   1.785
 3522SOL    HW211466   3.188   5.524   1.822
 3523SOL     OW11467   3.337   4.667   5.524
 3523SOL    HW111468   3.255   4.642   5.473
 3523SOL    HW211469   3.324   4.757   5.566
 3524SOL     OW11470   2.871   0.699   1.349
 3524SOL    HW111471   2.899   0.790   1.380
 3524SOL    HW211472   2.950   0.652   1.309
 3525SOL     OW11473   0.737   3.122   2.166
 3525SOL    HW111474   0.691   3.145   2.081
 3525SOL    HW211475   0.824   3.077   2.147
 3526SOL     OW11476   1.344   0.579   4.374
 3526SOL    HW111477   1.345   0.522   4.291
 3526SOL    HW211478   1.336   0.675   4.348
 3527SOL     OW11479   5.096   2.638   5.611
 3527SOL    HW111480   5.183   2.590   5.621
 3527SOL    HW211481   5.111   2.736   5.624
 3528SOL     OW11482   1.082   6.702   3.643
 3528SOL    HW111483   1.002   6.661   3.601
 3528SOL    HW211484   1.055   6.753   3.725
 3529SOL     OW11485   3.659   0.132   5.715
 3529SOL    HW111486   3.641   0.218   5.666
 3529SOL    HW211487   3.589   0.118   5.785
 3530SOL     OW11488   1.931   5.511   2.671
 3530SOL    HW111489   2.019   5.470   2.644
 3530SOL    HW211490   1.866   5.439   2.693
 3531SOL     OW11491   5.451   3.982   0.415
 3531SOL    HW111492   5.436   3.886   0.441
 3531SOL    HW211493   5.364   4.025   0.393
 3532SOL     OW11494   3.147   0.456   0.189
 3532SOL    HW111495   3.069   0.405   0.223
 3532SOL    HW211496   3.155   0.542   0.239
 3533SOL     OW11497   1.379   1.967   3.556
 3533SOL    HW111498   1.419   1.892   3.503
 3533SOL    HW211499   1.445   2.041   3.564
 3534SOL     OW11500   5.627   1.719   5.523
 3534SOL    HW111501   5.537   1.705   5.563
 3534SOL    HW211502   5.623   1.705   5.424
 3535SOL     OW11503   0.195   5.977   0.692
 3535SOL    HW111504   0.106   6.009   0.724
 3535SOL    HW211505   0.217   6.022   0.605
 3536SOL     OW11506   1.841   3.694   3.245
 3536SOL    HW111507   1.803   3.610   3.206
 3536SOL    HW211508   1.813   3.703   3.340
 3537SOL     OW11509   2.189   4.465   0.637
 3537SOL    HW111510   2.210   4.387   0.577
 3537SOL    HW211511   2.122   4.437   0.705
 3538SOL     OW11512   3.490   0.886   3.619
 3538SOL    HW111513   3.455   0.980   3.610
 3538SOL    HW211514   3.419   0.828   3.659
 3539SOL     OW11515   6.122   3.403   5.374
 3539SOL    HW111516   6.210   3.402   5.420
 3539SOL    HW211517   6.075   3.490   5.394
 3540SOL     OW11518   2.077   2.820   6.351
 3540SOL    HW111519   2.172   2.852   6.360
 3540SOL    HW211520   2.061   2.743   6.412
 3541SOL     OW11521   2.560   2.960   0.343
 3541SOL    HW111522   2.470   2.927   0.315
 3541SOL    HW211523   2.551   3.024   0.419
 3542SOL     OW11524   5.685   2.237   0.243
 3542SOL    HW111525   5.777   2.276   0.240
 3542SOL    HW211526   5.675   2.169   0.170
 3543SOL     OW11527   1.374   3.302   2.898
 3543SOL    HW111528   1.335   3.337   2.983
 3543SOL    HW211529   1.306   3.307   2.825
 3544SOL     OW11530   2.766   4.556   0.011
 3544SOL    HW111531   2.750   4.459   7.023
 3544SOL    HW211532   2.693   4.592   0.069
 3545SOL     OW11533   3.748   4.939   0.433
 3545SOL    HW111534   3.674   4.918   0.497
 3545SOL    HW211535   3.760   5.038   0.427
 3546SOL     OW11536   6.099   4.649   3.489
 3546SOL    HW111537   6.019   4.671   3.433
 3546SOL    HW211538   6.182   4.669   3.438
 3547SOL     OW11539   6.638   3.768   4.790
 3547SOL    HW111540   6.594   3.721   4.867
 3547SOL    HW211541   6.636   3.708   4.710
 3548SOL     OW11542   5.330   0.820   5.497
 3548SOL    HW111543   5.322   0.776   5.586
 3548SOL    HW211544   5.351   0.917   5.509
 3549SOL     OW11545   2.054   4.983   6.544
 3549SOL    HW111546   2.111   4.922   6.489
 3549SOL    HW211547   1.961   4.947   6.548
 3550SOL     OW11548   5.843   2.907   5.217
 3550SOL    HW111549   5.939   2.904   5.242
 3550SOL    HW211550   5.816   2.820   5.175
 3551SOL     OW11551   3.482   1.738   4.954
 3551SOL    HW111552   3.565   1.729   4.898
 3551SOL    HW211553   3.473   1.833   4.985
 3552SOL     OW11554   6.159   5.409   2.349
 3552SOL    HW111555   6.125   5.335   2.407
 3552SOL    HW211556   6.082   5.456   2.306
 3553SOL     OW11557   3.439   5.855   6.529
 3553SOL    HW111558   3.343   5.858   6.559
 3553SOL    HW211559   3.469   5.760   6.525
 3554SOL     OW11560   3.942   3.780   0.938
 3554SOL    HW111561   3.892   3.866   0.945
 3554SOL    HW211562   3.888   3.714   0.888
 3555SOL     OW11563   2.109   2.439   4.484
 3555SOL    HW111564   2.017   2.399   4.489
 3555SOL    HW211565   2.147   2.423   4.393
 3556SOL     OW11566   3.847   1.387   4.344
 3556SOL    HW111567   3.794   1.470   4.355
 3556SOL    HW211568   3.871   1.375   4.247
 3557SOL     OW11569   0.692   0.511   3.054
 3557SOL    HW111570   0.634   0.484   2.977
 3557SOL    HW211571   0.636   0.557   3.123
 3558SOL     OW11572   2.811   5.198   0.880
 3558SOL    HW111573   2.758   5.282   0.868
 3558SOL    HW211574   2.765   5.123   0.832
 3559SOL     OW11575   2.470   6.915   4.816
 3559SOL    HW111576   2.531   6.921   4.895
 3559SOL    HW211577   2.524   6.917   4.732
 3560SOL     OW11578   2.001   4.698   3.619
 3560SOL    HW111579   1.972   4.787   3.583
 3560SOL    HW211580   1.922   4.648   3.652
 3561SOL     OW11581   5.166   4.704   5.837
 3561SOL    HW111582   5.158   4.804   5.842
 3561SOL    HW211583   5.115   4.663   5.912
 3562SOL     OW11584   3.669   1.868   4.369
 3562SOL    HW111585   3.643   1.784   4.416
 3562SOL    HW211586   3.617   1.944   4.405
 3563SOL     OW11587   5.599   2.412   6.304
 3563SOL    HW111588   5.571   2.367   6.220
 3563SOL    HW211589   5.565   2.506   6.305
 3564SOL     OW11590   0.439   5.257   2.798
 3564SOL    HW111591   0.459   5.176   2.743
 3564SOL    HW211592   0.475   5.339   2.752
 3565SOL     OW11593   3.610   4.904   2.763
 3565SOL    HW111594   3.652   4.898   2.854
 3565SOL    HW211595   3.650   4.980   2.712
 3566SOL     OW11596   6.728   0.857   5.815
 3566SOL    HW111597   6.635   0.886   5.792
 3566SOL    HW211598   6.753   0.893   5.905
 3567SOL     OW11599   0.230   2.893   6.277
 3567SOL    HW111600   0.253   2.841   6.195
 3567SOL    HW211601   0.130   2.899   6.286
 3568SOL     OW11602   6.301   3.990   5.532
 3568SOL    HW111603   6.210   3.996   5.573
 3568SOL    HW211604   6.366   3.955   5.601
 3569SOL     OW11605   2.884   1.936   5.162
 3569SOL    HW111606   2.827   1.929   5.079
 3569SOL    HW211607   2.920   2.028   5.170
 3570SOL     OW11608   5.060   0.528   6.161
 3570SOL    HW111609   4.991   0.505   6.229
 3570SOL    HW211610   5.100   0.443   6.124
 3571SOL     OW11611   0.332   5.933   0.001
 3571SOL    HW111612   0.372   5.934   0.092
 3571SOL    HW211613   0.403   5.952   6.961
 3572SOL     OW11614   5.367   3.938   3.703
 3572SOL    HW111615   5.440   3.978   3.759
 3572SOL    HW211616   5.399   3.854   3.660
 3573SOL     OW11617   0.362   4.644   3.811
 3573SOL    HW111618   0.341   4.660   3.907
 3573SOL    HW211619   0.461   4.649   3.797
 3574SOL     OW11620   0.212   4.837   0.183
 3574SOL    HW111621   0.148   4.891   0.130
 3574SOL    HW211622   0.278   4.793   0.122
 3575SOL     OW11623   5.598   4.725   3.393
 3575SOL    HW111624   5.603   4.685   3.302
 3575SOL    HW211625   5.524   4.682   3.445
 3576SOL     OW11626   2.225   1.564   5.949
 3576SOL    HW111627   2.235   1.503   6.028
 3576SOL    HW211628   2.204   1.510   5.868
 3577SOL     OW11629   1.385   2.715   6.043
 3577SOL    HW111630   1.369   2.778   5.968
 3577SOL    HW211631   1.417   2.627   6.006
 3578SOL     OW11632   3.734   2.897   0.229
 3578SOL    HW111633   3.811   2.888   0.293
 3578SOL    HW211634   3.716   2.809   0.187
 3579SOL     OW11635   0.155   3.964   4.691
 3579SOL    HW111636   0.232   3.914   4.653
 3579SOL    HW211637   0.085   3.976   4.621
 3580SOL     OW11638   5.745   1.329   1.259
 3580SOL    HW111639   5.812   1.400   1.281
 3580SOL    HW211640   5.671   1.330   1.326
 3581SOL     OW11641   6.057   0.189   4.159
 3581SOL    HW111642   6.027   0.197   4.254
 3581SOL    HW211643   6.150   0.153   4.156
 3582SOL     OW11644   0.453   1.827   6.068
 3582SOL    HW111645   0.414   1.915   6.042
 3582SOL    HW211646   0.544   1.818   6.027
 3583SOL     OW11647   0.728   3.701   6.688
 3583SOL    HW111648   0.718   3.654   6.776
 3583SOL    HW211649   0.825   3.722   6.673
 3584SOL     OW11650   5.939   6.029   6.342
 3584SOL    HW111651   5.958   5.941   6.297
 3584SOL    HW211652   5.924   6.013   6.439
 3585SOL     OW11653   3.729   5.204   5.319
 3585SOL    HW111654   3.745   5.266   5.242
 3585SOL    HW211655   3.631   5.183   5.326
 3586SOL     OW11656   6.776   1.973   5.463
 3586SOL    HW111657   6.720   2.048   5.497
 3586SOL    HW211658   6.720   1.891   5.453
 3587SOL     OW11659   2.297   4.941   0.234
 3587SOL    HW111660   2.210   4.893   0.234
 3587SOL    HW211661   2.327   4.955   0.139
 3588SOL     OW11662   0.820   2.972   5.391
 3588SOL    HW111663   0.845   3.055   5.342
 3588SOL    HW211664   0.902   2.932   5.432
 3589SOL     OW11665   3.643   1.592   3.987
 3589SOL    HW111666   3.706   1.645   4.045
 3589SOL    HW211667   3.668   1.605   3.891
 3590SOL     OW11668   0.064   3.886   6.115
 3590SOL    HW111669   0.142   3.937   6.152
 3590SOL    HW211670   7.011   3.908   6.167
 3591SOL     OW11671   4.689   3.335   6.288
 3591SOL    HW111672   4.621   3.397   6.329
 3591SOL    HW211673   4.734   3.283   6.360
 3592SOL     OW11674   5.714   3.923   3.150
 3592SOL    HW111675   5.753   3.851   3.091
 3592SOL    HW211676   5.662   3.987   3.094
 3593SOL     OW11677   2.204   5.734   4.860
 3593SOL    HW111678   2.159   5.787   4.933
 3593SOL    HW211679   2.197   5.637   4.881
 3594SOL     OW11680   3.752   0.409   2.594
 3594SOL    HW111681   3.789   0.483   2.651
 3594SOL    HW211682   3.827   0.355   2.556
 3595SOL     OW11683   2.566   5.806   6.344
 3595SOL    HW111684   2.549   5.711   6.370
 3595SOL    HW211685   2.480   5.857   6.346
 3596SOL     OW11686   6.392   2.035   2.635
 3596SOL    HW111687   6.431   2.024   2.726
 3596SOL    HW211688   6.292   2.035   2.641
 3597SOL     OW11689   2.510   6.409   4.879
 3597SOL    HW111690   2.434   6.423   4.817
 3597SOL    HW211691   2.596   6.412   4.828
 3598SOL     OW11692   1.403   6.772   5.910
 3598SOL    HW111693   1.409   6.696   5.975
 3598SOL    HW211694   1.461   6.753   5.831
 3599SOL     OW11695   0.831   2.199   5.424
 3599SOL    HW111696   0.780   2.283   5.408
 3599SOL    HW211697   0.802   2.129   5.358
 3600SOL     OW11698   0.928   3.219   0.681
 3600SOL    HW111699   0.909   3.268   0.596
 3600SOL    HW211700   0.879   3.264   0.756
 3601SOL     OW11701   6.816   4.260   0.266
 3601SOL    HW111702   6.800   4.162   0.250
 3601SOL    HW211703   6.901   4.287   0.221
 3602SOL     OW11704   1.128   1.535   0.783
 3602SOL    HW111705   1.041   1.486   0.785
 3602SOL    HW211706   1.187   1.496   0.712
 3603SOL     OW11707   3.293   6.260   4.057
 3603SOL    HW111708   3.370   6.324   4.058
 3603SOL    HW211709   3.222   6.295   3.996
 3604SOL     OW11710   6.703   4.788   4.037
 3604SOL    HW111711   6.716   4.804   4.135
 3604SOL    HW211712   6.692   4.875   3.990
 3605SOL     OW11713   5.443   4.646   5.826
 3605SOL    HW111714   5.421   4.558   5.869
 3605SOL    HW211715   5.368   4.710   5.842
 3606SOL     OW11716   6.735   5.557   5.367
 3606SOL    HW111717   6.741   5.576   5.465
 3606SOL    HW211718   6.825   5.530   5.332
 3607SOL     OW11719   5.109   6.560   1.057
 3607SOL    HW111720   5.202   6.580   1.028
 3607SOL    HW211721   5.076   6.479   1.008
 3608SOL     OW11722   6.558   2.027   1.846
 3608SOL    HW111723   6.586   2.121   1.865
 3608SOL    HW211724   6.637   1.966   1.854
 3609SOL     OW11725   0.184   0.362   3.988
 3609SOL    HW111726   0.127   0.436   3.951
 3609SOL    HW211727   0.135   0.316   4.062
 3610SOL     OW11728   0.630   0.681   5.725
 3610SOL    HW111729   0.673   0.625   5.796
 3610SOL    HW211730   0.538   0.646   5.707
 3611SOL     OW11731   3.873   5.764   5.600
 3611SOL    HW111732   3.885   5.674   5.557
 3611SOL    HW211733   3.854   5.752   5.698
 3612SOL     OW11734   6.139   0.202   5.804
 3612SOL    HW111735   6.070   0.200   5.877
 3612SOL    HW211736   6.226   0.232   5.842
 3613SOL     OW11737   5.466   5.369   1.399
 3613SOL    HW111738   5.387   5.415   1.440
 3613SOL    HW211739   5.538   5.436   1.383
 3614SOL     OW11740   3.414   3.139   3.124
 3614SOL    HW111741   3.430   3.118   3.028
 3614SOL    HW211742   3.318   3.120   3.147
 3615SOL     OW11743   5.301   6.034   6.577
 3615SOL    HW111744   5.352   6.110   6.536
 3615SOL    HW211745   5.217   6.069   6.618
 3616SOL     OW11746   0.009   1.712   6.316
 3616SOL    HW111747   0.101   1.731   6.284
 3616SOL    HW211748   6.988   1.798   6.329
 3617SOL     OW11749   5.244   0.993   6.795
 3617SOL    HW111750   5.242   0.972   6.697
 3617SOL    HW211751   5.299   1.075   6.810
 3618SOL     OW11752   2.155   1.779   5.014
 3618SOL    HW111753   2.077   1.785   4.952
 3618SOL    HW211754   2.175   1.870   5.051
 3619SOL     OW11755   6.143   3.071   3.650
 3619SOL    HW111756   6.165   3.165   3.679
 3619SOL    HW211757   6.069   3.036   3.707
 3620SOL     OW11758   6.131   5.871   6.064
 3620SOL    HW111759   6.208   5.834   6.116
 3620SOL    HW211760   6.047   5.863   6.118
 3621SOL     OW11761   3.086   2.448   5.823
 3621SOL    HW111762   3.093   2.455   5.923
 3621SOL    HW211763   2.999   2.405   5.798
 3622SOL     OW11764   1.929   2.427   3.210
 3622SOL    HW111765   1.977   2.451   3.294
 3622SOL    HW211766   1.971   2.474   3.133
 3623SOL     OW11767   5.887   6.044   3.822
 3623SOL    HW111768   5.921   5.986   3.896
 3623SOL    HW211769   5.841   6.124   3.861
 3624SOL     OW11770   1.530   0.225   2.521
 3624SOL    HW111771   1.626   0.203   2.504
 3624SOL    HW211772   1.471   0.161   2.472
 3625SOL     OW11773   5.827   3.349   6.867
 3625SOL    HW111774   5.765   3.283   6.908
 3625SOL    HW211775   5.782   3.438   6.861
 3626SOL     OW11776   1.869   3.425   5.332
 3626SOL    HW111777   1.942   3.490   5.309
 3626SOL    HW211778   1.884   3.389   5.424
 3627SOL     OW11779   3.593   2.918   3.469
 3627SOL    HW111780   3.690   2.912   3.493
 3627SOL    HW211781   3.537   2.912   3.551
 3628SOL     OW11782   1.933   0.062   1.376
 3628SOL    HW111783   1.990   0.010   1.439
 3628SOL    HW211784   1.914   0.007   1.295
 3629SOL     OW11785   6.008   2.231   4.300
 3629SOL    HW111786   5.919   2.185   4.296
 3629SOL    HW211787   6.037   2.238   4.395
 3630SOL     OW11788   5.023   2.612   3.261
 3630SOL    HW111789   5.072   2.590   3.346
 3630SOL    HW211790   5.001   2.527   3.213
 3631SOL     OW11791   2.016   0.011   4.009
 3631SOL    HW111792   1.928   0.010   3.960
 3631SOL    HW211793   2.091   0.007   3.942
 3632SOL     OW11794   5.107   0.125   0.485
 3632SOL    HW111795   5.058   0.153   0.568
 3632SOL    HW211796   5.041   0.099   0.415
 3633SOL     OW11797   3.108   1.804   5.704
 3633SOL    HW111798   3.104   1.845   5.613
 3633SOL    HW211799   3.128   1.706   5.696
 3634SOL     OW11800   0.820   5.617   5.156
 3634SOL    HW111801   0.733   5.628   5.108
 3634SOL    HW211802   0.835   5.520   5.174
 3635SOL     OW11803   2.455   6.962   6.375
 3635SOL    HW111804   2.435   6.995   6.283
 3635SOL    HW211805   2.542   7.001   6.406
 3636SOL     OW11806   0.740   5.835   6.499
 3636SOL    HW111807   0.801   5.899   6.545
 3636SOL    HW211808   0.791   5.782   6.431
 3637SOL     OW11809   6.382   2.101   0.919
 3637SOL    HW111810   6.294   2.148   0.909
 3637SOL    HW211811   6.388   2.062   1.011
 3638SOL     OW11812   6.971   4.376   4.393
 3638SOL    HW111813   6.890   4.417   4.435
 3638SOL    HW211814   6.943   4.304   4.329
 3639SOL     OW11815   3.878   3.956   1.286
 3639SOL    HW111816   3.978   3.966   1.285
 3639SOL    HW211817   3.836   4.041   1.255
 3640SOL     OW11818   3.700   0.588   6.956
 3640SOL    HW111819   3.666   0.590   6.862
 3640SOL    HW211820   3.800   0.595   6.955
 3641SOL     OW11821   4.717   2.799   3.870
 3641SOL    HW111822   4.725   2.824   3.773
 3641SOL    HW211823   4.641   2.734   3.881
 3642SOL     OW11824   5.363   1.160   0.285
 3642SOL    HW111825   5.404   1.248   0.309
 3642SOL    HW211826   5.412   1.086   0.332
 3643SOL     OW11827   3.393   5.952   4.834
 3643SOL    HW111828   3.426   5.989   4.922
 3643SOL    HW211829   3.448   5.872   4.810
 3644SOL     OW11830   6.659   1.046   1.689
 3644SOL    HW111831   6.565   1.060   1.656
 3644SOL    HW211832   6.675   0.949   1.704
 3645SOL     OW11833   6.717   1.771   3.924
 3645SOL    HW111834   6.686   1.846   3.982
 3645SOL    HW211835   6.791   1.721   3.969
 3646SOL     OW11836   6.678   3.866   6.556
 3646SOL    HW111837   6.748   3.937   6.564
 3646SOL    HW211838   6.649   3.858   6.461
 3647SOL     OW11839   2.002   3.176   0.163
 3647SOL    HW111840   2.080   3.129   0.204
 3647SOL    HW211841   1.918   3.126   0.185
 3648SOL     OW11842   2.938   4.942   2.791
 3648SOL    HW111843   2.868   4.897   2.736
 3648SOL    HW211844   3.026   4.897   2.776
 3649SOL     OW11845   5.019   2.972   1.590
 3649SOL    HW111846   4.985   2.949   1.681
 3649SOL    HW211847   4.976   3.056   1.558
 3650SOL     OW11848   0.336   4.792   0.449
 3650SOL    HW111849   0.276   4.801   0.369
 3650SOL    HW211850   0.336   4.878   0.500
 3651SOL     OW11851   0.353   6.784   3.907
 3651SOL    HW111852   0.381   6.742   3.820
 3651SOL    HW211853   0.404   6.869   3.921
 3652SOL     OW11854   6.236   6.363   2.856
 3652SOL    HW111855   6.206   6.306   2.780
 3652SOL    HW211856   6.158   6.381   2.917
 3653SOL     OW11857   0.532   1.345   4.032
 3653SOL    HW111858   0.441   1.304   4.029
 3653SOL    HW211859   0.584   1.316   3.951
 3654SOL     OW11860   2.494   5.656   0.410
 3654SOL    HW111861   2.553   5.715   0.465
 3654SOL    HW211862   2.532   5.648   0.317
 3655SOL     OW11863   2.307   0.333   3.539
 3655SOL    HW111864   2.341   0.362   3.628
 3655SOL    HW211865   2.208   0.318   3.543
 3656SOL     OW11866   0.765   3.338   2.332
 3656SOL    HW111867   0.764   3.267   2.262
 3656SOL    HW211868   0.824   3.414   2.301
 3657SOL     OW11869   4.973   4.978   6.135
 3657SOL    HW111870   5.046   4.913   6.157
 3657SOL    HW211871   4.887   4.945   6.171
 3658SOL     OW11872   1.897   6.423   4.140
 3658SOL    HW111873   1.949   6.398   4.058
 3658SOL    HW211874   1.801   6.435   4.116
 3659SOL     OW11875   2.321   3.284   5.745
 3659SOL    HW111876   2.257   3.272   5.669
 3659SOL    HW211877   2.394   3.346   5.716
 3660SOL     OW11878   4.577   0.451   2.871
 3660SOL    HW111879   4.514   0.479   2.943
 3660SOL    HW211880   4.666   0.430   2.912
 3661SOL     OW11881   4.705   1.659   5.843
 3661SOL    HW111882   4.702   1.663   5.943
 3661SOL    HW211883   4.675   1.746   5.805
 3662SOL     OW11884   4.507   0.526   3.648
 3662SOL    HW111885   4.433   0.592   3.656
 3662SOL    HW211886   4.585   0.568   3.601
 3663SOL     OW11887   1.750   1.896   0.153
 3663SOL    HW111888   1.763   1.948   0.069
 3663SOL    HW211889   1.755   1.958   0.232
 3664SOL     OW11890   4.867   2.010   1.743
 3664SOL    HW111891   4.901   2.102   1.760
 3664SOL    HW211892   4.854   1.962   1.830
 3665SOL     OW11893   1.682   6.389   5.502
 3665SOL    HW111894   1.609   6.440   5.455
 3665SOL    HW211895   1.708   6.309   5.447
 3666SOL     OW11896   1.810   3.842   3.006
 3666SOL    HW111897   1.799   3.923   3.063
 3666SOL    HW211898   1.846   3.767   3.061
 3667SOL     OW11899   6.960   0.806   1.015
 3667SOL    HW111900   7.013   0.775   0.937
 3667SOL    HW211901   6.871   0.759   1.015
 3668SOL     OW11902   1.370   1.363   2.213
 3668SOL    HW111903   1.422   1.446   2.236
 3668SOL    HW211904   1.428   1.302   2.158
 3669SOL     OW11905   5.961   1.510   3.367
 3669SOL    HW111906   5.925   1.427   3.411
 3669SOL    HW211907   5.951   1.588   3.429
 3670SOL     OW11908   2.144   4.457   0.199
 3670SOL    HW111909   2.216   4.440   0.132
 3670SOL    HW211910   2.179   4.515   0.272
 3671SOL     OW11911   5.982   0.301   3.678
 3671SOL    HW111912   5.965   0.275   3.773
 3671SOL    HW211913   5.914   0.258   3.619
 3672SOL     OW11914   5.419   2.090   1.916
 3672SOL    HW111915   5.331   2.044   1.924
 3672SOL    HW211916   5.441   2.134   2.004
 3673SOL     OW11917   4.096   0.258   6.615
 3673SOL    HW111918   4.044   0.274   6.531
 3673SOL    HW211919   4.074   0.167   6.651
 3674SOL     OW11920   0.348   6.831   5.036
 3674SOL    HW111921   0.376   6.882   5.117
 3674SOL    HW211922   0.337   6.734   5.060
 3675SOL     OW11923   1.619   3.133   4.729
 3675SOL    HW111924   1.659   3.219   4.760
 3675SOL    HW211925   1.634   3.123   4.631
 3676SOL     OW11926   4.898   4.270   4.502
 3676SOL    HW111927   4.939   4.299   4.588
 3676SOL    HW211928   4.971   4.245   4.437
 3677SOL     OW11929   2.150   6.533   3.067
 3677SOL    HW111930   2.080   6.503   3.003
 3677SOL    HW211931   2.114   6.606   3.125
 3678SOL     OW11932   0.291   3.144   4.196
 3678SOL    HW111933   0.233   3.197   4.258
 3678SOL    HW211934   0.322   3.202   4.121
 3679SOL     OW11935   1.549   0.431   3.003
 3679SOL    HW111936   1.571   0.528   3.013
 3679SOL    HW211937   1.523   0.412   2.909
 3680SOL     OW11938   5.698   2.169   3.266
 3680SOL    HW111939   5.629   2.241   3.256
 3680SOL    HW211940   5.720   2.158   3.363
 3681SOL     OW11941   0.557   0.735   5.367
 3681SOL    HW111942   0.636   0.759   5.311
 3681SOL    HW211943   0.542   0.637   5.364
 3682SOL     OW11944   5.544   2.518   0.011
 3682SOL    HW111945   5.471   2.493   6.976
 3682SOL    HW211946   5.632   2.512   6.994
 3683SOL     OW11947   0.120   6.578   3.402
 3683SOL    HW111948   0.187   6.609   3.334
 3683SOL    HW211949   0.028   6.593   3.367
 3684SOL     OW11950   1.315   4.927   0.098
 3684SOL    HW111951   1.380   4.971   0.160
 3684SOL    HW211952   1.222   4.934   0.136
 3685SOL     OW11953   6.288   6.482   6.393
 3685SOL    HW111954   6.189   6.480   6.379
 3685SOL    HW211955   6.333   6.517   6.311
 3686SOL     OW11956   5.880   6.738   2.931
 3686SOL    HW111957   5.807   6.683   2.972
 3686SOL    HW211958   5.884   6.827   2.976
 3687SOL     OW11959   3.982   6.027   5.257
 3687SOL    HW111960   4.013   6.001   5.165
 3687SOL    HW211961   4.018   6.117   5.280
 3688SOL     OW11962   6.972   3.039   6.494
 3688SOL    HW111963   6.966   3.138   6.495
 3688SOL    HW211964   6.976   3.006   6.399
 3689SOL     OW11965   1.902   0.995   0.275
 3689SOL    HW111966   1.848   0.927   0.226
 3689SOL    HW211967   1.841   1.063   0.316
 3690SOL     OW11968   4.703   6.671   7.017
 3690SOL    HW111969   4.643   6.603   0.031
 3690SOL    HW211970   4.775   6.696   0.052
 3691SOL     OW11971   3.010   2.698   6.891
 3691SOL    HW111972   2.972   2.744   6.971
 3691SOL    HW211973   3.075   2.759   6.846
 3692SOL     OW11974   0.711   5.932   4.973
 3692SOL    HW111975   0.661   5.985   4.905
 3692SOL    HW211976   0.785   5.988   5.011
 3693SOL     OW11977   1.910   2.925   2.872
 3693SOL    HW111978   1.831   2.947   2.929
 3693SOL    HW211979   1.892   2.953   2.778
 3694SOL     OW11980   1.288   5.258   2.740
 3694SOL    HW111981   1.267   5.233   2.834
 3694SOL    HW211982   1.291   5.357   2.731
 3695SOL     OW11983   6.589   2.889   2.285
 3695SOL    HW111984   6.577   2.821   2.357
 3695SOL    HW211985   6.645   2.965   2.319
 3696SOL     OW11986   2.916   5.724   5.254
 3696SOL    HW111987   3.009   5.688   5.267
 3696SOL    HW211988   2.901   5.799   5.318
 3697SOL     OW11989   0.132   6.286   3.566
 3697SOL    HW111990   0.164   6.373   3.606
 3697SOL    HW211991   0.191   6.212   3.597
 3698SOL     OW11992   2.155   0.050   4.866
 3698SOL    HW111993   2.085   0.086   4.804
 3698SOL    HW211994   2.224   0.001   4.812
 3699SOL     OW11995   0.046   3.327   3.383
 3699SOL    HW111996   0.017   3.371   3.298
 3699SOL    HW211997   0.081   3.235   3.363
 3700SOL     OW11998   0.125   0.337   4.615
 3700SOL    HW111999   0.187   0.363   4.688
 3700SOL    HW212000   0.048   0.287   4.653
 3701SOL     OW12001   1.015   0.450   3.445
 3701SOL    HW112002   1.072   0.513   3.392
 3701SOL    HW212003   1.019   0.359   3.405
 3702SOL     OW12004   6.093   6.230   2.196
 3702SOL    HW112005   6.168   6.164   2.196
 3702SOL    HW212006   6.074   6.259   2.290
 3703SOL     OW12007   4.137   1.941   6.499
 3703SOL    HW112008   4.119   1.866   6.436
 3703SOL    HW212009   4.051   1.976   6.535
 3704SOL     OW12010   3.605   1.359   1.314
 3704SOL    HW112011   3.571   1.389   1.224
 3704SOL    HW212012   3.527   1.342   1.375
 3705SOL     OW12013   4.884   5.840   3.654
 3705SOL    HW112014   4.857   5.760   3.708
 3705SOL    HW212015   4.900   5.917   3.716
 3706SOL     OW12016   1.670   3.861   5.314
 3706SOL    HW112017   1.641   3.834   5.405
 3706SOL    HW212018   1.589   3.888   5.260
 3707SOL     OW12019   5.478   4.202   5.584
 3707SOL    HW112020   5.514   4.137   5.651
 3707SOL    HW212021   5.472   4.159   5.494
 3708SOL     OW12022   6.888   1.145   6.612
 3708SOL    HW112023   6.829   1.072   6.580
 3708SOL    HW212024   6.932   1.190   6.534
 3709SOL     OW12025   3.428   0.925   0.874
 3709SOL    HW112026   3.360   0.920   0.801
 3709SOL    HW212027   3.496   0.994   0.851
 3710SOL     OW12028   0.010   5.798   6.729
 3710SOL    HW112029   0.035   5.710   6.769
 3710SOL    HW212030   6.956   5.833   6.773
 3711SOL     OW12031   0.271   6.916   2.546
 3711SOL    HW112032   0.349   6.852   2.543
 3711SOL    HW212033   0.228   6.911   2.636
 3712SOL     OW12034   0.071   6.349   6.817
 3712SOL    HW112035   0.060   6.444   6.846
 3712SOL    HW212036   0.160   6.315   6.848
 3713SOL     OW12037   1.936   5.985   4.804
 3713SOL    HW112038   1.949   6.019   4.711
 3713SOL    HW212039   1.861   5.919   4.805
 3714SOL     OW12040   4.569   5.484   5.084
 3714SOL    HW112041   4.491   5.519   5.136
 3714SOL    HW212042   4.624   5.424   5.142
 3715SOL     OW12043   5.761   3.648   2.557
 3715SOL    HW112044   5.722   3.613   2.472
 3715SOL    HW212045   5.717   3.604   2.635
 3716SOL     OW12046   6.001   6.684   5.138
 3716SOL    HW112047   5.922   6.744   5.142
 3716SOL    HW212048   6.024   6.653   5.231
 3717SOL     OW12049   5.594   5.446   6.031
 3717SOL    HW112050   5.628   5.510   5.963
 3717SOL    HW212051   5.507   5.479   6.067
 3718SOL     OW12052   1.947   0.641   0.114
 3718SOL    HW112053   1.874   0.705   0.136
 3718SOL    HW212054   2.021   0.689   0.067
 3719SOL     OW12055   5.537   4.634   0.930
 3719SOL    HW112056   5.587   4.554   0.895
 3719SOL    HW212057   5.595   4.715   0.923
 3720SOL     OW12058   6.335   2.003   5.635
 3720SOL    HW112059   6.302   1.988   5.542
 3720SOL    HW212060   6.368   1.917   5.673
 3721SOL     OW12061   5.203   4.545   1.283
 3721SOL    HW112062   5.170   4.485   1.355
 3721SOL    HW212063   5.185   4.640   1.308
 3722SOL     OW12064   6.389   6.590   1.418
 3722SOL    HW112065   6.302   6.615   1.461
 3722SOL    HW212066   6.462   6.651   1.451
 3723SOL     OW12067   6.545   6.097   2.074
 3723SOL    HW112068   6.574   6.081   1.979
 3723SOL    HW212069   6.604   6.046   2.136
 3724SOL     OW12070   1.953   4.948   6.155
 3724SOL    HW112071   2.009   4.867   6.172
 3724SOL    HW212072   1.863   4.920   6.122
 3725SOL     OW12073   5.677   5.313   0.864
 3725SOL    HW112074   5.739   5.312   0.786
 3725SOL    HW212075   5.591   5.357   0.837
 3726SOL     OW12076   6.363   5.031   0.630
 3726SOL    HW112077   6.443   5.091   0.642
 3726SOL    HW212078   6.329   5.039   0.537
 3727SOL     OW12079   6.816   1.920   5.930
 3727SOL    HW112080   6.867   1.984   5.987
 3727SOL    HW212081   6.825   1.946   5.834
 3728SOL     OW12082   0.808   4.271   6.894
 3728SOL    HW112083   0.816   4.174   6.917
 3728SOL    HW212084   0.893   4.304   6.854
 3729SOL     OW12085   0.933   2.210   3.392
 3729SOL    HW112086   1.024   2.170   3.394
 3729SOL    HW212087   0.873   2.156   3.333
 3730SOL     OW12088   2.508   5.263   6.705
 3730SOL    HW112089   2.525   5.306   6.794
 3730SOL    HW212090   2.549   5.317   6.633
 3731SOL     OW12091   4.888   0.465   0.970
 3731SOL    HW112092   4.944   0.449   1.051
 3731SOL    HW212093   4.847   0.555   0.975
 3732SOL     OW12094   1.882   2.297   6.121
 3732SOL    HW112095   1.929   2.224   6.170
 3732SOL    HW212096   1.866   2.374   6.182
 3733SOL     OW12097   1.383   3.426   2.278
 3733SOL    HW112098   1.290   3.462   2.275
 3733SOL    HW212099   1.429   3.447   2.191
 3734SOL     OW12100   4.822   1.014   1.890
 3734SOL    HW112101   4.796   0.993   1.984
 3734SOL    HW212102   4.764   1.088   1.855
 3735SOL     OW12103   2.529   0.689   3.805
 3735SOL    HW112104   2.500   0.741   3.725
 3735SOL    HW212105   2.584   0.748   3.865
 3736SOL     OW12106   6.540   2.124   0.507
 3736SOL    HW112107   6.598   2.074   0.443
 3736SOL    HW212108   6.444   2.104   0.488
 3737SOL     OW12109   4.912   0.394   3.280
 3737SOL    HW112110   4.930   0.412   3.376
 3737SOL    HW212111   4.916   0.479   3.228
 3738SOL     OW12112   7.013   5.803   1.967
 3738SOL    HW112113   0.079   5.782   1.993
 3738SOL    HW212114   6.965   5.844   2.044
 3739SOL     OW12115   2.384   4.663   1.587
 3739SOL    HW112116   2.438   4.583   1.560
 3739SOL    HW212117   2.349   4.650   1.681
 3740SOL     OW12118   5.624   0.026   0.626
 3740SOL    HW112119   5.538   7.004   0.611
 3740SOL    HW212120   5.603   0.115   0.665
 3741SOL     OW12121   4.848   3.321   1.260
 3741SOL    HW112122   4.892   3.399   1.214
 3741SOL    HW212123   4.895   3.237   1.233
 3742SOL     OW12124   2.555   1.924   6.562
 3742SOL    HW112125   2.644   1.919   6.517
 3742SOL    HW212126   2.561   1.985   6.640
 3743SOL     OW12127   4.959   3.544   1.102
 3743SOL    HW112128   5.023   3.536   1.025
 3743SOL    HW212129   4.915   3.634   1.100
 3744SOL     OW12130   0.680   6.391   2.765
 3744SOL    HW112131   0.711   6.424   2.854
 3744SOL    HW212132   0.724   6.303   2.746
 3745SOL     OW12133   3.992   5.164   2.176
 3745SOL    HW112134   4.067   5.159   2.242
 3745SOL    HW212135   4.007   5.097   2.103
 3746SOL     OW12136   5.404   1.541   2.727
 3746SOL    HW112137   5.496   1.580   2.738
 3746SOL    HW212138   5.336   1.607   2.759
 3747SOL     OW12139   2.767   0.136   5.382
 3747SOL    HW112140   2.711   0.121   5.300
 3747SOL    HW212141   2.816   0.222   5.373
 3748SOL     OW12142   5.839   0.133   1.903
 3748SOL    HW112143   5.812   0.068   1.832
 3748SOL    HW212144   5.761   0.193   1.925
 3749SOL     OW12145   2.033   6.746   4.007
 3749SOL    HW112146   2.106   6.733   3.941
 3749SOL    HW212147   2.039   6.837   4.047
 3750SOL     OW12148   1.172   3.618   0.782
 3750SOL    HW112149   1.247   3.667   0.739
 3750SOL    HW212150   1.208   3.558   0.853
 3751SOL     OW12151   6.683   3.691   1.994
 3751SOL    HW112152   6.673   3.737   1.905
 3751SOL    HW212153   6.702   3.594   1.979
 3752SOL     OW12154   5.545   0.614   6.888
 3752SOL    HW112155   5.560   0.518   6.910
 3752SOL    HW212156   5.598   0.637   6.806
 3753SOL     OW12157   5.933   0.754   5.533
 3753SOL    HW112158   5.956   0.673   5.479
 3753SOL    HW212159   5.913   0.727   5.627
 3754SOL     OW12160   2.311   0.253   1.462
 3754SOL    HW112161   2.330   0.226   1.368
 3754SOL    HW212162   2.393   0.294   1.503
 3755SOL     OW12163   4.809   5.497   4.890
 3755SOL    HW112164   4.768   5.520   4.978
 3755SOL    HW212165   4.888   5.557   4.874
 3756SOL     OW12166   2.982   5.588   6.478
 3756SOL    HW112167   2.944   5.569   6.569
 3756SOL    HW212168   2.921   5.551   6.408
 3757SOL     OW12169   5.993   5.249   2.113
 3757SOL    HW112170   6.039   5.323   2.064
 3757SOL    HW212171   6.009   5.163   2.065
 3758SOL     OW12172   2.232   1.314   4.160
 3758SOL    HW112173   2.233   1.364   4.247
 3758SOL    HW212174   2.169   1.358   4.096
 3759SOL     OW12175   3.877   0.045   5.877
 3759SOL    HW112176   3.958   0.015   5.825
 3759SOL    HW212177   3.806   0.075   5.814
 3760SOL     OW12178   0.632   1.720   4.279
 3760SOL    HW112179   0.717   1.668   4.278
 3760SOL    HW212180   0.571   1.685   4.208
 3761SOL     OW12181   6.621   1.072   5.509
 3761SOL    HW112182   6.612   1.138   5.435
 3761SOL    HW212183   6.715   1.074   5.543
 3762SOL     OW12184   1.297   4.407   1.108
 3762SOL    HW112185   1.386   4.363   1.097
 3762SOL    HW212186   1.252   4.371   1.190
 3763SOL     OW12187   0.150   3.568   0.182
 3763SOL    HW112188   0.165   3.570   0.083
 3763SOL    HW212189   0.220   3.623   0.228
 3764SOL     OW12190   1.544   6.883   2.225
 3764SOL    HW112191   1.580   6.804   2.176
 3764SOL    HW212192   1.616   6.922   2.283
 3765SOL     OW12193   5.880   1.222   1.062
 3765SOL    HW112194   5.974   1.245   1.087
 3765SOL    HW212195   5.818   1.247   1.137
 3766SOL     OW12196   1.974   2.370   4.155
 3766SOL    HW112197   1.955   2.316   4.237
 3766SOL    HW212198   2.068   2.404   4.159
 3767SOL     OW12199   3.230   4.606   6.421
 3767SOL    HW112200   3.133   4.624   6.437
 3767SOL    HW212201   3.282   4.628   6.504
 3768SOL     OW12202   0.645   0.019   4.610
 3768SOL    HW112203   0.709   6.986   4.657
 3768SOL    HW212204   0.659   0.112   4.642
 3769SOL     OW12205   6.154   5.495   5.062
 3769SOL    HW112206   6.212   5.551   5.121
 3769SOL    HW212207   6.140   5.542   4.975
 3770SOL     OW12208   1.214   0.674   6.833
 3770SOL    HW112209   1.145   0.642   6.898
 3770SOL    HW212210   1.258   0.595   6.790
 3771SOL     OW12211   5.549   4.484   6.712
 3771SOL    HW112212   5.509   4.574   6.697
 3771SOL    HW212213   5.498   4.415   6.662
 3772SOL     OW12214   0.788   0.372   0.317
 3772SOL    HW112215   0.866   0.417   0.361
 3772SOL    HW212216   0.792   0.274   0.336
 3773SOL     OW12217   6.296   3.334   5.111
 3773SOL    HW112218   6.290   3.365   5.017
 3773SOL    HW212219   6.207   3.347   5.156
 3774SOL     OW12220   5.849   5.622   1.665
 3774SOL    HW112221   5.857   5.682   1.585
 3774SOL    HW212222   5.772   5.559   1.652
 3775SOL     OW12223   4.248   5.137   3.037
 3775SOL    HW112224   4.316   5.101   2.974
 3775SOL    HW212225   4.243   5.236   3.028
 3776SOL     OW12226   3.713   2.424   6.534
 3776SOL    HW112227   3.657   2.456   6.458
 3776SOL    HW212228   3.702   2.325   6.545
 3777SOL     OW12229   2.548   5.152   3.603
 3777SOL    HW112230   2.502   5.067   3.629
 3777SOL    HW212231   2.635   5.131   3.558
 3778SOL     OW12232   2.600   5.708   3.282
 3778SOL    HW112233   2.555   5.658   3.357
 3778SOL    HW212234   2.537   5.777   3.247
 3779SOL     OW12235   0.688   4.980   0.930
 3779SOL    HW112236   0.673   5.076   0.953
 3779SOL    HW212237   0.661   4.964   0.835
 3780SOL     OW12238   6.530   3.973   4.634
 3780SOL    HW112239   6.574   3.917   4.704
 3780SOL    HW212240   6.443   3.932   4.608
 3781SOL     OW12241   0.464   0.300   3.890
 3781SOL    HW112242   0.378   0.316   3.939
 3781SOL    HW212243   0.470   0.203   3.866
 3782SOL     OW12244   3.642   6.919   2.835
 3782SOL    HW112245   3.667   6.839   2.890
 3782SOL    HW212246   3.552   6.904   2.794
 3783SOL     OW12247   6.210   5.105   4.173
 3783SOL    HW112248   6.275   5.117   4.248
 3783SOL    HW212249   6.117   5.115   4.208
 3784SOL     OW12250   5.301   3.110   2.725
 3784SOL    HW112251   5.290   3.147   2.817
 3784SOL    HW212252   5.321   3.012   2.732
 3785SOL     OW12253   1.483   2.907   4.549
 3785SOL    HW112254   1.565   2.958   4.523
 3785SOL    HW212255   1.405   2.969   4.554
 3786SOL     OW12256   2.226   4.041   2.979
 3786SOL    HW112257   2.132   4.076   2.986
 3786SOL    HW212258   2.254   4.040   2.883
 3787SOL     OW12259   5.717   0.900   1.992
 3787SOL    HW112260   5.789   0.958   2.031
 3787SOL    HW212261   5.628   0.941   2.009
 3788SOL     OW12262   6.608   4.437   4.702
 3788SOL    HW112263   6.531   4.452   4.764
 3788SOL    HW212264   6.668   4.517   4.704
 3789SOL     OW12265   0.125   3.751   3.627
 3789SOL    HW112266   0.184   3.830   3.611
 3789SOL    HW212267   0.173   3.684   3.684
 3790SOL     OW12268   0.857   5.004   6.267
 3790SOL    HW112269   0.879   5.039   6.176
 3790SOL    HW212270   0.839   5.081   6.329
 3791SOL     OW12271   4.684   1.680   6.107
 3791SOL    HW112272   4.694   1.643   6.199
 3791SOL    HW212273   4.767   1.728   6.080
 3792SOL     OW12274   1.452   1.716   3.911
 3792SOL    HW112275   1.401   1.694   3.994
 3792SOL    HW212276   1.540   1.667   3.912
 3793SOL     OW12277   4.420   6.470   1.797
 3793SOL    HW112278   4.400   6.556   1.844
 3793SOL    HW212279   4.351   6.452   1.728
 3794SOL     OW12280   2.723   2.752   1.568
 3794SOL    HW112281   2.754   2.713   1.654
 3794SOL    HW212282   2.631   2.790   1.579
 3795SOL     OW12283   4.403   5.756   1.167
 3795SOL    HW112284   4.445   5.795   1.249
 3795SOL    HW212285   4.312   5.796   1.154
 3796SOL     OW12286   4.331   2.184   2.418
 3796SOL    HW112287   4.253   2.135   2.378
 3796SOL    HW212288   4.374   2.242   2.349
 3797SOL     OW12289   0.488   3.442   3.100
 3797SOL    HW112290   0.554   3.502   3.146
 3797SOL    HW212291   0.400   3.448   3.146
 3798SOL     OW12292   2.471   6.298   2.798
 3798SOL    HW112293   2.553   6.323   2.850
 3798SOL    HW212294   2.415   6.379   2.783
 3799SOL     OW12295   6.559   2.865   3.906
 3799SOL    HW112296   6.469   2.876   3.865
 3799SOL    HW212297   6.613   2.800   3.852
 3800SOL     OW12298   5.595   1.713   3.449
 3800SOL    HW112299   5.608   1.809   3.421
 3800SOL    HW212300   5.603   1.654   3.369
 3801SOL     OW12301   5.955   6.502   1.906
 3801SOL    HW112302   5.984   6.427   1.847
 3801SOL    HW212303   5.950   6.587   1.852
 3802SOL     OW12304   1.041   1.531   1.724
 3802SOL    HW112305   0.972   1.570   1.662
 3802SOL    HW212306   1.064   1.438   1.694
 3803SOL     OW12307   4.061   3.753   3.141
 3803SOL    HW112308   4.013   3.814   3.205
 3803SOL    HW212309   4.018   3.760   3.050
 3804SOL     OW12310   4.308   1.415   3.913
 3804SOL    HW112311   4.339   1.455   3.827
 3804SOL    HW212312   4.342   1.322   3.921
 3805SOL     OW12313   1.848   2.902   1.847
 3805SOL    HW112314   1.828   2.879   1.752
 3805SOL    HW212315   1.893   2.824   1.891
 3806SOL     OW12316   3.254   3.722   5.667
 3806SOL    HW112317   3.249   3.623   5.682
 3806SOL    HW212318   3.316   3.763   5.734
 3807SOL     OW12319   2.473   5.439   2.960
 3807SOL    HW112320   2.552   5.483   3.002
 3807SOL    HW212321   2.455   5.351   3.004
 3808SOL     OW12322   4.048   1.149   0.121
 3808SOL    HW112323   4.146   1.169   0.115
 3808SOL    HW212324   4.019   1.098   0.041
 3809SOL     OW12325   5.490   3.087   1.390
 3809SOL    HW112326   5.480   3.053   1.296
 3809SOL    HW212327   5.507   3.186   1.388
 3810SOL     OW12328   6.148   2.709   3.839
 3810SOL    HW112329   6.075   2.775   3.819
 3810SOL    HW212330   6.152   2.693   3.938
 3811SOL     OW12331   0.146   6.826   4.575
 3811SOL    HW112332   0.200   6.910   4.582
 3811SOL    HW212333   0.174   6.774   4.495
 3812SOL     OW12334   3.763   4.716   5.842
 3812SOL    HW112335   3.795   4.807   5.818
 3812SOL    HW212336   3.727   4.671   5.759
 3813SOL     OW12337   5.952   3.780   0.205
 3813SOL    HW112338   5.991   3.812   0.118
 3813SOL    HW212339   5.872   3.723   0.187
 3814SOL     OW12340   6.541   0.028   5.105
 3814SOL    HW112341   6.502   0.083   5.030
 3814SOL    HW212342   6.622   0.074   5.140
 3815SOL     OW12343   4.038   2.214   0.688
 3815SOL    HW112344   4.030   2.300   0.639
 3815SOL    HW212345   4.128   2.209   0.733
 3816SOL     OW12346   1.155   5.141   6.523
 3816SOL    HW112347   1.139   5.228   6.477
 3816SOL    HW212348   1.087   5.130   6.596
 3817SOL     OW12349   4.938   3.456   2.153
 3817SOL    HW112350   5.029   3.485   2.122
 3817SOL    HW212351   4.901   3.525   2.215
 3818SOL     OW12352   6.668   1.371   0.227
 3818SOL    HW112353   6.695   1.363   0.131
 3818SOL    HW212354   6.680   1.466   0.257
 3819SOL     OW12355   5.930   4.982   2.760
 3819SOL    HW112356   5.830   4.992   2.755
 3819SOL    HW212357   5.973   5.058   2.711
 3820SOL     OW12358   5.389   6.738   4.444
 3820SOL    HW112359   5.414   6.818   4.499
 3820SOL    HW212360   5.402   6.655   4.497
 3821SOL     OW12361   1.265   0.741   1.818
 3821SOL    HW112362   1.170   0.730   1.789
 3821SOL    HW212363   1.291   0.664   1.877
 3822SOL     OW12364   1.972   6.312   0.771
 3822SOL    HW112365   1.986   6.223   0.728
 3822SOL    HW212366   1.884   6.350   0.741
 3823SOL     OW12367   3.889   3.657   6.513
 3823SOL    HW112368   3.849   3.741   6.550
 3823SOL    HW212369   3.816   3.593   6.489
 3824SOL     OW12370   0.493   2.442   0.632
 3824SOL    HW112371   0.523   2.516   0.573
 3824SOL    HW212372   0.552   2.437   0.713
 3825SOL     OW12373   0.229   4.539   6.875
 3825SOL    HW112374   0.228   4.632   6.909
 3825SOL    HW212375   0.322   4.512   6.852
 3826SOL     OW12376   0.375   3.565   0.962
 3826SOL    HW112377   0.353   3.468   0.950
 3826SOL    HW212378   0.371   3.589   1.059
 3827SOL     OW12379   0.949   0.816   1.468
 3827SOL    HW112380   0.953   0.888   1.399
 3827SOL    HW212381   0.859   0.815   1.510
 3828SOL     OW12382   3.314   3.634   3.727
 3828SOL    HW112383   3.284   3.539   3.738
 3828SOL    HW212384   3.390   3.653   3.791
 3829SOL     OW12385   0.462   4.219   2.350
 3829SOL    HW112386   0.504   4.174   2.271
 3829SOL    HW212387   0.520   4.207   2.430
 3830SOL     OW12388   0.920   1.316   5.439
 3830SOL    HW112389   1.011   1.289   5.408
 3830SOL    HW212390   0.911   1.297   5.537
 3831SOL     OW12391   4.550   1.893   2.437
 3831SOL    HW112392   4.473   1.832   2.422
 3831SOL    HW212393   4.538   1.977   2.384
 3832SOL     OW12394   6.694   0.833   3.026
 3832SOL    HW112395   6.618   0.790   2.977
 3832SOL    HW212396   6.780   0.802   2.986
 3833SOL     OW12397   0.317   6.106   6.624
 3833SOL    HW112398   0.228   6.102   6.669
 3833SOL    HW212399   0.359   6.015   6.624
 3834SOL     OW12400   3.761   4.221   0.687
 3834SOL    HW112401   3.749   4.302   0.629
 3834SOL    HW212402   3.676   4.168   0.690
 3835SOL     OW12403   4.278   6.174   4.760
 3835SOL    HW112404   4.218   6.118   4.817
 3835SOL    HW212405   4.365   6.127   4.745
 3836SOL     OW12406   0.130   5.077   5.661
 3836SOL    HW112407   0.030   5.075   5.666
 3836SOL    HW212408   0.159   5.136   5.587
 3837SOL     OW12409   4.771   4.442   6.069
 3837SOL    HW112410   4.793   4.438   6.167
 3837SOL    HW212411   4.814   4.364   6.023
 3838SOL     OW12412   0.534   2.887   3.824
 3838SOL    HW112413   0.525   2.798   3.779
 3838SOL    HW212414   0.618   2.932   3.793
 3839SOL     OW12415   5.691   1.721   2.745
 3839SOL    HW112416   5.718   1.807   2.787
 3839SOL    HW212417   5.665   1.656   2.817
 3840SOL     OW12418   2.730   1.563   6.498
 3840SOL    HW112419   2.815   1.596   6.455
 3840SOL    HW212420   2.669   1.529   6.427
 3841SOL     OW12421   0.320   3.105   4.460
 3841SOL    HW112422   0.320   3.090   4.362
 3841SOL    HW212423   0.321   3.017   4.508
 3842SOL     OW12424   1.578   2.185   2.251
 3842SOL    HW112425   1.587   2.131   2.168
 3842SOL    HW212426   1.649   2.257   2.252
 3843SOL     OW12427   5.390   4.019   2.562
 3843SOL    HW112428   5.418   4.068   2.645
 3843SOL    HW212429   5.459   4.029   2.492
 3844SOL     OW12430   0.950   2.878   5.100
 3844SOL    HW112431   0.995   2.860   5.012
 3844SOL    HW212432   0.993   2.823   5.171
 3845SOL     OW12433   3.225   4.398   5.850
 3845SOL    HW112434   3.276   4.419   5.766
 3845SOL    HW212435   3.218   4.481   5.905
 3846SOL     OW12436   0.404   4.585   3.417
 3846SOL    HW112437   0.387   4.486   3.415
 3846SOL    HW212438   0.405   4.620   3.324
 3847SOL     OW12439   5.290   3.223   4.576
 3847SOL    HW112440   5.288   3.138   4.628
 3847SOL    HW212441   5.322   3.204   4.483
 3848SOL     OW12442   4.623   4.684   2.699
 3848SOL    HW112443   4.551   4.673   2.630
 3848SOL    HW212444   4.584   4.671   2.790
 3849SOL     OW12445   0.899   1.595   5.848
 3849SOL    HW112446   0.992   1.571   5.876
 3849SOL    HW212447   0.843   1.513   5.846
 3850SOL     OW12448   2.662   3.579   1.664
 3850SOL    HW112449   2.649   3.524   1.747
 3850SOL    HW212450   2.750   3.626   1.668
 3851SOL     OW12451   1.017   3.845   3.032
 3851SOL    HW112452   0.923   3.812   3.026
 3851SOL    HW212453   1.030   3.892   3.120
 3852SOL     OW12454   4.053   6.615   3.958
 3852SOL    HW112455   3.997   6.536   3.931
 3852SOL    HW212456   4.137   6.617   3.905
 3853SOL     OW12457   0.738   4.289   3.705
 3853SOL    HW112458   0.667   4.349   3.667
 3853SOL    HW212459   0.768   4.326   3.793
 3854SOL     OW12460   1.267   2.288   2.803
 3854SOL    HW112461   1.211   2.327   2.876
 3854SOL    HW212462   1.279   2.356   2.731
 3855SOL     OW12463   4.974   6.448   6.631
 3855SOL    HW112464   4.983   6.507   6.550
 3855SOL    HW212465   5.031   6.367   6.619
 3856SOL     OW12466   6.757   0.602   6.162
 3856SOL    HW112467   6.825   0.573   6.094
 3856SOL    HW212468   6.696   0.525   6.182
 3857SOL     OW12469   0.889   6.287   6.426
 3857SOL    HW112470   0.793   6.265   6.438
 3857SOL    HW212471   0.925   6.327   6.511
 3858SOL     OW12472   2.464   0.836   5.589
 3858SOL    HW112473   2.371   0.808   5.563
 3858SOL    HW212474   2.472   0.837   5.689
 3859SOL     OW12475   5.379   1.226   1.363
 3859SOL    HW112476   5.371   1.156   1.293
 3859SOL    HW212477   5.287   1.252   1.395
 3860SOL     OW12478   2.155   1.502   3.792
 3860SOL    HW112479   2.091   1.560   3.744
 3860SOL    HW212480   2.142   1.407   3.764
 3861SOL     OW12481   4.458   5.290   3.447
 3861SOL    HW112482   4.416   5.352   3.380
 3861SOL    HW212483   4.550   5.322   3.467
 3862SOL     OW12484   0.276   0.425   4.815
 3862SOL    HW112485   0.252   0.397   4.907
 3862SOL    HW212486   0.267   0.525   4.807
 3863SOL     OW12487   6.058   2.449   0.041
 3863SOL    HW112488   6.030   2.511   6.997
 3863SOL    HW212489   6.013   2.475   0.127
 3864SOL     OW12490   2.116   0.762   6.033
 3864SOL    HW112491   2.078   0.704   6.106
 3864SOL    HW212492   2.215   0.750   6.030
 3865SOL     OW12493   3.965   0.756   0.691
 3865SOL    HW112494   3.912   0.811   0.627
 3865SOL    HW212495   3.973   0.804   0.778
 3866SOL     OW12496   4.228   0.155   0.470
 3866SOL    HW112497   4.131   0.172   0.456
 3866SOL    HW212498   4.266   0.226   0.530
 3867SOL     OW12499   0.774   5.400   4.585
 3867SOL    HW112500   0.774   5.323   4.650
 3867SOL    HW212501   0.725   5.477   4.625
 3868SOL     OW12502   2.645   6.397   0.301
 3868SOL    HW112503   2.688   6.457   0.368
 3868SOL    HW212504   2.635   6.305   0.341
 3869SOL     OW12505   6.412   4.001   4.206
 3869SOL    HW112506   6.487   4.066   4.194
 3869SOL    HW212507   6.335   4.046   4.251
 3870SOL     OW12508   5.991   6.790   6.981
 3870SOL    HW112509   5.927   6.717   7.004
 3870SOL    HW212510   5.941   6.866   6.940
 3871SOL     OW12511   3.941   0.983   3.248
 3871SOL    HW112512   4.022   0.964   3.192
 3871SOL    HW212513   3.860   0.982   3.190
 3872SOL     OW12514   3.808   2.975   4.056
 3872SOL    HW112515   3.827   2.913   4.132
 3872SOL    HW212516   3.712   3.002   4.058
 3873SOL     OW12517   6.785   2.769   0.805
 3873SOL    HW112518   6.854   2.839   0.822
 3873SOL    HW212519   6.808   2.719   0.721
 3874SOL     OW12520   4.609   6.326   6.913
 3874SOL    HW112521   4.627   6.400   6.978
 3874SOL    HW212522   4.629   6.238   6.957
 3875SOL     OW12523   2.114   3.052   2.587
 3875SOL    HW112524   2.081   3.129   2.642
 3875SOL    HW212525   2.113   3.077   2.490
 3876SOL     OW12526   4.111   5.781   1.197
 3876SOL    HW112527   4.035   5.726   1.161
 3876SOL    HW212528   4.147   5.737   1.280
 3877SOL     OW12529   5.604   2.990   0.622
 3877SOL    HW112530   5.519   2.943   0.646
 3877SOL    HW212531   5.657   2.933   0.560
 3878SOL     OW12532   3.347   0.333   4.894
 3878SOL    HW112533   3.286   0.385   4.833
 3878SOL    HW212534   3.368   0.245   4.852
 3879SOL     OW12535   5.767   5.096   1.058
 3879SOL    HW112536   5.779   5.144   0.971
 3879SOL    HW212537   5.684   5.129   1.102
 3880SOL     OW12538   5.623   4.794   4.354
 3880SOL    HW112539   5.662   4.704   4.373
 3880SOL    HW212540   5.545   4.810   4.414
 3881SOL     OW12541   1.274   3.483   1.781
 3881SOL    HW112542   1.178   3.458   1.795
 3881SOL    HW212543   1.324   3.404   1.746
 3882SOL     OW12544   1.548   1.079   5.654
 3882SOL    HW112545   1.575   1.174   5.664
 3882SOL    HW212546   1.470   1.060   5.715
 3883SOL     OW12547   4.361   0.968   3.355
 3883SOL    HW112548   4.302   1.045   3.377
 3883SOL    HW212549   4.327   0.885   3.398
 3884SOL     OW12550   0.326   5.638   2.696
 3884SOL    HW112551   0.401   5.585   2.656
 3884SOL    HW212552   0.358   5.679   2.782
 3885SOL     OW12553   6.279   6.811   2.613
 3885SOL    HW112554   6.260   6.861   2.698
 3885SOL    HW212555   6.376   6.821   2.591
 3886SOL     OW12556   5.904   5.866   4.694
 3886SOL    HW112557   5.888   5.803   4.618
 3886SOL    HW212558   5.909   5.960   4.659
 3887SOL     OW12559   0.626   0.426   6.894
 3887SOL    HW112560   0.724   0.412   6.902
 3887SOL    HW212561   0.607   0.523   6.874
 3888SOL     OW12562   6.468   0.630   4.942
 3888SOL    HW112563   6.406   0.619   4.865
 3888SOL    HW212564   6.467   0.547   4.998
 3889SOL     OW12565   0.339   3.727   0.321
 3889SOL    HW112566   0.439   3.721   0.320
 3889SOL    HW212567   0.311   3.821   0.339
 3890SOL     OW12568   5.554   5.716   3.007
 3890SOL    HW112569   5.549   5.806   3.050
 3890SOL    HW212570   5.538   5.725   2.909
 3891SOL     OW12571   5.735   4.566   4.471
 3891SOL    HW112572   5.721   4.473   4.438
 3891SOL    HW212573   5.768   4.564   4.565
 3892SOL     OW12574   0.077   2.343   1.763
 3892SOL    HW112575   0.161   2.289   1.763
 3892SOL    HW212576   0.079   2.408   1.839
 3893SOL     OW12577   4.462   4.501   0.823
 3893SOL    HW112578   4.517   4.582   0.843
 3893SOL    HW212579   4.505   4.420   0.862
 3894SOL     OW12580   3.732   1.633   1.341
 3894SOL    HW112581   3.670   1.558   1.365
 3894SOL    HW212582   3.735   1.699   1.416
 3895SOL     OW12583   1.339   0.715   5.414
 3895SOL    HW112584   1.390   0.632   5.392
 3895SOL    HW212585   1.248   0.710   5.372
 3896SOL     OW12586   0.060   0.791   6.303
 3896SOL    HW112587   6.993   0.765   6.292
 3896SOL    HW212588   0.074   0.834   6.393
 3897SOL     OW12589   3.403   5.206   2.848
 3897SOL    HW112590   3.369   5.179   2.758
 3897SOL    HW212591   3.387   5.304   2.861
 3898SOL     OW12592   3.215   3.535   5.242
 3898SOL    HW112593   3.269   3.522   5.159
 3898SOL    HW212594   3.272   3.578   5.312
 3899SOL     OW12595   5.702   0.168   4.760
 3899SOL    HW112596   5.783   0.226   4.772
 3899SOL    HW212597   5.662   0.149   4.850
 3900SOL     OW12598   4.895   3.372   3.820
 3900SOL    HW112599   4.890   3.404   3.725
 3900SOL    HW212600   4.890   3.272   3.821
 3901SOL     OW12601   2.909   0.216   6.290
 3901SOL    HW112602   2.891   0.190   6.196
 3901SOL    HW212603   2.983   0.283   6.293
 3902SOL     OW12604   5.341   3.889   2.188
 3902SOL    HW112605   5.422   3.926   2.234
 3902SOL    HW212606   5.348   3.905   2.090
 3903SOL     OW12607   3.893   6.059   0.033
 3903SOL    HW112608   3.971   6.040   7.002
 3903SOL    HW212609   3.808   6.051   7.010
 3904SOL     OW12610   2.302   0.748   5.038
 3904SOL    HW112611   2.275   0.838   5.004
 3904SOL    HW212612   2.356   0.701   4.968
 3905SOL     OW12613   6.987   0.122   6.064
 3905SOL    HW112614   6.943   0.050   6.010
 3905SOL    HW212615   6.942   0.209   6.047
 3906SOL     OW12616   3.837   4.988   5.444
 3906SOL    HW112617   3.903   4.936   5.388
 3906SOL    HW212618   3.771   5.032   5.384
 3907SOL     OW12619   5.309   0.303   4.884
 3907SOL    HW112620   5.278   0.381   4.938
 3907SOL    HW212621   5.241   0.283   4.813
 3908SOL     OW12622   0.940   1.202   0.457
 3908SOL    HW112623   1.021   1.145   0.446
 3908SOL    HW212624   0.888   1.202   0.372
 3909SOL     OW12625   0.240   5.425   5.302
 3909SOL    HW112626   0.220   5.416   5.204
 3909SOL    HW212627   0.325   5.478   5.313
 3910SOL     OW12628   3.384   3.783   1.993
 3910SOL    HW112629   3.396   3.876   1.957
 3910SOL    HW212630   3.295   3.776   2.038
 3911SOL     OW12631   4.546   1.294   0.139
 3911SOL    HW112632   4.602   1.274   0.058
 3911SOL    HW212633   4.549   1.392   0.158
 3912SOL     OW12634   3.920   0.236   6.046
 3912SOL    HW112635   3.888   0.155   5.997
 3912SOL    HW212636   3.856   0.258   6.120
 3913SOL     OW12637   2.483   6.267   6.027
 3913SOL    HW112638   2.489   6.236   5.932
 3913SOL    HW212639   2.570   6.252   6.073
 3914SOL     OW12640   4.085   1.153   1.010
 3914SOL    HW112641   4.099   1.060   0.977
 3914SOL    HW212642   4.139   1.167   1.093
 3915SOL     OW12643   3.684   6.372   2.257
 3915SOL    HW112644   3.749   6.377   2.333
 3915SOL    HW212645   3.592   6.358   2.294
 3916SOL     OW12646   1.648   6.152   3.686
 3916SOL    HW112647   1.592   6.198   3.617
 3916SOL    HW212648   1.687   6.221   3.747
 3917SOL     OW12649   1.182   4.861   6.879
 3917SOL    HW112650   1.236   4.900   6.804
 3917SOL    HW212651   1.233   4.872   6.965
 3918SOL     OW12652   4.723   0.147   2.541
 3918SOL    HW112653   4.696   0.243   2.540
 3918SOL    HW212654   4.781   0.130   2.621
 3919SOL     OW12655   2.651   5.790   6.763
 3919SOL    HW112656   2.614   5.867   6.710
 3919SOL    HW212657   2.716   5.826   6.830
 3920SOL     OW12658   2.407   2.649   6.625
 3920SOL    HW112659   2.470   2.631   6.549
 3920SOL    HW212660   2.411   2.746   6.649
 3921SOL     OW12661   6.989   2.940   0.790
 3921SOL    HW112662   0.014   3.025   0.786
 3921SOL    HW212663   0.005   2.869   0.735
 3922SOL     OW12664   5.977   4.388   0.815
 3922SOL    HW112665   6.039   4.419   0.742
 3922SOL    HW212666   6.030   4.363   0.896
 3923SOL     OW12667   6.583   1.872   6.962
 3923SOL    HW112668   6.638   1.916   6.891
 3923SOL    HW212669   6.542   1.942   7.021
 3924SOL     OW12670   0.164   5.447   3.361
 3924SOL    HW112671   0.138   5.387   3.285
 3924SOL    HW212672   0.223   5.397   3.424
 3925SOL     OW12673   3.973   4.579   1.267
 3925SOL    HW112674   3.996   4.483   1.282
 3925SOL    HW212675   3.906   4.586   1.193
 3926SOL     OW12676   6.737   5.612   2.719
 3926SOL    HW112677   6.824   5.659   2.737
 3926SOL    HW212678   6.670   5.678   2.687
 3927SOL     OW12679   6.956   3.720   3.442
 3927SOL    HW112680   0.005   3.729   3.504
 3927SOL    HW212681   6.871   3.737   3.492
 3928SOL     OW12682   2.407   5.395   5.492
 3928SOL    HW112683   2.431   5.347   5.576
 3928SOL    HW212684   2.488   5.440   5.455
 3929SOL     OW12685   0.428   1.735   5.577
 3929SOL    HW112686   0.457   1.688   5.660
 3929SOL    HW212687   0.494   1.716   5.504
 3930SOL     OW12688   2.046   1.486   4.061
 3930SOL    HW112689   2.082   1.500   3.969
 3930SOL    HW212690   2.066   1.566   4.118
 3931SOL     OW12691   1.427   2.041   2.834
 3931SOL    HW112692   1.371   2.122   2.816
 3931SOL    HW212693   1.474   2.052   2.922
 3932SOL     OW12694   1.866   3.900   2.540
 3932SOL    HW112695   1.937   3.877   2.607
 3932SOL    HW212696   1.829   3.990   2.560
 3933SOL     OW12697   2.291   0.026   6.789
 3933SOL    HW112698   2.246   0.006   6.876
 3933SOL    HW212699   2.374   0.080   6.806
 3934SOL     OW12700   0.161   0.854   1.165
 3934SOL    HW112701   0.139   0.896   1.253
 3934SOL    HW212702   0.077   0.824   1.119
 3935SOL     OW12703   2.042   6.867   6.846
 3935SOL    HW112704   2.045   6.948   6.788
 3935SOL    HW212705   2.001   6.890   6.934
 3936SOL     OW12706   0.458   5.206   5.303
 3936SOL    HW112707   0.450   5.135   5.233
 3936SOL    HW212708   0.367   5.244   5.322
 3937SOL     OW12709   6.920   0.510   2.141
 3937SOL    HW112710   6.923   0.419   2.099
 3937SOL    HW212711   6.849   0.564   2.097
 3938SOL     OW12712   6.831   2.101   3.843
 3938SOL    HW112713   6.782   2.088   3.929
 3938SOL    HW212714   6.805   2.029   3.779
 3939SOL     OW12715   3.180   1.905   2.229
 3939SOL    HW112716   3.103   1.933   2.172
 3939SOL    HW212717   3.265   1.940   2.189
 3940SOL     OW12718   4.545   5.299   2.249
 3940SOL    HW112719   4.465   5.270   2.197
 3940SOL    HW212720   4.532   5.393   2.281
 3941SOL     OW12721   5.129   1.349   6.209
 3941SOL    HW112722   5.177   1.272   6.169
 3941SOL    HW212723   5.089   1.322   6.297
 3942SOL     OW12724   0.134   0.300   5.852
 3942SOL    HW112725   0.176   0.374   5.905
 3942SOL    HW212726   0.056   0.263   5.902
 3943SOL     OW12727   1.353   3.691   2.839
 3943SOL    HW112728   1.264   3.661   2.870
 3943SOL    HW212729   1.368   3.660   2.745
 3944SOL     OW12730   5.885   3.862   5.435
 3944SOL    HW112731   5.962   3.809   5.400
 3944SOL    HW212732   5.858   3.931   5.368
 3945SOL     OW12733   0.538   2.356   1.964
 3945SOL    HW112734   0.598   2.286   1.925
 3945SOL    HW212735   0.453   2.314   1.994
 3946SOL     OW12736   6.130   5.030   5.976
 3946SOL    HW112737   6.107   4.933   5.966
 3946SOL    HW212738   6.214   5.049   5.925
 3947SOL     OW12739   6.116   5.130   1.474
 3947SOL    HW112740   6.189   5.070   1.508
 3947SOL    HW212741   6.091   5.102   1.381
 3948SOL     OW12742   0.672   5.225   1.622
 3948SOL    HW112743   0.740   5.161   1.584
 3948SOL    HW212744   0.718   5.310   1.649
 3949SOL     OW12745   5.742   0.631   3.149
 3949SOL    HW112746   5.833   0.664   3.124
 3949SOL    HW212747   5.695   0.598   3.068
 3950SOL     OW12748   2.972   3.947   1.802
 3950SOL    HW112749   2.957   4.043   1.828
 3950SOL    HW212750   3.049   3.942   1.738
 3951SOL     OW12751   0.497   0.085   0.536
 3951SOL    HW112752   0.442   0.109   0.616
 3951SOL    HW212753   0.462   7.028   0.497
 3952SOL     OW12754   6.874   4.009   3.725
 3952SOL    HW112755   6.921   3.953   3.794
 3952SOL    HW212756   6.824   3.950   3.662
 3953SOL     OW12757   3.756   4.584   1.094
 3953SOL    HW112758   3.656   4.588   1.094
 3953SOL    HW212759   3.792   4.651   1.029
 3954SOL     OW12760   5.681   5.590   5.206
 3954SOL    HW112761   5.737   5.541   5.140
 3954SOL    HW212762   5.677   5.537   5.291
 3955SOL     OW12763   3.566   6.412   6.132
 3955SOL    HW112764   3.593   6.472   6.207
 3955SOL    HW212765   3.563   6.317   6.165
 3956SOL     OW12766   0.530   1.232   2.685
 3956SOL    HW112767   0.498   1.306   2.626
 3956SOL    HW212768   0.539   1.266   2.779
 3957SOL     OW12769   5.014   6.656   3.749
 3957SOL    HW112770   4.922   6.644   3.713
 3957SOL    HW212771   5.062   6.568   3.748
 3958SOL     OW12772   5.597   0.352   6.016
 3958SOL    HW112773   5.524   0.416   6.039
 3958SOL    HW212774   5.659   0.394   5.951
 3959SOL     OW12775   3.924   6.745   1.342
 3959SOL    HW112776   3.873   6.725   1.426
 3959SOL    HW212777   4.011   6.694   1.343
 3960SOL     OW12778   4.531   1.464   6.789
 3960SOL    HW112779   4.627   1.452   6.814
 3960SOL    HW212780   4.525   1.524   6.708
 3961SOL     OW12781   5.475   2.534   1.972
 3961SOL    HW112782   5.557   2.549   1.916
 3961SOL    HW212783   5.394   2.552   1.918
 3962SOL     OW12784   1.855   4.635   6.968
 3962SOL    HW112785   1.947   4.618   6.932
 3962SOL    HW212786   1.818   4.549   7.004
 3963SOL     OW12787   4.638   4.361   4.482
 3963SOL    HW112788   4.626   4.438   4.544
 3963SOL    HW212789   4.733   4.330   4.484
 3964SOL     OW12790   4.478   4.988   3.801
 3964SOL    HW112791   4.526   4.916   3.850
 3964SOL    HW212792   4.509   5.077   3.835
 3965SOL     OW12793   4.425   3.012   6.082
 3965SOL    HW112794   4.420   3.103   6.040
 3965SOL    HW212795   4.392   3.017   6.176
 3966SOL     OW12796   5.488   5.745   0.504
 3966SOL    HW112797   5.399   5.735   0.548
 3966SOL    HW212798   5.535   5.826   0.541
 3967SOL     OW12799   1.365   4.298   2.529
 3967SOL    HW112800   1.358   4.312   2.628
 3967SOL    HW212801   1.438   4.355   2.493
 3968SOL     OW12802   6.007   0.123   1.040
 3968SOL    HW112803   6.024   0.083   1.130
 3968SOL    HW212804   6.071   0.084   0.974
 3969SOL     OW12805   1.630   3.756   2.701
 3969SOL    HW112806   1.706   3.793   2.647
 3969SOL    HW212807   1.622   3.807   2.786
 3970SOL     OW12808   5.954   5.432   4.065
 3970SOL    HW112809   5.903   5.401   4.145
 3970SOL    HW212810   6.038   5.478   4.095
 3971SOL     OW12811   2.572   5.401   1.746
 3971SOL    HW112812   2.527   5.485   1.773
 3971SOL    HW212813   2.562   5.332   1.818
 3972SOL     OW12814   1.181   5.596   0.652
 3972SOL    HW112815   1.110   5.665   0.636
 3972SOL    HW212816   1.236   5.622   0.731
 3973SOL     OW12817   0.901   4.503   5.878
 3973SOL    HW112818   0.997   4.531   5.883
 3973SOL    HW212819   0.843   4.581   5.902
 3974SOL     OW12820   1.290   0.675   4.828
 3974SOL    HW112821   1.191   0.672   4.815
 3974SOL    HW212822   1.335   0.619   4.759
 3975SOL     OW12823   5.203   0.041   6.136
 3975SOL    HW112824   5.294   0.056   6.174
 3975SOL    HW212825   5.199   6.980   6.093
 3976SOL     OW12826   1.299   5.355   1.368
 3976SOL    HW112827   1.330   5.344   1.274
 3976SOL    HW212828   1.337   5.441   1.405
 3977SOL     OW12829   2.872   4.387   5.878
 3977SOL    HW112830   2.895   4.406   5.783
 3977SOL    HW212831   2.946   4.335   5.921
 3978SOL     OW12832   5.302   6.741   4.785
 3978SOL    HW112833   5.398   6.723   4.802
 3978SOL    HW212834   5.246   6.680   4.841
 3979SOL     OW12835   2.916   5.842   1.823
 3979SOL    HW112836   2.869   5.905   1.761
 3979SOL    HW212837   2.916   5.881   1.915
 3980SOL     OW12838   0.236   5.922   6.363
 3980SOL    HW112839   0.145   5.918   6.406
 3980SOL    HW212840   0.233   5.985   6.286
 3981SOL     OW12841   1.901   1.867   6.705
 3981SOL    HW112842   1.971   1.797   6.692
 3981SOL    HW212843   1.923   1.947   6.648
 3982SOL     OW12844   2.393   0.329   4.235
 3982SOL    HW112845   2.470   0.372   4.187
 3982SOL    HW212846   2.342   0.272   4.170
 3983SOL     OW12847   4.464   5.344   4.197
 3983SOL    HW112848   4.475   5.364   4.099
 3983SOL    HW212849   4.402   5.266   4.208
 3984SOL     OW12850   0.862   0.583   2.738
 3984SOL    HW112851   0.813   0.653   2.790
 3984SOL    HW212852   0.796   0.527   2.687
 3985SOL     OW12853   3.657   4.794   6.286
 3985SOL    HW112854   3.732   4.781   6.222
 3985SOL    HW212855   3.640   4.891   6.298
 3986SOL     OW12856   6.529   1.923   2.452
 3986SOL    HW112857   6.475   1.963   2.525
 3986SOL    HW212858   6.622   1.906   2.484
 3987SOL     OW12859   2.993   5.401   4.299
 3987SOL    HW112860   2.990   5.370   4.395
 3987SOL    HW212861   3.026   5.326   4.241
 3988SOL     OW12862   4.032   3.523   6.720
 3988SOL    HW112863   3.989   3.593   6.663
 3988SOL    HW212864   4.075   3.567   6.799
 3989SOL     OW12865   6.893   1.707   0.084
 3989SOL    HW112866   6.843   1.746   0.007
 3989SOL    HW212867   6.887   1.607   0.081
 3990SOL     OW12868   5.471   2.403   2.723
 3990SOL    HW112869   5.538   2.373   2.656
 3990SOL    HW212870   5.517   2.443   2.802
 3991SOL     OW12871   5.828   1.687   2.013
 3991SOL    HW112872   5.749   1.705   1.954
 3991SOL    HW212873   5.853   1.590   2.007
 3992SOL     OW12874   3.427   2.231   6.856
 3992SOL    HW112875   3.397   2.197   6.945
 3992SOL    HW212876   3.404   2.328   6.848
 3993SOL     OW12877   0.316   2.494   3.309
 3993SOL    HW112878   0.396   2.481   3.252
 3993SOL    HW212879   0.241   2.437   3.276
 3994SOL     OW12880   0.733   1.305   6.353
 3994SOL    HW112881   0.682   1.389   6.335
 3994SOL    HW212882   0.738   1.288   6.451
 3995SOL     OW12883   1.598   4.116   4.571
 3995SOL    HW112884   1.627   4.089   4.479
 3995SOL    HW212885   1.537   4.195   4.564
 3996SOL     OW12886   1.080   1.163   4.415
 3996SOL    HW112887   1.052   1.068   4.398
 3996SOL    HW212888   1.167   1.181   4.368
 3997SOL     OW12889   5.412   2.005   3.402
 3997SOL    HW112890   5.354   2.081   3.372
 3997SOL    HW212891   5.460   1.966   3.324
 3998SOL     OW12892   3.879   1.059   2.765
 3998SOL    HW112893   3.918   1.063   2.674
 3998SOL    HW212894   3.824   1.142   2.781
 3999SOL     OW12895   5.466   3.262   3.994
 3999SOL    HW112896   5.433   3.183   3.942
 3999SOL    HW212897   5.559   3.284   3.966
 4000SOL     OW12898   2.951   5.098   3.083
 4000SOL    HW112899   2.899   5.100   2.997
 4000SOL    HW212900   2.894   5.132   3.157
 4001SOL     OW12901   2.353   1.808   4.320
 4001SOL    HW112902   2.421   1.750   4.276
 4001SOL    HW212903   2.295   1.850   4.250
 4002SOL     OW12904   3.096   2.741   0.324
 4002SOL    HW112905   3.063   2.647   0.330
 4002SOL    HW212906   3.064   2.792   0.404
 4003SOL     OW12907   3.027   6.012   5.046
 4003SOL    HW112908   3.004   6.077   4.974
 4003SOL    HW212909   2.947   5.995   5.103
 4004SOL     OW12910   5.771   2.371   3.758
 4004SOL    HW112911   5.708   2.296   3.737
 4004SOL    HW212912   5.720   2.456   3.770
 4005SOL     OW12913   5.392   5.873   0.989
 4005SOL    HW112914   5.411   5.869   1.087
 4005SOL    HW212915   5.345   5.789   0.961
 4006SOL     OW12916   3.657   5.165   2.961
 4006SOL    HW112917   3.719   5.086   2.965
 4006SOL    HW212918   3.579   5.144   2.902
 4007SOL     OW12919   1.070   2.790   1.747
 4007SOL    HW112920   0.996   2.724   1.736
 4007SOL    HW212921   1.152   2.756   1.701
 4008SOL     OW12922   3.163   2.150   4.204
 4008SOL    HW112923   3.102   2.207   4.259
 4008SOL    HW212924   3.166   2.058   4.242
 4009SOL     OW12925   5.135   3.373   0.358
 4009SOL    HW112926   5.083   3.455   0.382
 4009SOL    HW212927   5.166   3.380   0.263
 4010SOL     OW12928   2.213   3.032   1.860
 4010SOL    HW112929   2.208   2.972   1.780
 4010SOL    HW212930   2.252   3.120   1.834
 4011SOL     OW12931   0.492   0.781   1.718
 4011SOL    HW112932   0.565   0.796   1.785
 4011SOL    HW212933   0.508   0.695   1.670
 4012SOL     OW12934   3.984   5.606   1.700
 4012SOL    HW112935   3.977   5.509   1.676
 4012SOL    HW212936   3.996   5.614   1.799
 4013SOL     OW12937   3.305   6.836   0.100
 4013SOL    HW112938   3.398   6.842   0.064
 4013SOL    HW212939   3.309   6.820   0.199
 4014SOL     OW12940   3.615   6.019   3.138
 4014SOL    HW112941   3.713   5.997   3.142
 4014SOL    HW212942   3.597   6.099   3.195
 4015SOL     OW12943   4.628   5.439   6.395
 4015SOL    HW112944   4.696   5.400   6.458
 4015SOL    HW212945   4.664   5.523   6.356
 4016SOL     OW12946   2.199   6.025   6.692
 4016SOL    HW112947   2.100   6.035   6.683
 4016SOL    HW212948   2.220   5.967   6.771
 4017SOL     OW12949   0.260   6.594   0.918
 4017SOL    HW112950   0.188   6.599   0.848
 4017SOL    HW212951   0.250   6.509   0.970
 4018SOL     OW12952   4.951   6.291   3.156
 4018SOL    HW112953   4.923   6.248   3.070
 4018SOL    HW212954   5.024   6.357   3.138
 4019SOL     OW12955   5.548   3.556   2.722
 4019SOL    HW112956   5.530   3.645   2.762
 4019SOL    HW212957   5.480   3.536   2.652
 4020SOL     OW12958   5.554   2.334   6.050
 4020SOL    HW112959   5.507   2.414   6.014
 4020SOL    HW212960   5.540   2.257   5.989
 4021SOL     OW12961   3.378   3.022   6.024
 4021SOL    HW112962   3.459   3.019   5.965
 4021SOL    HW212963   3.343   2.930   6.038
 4022SOL     OW12964   4.312   0.474   0.334
 4022SOL    HW112965   4.274   0.507   0.421
 4022SOL    HW212966   4.380   0.403   0.352
 4023SOL     OW12967   6.425   1.542   5.417
 4023SOL    HW112968   6.353   1.554   5.348
 4023SOL    HW212969   6.393   1.479   5.488
 4024SOL     OW12970   3.156   5.587   4.106
 4024SOL    HW112971   3.100   5.561   4.185
 4024SOL    HW212972   3.224   5.654   4.135
 4025SOL     OW12973   0.963   6.503   4.372
 4025SOL    HW112974   0.898   6.446   4.322
 4025SOL    HW212975   1.001   6.451   4.448
 4026SOL     OW12976   6.315   5.909   4.110
 4026SOL    HW112977   6.280   5.996   4.145
 4026SOL    HW212978   6.351   5.855   4.186
 4027SOL     OW12979   3.744   3.948   2.039
 4027SOL    HW112980   3.830   3.899   2.023
 4027SOL    HW212981   3.720   4.000   1.957
 4028SOL     OW12982   1.516   2.349   4.065
 4028SOL    HW112983   1.511   2.333   4.163
 4028SOL    HW212984   1.431   2.393   4.035
 4029SOL     OW12985   2.233   4.038   6.786
 4029SOL    HW112986   2.211   4.074   6.696
 4029SOL    HW212987   2.188   4.093   6.856
 4030SOL     OW12988   1.530   1.972   5.927
 4030SOL    HW112989   1.477   1.978   6.012
 4030SOL    HW212990   1.534   1.877   5.897
 4031SOL     OW12991   4.654   5.832   3.090
 4031SOL    HW112992   4.742   5.875   3.108
 4031SOL    HW212993   4.582   5.880   3.140
 4032SOL     OW12994   5.925   0.247   3.071
 4032SOL    HW112995   5.828   0.227   3.053
 4032SOL    HW212996   5.953   0.327   3.017
 4033SOL     OW12997   3.002   3.676   3.034
 4033SOL    HW112998   2.940   3.628   2.972
 4033SOL    HW212999   3.010   3.772   3.005
 4034SOL     OW13000   5.990   1.787   4.991
 4034SOL    HW113001   5.923   1.809   5.062
 4034SOL    HW213002   6.007   1.688   4.992
 4035SOL     OW13003   6.583   3.000   0.779
 4035SOL    HW113004   6.650   2.927   0.790
 4035SOL    HW213005   6.492   2.966   0.801
 4036SOL     OW13006   5.481   6.911   2.820
 4036SOL    HW113007   5.500   6.968   2.899
 4036SOL    HW213008   5.567   6.882   2.778
 4037SOL     OW13009   1.652   1.814   0.799
 4037SOL    HW113010   1.602   1.754   0.862
 4037SOL    HW213011   1.746   1.783   0.790
 4038SOL     OW13012   4.983   4.815   1.809
 4038SOL    HW113013   5.010   4.885   1.744
 4038SOL    HW213014   4.884   4.813   1.818
 4039SOL     OW13015   5.044   5.501   1.272
 4039SOL    HW113016   4.948   5.473   1.267
 4039SOL    HW213017   5.089   5.450   1.345
 4040SOL     OW13018   2.932   6.718   0.041
 4040SOL    HW113019   2.898   6.713   0.135
 4040SOL    HW213020   2.895   6.642   7.017
 4041SOL     OW13021   1.678   5.686   1.718
 4041SOL    HW113022   1.661   5.589   1.697
 4041SOL    HW213023   1.642   5.706   1.809
 4042SOL     OW13024   6.572   4.508   3.107
 4042SOL    HW113025   6.608   4.443   3.174
 4042SOL    HW213026   6.648   4.550   3.057
 4043SOL     OW13027   5.338   2.292   4.691
 4043SOL    HW113028   5.307   2.371   4.745
 4043SOL    HW213029   5.260   2.232   4.673
 4044SOL     OW13030   4.825   0.645   4.382
 4044SOL    HW113031   4.905   0.593   4.412
 4044SOL    HW213032   4.853   0.715   4.316
 4045SOL     OW13033   2.954   4.613   6.386
 4045SOL    HW113034   2.882   4.579   6.326
 4045SOL    HW213035   2.915   4.633   6.476
 4046SOL     OW13036   0.730   1.827   3.660
 4046SOL    HW113037   0.766   1.799   3.749
 4046SOL    HW213038   0.744   1.752   3.594
 4047SOL     OW13039   2.885   2.403   0.824
 4047SOL    HW113040   2.810   2.347   0.857
 4047SOL    HW213041   2.864   2.435   0.731
 4048SOL     OW13042   5.703   1.315   1.654
 4048SOL    HW113043   5.635   1.279   1.718
 4048SOL    HW213044   5.657   1.357   1.576
 4049SOL     OW13045   5.938   6.417   6.562
 4049SOL    HW113046   6.015   6.394   6.621
 4049SOL    HW213047   5.969   6.425   6.468
 4050SOL     OW13048   1.643   6.434   0.599
 4050SOL    HW113049   1.687   6.524   0.598
 4050SOL    HW213050   1.611   6.414   0.692
 4051SOL     OW13051   3.659   3.253   0.306
 4051SOL    HW113052   3.708   3.224   0.224
 4051SOL    HW213053   3.649   3.353   0.305
 4052SOL     OW13054   1.124   0.365   1.455
 4052SOL    HW113055   1.122   0.462   1.433
 4052SOL    HW213056   1.218   0.337   1.474
 4053SOL     OW13057   3.244   5.128   4.432
 4053SOL    HW113058   3.286   5.215   4.406
 4053SOL    HW213059   3.270   5.057   4.367
 4054SOL     OW13060   1.998   2.321   1.235
 4054SOL    HW113061   2.043   2.370   1.310
 4054SOL    HW213062   1.994   2.381   1.155
 4055SOL     OW13063   3.029   3.062   5.339
 4055SOL    HW113064   3.076   3.144   5.373
 4055SOL    HW213065   3.096   2.998   5.302
 4056SOL     OW13066   4.218   3.036   6.653
 4056SOL    HW113067   4.310   3.007   6.679
 4056SOL    HW213068   4.152   2.964   6.675
 4057SOL     OW13069   5.080   2.925   0.407
 4057SOL    HW113070   4.995   2.963   0.370
 4057SOL    HW213071   5.145   2.999   0.422
 4058SOL     OW13072   1.325   1.658   4.150
 4058SOL    HW113073   1.330   1.708   4.236
 4058SOL    HW213074   1.277   1.572   4.164
 4059SOL     OW13075   2.052   2.360   2.702
 4059SOL    HW113076   2.041   2.287   2.770
 4059SOL    HW213077   2.125   2.422   2.731
 4060SOL     OW13078   4.185   4.881   5.551
 4060SOL    HW113079   4.271   4.839   5.580
 4060SOL    HW213080   4.109   4.823   5.581
 4061SOL     OW13081   3.419   4.561   1.647
 4061SOL    HW113082   3.483   4.605   1.711
 4061SOL    HW213083   3.469   4.493   1.593
 4062SOL     OW13084   3.811   1.559   3.199
 4062SOL    HW113085   3.840   1.635   3.257
 4062SOL    HW213086   3.747   1.501   3.249
 4063SOL     OW13087   4.540   6.783   5.164
 4063SOL    HW113088   4.520   6.727   5.084
 4063SOL    HW213089   4.622   6.747   5.209
 4064SOL     OW13090   2.342   6.548   2.816
 4064SOL    HW113091   2.405   6.626   2.819
 4064SOL    HW213092   2.292   6.542   2.902
 4065SOL     OW13093   1.529   6.579   0.303
 4065SOL    HW113094   1.505   6.536   0.390
 4065SOL    HW213095   1.615   6.630   0.314
 4066SOL     OW13096   5.513   4.749   2.461
 4066SOL    HW113097   5.597   4.697   2.478
 4066SOL    HW213098   5.434   4.694   2.488
 4067SOL     OW13099   6.097   2.683   2.618
 4067SOL    HW113100   6.036   2.651   2.545
 4067SOL    HW213101   6.174   2.731   2.577
 4068SOL     OW13102   4.609   0.307   4.633
 4068SOL    HW113103   4.568   0.398   4.625
 4068SOL    HW213104   4.539   0.237   4.618
 4069SOL     OW13105   4.477   3.530   6.973
 4069SOL    HW113106   4.433   3.586   0.014
 4069SOL    HW213107   4.410   3.502   6.905
 4070SOL     OW13108   1.901   3.555   2.885
 4070SOL    HW113109   1.817   3.607   2.901
 4070SOL    HW213110   1.898   3.471   2.939
 4071SOL     OW13111   1.358   1.161   5.227
 4071SOL    HW113112   1.390   1.121   5.141
 4071SOL    HW213113   1.371   1.095   5.301
 4072SOL     OW13114   1.707   6.606   4.407
 4072SOL    HW113115   1.721   6.510   4.432
 4072SOL    HW213116   1.778   6.635   4.343
 4073SOL     OW13117   2.705   5.697   6.044
 4073SOL    HW113118   2.804   5.679   6.043
 4073SOL    HW213119   2.658   5.621   6.089
 4074SOL     OW13120   1.209   2.814   2.088
 4074SOL    HW113121   1.253   2.826   2.000
 4074SOL    HW213122   1.189   2.717   2.103
 4075SOL     OW13123   4.809   2.386   2.872
 4075SOL    HW113124   4.710   2.388   2.859
 4075SOL    HW213125   4.845   2.479   2.868
 4076SOL     OW13126   2.464   3.600   5.708
 4076SOL    HW113127   2.534   3.536   5.674
 4076SOL    HW213128   2.385   3.598   5.647
 4077SOL     OW13129   2.873   6.088   0.767
 4077SOL    HW113130   2.960   6.089   0.817
 4077SOL    HW213131   2.893   6.084   0.668
 4078SOL     OW13132   6.722   5.628   1.720
 4078SOL    HW113133   6.731   5.553   1.786
 4078SOL    HW213134   6.647   5.608   1.657
 4079SOL     OW13135   1.490   0.953   3.087
 4079SOL    HW113136   1.526   1.038   3.049
 4079SOL    HW213137   1.551   0.920   3.159
 4080SOL     OW13138   2.622   2.968   6.725
 4080SOL    HW113139   2.678   2.888   6.701
 4080SOL    HW213140   2.528   2.952   6.697
 4081SOL     OW13141   1.496   1.062   4.474
 4081SOL    HW113142   1.483   0.968   4.506
 4081SOL    HW213143   1.445   1.076   4.389
 4082SOL     OW13144   1.612   1.754   6.885
 4082SOL    HW113145   1.588   1.842   6.926
 4082SOL    HW213146   1.595   1.757   6.787
 4083SOL     OW13147   5.776   4.043   3.394
 4083SOL    HW113148   5.859   3.986   3.389
 4083SOL    HW213149   5.725   4.034   3.308
 4084SOL     OW13150   4.834   2.924   3.053
 4084SOL    HW113151   4.789   2.979   2.983
 4084SOL    HW213152   4.929   2.952   3.062
 4085SOL     OW13153   2.774   5.106   1.277
 4085SOL    HW113154   2.866   5.119   1.242
 4085SOL    HW213155   2.775   5.041   1.352
 4086SOL     OW13156   0.346   4.666   0.792
 4086SOL    HW113157   0.333   4.674   0.891
 4086SOL    HW213158   0.423   4.722   0.763
 4087SOL     OW13159   2.522   1.495   2.480
 4087SOL    HW113160   2.465   1.488   2.562
 4087SOL    HW213161   2.608   1.539   2.503
 4088SOL     OW13162   6.238   1.139   5.800
 4088SOL    HW113163   6.323   1.090   5.782
 4088SOL    HW213164   6.165   1.102   5.741
 4089SOL     OW13165   0.269   5.771   4.238
 4089SOL    HW113166   0.296   5.861   4.271
 4089SOL    HW213167   0.185   5.742   4.284
 4090SOL     OW13168   1.828   6.027   5.201
 4090SOL    HW113169   1.851   5.930   5.197
 4090SOL    HW213170   1.794   6.058   5.113
 4091SOL     OW13171   0.985   5.251   0.341
 4091SOL    HW113172   0.925   5.208   0.273
 4091SOL    HW213173   1.079   5.224   0.323
 4092SOL     OW13174   4.900   2.729   4.086
 4092SOL    HW113175   4.980   2.788   4.103
 4092SOL    HW213176   4.852   2.760   4.005
 4093SOL     OW13177   5.605   6.194   1.592
 4093SOL    HW113178   5.515   6.201   1.634
 4093SOL    HW213179   5.676   6.206   1.662
 4094SOL     OW13180   0.979   4.586   6.990
 4094SOL    HW113181   0.973   4.685   6.974
 4094SOL    HW213182   0.912   4.559   0.030
 4095SOL     OW13183   0.862   3.114   0.284
 4095SOL    HW113184   0.928   3.181   0.318
 4095SOL    HW213185   0.774   3.160   0.270
 4096SOL     OW13186   2.197   0.740   6.487
 4096SOL    HW113187   2.243   0.802   6.551
 4096SOL    HW213188   2.265   0.697   6.427
 4097SOL     OW13189   5.574   4.432   5.455
 4097SOL    HW113190   5.530   4.360   5.508
 4097SOL    HW213191   5.585   4.513   5.512
 4098SOL     OW13192   2.130   2.907   1.226
 4098SOL    HW113193   2.053   2.936   1.170
 4098SOL    HW213194   2.156   2.814   1.201
 4099SOL     OW13195   3.617   5.070   0.074
 4099SOL    HW113196   3.711   5.047   0.098
 4099SOL    HW213197   3.554   5.013   0.126
 4100SOL     OW13198   1.370   0.732   3.752
 4100SOL    HW113199   1.352   0.756   3.657
 4100SOL    HW213200   1.299   0.670   3.785
 4101SOL     OW13201   0.045   1.179   6.396
 4101SOL    HW113202   0.073   1.153   6.303
 4101SOL    HW213203   0.126   1.200   6.451
 4102SOL     OW13204   2.002   1.086   0.892
 4102SOL    HW113205   2.083   1.105   0.946
 4102SOL    HW213206   1.990   1.158   0.824
 4103SOL     OW13207   0.250   6.937   2.014
 4103SOL    HW113208   0.165   6.894   1.984
 4103SOL    HW213209   0.302   6.872   2.070
 4104SOL     OW13210   0.252   4.975   3.386
 4104SOL    HW113211   0.257   4.908   3.460
 4104SOL    HW213212   0.178   4.950   3.323
 4105SOL     OW13213   4.885   1.358   2.049
 4105SOL    HW113214   4.788   1.342   2.063
 4105SOL    HW213215   4.927   1.389   2.134
 4106SOL     OW13216   0.585   2.286   3.685
 4106SOL    HW113217   0.509   2.325   3.632
 4106SOL    HW213218   0.568   2.189   3.701
 4107SOL     OW13219   0.405   6.303   6.819
 4107SOL    HW113220   0.388   6.231   6.751
 4107SOL    HW213221   0.382   6.268   6.910
 4108SOL     OW13222   0.095   5.990   4.585
 4108SOL    HW113223   0.089   5.955   4.491
 4108SOL    HW213224   0.028   5.944   4.642
 4109SOL     OW13225   5.363   6.486   3.816
 4109SOL    HW113226   5.309   6.437   3.885
 4109SOL    HW213227   5.318   6.573   3.794
 4110SOL     OW13228   3.924   3.309   6.535
 4110SOL    HW113229   3.964   3.377   6.596
 4110SOL    HW213230   3.825   3.307   6.548
 4111SOL     OW13231   5.859   5.396   6.411
 4111SOL    HW113232   5.938   5.443   6.452
 4111SOL    HW213233   5.852   5.422   6.315
 4112SOL     OW13234   5.014   6.819   4.502
 4112SOL    HW113235   4.947   6.892   4.516
 4112SOL    HW213236   5.104   6.851   4.529
 4113SOL     OW13237   4.609   5.592   4.560
 4113SOL    HW113238   4.598   5.542   4.646
 4113SOL    HW213239   4.642   5.530   4.489
 4114SOL     OW13240   6.234   1.396   2.981
 4114SOL    HW113241   6.242   1.299   3.006
 4114SOL    HW213242   6.306   1.419   2.915
 4115SOL     OW13243   2.423   4.879   3.626
 4115SOL    HW113244   2.445   4.788   3.590
 4115SOL    HW213245   2.480   4.899   3.706
 4116SOL     OW13246   4.795   2.511   3.463
 4116SOL    HW113247   4.791   2.462   3.376
 4116SOL    HW213248   4.717   2.573   3.470
 4117SOL     OW13249   1.508   2.095   3.083
 4117SOL    HW113250   1.452   2.177   3.097
 4117SOL    HW213251   1.554   2.071   3.169
 4118SOL     OW13252   5.787   6.668   6.003
 4118SOL    HW113253   5.843   6.629   5.930
 4118SOL    HW213254   5.845   6.689   6.082
 4119SOL     OW13255   3.216   1.006   3.650
 4119SOL    HW113256   3.136   0.947   3.639
 4119SOL    HW213257   3.221   1.071   3.574
 4120SOL     OW13258   3.819   1.249   6.307
 4120SOL    HW113259   3.825   1.243   6.407
 4120SOL    HW213260   3.876   1.324   6.275
 4121SOL     OW13261   6.546   6.871   2.544
 4121SOL    HW113262   6.562   6.908   2.453
 4121SOL    HW213263   6.613   6.800   2.564
 4122SOL     OW13264   1.339   7.027   4.981
 4122SOL    HW113265   1.312   0.074   5.040
 4122SOL    HW213266   1.425   0.019   4.936
 4123SOL     OW13267   3.995   4.819   4.119
 4123SOL    HW113268   4.011   4.750   4.189
 4123SOL    HW213269   3.955   4.901   4.161
 4124SOL     OW13270   6.761   6.471   0.874
 4124SOL    HW113271   6.764   6.558   0.824
 4124SOL    HW213272   6.775   6.488   0.971
 4125SOL     OW13273   4.411   2.442   2.628
 4125SOL    HW113274   4.472   2.370   2.594
 4125SOL    HW213275   4.317   2.421   2.600
 4126SOL     OW13276   1.957   3.289   2.646
 4126SOL    HW113277   1.872   3.340   2.655
 4126SOL    HW213278   2.001   3.281   2.736
 4127SOL     OW13279   5.204   2.517   5.245
 4127SOL    HW113280   5.145   2.496   5.167
 4127SOL    HW213281   5.201   2.615   5.263
 4128SOL     OW13282   0.734   3.104   1.452
 4128SOL    HW113283   0.819   3.088   1.403
 4128SOL    HW213284   0.679   3.171   1.403
 4129SOL     OW13285   3.501   1.309   0.363
 4129SOL    HW113286   3.560   1.390   0.360
 4129SOL    HW213287   3.418   1.329   0.414
 4130SOL     OW13288   6.302   2.280   0.272
 4130SOL    HW113289   6.342   2.200   0.227
 4130SOL    HW213290   6.216   2.255   0.317
 4131SOL     OW13291   6.803   1.349   2.847
 4131SOL    HW113292   6.848   1.373   2.933
 4131SOL    HW213293   6.763   1.258   2.854
 4132SOL     OW13294   5.519   4.089   4.311
 4132SOL    HW113295   5.561   4.074   4.401
 4132SOL    HW213296   5.440   4.028   4.301
 4133SOL     OW13297   4.162   6.622   1.371
 4133SOL    HW113298   4.213   6.557   1.315
 4133SOL    HW213299   4.215   6.645   1.452
 4134SOL     OW13300   2.213   3.090   0.851
 4134SOL    HW113301   2.278   3.131   0.787
 4134SOL    HW213302   2.261   3.025   0.910
 4135SOL     OW13303   6.990   2.485   2.606
 4135SOL    HW113304   6.959   2.438   2.524
 4135SOL    HW213305   6.987   2.422   2.684
 4136SOL     OW13306   1.308   3.749   1.872
 4136SOL    HW113307   1.308   3.654   1.842
 4136SOL    HW213308   1.307   3.752   1.972
 4137SOL     OW13309   1.203   3.230   6.732
 4137SOL    HW113310   1.114   3.269   6.709
 4137SOL    HW213311   1.245   3.193   6.650
 4138SOL     OW13312   3.743   5.196   1.514
 4138SOL    HW113313   3.799   5.114   1.525
 4138SOL    HW213314   3.669   5.195   1.580
 4139SOL     OW13315   1.352   1.515   3.530
 4139SOL    HW113316   1.328   1.427   3.489
 4139SOL    HW213317   1.408   1.499   3.612
 4140SOL     OW13318   3.045   1.866   4.039
 4140SOL    HW113319   3.092   1.871   4.127
 4140SOL    HW213320   2.947   1.883   4.053
 4141SOL     OW13321   5.085   6.960   0.827
 4141SOL    HW113322   5.154   6.969   0.899
 4141SOL    HW213323   5.085   0.014   0.770
 4142SOL     OW13324   6.166   3.993   1.221
 4142SOL    HW113325   6.185   4.071   1.280
 4142SOL    HW213326   6.246   3.974   1.163
 4143SOL     OW13327   5.474   2.928   0.342
 4143SOL    HW113328   5.471   2.923   0.442
 4143SOL    HW213329   5.395   2.979   0.308
 4144SOL     OW13330   4.997   1.265   7.022
 4144SOL    HW113331   5.014   1.228   0.085
 4144SOL    HW213332   4.905   1.240   6.992
 4145SOL     OW13333   0.913   6.382   0.142
 4145SOL    HW113334   0.882   6.303   0.195
 4145SOL    HW213335   0.967   6.442   0.200
 4146SOL     OW13336   6.825   0.763   3.398
 4146SOL    HW113337   6.869   0.851   3.416
 4146SOL    HW213338   6.731   0.779   3.368
 4147SOL     OW13339   4.858   4.494   6.325
 4147SOL    HW113340   4.951   4.465   6.348
 4147SOL    HW213341   4.835   4.576   6.378
 4148SOL     OW13342   3.113   0.594   5.614
 4148SOL    HW113343   3.017   0.609   5.636
 4148SOL    HW213344   3.170   0.620   5.692
 4149SOL     OW13345   0.441   3.489   1.521
 4149SOL    HW113346   0.498   3.431   1.579
 4149SOL    HW213347   0.345   3.477   1.547
 4150SOL     OW13348   6.929   1.845   5.237
 4150SOL    HW113349   6.903   1.757   5.277
 4150SOL    HW213350   6.966   1.830   5.145
 4151SOL     OW13351   2.123   6.742   6.188
 4151SOL    HW113352   2.180   6.725   6.108
 4151SOL    HW213353   2.131   6.838   6.214
 4152SOL     OW13354   3.675   5.665   1.844
 4152SOL    HW113355   3.681   5.659   1.943
 4152SOL    HW213356   3.680   5.574   1.804
 4153SOL     OW13357   6.472   5.126   1.572
 4153SOL    HW113358   6.455   5.183   1.491
 4153SOL    HW213359   6.560   5.151   1.612
 4154SOL     OW13360   0.428   6.022   3.950
 4154SOL    HW113361   0.415   6.059   4.042
 4154SOL    HW213362   0.382   5.934   3.943
 4155SOL     OW13363   0.206   1.691   1.287
 4155SOL    HW113364   0.212   1.791   1.286
 4155SOL    HW213365   0.270   1.654   1.354
 4156SOL     OW13366   6.537   5.669   4.924
 4156SOL    HW113367   6.480   5.670   5.006
 4156SOL    HW213368   6.628   5.705   4.946
 4157SOL     OW13369   5.534   6.034   3.472
 4157SOL    HW113370   5.473   6.106   3.503
 4157SOL    HW213371   5.618   6.035   3.527
 4158SOL     OW13372   1.451   2.807   2.423
 4158SOL    HW113373   1.477   2.713   2.442
 4158SOL    HW213374   1.494   2.837   2.338
 4159SOL     OW13375   2.309   2.303   3.668
 4159SOL    HW113376   2.313   2.357   3.584
 4159SOL    HW213377   2.215   2.274   3.684
 4160SOL     OW13378   5.863   7.005   6.883
 4160SOL    HW113379   5.946   0.025   6.859
 4160SOL    HW213380   5.792   0.042   6.908
 4161SOL     OW13381   2.064   1.686   1.917
 4161SOL    HW113382   2.049   1.785   1.907
 4161SOL    HW213383   2.001   1.650   1.986
 4162SOL     OW13384   6.240   5.651   0.853
 4162SOL    HW113385   6.210   5.556   0.861
 4162SOL    HW213386   6.171   5.703   0.804
 4163SOL     OW13387   6.214   1.549   3.197
 4163SOL    HW113388   6.129   1.537   3.249
 4163SOL    HW213389   6.213   1.489   3.117
 4164SOL     OW13390   0.863   0.096   5.430
 4164SOL    HW113391   0.888   0.018   5.487
 4164SOL    HW213392   0.938   0.163   5.431
 4165SOL     OW13393   4.992   0.540   5.311
 4165SOL    HW113394   5.043   0.611   5.360
 4165SOL    HW213395   4.898   0.571   5.297
 4166SOL     OW13396   5.169   1.277   1.537
 4166SOL    HW113397   5.098   1.346   1.523
 4166SOL    HW213398   5.128   1.186   1.531
 4167SOL     OW13399   3.449   4.889   6.507
 4167SOL    HW113400   3.524   4.940   6.550
 4167SOL    HW213401   3.435   4.923   6.414
 4168SOL     OW13402   0.028   4.326   1.235
 4168SOL    HW113403   0.092   4.281   1.172
 4168SOL    HW213404   0.011   4.266   1.313
 4169SOL     OW13405   6.018   4.150   4.882
 4169SOL    HW113406   6.113   4.121   4.874
 4169SOL    HW213407   5.964   4.078   4.925
 4170SOL     OW13408   5.044   3.174   5.234
 4170SOL    HW113409   4.978   3.171   5.310
 4170SOL    HW213410   5.129   3.131   5.262
 4171SOL     OW13411   6.884   5.233   1.181
 4171SOL    HW113412   6.824   5.156   1.201
 4171SOL    HW213413   6.905   5.233   1.083
 4172SOL     OW13414   2.574   2.605   0.388
 4172SOL    HW113415   2.628   2.636   0.309
 4172SOL    HW213416   2.599   2.511   0.410
 4173SOL     OW13417   5.580   3.452   5.046
 4173SOL    HW113418   5.607   3.430   4.952
 4173SOL    HW213419   5.482   3.436   5.058
 4174SOL     OW13420   4.990   1.527   2.243
 4174SOL    HW113421   5.055   1.529   2.320
 4174SOL    HW213422   4.910   1.582   2.266
 4175SOL     OW13423   1.651   4.611   4.747
 4175SOL    HW113424   1.649   4.638   4.843
 4175SOL    HW213425   1.652   4.692   4.689
 4176SOL     OW13426   4.220   6.847   1.120
 4176SOL    HW113427   4.315   6.820   1.105
 4176SOL    HW213428   4.172   6.774   1.169
 4177SOL     OW13429   5.651   4.750   5.104
 4177SOL    HW113430   5.724   4.748   5.172
 4177SOL    HW213431   5.578   4.687   5.132
 4178SOL     OW13432   4.530   0.294   3.799
 4178SOL    HW113433   4.438   0.297   3.838
 4178SOL    HW213434   4.551   0.381   3.755
 4179SOL     OW13435   5.084   4.057   3.170
 4179SOL    HW113436   5.177   4.047   3.205
 4179SOL    HW213437   5.064   3.983   3.106
 4180SOL     OW13438   4.658   2.541   0.974
 4180SOL    HW113439   4.714   2.482   1.032
 4180SOL    HW213440   4.718   2.597   0.915
 4181SOL     OW13441   4.399   0.704   0.193
 4181SOL    HW113442   4.379   0.609   0.215
 4181SOL    HW213443   4.359   0.727   0.104
 4182SOL     OW13444   0.541   5.069   3.285
 4182SOL    HW113445   0.484   5.053   3.205
 4182SOL    HW213446   0.484   5.073   3.367
 4183SOL     OW13447   2.948   1.650   0.873
 4183SOL    HW113448   2.922   1.745   0.891
 4183SOL    HW213449   2.868   1.599   0.842
 4184SOL     OW13450   3.730   6.921   2.533
 4184SOL    HW113451   3.702   6.831   2.498
 4184SOL    HW213452   3.711   6.990   2.463
 4185SOL     OW13453   0.914   4.024   3.367
 4185SOL    HW113454   0.866   4.026   3.454
 4185SOL    HW213455   0.984   3.952   3.368
 4186SOL     OW13456   2.042   4.907   6.897
 4186SOL    HW113457   2.111   4.882   6.830
 4186SOL    HW213458   1.954   4.923   6.851
 4187SOL     OW13459   2.472   2.805   5.668
 4187SOL    HW113460   2.475   2.880   5.602
 4187SOL    HW213461   2.554   2.748   5.657
 4188SOL     OW13462   5.339   0.639   5.115
 4188SOL    HW113463   5.339   0.625   5.016
 4188SOL    HW213464   5.334   0.550   5.161
 4189SOL     OW13465   3.520   4.954   4.316
 4189SOL    HW113466   3.584   4.969   4.240
 4189SOL    HW213467   3.429   4.939   4.279
 4190SOL     OW13468   0.770   0.409   1.541
 4190SOL    HW113469   0.765   0.467   1.459
 4190SOL    HW213470   0.745   0.463   1.621
 4191SOL     OW13471   5.238   4.891   4.955
 4191SOL    HW113472   5.307   4.953   4.918
 4191SOL    HW213473   5.150   4.908   4.911
 4192SOL     OW13474   0.635   1.658   2.821
 4192SOL    HW113475   0.705   1.592   2.795
 4192SOL    HW213476   0.598   1.634   2.911
 4193SOL     OW13477   5.752   0.371   0.971
 4193SOL    HW113478   5.838   0.329   1.001
 4193SOL    HW213479   5.771   0.446   0.909
 4194SOL     OW13480   4.662   0.274   4.353
 4194SOL    HW113481   4.666   0.278   4.453
 4194SOL    HW213482   4.654   0.367   4.317
 4195SOL     OW13483   3.968   5.329   1.616
 4195SOL    HW113484   3.888   5.273   1.597
 4195SOL    HW213485   4.046   5.270   1.635
 4196SOL     OW13486   6.207   2.799   2.932
 4196SOL    HW113487   6.225   2.706   2.899
 4196SOL    HW213488   6.278   2.861   2.898
 4197SOL     OW13489   4.729   5.374   5.619
 4197SOL    HW113490   4.645   5.321   5.609
 4197SOL    HW213491   4.707   5.472   5.621
 4198SOL     OW13492   6.261   1.856   0.747
 4198SOL    HW113493   6.220   1.768   0.721
 4198SOL    HW213494   6.246   1.873   0.844
 4199SOL     OW13495   0.983   2.582   5.634
 4199SOL    HW113496   1.052   2.535   5.579
 4199SOL    HW213497   1.008   2.574   5.731
 4200SOL     OW13498   3.114   0.074   6.396
 4200SOL    HW113499   3.143   7.013   6.362
 4200SOL    HW213500   3.029   0.101   6.352
 4201SOL     OW13501   5.855   6.949   3.713
 4201SOL    HW113502   5.858   6.853   3.740
 4201SOL    HW213503   5.941   6.974   3.668
 4202SOL     OW13504   3.101   5.763   6.296
 4202SOL    HW113505   3.108   5.714   6.382
 4202SOL    HW213506   3.031   5.835   6.304
 4203SOL     OW13507   4.653   4.161   0.398
 4203SOL    HW113508   4.681   4.192   0.489
 4203SOL    HW213509   4.556   4.181   0.384
 4204SOL     OW13510   4.078   3.629   4.181
 4204SOL    HW113511   4.080   3.590   4.088
 4204SOL    HW213512   4.149   3.699   4.188
 4205SOL     OW13513   4.545   6.086   4.741
 4205SOL    HW113514   4.611   6.161   4.751
 4205SOL    HW213515   4.548   6.053   4.646
 4206SOL     OW13516   6.055   1.287   5.291
 4206SOL    HW113517   6.153   1.279   5.305
 4206SOL    HW213518   6.016   1.197   5.273
 4207SOL     OW13519   2.265   2.084   2.074
 4207SOL    HW113520   2.316   1.999   2.085
 4207SOL    HW213521   2.321   2.161   2.104
 4208SOL     OW13522   6.921   3.685   5.438
 4208SOL    HW113523   7.000   3.699   5.377
 4208SOL    HW213524   6.859   3.762   5.429
 4209SOL     OW13525   6.722   6.432   4.032
 4209SOL    HW113526   6.702   6.367   4.105
 4209SOL    HW213527   6.813   6.471   4.047
 4210SOL     OW13528   3.758   3.362   2.396
 4210SOL    HW113529   3.829   3.312   2.346
 4210SOL    HW213530   3.801   3.425   2.460
 4211SOL     OW13531   3.705   0.896   5.918
 4211SOL    HW113532   3.753   0.843   5.848
 4211SOL    HW213533   3.700   0.843   6.003
 4212SOL     OW13534   5.952   2.262   2.469
 4212SOL    HW113535   6.030   2.268   2.531
 4212SOL    HW213536   5.984   2.239   2.377
 4213SOL     OW13537   2.668   0.764   2.482
 4213SOL    HW113538   2.624   0.676   2.497
 4213SOL    HW213539   2.599   0.831   2.453
 4214SOL     OW13540   0.490   5.602   5.642
 4214SOL    HW113541   0.589   5.599   5.625
 4214SOL    HW213542   0.469   5.682   5.699
 4215SOL     OW13543   4.261   6.577   5.891
 4215SOL    HW113544   4.175   6.627   5.889
 4215SOL    HW213545   4.274   6.535   5.981
 4216SOL     OW13546   1.686   0.605   3.292
 4216SOL    HW113547   1.705   0.581   3.197
 4216SOL    HW213548   1.704   0.703   3.306
 4217SOL     OW13549   1.097   0.645   3.013
 4217SOL    HW113550   1.013   0.698   3.013
 4217SOL    HW213551   1.163   0.687   2.950
 4218SOL     OW13552   3.335   0.956   1.759
 4218SOL    HW113553   3.378   1.023   1.819
 4218SOL    HW213554   3.404   0.914   1.700
 4219SOL     OW13555   4.239   5.798   4.301
 4219SOL    HW113556   4.140   5.808   4.291
 4219SOL    HW213557   4.284   5.857   4.234
 4220SOL     OW13558   6.653   3.107   3.418
 4220SOL    HW113559   6.632   3.173   3.491
 4220SOL    HW213560   6.662   3.155   3.331
 4221SOL     OW13561   6.259   4.991   6.397
 4221SOL    HW113562   6.174   4.938   6.391
 4221SOL    HW213563   6.277   5.034   6.308
 4222SOL     OW13564   0.241   1.665   1.999
 4222SOL    HW113565   0.217   1.570   2.023
 4222SOL    HW213566   0.259   1.717   2.082
 4223SOL     OW13567   3.358   3.692   0.405
 4223SOL    HW113568   3.432   3.752   0.376
 4223SOL    HW213569   3.270   3.731   0.378
 4224SOL     OW13570   5.348   5.001   3.822
 4224SOL    HW113571   5.376   5.069   3.890
 4224SOL    HW213572   5.295   4.929   3.866
 4225SOL     OW13573   2.425   2.794   5.277
 4225SOL    HW113574   2.413   2.891   5.256
 4225SOL    HW213575   2.522   2.775   5.292
 4226SOL     OW13576   0.467   6.727   2.572
 4226SOL    HW113577   0.480   6.659   2.500
 4226SOL    HW213578   0.432   6.682   2.654
 4227SOL     OW13579   3.467   5.402   1.728
 4227SOL    HW113580   3.449   5.482   1.672
 4227SOL    HW213581   3.564   5.377   1.721
 4228SOL     OW13582   0.900   5.357   5.674
 4228SOL    HW113583   0.927   5.310   5.590
 4228SOL    HW213584   0.941   5.312   5.753
 4229SOL     OW13585   4.430   5.852   5.956
 4229SOL    HW113586   4.465   5.938   5.994
 4229SOL    HW213587   4.398   5.868   5.863
 4230SOL     OW13588   0.895   5.706   2.464
 4230SOL    HW113589   0.911   5.796   2.503
 4230SOL    HW213590   0.849   5.716   2.375
 4231SOL     OW13591   5.511   6.895   5.970
 4231SOL    HW113592   5.498   6.860   6.063
 4231SOL    HW213593   5.578   6.969   5.971
 4232SOL     OW13594   0.439   5.040   3.029
 4232SOL    HW113595   0.499   4.961   3.016
 4232SOL    HW213596   0.437   5.094   2.945
 4233SOL     OW13597   5.760   0.314   5.657
 4233SOL    HW113598   5.758   0.233   5.715
 4233SOL    HW213599   5.853   0.330   5.624
 4234SOL     OW13600   2.270   5.496   5.024
 4234SOL    HW113601   2.239   5.409   4.986
 4234SOL    HW213602   2.361   5.518   4.989
 4235SOL     OW13603   5.496   4.141   5.955
 4235SOL    HW113604   5.550   4.225   5.962
 4235SOL    HW213605   5.499   4.092   6.042
 4236SOL     OW13606   6.624   3.823   1.746
 4236SOL    HW113607   6.684   3.902   1.751
 4236SOL    HW213608   6.622   3.788   1.652
 4237SOL     OW13609   5.599   5.337   3.194
 4237SOL    HW113610   5.682   5.284   3.177
 4237SOL    HW213611   5.548   5.347   3.108
 4238SOL     OW13612   1.940   6.641   2.604
 4238SOL    HW113613   1.889   6.654   2.519
 4238SOL    HW213614   2.037   6.652   2.587
 4239SOL     OW13615   5.045   1.101   2.642
 4239SOL    HW113616   5.096   1.044   2.577
 4239SOL    HW213617   4.960   1.131   2.600
 4240SOL     OW13618   2.261   5.825   0.469
 4240SOL    HW113619   2.308   5.744   0.434
 4240SOL    HW213620   2.329   5.896   0.491
 4241SOL     OW13621   6.207   0.875   0.249
 4241SOL    HW113622   6.218   0.781   0.281
 4241SOL    HW213623   6.272   0.934   0.298
 4242SOL     OW13624   3.151   1.893   4.298
 4242SOL    HW113625   3.213   1.815   4.306
 4242SOL    HW213626   3.066   1.873   4.347
 4243SOL     OW13627   6.372   3.022   2.238
 4243SOL    HW113628   6.394   3.119   2.234
 4243SOL    HW213629   6.455   2.969   2.254
 4244SOL     OW13630   4.264   4.451   1.778
 4244SOL    HW113631   4.308   4.362   1.794
 4244SOL    HW213632   4.334   4.522   1.772
 4245SOL     OW13633   6.433   1.234   6.386
 4245SOL    HW113634   6.423   1.331   6.405
 4245SOL    HW213635   6.484   1.221   6.301
 4246SOL     OW13636   0.251   4.128   3.119
 4246SOL    HW113637   0.247   4.052   3.053
 4246SOL    HW213638   0.212   4.099   3.206
 4247SOL     OW13639   2.558   6.245   3.481
 4247SOL    HW113640   2.594   6.157   3.512
 4247SOL    HW213641   2.549   6.245   3.381
 4248SOL     OW13642   3.871   1.436   3.650
 4248SOL    HW113643   3.880   1.349   3.602
 4248SOL    HW213644   3.927   1.435   3.733
 4249SOL     OW13645   6.092   3.178   4.623
 4249SOL    HW113646   6.061   3.272   4.608
 4249SOL    HW213647   6.192   3.177   4.626
 4250SOL     OW13648   6.696   4.484   2.791
 4250SOL    HW113649   6.791   4.454   2.784
 4250SOL    HW213650   6.692   4.583   2.804
 4251SOL     OW13651   5.711   4.820   1.305
 4251SOL    HW113652   5.677   4.756   1.374
 4251SOL    HW213653   5.748   4.902   1.349
 4252SOL     OW13654   5.227   6.410   5.763
 4252SOL    HW113655   5.202   6.316   5.785
 4252SOL    HW213656   5.270   6.413   5.673
 4253SOL     OW13657   3.543   6.661   0.716
 4253SOL    HW113658   3.634   6.642   0.753
 4253SOL    HW213659   3.547   6.659   0.616
 4254SOL     OW13660   0.505   2.511   2.431
 4254SOL    HW113661   0.572   2.473   2.368
 4254SOL    HW213662   0.551   2.572   2.496
 4255SOL     OW13663   6.066   3.905   3.363
 4255SOL    HW113664   6.124   3.959   3.423
 4255SOL    HW213665   6.112   3.891   3.275
 4256SOL     OW13666   2.303   6.750   0.083
 4256SOL    HW113667   2.251   6.696   0.149
 4256SOL    HW213668   2.262   6.841   0.075
 4257SOL     OW13669   2.933   0.500   4.295
 4257SOL    HW113670   2.861   0.540   4.352
 4257SOL    HW213671   2.892   0.439   4.227
 4258SOL     OW13672   4.940   6.447   0.846
 4258SOL    HW113673   4.873   6.375   0.828
 4258SOL    HW213674   4.955   6.500   0.763
 4259SOL     OW13675   2.928   1.113   0.763
 4259SOL    HW113676   3.006   1.131   0.703
 4259SOL    HW213677   2.946   1.153   0.853
 4260SOL     OW13678   5.492   0.095   0.239
 4260SOL    HW113679   5.457   0.153   0.312
 4260SOL    HW213680   5.433   0.105   0.158
 4261SOL     OW13681   2.023   6.926   1.609
 4261SOL    HW113682   2.020   6.854   1.679
 4261SOL    HW213683   1.978   7.008   1.643
 4262SOL     OW13684   0.439   4.739   5.422
 4262SOL    HW113685   0.401   4.698   5.505
 4262SOL    HW213686   0.536   4.719   5.416
 4263SOL     OW13687   2.500   6.848   3.399
 4263SOL    HW113688   2.425   6.781   3.407
 4263SOL    HW213689   2.462   6.940   3.403
 4264SOL     OW13690   0.019   2.814   2.883
 4264SOL    HW113691   0.011   2.721   2.920
 4264SOL    HW213692   0.030   2.809   2.784
 4265SOL     OW13693   5.457   1.331   0.669
 4265SOL    HW113694   5.511   1.300   0.747
 4265SOL    HW213695   5.377   1.381   0.701
 4266SOL     OW13696   1.727   5.222   0.224
 4266SOL    HW113697   1.695   5.147   0.282
 4266SOL    HW213698   1.818   5.251   0.254
 4267SOL     OW13699   2.143   3.319   4.465
 4267SOL    HW113700   2.132   3.373   4.381
 4267SOL    HW213701   2.118   3.375   4.544
 4268SOL     OW13702   1.028   6.057   6.380
 4268SOL    HW113703   1.125   6.061   6.353
 4268SOL    HW213704   0.993   6.150   6.392
 4269SOL     OW13705   2.367   0.947   1.998
 4269SOL    HW113706   2.311   1.009   2.053
 4269SOL    HW213707   2.455   0.931   2.042
 4270SOL     OW13708   3.972   3.853   3.676
 4270SOL    HW113709   4.027   3.935   3.689
 4270SOL    HW213710   3.877   3.871   3.704
 4271SOL     OW13711   0.301   0.900   6.799
 4271SOL    HW113712   0.225   0.966   6.797
 4271SOL    HW213713   0.325   0.878   6.893
 4272SOL     OW13714   6.356   3.169   4.616
 4272SOL    HW113715   6.405   3.105   4.557
 4272SOL    HW213716   6.384   3.263   4.594
 4273SOL     OW13717   4.361   6.341   4.991
 4273SOL    HW113718   4.450   6.313   5.028
 4273SOL    HW213719   4.345   6.294   4.904
 4274SOL     OW13720   1.287   6.554   1.853
 4274SOL    HW113721   1.254   6.459   1.851
 4274SOL    HW213722   1.271   6.592   1.944
 4275SOL     OW13723   6.435   0.706   4.200
 4275SOL    HW113724   6.522   0.657   4.212
 4275SOL    HW213725   6.359   0.643   4.215
 4276SOL     OW13726   2.284   5.237   3.340
 4276SOL    HW113727   2.231   5.165   3.385
 4276SOL    HW213728   2.224   5.312   3.313
 4277SOL     OW13729   6.512   4.689   4.320
 4277SOL    HW113730   6.552   4.722   4.234
 4277SOL    HW213731   6.426   4.643   4.301
 4278SOL     OW13732   7.025   0.562   4.464
 4278SOL    HW113733   6.969   0.523   4.391
 4278SOL    HW213734   0.050   0.490   4.507
 4279SOL     OW13735   3.370   0.551   4.283
 4279SOL    HW113736   3.337   0.494   4.208
 4279SOL    HW213737   3.293   0.589   4.333
 4280SOL     OW13738   4.867   0.188   6.461
 4280SOL    HW113739   4.956   0.142   6.469
 4280SOL    HW213740   4.839   0.223   6.551
 4281SOL     OW13741   0.607   4.967   3.682
 4281SOL    HW113742   0.525   4.985   3.736
 4281SOL    HW213743   0.646   4.879   3.708
 4282SOL     OW13744   3.423   4.095   6.716
 4282SOL    HW113745   3.474   4.096   6.630
 4282SOL    HW213746   3.354   4.167   6.714
 4283SOL     OW13747   1.678   0.759   3.573
 4283SOL    HW113748   1.630   0.845   3.554
 4283SOL    HW213749   1.616   0.682   3.558
 4284SOL     OW13750   4.434   4.790   1.634
 4284SOL    HW113751   4.383   4.727   1.575
 4284SOL    HW213752   4.494   4.847   1.577
 4285SOL     OW13753   0.617   0.763   6.151
 4285SOL    HW113754   0.571   0.752   6.240
 4285SOL    HW213755   0.688   0.833   6.158
 4286SOL     OW13756   4.725   5.778   5.911
 4286SOL    HW113757   4.701   5.700   5.968
 4286SOL    HW213758   4.645   5.806   5.858
 4287SOL     OW13759   5.455   2.335   6.546
 4287SOL    HW113760   5.520   2.366   6.476
 4287SOL    HW213761   5.380   2.286   6.502
 4288SOL     OW13762   0.989   6.000   3.744
 4288SOL    HW113763   0.978   6.094   3.778
 4288SOL    HW213764   0.901   5.968   3.708
 4289SOL     OW13765   6.804   3.017   0.428
 4289SOL    HW113766   6.794   2.917   0.434
 4289SOL    HW213767   6.713   3.059   0.428
 4290SOL     OW13768   1.783   0.064   2.654
 4290SOL    HW113769   1.772   0.118   2.738
 4290SOL    HW213770   1.836   7.011   2.674
 4291SOL     OW13771   4.091   3.591   1.672
 4291SOL    HW113772   4.170   3.577   1.732
 4291SOL    HW213773   4.124   3.618   1.581
 4292SOL     OW13774   6.523   4.289   6.673
 4292SOL    HW113775   6.581   4.361   6.712
 4292SOL    HW213776   6.433   4.293   6.715
 4293SOL     OW13777   1.839   3.035   0.561
 4293SOL    HW113778   1.793   2.961   0.512
 4293SOL    HW213779   1.830   3.021   0.660
 4294SOL     OW13780   2.898   2.923   6.502
 4294SOL    HW113781   2.879   3.000   6.564
 4294SOL    HW213782   2.996   2.919   6.484
 4295SOL     OW13783   4.082   5.433   4.153
 4295SOL    HW113784   4.117   5.432   4.247
 4295SOL    HW213785   4.144   5.381   4.094
 4296SOL     OW13786   4.172   0.652   0.501
 4296SOL    HW113787   4.225   0.717   0.447
 4296SOL    HW213788   4.140   0.697   0.585
 4297SOL     OW13789   5.082   0.764   6.901
 4297SOL    HW113790   5.161   0.713   6.937
 4297SOL    HW213791   5.113   0.850   6.861
 4298SOL     OW13792   3.467   5.617   0.396
 4298SOL    HW113793   3.417   5.530   0.401
 4298SOL    HW213794   3.554   5.609   0.444
 4299SOL     OW13795   1.409   2.336   6.623
 4299SOL    HW113796   1.361   2.387   6.694
 4299SOL    HW213797   1.360   2.251   6.605
 4300SOL     OW13798   4.573   0.337   0.379
 4300SOL    HW113799   4.529   0.248   0.396
 4300SOL    HW213800   4.641   0.355   0.450
 4301SOL     OW13801   3.789   1.825   1.141
 4301SOL    HW113802   3.759   1.919   1.158
 4301SOL    HW213803   3.789   1.775   1.227
 4302SOL     OW13804   1.584   6.366   5.745
 4302SOL    HW113805   1.625   6.429   5.810
 4302SOL    HW213806   1.620   6.383   5.653
 4303SOL     OW13807   6.801   4.839   4.288
 4303SOL    HW113808   6.774   4.826   4.383
 4303SOL    HW213809   6.844   4.928   4.277
 4304SOL     OW13810   3.425   3.984   2.867
 4304SOL    HW113811   3.413   3.885   2.871
 4304SOL    HW213812   3.344   4.029   2.905
 4305SOL     OW13813   6.452   0.861   4.694
 4305SOL    HW113814   6.497   0.911   4.620
 4305SOL    HW213815   6.450   0.763   4.672
 4306SOL     OW13816   6.167   3.824   6.577
 4306SOL    HW113817   6.215   3.745   6.616
 4306SOL    HW213818   6.102   3.859   6.643
 4307SOL     OW13819   4.196   3.934   6.283
 4307SOL    HW113820   4.169   3.839   6.301
 4307SOL    HW213821   4.192   3.986   6.368
 4308SOL     OW13822   5.948   5.349   6.738
 4308SOL    HW113823   5.868   5.396   6.700
 4308SOL    HW213824   5.980   5.280   6.673
 4309SOL     OW13825   0.953   1.459   0.401
 4309SOL    HW113826   0.893   1.511   0.461
 4309SOL    HW213827   0.959   1.365   0.432
 4310SOL     OW13828   1.536   2.805   2.772
 4310SOL    HW113829   1.527   2.862   2.690
 4310SOL    HW213830   1.628   2.818   2.810
 4311SOL     OW13831   2.088   6.118   3.321
 4311SOL    HW113832   2.066   6.024   3.348
 4311SOL    HW213833   2.084   6.126   3.222
 4312SOL     OW13834   1.383   5.117   1.191
 4312SOL    HW113835   1.380   5.142   1.094
 4312SOL    HW213836   1.311   5.050   1.210
 4313SOL     OW13837   4.660   1.667   1.748
 4313SOL    HW113838   4.721   1.654   1.670
 4313SOL    HW213839   4.712   1.706   1.824
 4314SOL     OW13840   5.854   1.218   3.848
 4314SOL    HW113841   5.757   1.194   3.855
 4314SOL    HW213842   5.909   1.135   3.845
 4315SOL     OW13843   2.929   0.015   2.099
 4315SOL    HW113844   3.006   0.068   2.134
 4315SOL    HW213845   2.961   6.953   2.069
 4316SOL     OW13846   5.313   0.078   1.816
 4316SOL    HW113847   5.218   0.092   1.790
 4316SOL    HW213848   5.336   0.140   1.892
 4317SOL     OW13849   4.440   1.337   5.102
 4317SOL    HW113850   4.535   1.311   5.113
 4317SOL    HW213851   4.429   1.390   5.018
 4318SOL     OW13852   0.538   3.890   4.307
 4318SOL    HW113853   0.599   3.923   4.378
 4318SOL    HW213854   0.526   3.791   4.317
 4319SOL     OW13855   2.123   2.484   0.749
 4319SOL    HW113856   2.144   2.576   0.716
 4319SOL    HW213857   2.159   2.473   0.842
 4320SOL     OW13858   6.376   6.054   1.516
 4320SOL    HW113859   6.304   6.082   1.580
 4320SOL    HW213860   6.421   5.972   1.551
 4321SOL     OW13861   6.842   6.960   5.376
 4321SOL    HW113862   6.936   6.949   5.345
 4321SOL    HW213863   6.840   7.011   5.462
 4322SOL     OW13864   6.785   2.365   6.608
 4322SOL    HW113865   6.713   2.403   6.665
 4322SOL    HW213866   6.825   2.437   6.552
 4323SOL     OW13867   4.804   4.088   1.080
 4323SOL    HW113868   4.712   4.110   1.114
 4323SOL    HW213869   4.866   4.074   1.157
 4324SOL     OW13870   5.562   4.434   6.050
 4324SOL    HW113871   5.509   4.475   6.124
 4324SOL    HW213872   5.654   4.475   6.049
 4325SOL     OW13873   2.748   1.260   1.492
 4325SOL    HW113874   2.815   1.280   1.421
 4325SOL    HW213875   2.790   1.201   1.561
 4326SOL     OW13876   4.881   4.462   5.124
 4326SOL    HW113877   4.851   4.548   5.165
 4326SOL    HW213878   4.802   4.403   5.110
 4327SOL     OW13879   6.043   5.477   1.985
 4327SOL    HW113880   6.091   5.560   1.955
 4327SOL    HW213881   5.957   5.502   2.030
 4328SOL     OW13882   4.585   3.640   5.639
 4328SOL    HW113883   4.565   3.592   5.553
 4328SOL    HW213884   4.681   3.629   5.663
 4329SOL     OW13885   4.263   1.205   6.070
 4329SOL    HW113886   4.197   1.132   6.085
 4329SOL    HW213887   4.233   1.262   5.993
 4330SOL     OW13888   2.570   0.056   5.201
 4330SOL    HW113889   2.478   0.068   5.163
 4330SOL    HW213890   2.563   0.010   5.290
 4331SOL     OW13891   5.113   2.718   1.007
 4331SOL    HW113892   5.100   2.639   1.067
 4331SOL    HW213893   5.025   2.765   0.994
 4332SOL     OW13894   4.955   4.741   2.283
 4332SOL    HW113895   4.907   4.697   2.358
 4332SOL    HW213896   5.054   4.733   2.296
 4333SOL     OW13897   3.854   0.338   5.521
 4333SOL    HW113898   3.870   0.259   5.462
 4333SOL    HW213899   3.758   0.342   5.547
 4334SOL     OW13900   1.894   2.718   2.501
 4334SOL    HW113901   1.889   2.803   2.553
 4334SOL    HW213902   1.989   2.692   2.488
 4335SOL     OW13903   3.647   3.741   2.694
 4335SOL    HW113904   3.565   3.742   2.637
 4335SOL    HW213905   3.710   3.671   2.662
 4336SOL     OW13906   1.865   6.697   6.744
 4336SOL    HW113907   1.941   6.761   6.754
 4336SOL    HW213908   1.778   6.748   6.746
 4337SOL     OW13909   0.156   4.523   1.024
 4337SOL    HW113910   0.065   4.492   0.997
 4337SOL    HW213911   0.219   4.445   1.021
 4338SOL     OW13912   5.502   5.849   4.699
 4338SOL    HW113913   5.432   5.850   4.628
 4338SOL    HW213914   5.509   5.758   4.738
 4339SOL     OW13915   5.453   3.198   5.182
 4339SOL    HW113916   5.424   3.293   5.194
 4339SOL    HW213917   5.552   3.195   5.168
 4340SOL     OW13918   6.596   3.411   1.097
 4340SOL    HW113919   6.612   3.313   1.087
 4340SOL    HW213920   6.506   3.427   1.138
 4341SOL     OW13921   0.565   5.631   2.075
 4341SOL    HW113922   0.509   5.573   2.134
 4341SOL    HW213923   0.551   5.605   1.980
 4342SOL     OW13924   5.945   3.674   4.138
 4342SOL    HW113925   6.017   3.717   4.082
 4342SOL    HW213926   5.909   3.594   4.091
 4343SOL     OW13927   2.649   6.006   5.724
 4343SOL    HW113928   2.723   5.956   5.768
 4343SOL    HW213929   2.631   5.967   5.634
 4344SOL     OW13930   1.195   4.985   2.637
 4344SOL    HW113931   1.162   5.070   2.678
 4344SOL    HW213932   1.130   4.911   2.655
 4345SOL     OW13933   2.787   3.214   5.278
 4345SOL    HW113934   2.694   3.177   5.284
 4345SOL    HW213935   2.853   3.142   5.299
 4346SOL     OW13936   1.867   3.230   2.226
 4346SOL    HW113937   1.864   3.141   2.272
 4346SOL    HW213938   1.934   3.227   2.152
 4347SOL     OW13939   6.345   0.137   3.238
 4347SOL    HW113940   6.406   0.196   3.290
 4347SOL    HW213941   6.343   0.046   3.280
 4348SOL     OW13942   0.202   4.417   2.813
 4348SOL    HW113943   0.139   4.344   2.836
 4348SOL    HW213944   0.230   4.465   2.897
 4349SOL     OW13945   0.109   1.469   2.839
 4349SOL    HW113946   0.045   1.474   2.763
 4349SOL    HW213947   0.200   1.494   2.807
 4350SOL     OW13948   5.099   1.638   4.180
 4350SOL    HW113949   5.091   1.634   4.081
 4350SOL    HW213950   5.166   1.708   4.205
 4351SOL     OW13951   2.372   5.727   1.479
 4351SOL    HW113952   2.411   5.638   1.454
 4351SOL    HW213953   2.353   5.780   1.396
 4352SOL     OW13954   0.555   3.093   2.665
 4352SOL    HW113955   0.473   3.144   2.636
 4352SOL    HW213956   0.623   3.096   2.592
 4353SOL     OW13957   3.247   3.311   6.959
 4353SOL    HW113958   3.329   3.262   6.931
 4353SOL    HW213959   3.213   3.365   6.882
 4354SOL     OW13960   2.544   0.101   5.834
 4354SOL    HW113961   2.563   0.157   5.754
 4354SOL    HW213962   2.447   0.107   5.856
 4355SOL     OW13963   3.112   0.193   2.160
 4355SOL    HW113964   3.198   0.143   2.149
 4355SOL    HW213965   3.124   0.265   2.228
 4356SOL     OW13966   5.124   4.311   0.728
 4356SOL    HW113967   5.170   4.311   0.639
 4356SOL    HW213968   5.191   4.291   0.800
 4357SOL     OW13969   6.670   0.563   0.282
 4357SOL    HW113970   6.712   0.540   0.370
 4357SOL    HW213971   6.635   0.657   0.285
 4358SOL     OW13972   0.576   6.493   0.033
 4358SOL    HW113973   0.651   6.450   7.012
 4358SOL    HW213974   0.516   6.422   0.071
 4359SOL     OW13975   2.309   2.128   6.489
 4359SOL    HW113976   2.364   2.207   6.462
 4359SOL    HW213977   2.357   2.044   6.463
 4360SOL     OW13978   1.297   2.121   4.188
 4360SOL    HW113979   1.369   2.082   4.130
 4360SOL    HW213980   1.250   2.194   4.138
 4361SOL     OW13981   2.388   3.196   1.160
 4361SOL    HW113982   2.435   3.194   1.072
 4361SOL    HW213983   2.415   3.116   1.214
 4362SOL     OW13984   6.041   5.210   3.164
 4362SOL    HW113985   6.099   5.244   3.238
 4362SOL    HW213986   6.097   5.190   3.084
 4363SOL     OW13987   5.147   2.723   0.223
 4363SOL    HW113988   5.070   2.688   0.170
 4363SOL    HW213989   5.115   2.794   0.286
 4364SOL     OW13990   3.333   4.032   4.984
 4364SOL    HW113991   3.418   4.076   5.012
 4364SOL    HW213992   3.352   3.964   4.913
 4365SOL     OW13993   2.288   1.558   1.538
 4365SOL    HW113994   2.376   1.519   1.512
 4365SOL    HW213995   2.234   1.579   1.456
 4366SOL     OW13996   6.814   6.724   7.015
 4366SOL    HW113997   6.775   6.811   0.017
 4366SOL    HW213998   6.799   6.654   0.056
 4367SOL     OW13999   2.489   4.654   5.028
 4367SOL    HW114000   2.551   4.708   4.972
 4367SOL    HW214001   2.538   4.615   5.106
 4368SOL     OW14002   4.055   4.295   1.244
 4368SOL    HW114003   4.123   4.254   1.184
 4368SOL    HW214004   3.963   4.282   1.205
 4369SOL     OW14005   4.039   5.240   3.286
 4369SOL    HW114006   3.983   5.315   3.250
 4369SOL    HW214007   4.134   5.270   3.292
 4370SOL     OW14008   4.627   5.333   2.551
 4370SOL    HW114009   4.570   5.354   2.630
 4370SOL    HW214010   4.589   5.377   2.470
 4371SOL     OW14011   1.320   2.023   1.551
 4371SOL    HW114012   1.366   2.034   1.639
 4371SOL    HW214013   1.250   1.953   1.559
 4372SOL     OW14014   3.487   1.608   3.140
 4372SOL    HW114015   3.543   1.571   3.214
 4372SOL    HW214016   3.427   1.679   3.176
 4373SOL     OW14017   6.739   2.483   6.246
 4373SOL    HW114018   6.807   2.537   6.198
 4373SOL    HW214019   6.686   2.543   6.307
 4374SOL     OW14020   1.330   1.879   2.418
 4374SOL    HW114021   1.264   1.940   2.462
 4374SOL    HW214022   1.414   1.930   2.399
 4375SOL     OW14023   4.022   0.094   3.224
 4375SOL    HW114024   3.926   0.123   3.220
 4375SOL    HW214025   4.072   0.133   3.147
 4376SOL     OW14026   6.996   6.332   1.226
 4376SOL    HW114027   7.018   6.291   1.315
 4376SOL    HW214028   7.008   6.264   1.154
 4377SOL     OW14029   5.252   4.360   1.025
 4377SOL    HW114030   5.318   4.380   1.098
 4377SOL    HW214031   5.203   4.443   1.000
 4378SOL     OW14032   2.236   1.947   2.695
 4378SOL    HW114033   2.140   1.972   2.701
 4378SOL    HW214034   2.269   1.964   2.602
 4379SOL     OW14035   2.200   1.233   2.395
 4379SOL    HW114036   2.112   1.273   2.370
 4379SOL    HW214037   2.215   1.242   2.494
 4380SOL     OW14038   1.381   0.076   2.370
 4380SOL    HW114039   1.295   0.046   2.328
 4380SOL    HW214040   1.419   0.001   2.424
 4381SOL     OW14041   0.544   5.502   5.141
 4381SOL    HW114042   0.536   5.402   5.140
 4381SOL    HW214043   0.521   5.536   5.231
 4382SOL     OW14044   0.551   3.447   5.217
 4382SOL    HW114045   0.572   3.517   5.148
 4382SOL    HW214046   0.505   3.370   5.173
 4383SOL     OW14047   1.048   2.743   6.690
 4383SOL    HW114048   1.114   2.771   6.759
 4383SOL    HW214049   0.982   2.680   6.730
 4384SOL     OW14050   5.709   0.680   4.892
 4384SOL    HW114051   5.703   0.771   4.850
 4384SOL    HW214052   5.760   0.619   4.831
 4385SOL     OW14053   5.887   2.528   5.268
 4385SOL    HW114054   5.843   2.525   5.358
 4385SOL    HW214055   5.831   2.583   5.206
 4386SOL     OW14056   1.754   3.933   5.895
 4386SOL    HW114057   1.817   3.924   5.818
 4386SOL    HW214058   1.684   4.001   5.874
 4387SOL     OW14059   6.893   2.266   1.610
 4387SOL    HW114060   6.984   2.290   1.643
 4387SOL    HW214061   6.826   2.332   1.644
 4388SOL     OW14062   4.416   2.830   5.842
 4388SOL    HW114063   4.401   2.888   5.922
 4388SOL    HW214064   4.330   2.817   5.793
 4389SOL     OW14065   5.923   2.860   1.344
 4389SOL    HW114066   5.836   2.892   1.380
 4389SOL    HW214067   5.936   2.896   1.252
 4390SOL     OW14068   3.803   0.120   1.581
 4390SOL    HW114069   3.835   0.043   1.526
 4390SOL    HW214070   3.858   0.201   1.560
 4391SOL     OW14071   2.230   5.869   6.923
 4391SOL    HW114072   2.192   5.780   6.950
 4391SOL    HW214073   2.297   5.899   6.991
 4392SOL     OW14074   6.770   3.241   5.524
 4392SOL    HW114075   6.850   3.184   5.545
 4392SOL    HW214076   6.782   3.282   5.433
 4393SOL     OW14077   6.273   0.979   2.200
 4393SOL    HW114078   6.341   1.042   2.239
 4393SOL    HW214079   6.185   0.994   2.244
 4394SOL     OW14080   6.651   5.471   2.208
 4394SOL    HW114081   6.657   5.565   2.177
 4394SOL    HW214082   6.569   5.428   2.170
 4395SOL     OW14083   1.952   0.114   1.822
 4395SOL    HW114084   1.973   0.169   1.902
 4395SOL    HW214085   2.004   0.148   1.743
 4396SOL     OW14086   2.242   1.475   4.366
 4396SOL    HW114087   2.233   1.572   4.390
 4396SOL    HW214088   2.328   1.439   4.403
 4397SOL     OW14089   1.547   2.396   4.356
 4397SOL    HW114090   1.456   2.426   4.386
 4397SOL    HW214091   1.558   2.299   4.376
 4398SOL     OW14092   0.729   3.878   5.466
 4398SOL    HW114093   0.778   3.952   5.512
 4398SOL    HW214094   0.633   3.903   5.457
 4399SOL     OW14095   3.337   6.680   2.505
 4399SOL    HW114096   3.313   6.664   2.410
 4399SOL    HW214097   3.285   6.618   2.563
 4400SOL     OW14098   2.603   6.368   5.511
 4400SOL    HW114099   2.701   6.363   5.490
 4400SOL    HW214100   2.575   6.464   5.515
 4401SOL     OW14101   2.785   6.962   5.612
 4401SOL    HW114102   2.709   6.935   5.553
 4401SOL    HW214103   2.762   6.941   5.707
 4402SOL     OW14104   1.787   1.077   2.622
 4402SOL    HW114105   1.738   1.163   2.609
 4402SOL    HW214106   1.750   1.008   2.559
 4403SOL     OW14107   0.741   0.837   0.424
 4403SOL    HW114108   0.787   0.883   0.500
 4403SOL    HW214109   0.645   0.823   0.447
 4404SOL     OW14110   1.792   5.982   5.957
 4404SOL    HW114111   1.771   5.990   6.054
 4404SOL    HW214112   1.801   5.885   5.933
 4405SOL     OW14113   1.646   4.105   2.077
 4405SOL    HW114114   1.653   4.057   2.164
 4405SOL    HW214115   1.730   4.157   2.061
 4406SOL     OW14116   0.874   2.634   0.807
 4406SOL    HW114117   0.883   2.719   0.756
 4406SOL    HW214118   0.876   2.653   0.905
 4407SOL     OW14119   6.506   5.582   0.682
 4407SOL    HW114120   6.431   5.641   0.714
 4407SOL    HW214121   6.545   5.620   0.598
 4408SOL     OW14122   2.534   7.011   1.165
 4408SOL    HW114123   2.559   0.004   1.259
 4408SOL    HW214124   2.455   0.038   1.138
 4409SOL     OW14125   4.369   1.461   2.213
 4409SOL    HW114126   4.419   1.459   2.300
 4409SOL    HW214127   4.337   1.369   2.191
 4410SOL     OW14128   1.182   4.648   0.196
 4410SOL    HW114129   1.119   4.651   0.118
 4410SOL    HW214130   1.156   4.717   0.263
 4411SOL     OW14131   3.724   4.236   5.250
 4411SOL    HW114132   3.701   4.147   5.287
 4411SOL    HW214133   3.779   4.287   5.317
 4412SOL     OW14134   4.491   6.058   4.105
 4412SOL    HW114135   4.564   6.006   4.149
 4412SOL    HW214136   4.448   6.119   4.172
 4413SOL     OW14137   5.770   4.300   4.412
 4413SOL    HW114138   5.785   4.221   4.353
 4413SOL    HW214139   5.710   4.275   4.488
 4414SOL     OW14140   3.608   6.001   1.339
 4414SOL    HW114141   3.687   5.940   1.343
 4414SOL    HW214142   3.610   6.062   1.419
 4415SOL     OW14143   5.346   2.396   0.384
 4415SOL    HW114144   5.422   2.459   0.375
 4415SOL    HW214145   5.332   2.348   0.298
 4416SOL     OW14146   3.959   1.865   3.991
 4416SOL    HW114147   3.900   1.850   4.071
 4416SOL    HW214148   3.905   1.858   3.907
 4417SOL     OW14149   5.521   3.718   3.992
 4417SOL    HW114150   5.431   3.680   3.968
 4417SOL    HW214151   5.549   3.684   4.082
 4418SOL     OW14152   6.591   2.088   2.253
 4418SOL    HW114153   6.540   2.030   2.317
 4418SOL    HW214154   6.530   2.117   2.179
 4419SOL     OW14155   6.142   6.915   5.968
 4419SOL    HW114156   6.103   6.899   5.877
 4419SOL    HW214157   6.126   7.011   5.994
 4420SOL     OW14158   3.977   1.434   2.211
 4420SOL    HW114159   4.035   1.353   2.225
 4420SOL    HW214160   4.026   1.501   2.156
 4421SOL     OW14161   1.693   1.724   4.685
 4421SOL    HW114162   1.661   1.790   4.753
 4421SOL    HW214163   1.654   1.634   4.704
 4422SOL     OW14164   1.058   4.195   0.086
 4422SOL    HW114165   1.049   4.236   7.023
 4422SOL    HW214166   1.108   4.257   0.146
 4423SOL     OW14167   7.026   3.419   5.384
 4423SOL    HW114168   0.044   3.416   5.472
 4423SOL    HW214169   6.998   3.513   5.364
 4424SOL     OW14170   5.524   0.760   4.337
 4424SOL    HW114171   5.514   0.664   4.362
 4424SOL    HW214172   5.575   0.767   4.251
 4425SOL     OW14173   2.842   4.757   0.515
 4425SOL    HW114174   2.871   4.847   0.547
 4425SOL    HW214175   2.899   4.729   0.438
 4426SOL     OW14176   1.072   0.994   4.097
 4426SOL    HW114177   1.153   0.994   4.038
 4426SOL    HW214178   1.007   0.926   4.064
 4427SOL     OW14179   6.329   6.068   2.229
 4427SOL    HW114180   6.402   6.084   2.162
 4427SOL    HW214181   6.357   6.105   2.317
 4428SOL     OW14182   4.343   0.997   3.666
 4428SOL    HW114183   4.272   0.974   3.600
 4428SOL    HW214184   4.432   0.967   3.631
 4429SOL     OW14185   3.359   0.109   2.237
 4429SOL    HW114186   3.451   0.072   2.222
 4429SOL    HW214187   3.365   0.188   2.299
 4430SOL     OW14188   4.882   4.736   5.231
 4430SOL    HW114189   4.928   4.736   5.319
 4430SOL    HW214190   4.949   4.726   5.158
 4431SOL     OW14191   2.979   1.251   3.027
 4431SOL    HW114192   2.938   1.333   2.986
 4431SOL    HW214193   2.973   1.256   3.126
 4432SOL     OW14194   2.801   3.319   5.842
 4432SOL    HW114195   2.734   3.327   5.916
 4432SOL    HW214196   2.804   3.404   5.790
 4433SOL     OW14197   5.897   1.857   4.193
 4433SOL    HW114198   5.804   1.826   4.176
 4433SOL    HW214199   5.904   1.892   4.287
 4434SOL     OW14200   5.834   1.124   2.587
 4434SOL    HW114201   5.806   1.150   2.495
 4434SOL    HW214202   5.826   1.203   2.648
 4435SOL     OW14203   4.493   4.022   1.148
 4435SOL    HW114204   4.489   4.037   1.247
 4435SOL    HW214205   4.528   3.930   1.130
 4436SOL     OW14206   4.404   0.646   1.745
 4436SOL    HW114207   4.452   0.622   1.830
 4436SOL    HW214208   4.310   0.672   1.766
 4437SOL     OW14209   1.084   3.220   2.407
 4437SOL    HW114210   1.048   3.304   2.449
 4437SOL    HW214211   1.081   3.228   2.308
 4438SOL     OW14212   4.822   0.283   6.733
 4438SOL    HW114213   4.856   0.320   6.820
 4438SOL    HW214214   4.804   0.186   6.743
 4439SOL     OW14215   0.050   4.196   1.490
 4439SOL    HW114216   0.100   4.114   1.518
 4439SOL    HW214217   0.089   4.277   1.535
 4440SOL     OW14218   2.878   4.522   0.890
 4440SOL    HW114219   2.901   4.428   0.918
 4440SOL    HW214220   2.910   4.538   0.797
 4441SOL     OW14221   0.693   1.708   1.956
 4441SOL    HW114222   0.707   1.609   1.952
 4441SOL    HW214223   0.604   1.730   1.917
 4442SOL     OW14224   1.903   4.962   4.143
 4442SOL    HW114225   1.864   4.944   4.053
 4442SOL    HW214226   1.871   4.893   4.208
 4443SOL     OW14227   1.478   3.564   5.618
 4443SOL    HW114228   1.443   3.586   5.709
 4443SOL    HW214229   1.546   3.631   5.591
 4444SOL     OW14230   3.528   3.865   6.867
 4444SOL    HW114231   3.531   3.925   6.787
 4444SOL    HW214232   3.486   3.777   6.842
 4445SOL     OW14233   1.806   6.669   0.329
 4445SOL    HW114234   1.840   6.656   0.422
 4445SOL    HW214235   1.859   6.613   0.265
 4446SOL     OW14236   5.177   2.195   1.328
 4446SOL    HW114237   5.163   2.113   1.273
 4446SOL    HW214238   5.254   2.181   1.389
 4447SOL     OW14239   5.287   4.416   5.931
 4447SOL    HW114240   5.222   4.377   5.997
 4447SOL    HW214241   5.380   4.394   5.959
 4448SOL     OW14242   2.433   4.933   1.513
 4448SOL    HW114243   2.347   4.947   1.464
 4448SOL    HW214244   2.431   4.843   1.558
 4449SOL     OW14245   5.400   0.837   6.318
 4449SOL    HW114246   5.341   0.881   6.386
 4449SOL    HW214247   5.343   0.791   6.250
 4450SOL     OW14248   3.833   2.375   5.901
 4450SOL    HW114249   3.833   2.421   5.812
 4450SOL    HW214250   3.752   2.318   5.910
 4451SOL     OW14251   5.287   4.510   3.771
 4451SOL    HW114252   5.298   4.583   3.838
 4451SOL    HW214253   5.360   4.442   3.783
 4452SOL     OW14254   5.789   5.739   4.481
 4452SOL    HW114255   5.750   5.654   4.444
 4452SOL    HW214256   5.747   5.817   4.436
 4453SOL     OW14257   1.738   2.465   1.737
 4453SOL    HW114258   1.727   2.370   1.707
 4453SOL    HW214259   1.773   2.520   1.662
 4454SOL     OW14260   1.383   1.520   0.364
 4454SOL    HW114261   1.300   1.489   0.318
 4454SOL    HW214262   1.403   1.614   0.336
 4455SOL     OW14263   5.464   5.605   5.714
 4455SOL    HW114264   5.390   5.538   5.713
 4455SOL    HW214265   5.449   5.672   5.641
 4456SOL     OW14266   2.353   6.456   3.240
 4456SOL    HW114267   2.271   6.466   3.183
 4456SOL    HW214268   2.408   6.539   3.234
 4457SOL     OW14269   3.564   1.699   3.419
 4457SOL    HW114270   3.585   1.621   3.478
 4457SOL    HW214271   3.601   1.782   3.460
 4458SOL     OW14272   2.125   2.748   0.586
 4458SOL    HW114273   2.203   2.710   0.535
 4458SOL    HW214274   2.112   2.843   0.560
 4459SOL     OW14275   4.117   1.909   4.395
 4459SOL    HW114276   4.048   1.982   4.401
 4459SOL    HW214277   4.208   1.949   4.395
 4460SOL     OW14278   1.210   2.987   0.323
 4460SOL    HW114279   1.150   2.985   0.243
 4460SOL    HW214280   1.193   3.070   0.376
 4461SOL     OW14281   1.916   0.823   0.888
 4461SOL    HW114282   1.962   0.768   0.817
 4461SOL    HW214283   1.967   0.908   0.901
 4462SOL     OW14284   6.713   4.748   2.175
 4462SOL    HW114285   6.664   4.684   2.233
 4462SOL    HW214286   6.779   4.800   2.231
 4463SOL     OW14287   4.911   0.840   0.794
 4463SOL    HW114288   4.905   0.940   0.793
 4463SOL    HW214289   4.845   0.802   0.729
 4464SOL     OW14290   6.859   5.782   0.152
 4464SOL    HW114291   6.837   5.739   0.240
 4464SOL    HW214292   6.774   5.802   0.102
 4465SOL     OW14293   3.669   5.240   1.222
 4465SOL    HW114294   3.729   5.222   1.300
 4465SOL    HW214295   3.720   5.224   1.137
 4466SOL     OW14296   1.184   2.023   3.161
 4466SOL    HW114297   1.255   2.084   3.126
 4466SOL    HW214298   1.216   1.928   3.156
 4467SOL     OW14299   1.531   5.492   3.382
 4467SOL    HW114300   1.465   5.567   3.384
 4467SOL    HW214301   1.482   5.404   3.387
 4468SOL     OW14302   1.546   4.150   0.432
 4468SOL    HW114303   1.632   4.103   0.416
 4468SOL    HW214304   1.559   4.224   0.499
 4469SOL     OW14305   3.515   0.871   1.552
 4469SOL    HW114306   3.546   0.778   1.572
 4469SOL    HW214307   3.594   0.931   1.536
 4470SOL     OW14308   0.529   2.014   2.197
 4470SOL    HW114309   0.602   1.950   2.219
 4470SOL    HW214310   0.518   2.080   2.272
 4471SOL     OW14311   0.961   2.361   6.747
 4471SOL    HW114312   0.929   2.267   6.738
 4471SOL    HW214313   0.911   2.420   6.684
 4472SOL     OW14314   0.606   2.771   1.766
 4472SOL    HW114315   0.639   2.837   1.834
 4472SOL    HW214316   0.534   2.813   1.711
 4473SOL     OW14317   5.560   3.021   4.116
 4473SOL    HW114318   5.535   3.042   4.211
 4473SOL    HW214319   5.478   3.018   4.059
 4474SOL     OW14320   2.368   6.897   2.503
 4474SOL    HW114321   2.403   6.921   2.413
 4474SOL    HW214322   2.347   6.980   2.554
 4475SOL     OW14323   1.097   4.218   1.989
 4475SOL    HW114324   1.191   4.221   2.021
 4475SOL    HW214325   1.094   4.222   1.889
 4476SOL     OW14326   5.996   0.940   3.446
 4476SOL    HW114327   6.066   1.007   3.470
 4476SOL    HW214328   5.941   0.974   3.370
 4477SOL     OW14329   1.594   0.516   5.629
 4477SOL    HW114330   1.682   0.512   5.675
 4477SOL    HW214331   1.608   0.507   5.530
 4478SOL     OW14332   3.152   0.428   2.347
 4478SOL    HW114333   3.144   0.506   2.286
 4478SOL    HW214334   3.247   0.399   2.352
 4479SOL     OW14335   0.402   2.386   1.476
 4479SOL    HW114336   0.439   2.421   1.562
 4479SOL    HW214337   0.468   2.325   1.434
 4480SOL     OW14338   0.213   4.113   5.118
 4480SOL    HW114339   0.252   4.193   5.073
 4480SOL    HW214340   0.180   4.049   5.049
 4481SOL     OW14341   2.613   5.274   4.976
 4481SOL    HW114342   2.662   5.353   5.013
 4481SOL    HW214343   2.519   5.301   4.952
 4482SOL     OW14344   1.915   2.846   5.066
 4482SOL    HW114345   2.013   2.831   5.081
 4482SOL    HW214346   1.901   2.883   4.975
 4483SOL     OW14347   6.552   2.526   2.213
 4483SOL    HW114348   6.476   2.554   2.271
 4483SOL    HW214349   6.517   2.501   2.123
 4484SOL     OW14350   3.088   2.326   6.740
 4484SOL    HW114351   3.122   2.386   6.667
 4484SOL    HW214352   3.127   2.354   6.828
 4485SOL     OW14353   5.906   2.485   4.375
 4485SOL    HW114354   5.913   2.400   4.323
 4485SOL    HW214355   5.982   2.493   4.439
 4486SOL     OW14356   5.972   5.794   5.199
 4486SOL    HW114357   6.062   5.838   5.191
 4486SOL    HW214358   5.927   5.791   5.110
 4487SOL     OW14359   2.895   2.412   6.509
 4487SOL    HW114360   2.955   2.488   6.533
 4487SOL    HW214361   2.903   2.340   6.578
 4488SOL     OW14362   0.898   3.657   5.464
 4488SOL    HW114363   0.832   3.733   5.465
 4488SOL    HW214364   0.899   3.613   5.553
 4489SOL     OW14365   5.395   5.347   4.864
 4489SOL    HW114366   5.314   5.373   4.812
 4489SOL    HW214367   5.458   5.425   4.870
 4490SOL     OW14368   5.459   1.848   1.620
 4490SOL    HW114369   5.469   1.753   1.650
 4490SOL    HW214370   5.383   1.891   1.669
 4491SOL     OW14371   6.821   3.412   3.564
 4491SOL    HW114372   6.895   3.378   3.507
 4491SOL    HW214373   6.852   3.493   3.614
 4492SOL     OW14374   5.965   4.469   2.526
 4492SOL    HW114375   6.052   4.497   2.566
 4492SOL    HW214376   5.981   4.398   2.457
 4493SOL     OW14377   5.026   5.672   4.592
 4493SOL    HW114378   4.946   5.719   4.554
 4493SOL    HW214379   5.055   5.719   4.676
 4494SOL     OW14380   0.440   0.934   6.483
 4494SOL    HW114381   0.461   0.837   6.480
 4494SOL    HW214382   0.514   0.986   6.441
 4495SOL     OW14383   4.280   0.292   3.907
 4495SOL    HW114384   4.191   0.247   3.909
 4495SOL    HW214385   4.276   0.376   3.962
 4496SOL     OW14386   5.734   6.399   0.974
 4496SOL    HW114387   5.651   6.344   0.982
 4496SOL    HW214388   5.748   6.425   0.878
 4497SOL     OW14389   4.268   1.968   6.726
 4497SOL    HW114390   4.234   1.965   6.632
 4497SOL    HW214391   4.207   1.915   6.786
 4498SOL     OW14392   0.204   3.661   6.920
 4498SOL    HW114393   0.251   3.590   6.868
 4498SOL    HW214394   0.118   3.685   6.874
 4499SOL     OW14395   5.949   3.293   3.758
 4499SOL    HW114396   5.871   3.351   3.782
 4499SOL    HW214397   6.016   3.294   3.832
 4500SOL     OW14398   3.194   3.285   5.380
 4500SOL    HW114399   3.291   3.266   5.392
 4500SOL    HW214400   3.183   3.353   5.307
 4501SOL     OW14401   6.921   3.675   2.875
 4501SOL    HW114402   6.841   3.702   2.928
 4501SOL    HW214403   6.946   3.749   2.812
 4502SOL     OW14404   0.678   2.736   0.118
 4502SOL    HW114405   0.670   2.725   0.218
 4502SOL    HW214406   0.772   2.716   0.090
 4503SOL     OW14407   3.509   0.093   1.525
 4503SOL    HW114408   3.505   0.011   1.467
 4503SOL    HW214409   3.602   0.104   1.560
 4504SOL     OW14410   0.703   0.670   4.557
 4504SOL    HW114411   0.729   0.765   4.540
 4504SOL    HW214412   0.604   0.662   4.561
 4505SOL     OW14413   6.247   5.143   1.820
 4505SOL    HW114414   6.272   5.069   1.758
 4505SOL    HW214415   6.330   5.191   1.849
 4506SOL     OW14416   4.720   2.746   3.238
 4506SOL    HW114417   4.797   2.696   3.278
 4506SOL    HW214418   4.754   2.813   3.173
 4507SOL     OW14419   6.877   3.945   3.253
 4507SOL    HW114420   6.877   4.024   3.314
 4507SOL    HW214421   6.913   3.865   3.302
 4508SOL     OW14422   1.383   4.615   6.539
 4508SOL    HW114423   1.478   4.602   6.565
 4508SOL    HW214424   1.352   4.705   6.568
 4509SOL     OW14425   4.751   2.366   3.220
 4509SOL    HW114426   4.824   2.343   3.156
 4509SOL    HW214427   4.666   2.378   3.170
 4510SOL     OW14428   4.306   2.218   4.148
 4510SOL    HW114429   4.249   2.196   4.069
 4510SOL    HW214430   4.254   2.200   4.232
 4511SOL     OW14431   5.969   3.598   6.492
 4511SOL    HW114432   6.015   3.564   6.573
 4511SOL    HW214433   5.889   3.652   6.519
 4512SOL     OW14434   3.028   0.709   6.005
 4512SOL    HW114435   3.065   0.760   6.083
 4512SOL    HW214436   3.097   0.703   5.933
 4513SOL     OW14437   0.611   4.868   6.198
 4513SOL    HW114438   0.697   4.899   6.238
 4513SOL    HW214439   0.538   4.932   6.222
 4514SOL     OW14440   3.330   2.762   6.080
 4514SOL    HW114441   3.365   2.707   6.005
 4514SOL    HW214442   3.244   2.723   6.114
 4515SOL     OW14443   6.051   1.736   5.299
 4515SOL    HW114444   5.961   1.760   5.263
 4515SOL    HW214445   6.114   1.812   5.285
 4516SOL     OW14446   2.092   0.073   0.453
 4516SOL    HW114447   2.186   0.050   0.426
 4516SOL    HW214448   2.028   0.022   0.397
 4517SOL     OW14449   4.395   6.774   6.635
 4517SOL    HW114450   4.492   6.797   6.629
 4517SOL    HW214451   4.355   6.820   6.714
 4518SOL     OW14452   0.336   0.038   2.330
 4518SOL    HW114453   0.260   0.079   2.279
 4518SOL    HW214454   0.300   7.005   2.400
 4519SOL     OW14455   5.323   0.104   0.842
 4519SOL    HW114456   5.409   0.154   0.834
 4519SOL    HW214457   5.310   0.047   0.762
 4520SOL     OW14458   3.914   6.202   6.229
 4520SOL    HW114459   3.942   6.217   6.324
 4520SOL    HW214460   3.900   6.290   6.184
 4521SOL     OW14461   5.966   2.125   5.520
 4521SOL    HW114462   5.886   2.180   5.545
 4521SOL    HW214463   6.015   2.098   5.603
 4522SOL     OW14464   5.248   5.225   3.084
 4522SOL    HW114465   5.176   5.157   3.097
 4522SOL    HW214466   5.211   5.316   3.099
 4523SOL     OW14467   1.209   4.373   0.236
 4523SOL    HW114468   1.216   4.471   0.220
 4523SOL    HW214469   1.299   4.331   0.229
 4524SOL     OW14470   6.285   3.346   2.018
 4524SOL    HW114471   6.332   3.333   2.106
 4524SOL    HW214472   6.338   3.300   1.946
 4525SOL     OW14473   4.247   2.720   5.506
 4525SOL    HW114474   4.220   2.624   5.507
 4525SOL    HW214475   4.326   2.731   5.445
 4526SOL     OW14476   0.039   0.385   6.386
 4526SOL    HW114477   0.045   0.398   6.287
 4526SOL    HW214478   0.119   0.334   6.418
 4527SOL     OW14479   6.630   0.282   2.823
 4527SOL    HW114480   6.624   0.242   2.731
 4527SOL    HW214481   6.605   0.379   2.820
 4528SOL     OW14482   4.923   0.507   6.553
 4528SOL    HW114483   4.933   0.469   6.461
 4528SOL    HW214484   4.912   0.432   6.618
 4529SOL     OW14485   1.670   0.668   5.074
 4529SOL    HW114486   1.626   0.727   5.141
 4529SOL    HW214487   1.755   0.709   5.044
 4530SOL     OW14488   2.339   5.609   3.756
 4530SOL    HW114489   2.328   5.519   3.714
 4530SOL    HW214490   2.415   5.606   3.822
 4531SOL     OW14491   0.699   3.038   5.861
 4531SOL    HW114492   0.689   3.033   5.761
 4531SOL    HW214493   0.670   3.129   5.892
 4532SOL     OW14494   6.988   1.686   2.469
 4532SOL    HW114495   0.026   1.663   2.397
 4532SOL    HW214496   6.968   1.604   2.523
 4533SOL     OW14497   2.013   1.172   2.953
 4533SOL    HW114498   2.044   1.138   2.864
 4533SOL    HW214499   2.065   1.254   2.977
 4534SOL     OW14500   5.432   4.085   5.286
 4534SOL    HW114501   5.421   4.021   5.210
 4534SOL    HW214502   5.372   4.059   5.361
 4535SOL     OW14503   3.596   0.787   2.423
 4535SOL    HW114504   3.533   0.835   2.362
 4535SOL    HW214505   3.607   0.837   2.508
 4536SOL     OW14506   3.702   1.681   4.759
 4536SOL    HW114507   3.710   1.585   4.731
 4536SOL    HW214508   3.793   1.721   4.766
 4537SOL     OW14509   4.263   3.242   1.136
 4537SOL    HW114510   4.297   3.217   1.226
 4537SOL    HW214511   4.244   3.340   1.133
 4538SOL     OW14512   2.867   0.611   2.027
 4538SOL    HW114513   2.831   0.658   1.947
 4538SOL    HW214514   2.840   0.515   2.025
 4539SOL     OW14515   3.509   5.646   5.082
 4539SOL    HW114516   3.544   5.665   5.174
 4539SOL    HW214517   3.434   5.580   5.089
 4540SOL     OW14518   2.283   1.887   0.197
 4540SOL    HW114519   2.356   1.857   0.136
 4540SOL    HW214520   2.245   1.974   0.165
 4541SOL     OW14521   5.255   1.600   6.329
 4541SOL    HW114522   5.197   1.604   6.410
 4541SOL    HW214523   5.231   1.519   6.275
 4542SOL     OW14524   0.159   2.518   1.536
 4542SOL    HW114525   0.158   2.474   1.625
 4542SOL    HW214526   0.233   2.480   1.481
 4543SOL     OW14527   5.330   1.983   0.951
 4543SOL    HW114528   5.404   2.009   0.889
 4543SOL    HW214529   5.269   1.920   0.905
 4544SOL     OW14530   3.307   5.925   6.883
 4544SOL    HW114531   3.320   5.855   6.953
 4544SOL    HW214532   3.349   6.011   6.913
 4545SOL     OW14533   6.185   3.433   4.577
 4545SOL    HW114534   6.262   3.437   4.512
 4545SOL    HW214535   6.115   3.499   4.549
 4546SOL     OW14536   2.532   0.152   4.425
 4546SOL    HW114537   2.547   0.172   4.328
 4546SOL    HW214538   2.438   0.175   4.450
 4547SOL     OW14539   6.214   1.599   0.239
 4547SOL    HW114540   6.220   1.551   0.152
 4547SOL    HW214541   6.278   1.558   0.304
 4548SOL     OW14542   2.012   2.256   3.637
 4548SOL    HW114543   1.929   2.210   3.668
 4548SOL    HW214544   2.000   2.355   3.645
 4549SOL     OW14545   5.238   3.777   2.595
 4549SOL    HW114546   5.290   3.855   2.560
 4549SOL    HW214547   5.279   3.692   2.563
 4550SOL     OW14548   1.131   4.487   3.104
 4550SOL    HW114549   1.201   4.474   3.033
 4550SOL    HW214550   1.047   4.519   3.061
 4551SOL     OW14551   0.537   3.583   4.425
 4551SOL    HW114552   0.586   3.496   4.434
 4551SOL    HW214553   0.526   3.624   4.516
 4552SOL     OW14554   5.803   1.708   0.934
 4552SOL    HW114555   5.852   1.624   0.908
 4552SOL    HW214556   5.780   1.760   0.852
 4553SOL     OW14557   4.866   4.190   0.230
 4553SOL    HW114558   4.858   4.181   0.131
 4553SOL    HW214559   4.777   4.172   0.272
 4554SOL     OW14560   6.903   0.273   2.001
 4554SOL    HW114561   6.838   0.258   1.926
 4554SOL    HW214562   6.993   0.239   1.973
 4555SOL     OW14563   2.012   1.690   5.631
 4555SOL    HW114564   2.010   1.748   5.713
 4555SOL    HW214565   2.057   1.603   5.654
 4556SOL     OW14566   5.703   3.754   4.642
 4556SOL    HW114567   5.736   3.737   4.735
 4556SOL    HW214568   5.711   3.851   4.621
 4557SOL     OW14569   4.699   5.470   4.319
 4557SOL    HW114570   4.639   5.391   4.328
 4557SOL    HW214571   4.786   5.442   4.278
 4558SOL     OW14572   0.236   4.217   4.815
 4558SOL    HW114573   0.217   4.132   4.766
 4558SOL    HW214574   0.334   4.238   4.809
 4559SOL     OW14575   6.810   3.554   2.502
 4559SOL    HW114576   6.797   3.591   2.410
 4559SOL    HW214577   6.730   3.578   2.559
 4560SOL     OW14578   5.726   3.624   1.032
 4560SOL    HW114579   5.779   3.650   1.113
 4560SOL    HW214580   5.738   3.526   1.015
 4561SOL     OW14581   3.445   2.099   3.478
 4561SOL    HW114582   3.519   2.101   3.411
 4561SOL    HW214583   3.380   2.173   3.458
 4562SOL     OW14584   1.696   6.834   0.150
 4562SOL    HW114585   1.636   6.776   0.095
 4562SOL    HW214586   1.715   6.789   0.237
 4563SOL     OW14587   6.926   3.189   1.380
 4563SOL    HW114588   6.896   3.192   1.476
 4563SOL    HW214589   6.951   3.095   1.357
 4564SOL     OW14590   0.110   6.177   1.879
 4564SOL    HW114591   0.172   6.207   1.806
 4564SOL    HW214592   0.135   6.222   1.964
 4565SOL     OW14593   1.408   0.520   4.635
 4565SOL    HW114594   1.408   0.422   4.653
 4565SOL    HW214595   1.385   0.537   4.539
 4566SOL     OW14596   0.288   3.299   0.969
 4566SOL    HW114597   0.247   3.283   0.879
 4566SOL    HW214598   0.246   3.237   1.036
 4567SOL     OW14599   6.523   1.422   6.729
 4567SOL    HW114600   6.568   1.493   6.675
 4567SOL    HW214601   6.426   1.445   6.741
 4568SOL     OW14602   1.894   3.837   5.665
 4568SOL    HW114603   1.940   3.759   5.707
 4568SOL    HW214604   1.960   3.889   5.610
 4569SOL     OW14605   2.450   0.505   3.379
 4569SOL    HW114606   2.380   0.446   3.420
 4569SOL    HW214607   2.528   0.512   3.440
 4570SOL     OW14608   6.739   6.474   2.281
 4570SOL    HW114609   6.679   6.538   2.234
 4570SOL    HW214610   6.766   6.401   2.219
 4571SOL     OW14611   4.696   3.720   6.350
 4571SOL    HW114612   4.729   3.675   6.267
 4571SOL    HW214613   4.664   3.812   6.327
 4572SOL     OW14614   2.122   1.071   6.407
 4572SOL    HW114615   2.208   1.023   6.390
 4572SOL    HW214616   2.062   1.014   6.462
 4573SOL     OW14617   0.001   6.952   0.639
 4573SOL    HW114618   0.064   7.010   0.587
 4573SOL    HW214619   6.946   7.004   0.658
 4574SOL     OW14620   5.971   4.109   0.253
 4574SOL    HW114621   6.054   4.109   0.309
 4574SOL    HW214622   5.930   4.017   0.254
 4575SOL     OW14623   5.652   0.327   5.352
 4575SOL    HW114624   5.571   0.385   5.360
 4575SOL    HW214625   5.638   0.244   5.405
 4576SOL     OW14626   3.881   5.500   5.456
 4576SOL    HW114627   3.930   5.413   5.464
 4576SOL    HW214628   3.882   5.530   5.360
 4577SOL     OW14629   0.878   2.765   4.337
 4577SOL    HW114630   0.965   2.779   4.384
 4577SOL    HW214631   0.814   2.836   4.364
 4578SOL     OW14632   1.087   2.096   5.261
 4578SOL    HW114633   1.020   2.033   5.299
 4578SOL    HW214634   1.111   2.165   5.329
 4579SOL     OW14635   4.337   0.287   3.225
 4579SOL    HW114636   4.356   0.365   3.166
 4579SOL    HW214637   4.356   0.311   3.320
 4580SOL     OW14638   5.394   3.678   0.467
 4580SOL    HW114639   5.332   3.610   0.507
 4580SOL    HW214640   5.477   3.684   0.522
 4581SOL     OW14641   2.129   5.742   2.515
 4581SOL    HW114642   2.108   5.810   2.445
 4581SOL    HW214643   2.044   5.709   2.556
 4582SOL     OW14644   4.606   0.507   4.221
 4582SOL    HW114645   4.684   0.569   4.232
 4582SOL    HW214646   4.546   0.541   4.149
 4583SOL     OW14647   3.021   1.865   6.933
 4583SOL    HW114648   3.018   1.964   6.947
 4583SOL    HW214649   3.044   1.845   6.838
 4584SOL     OW14650   1.847   5.168   5.308
 4584SOL    HW114651   1.800   5.252   5.337
 4584SOL    HW214652   1.923   5.192   5.248
 4585SOL     OW14653   1.378   5.281   3.361
 4585SOL    HW114654   1.279   5.297   3.358
 4585SOL    HW214655   1.397   5.184   3.349
 4586SOL     OW14656   4.165   4.207   1.004
 4586SOL    HW114657   4.262   4.195   0.981
 4586SOL    HW214658   4.111   4.136   0.960
 4587SOL     OW14659   3.522   4.090   3.410
 4587SOL    HW114660   3.616   4.124   3.414
 4587SOL    HW214661   3.468   4.132   3.482
 4588SOL     OW14662   2.744   3.069   5.739
 4588SOL    HW114663   2.785   3.156   5.765
 4588SOL    HW214664   2.683   3.037   5.812
 4589SOL     OW14665   5.804   0.600   2.083
 4589SOL    HW114666   5.815   0.533   2.156
 4589SOL    HW214667   5.762   0.683   2.120
 4590SOL     OW14668   4.528   5.507   1.510
 4590SOL    HW114669   4.454   5.467   1.455
 4590SOL    HW214670   4.526   5.468   1.602
 4591SOL     OW14671   1.398   0.289   5.082
 4591SOL    HW114672   1.401   0.388   5.091
 4591SOL    HW214673   1.481   0.249   5.121
 4592SOL     OW14674   2.946   1.241   3.309
 4592SOL    HW114675   3.017   1.203   3.369
 4592SOL    HW214676   2.893   1.166   3.270
 4593SOL     OW14677   5.766   6.221   1.817
 4593SOL    HW114678   5.861   6.252   1.806
 4593SOL    HW214679   5.765   6.122   1.827
 4594SOL     OW14680   2.989   0.702   3.443
 4594SOL    HW114681   3.011   0.717   3.347
 4594SOL    HW214682   2.902   0.747   3.465
 4595SOL     OW14683   4.908   3.010   5.940
 4595SOL    HW114684   4.856   3.063   5.874
 4595SOL    HW214685   4.846   2.957   5.997
 4596SOL     OW14686   6.650   0.694   2.749
 4596SOL    HW114687   6.608   0.740   2.671
 4596SOL    HW214688   6.747   0.681   2.731
 4597SOL     OW14689   2.841   5.527   6.713
 4597SOL    HW114690   2.815   5.460   6.782
 4597SOL    HW214691   2.876   5.609   6.758
 4598SOL     OW14692   1.319   5.735   1.180
 4598SOL    HW114693   1.228   5.693   1.185
 4598SOL    HW214694   1.369   5.695   1.103
 4599SOL     OW14695   1.068   5.310   1.022
 4599SOL    HW114696   1.009   5.245   1.070
 4599SOL    HW214697   1.024   5.339   0.937
 4600SOL     OW14698   0.322   6.191   5.629
 4600SOL    HW114699   0.273   6.150   5.552
 4600SOL    HW214700   0.305   6.139   5.712
 4601SOL     OW14701   1.257   1.555   5.149
 4601SOL    HW114702   1.279   1.652   5.153
 4601SOL    HW214703   1.271   1.521   5.056
 4602SOL     OW14704   3.233   6.331   0.412
 4602SOL    HW114705   3.276   6.302   0.498
 4602SOL    HW214706   3.134   6.323   0.421
 4603SOL     OW14707   3.760   6.167   1.176
 4603SOL    HW114708   3.702   6.247   1.185
 4603SOL    HW214709   3.707   6.084   1.195
 4604SOL     OW14710   4.510   6.875   0.006
 4604SOL    HW114711   4.466   6.902   0.092
 4604SOL    HW214712   4.583   6.810   0.025
 4605SOL     OW14713   1.357   6.299   2.383
 4605SOL    HW114714   1.445   6.278   2.340
 4605SOL    HW214715   1.285   6.298   2.314
 4606SOL     OW14716   0.781   6.522   2.517
 4606SOL    HW114717   0.733   6.490   2.598
 4606SOL    HW214718   0.804   6.444   2.458
 4607SOL     OW14719   2.129   3.316   3.117
 4607SOL    HW114720   2.148   3.233   3.171
 4607SOL    HW214721   2.155   3.397   3.171
 4608SOL     OW14722   0.415   5.062   3.833
 4608SOL    HW114723   0.437   5.050   3.930
 4608SOL    HW214724   0.446   5.152   3.803
 4609SOL     OW14725   5.045   5.192   6.523
 4609SOL    HW114726   5.125   5.149   6.566
 4609SOL    HW214727   5.030   5.283   6.564
 4610SOL     OW14728   5.077   1.666   0.635
 4610SOL    HW114729   5.133   1.588   0.607
 4610SOL    HW214730   4.996   1.633   0.684
 4611SOL     OW14731   1.166   6.870   5.834
 4611SOL    HW114732   1.176   6.955   5.783
 4611SOL    HW214733   1.256   6.839   5.864
 4612SOL     OW14734   2.252   6.777   0.807
 4612SOL    HW114735   2.259   6.863   0.757
 4612SOL    HW214736   2.329   6.768   0.870
 4613SOL     OW14737   1.582   5.786   1.963
 4613SOL    HW114738   1.523   5.868   1.970
 4613SOL    HW214739   1.644   5.784   2.041
 4614SOL     OW14740   5.819   3.069   3.637
 4614SOL    HW114741   5.851   3.156   3.675
 4614SOL    HW214742   5.721   3.060   3.653
 4615SOL     OW14743   0.608   1.418   0.674
 4615SOL    HW114744   0.653   1.498   0.636
 4615SOL    HW214745   0.612   1.342   0.609
 4616SOL     OW14746   6.283   1.318   4.436
 4616SOL    HW114747   6.348   1.242   4.433
 4616SOL    HW214748   6.310   1.388   4.369
 4617SOL     OW14749   0.990   1.680   3.053
 4617SOL    HW114750   0.917   1.745   3.075
 4617SOL    HW214751   1.070   1.699   3.110
 4618SOL     OW14752   2.501   3.227   5.363
 4618SOL    HW114753   2.470   3.317   5.331
 4618SOL    HW214754   2.457   3.156   5.309
 4619SOL     OW14755   2.744   5.946   3.379
 4619SOL    HW114756   2.726   5.961   3.476
 4619SOL    HW214757   2.697   5.863   3.349
 4620SOL     OW14758   0.584   5.228   0.986
 4620SOL    HW114759   0.625   5.290   1.053
 4620SOL    HW214760   0.512   5.174   1.030
 4621SOL     OW14761   4.930   0.823   2.435
 4621SOL    HW114762   4.962   0.731   2.456
 4621SOL    HW214763   4.877   0.858   2.512
 4622SOL     OW14764   4.032   4.490   0.595
 4622SOL    HW114765   4.018   4.508   0.692
 4622SOL    HW214766   4.110   4.543   0.562
 4623SOL     OW14767   5.274   5.908   1.602
 4623SOL    HW114768   5.236   5.818   1.584
 4623SOL    HW214769   5.254   5.969   1.525
 4624SOL     OW14770   3.597   0.089   3.018
 4624SOL    HW114771   3.500   0.075   3.041
 4624SOL    HW214772   3.624   0.024   2.948
 4625SOL     OW14773   1.591   5.063   1.733
 4625SOL    HW114774   1.608   5.040   1.637
 4625SOL    HW214775   1.494   5.054   1.754
 4626SOL     OW14776   4.596   3.950   1.681
 4626SOL    HW114777   4.521   4.013   1.700
 4626SOL    HW214778   4.559   3.859   1.661
 4627SOL     OW14779   1.922   4.868   4.928
 4627SOL    HW114780   1.996   4.858   4.862
 4627SOL    HW214781   1.839   4.897   4.880
 4628SOL     OW14782   4.617   4.560   4.926
 4628SOL    HW114783   4.605   4.659   4.917
 4628SOL    HW214784   4.549   4.524   4.990
 4629SOL     OW14785   2.432   5.303   5.732
 4629SOL    HW114786   2.405   5.362   5.807
 4629SOL    HW214787   2.381   5.217   5.737
 4630SOL     OW14788   2.259   5.638   2.278
 4630SOL    HW114789   2.197   5.594   2.213
 4630SOL    HW214790   2.213   5.648   2.367
 4631SOL     OW14791   1.347   6.356   3.484
 4631SOL    HW114792   1.317   6.274   3.534
 4631SOL    HW214793   1.284   6.375   3.410
 4632SOL     OW14794   2.268   4.049   2.229
 4632SOL    HW114795   2.364   4.018   2.233
 4632SOL    HW214796   2.262   4.133   2.177
 4633SOL     OW14797   5.689   1.004   4.393
 4633SOL    HW114798   5.787   0.985   4.392
 4633SOL    HW214799   5.639   0.919   4.407
 4634SOL     OW14800   2.757   3.908   5.223
 4634SOL    HW114801   2.785   3.876   5.132
 4634SOL    HW214802   2.658   3.905   5.231
 4635SOL     OW14803   4.493   4.261   1.559
 4635SOL    HW114804   4.410   4.286   1.509
 4635SOL    HW214805   4.468   4.226   1.650
 4636SOL     OW14806   1.888   4.255   0.476
 4636SOL    HW114807   1.975   4.218   0.443
 4636SOL    HW214808   1.814   4.226   0.416
 4637SOL     OW14809   1.040   6.543   0.964
 4637SOL    HW114810   0.981   6.469   0.998
 4637SOL    HW214811   1.078   6.594   1.041
 4638SOL     OW14812   4.142   5.502   0.138
 4638SOL    HW114813   4.175   5.550   0.058
 4638SOL    HW214814   4.100   5.566   0.202
 4639SOL     OW14815   3.462   2.951   6.421
 4639SOL    HW114816   3.552   2.934   6.380
 4639SOL    HW214817   3.425   3.036   6.385
 4640SOL     OW14818   5.156   4.048   4.418
 4640SOL    HW114819   5.210   3.975   4.376
 4640SOL    HW214820   5.206   4.134   4.413
 4641SOL     OW14821   2.259   0.697   4.528
 4641SOL    HW114822   2.288   0.782   4.574
 4641SOL    HW214823   2.324   0.674   4.456
 4642SOL     OW14824   1.299   0.212   2.748
 4642SOL    HW114825   1.280   0.228   2.651
 4642SOL    HW214826   1.214   0.215   2.800
 4643SOL     OW14827   6.612   1.598   0.359
 4643SOL    HW114828   6.570   1.627   0.273
 4643SOL    HW214829   6.627   1.677   0.417
 4644SOL     OW14830   0.753   0.304   5.212
 4644SOL    HW114831   0.737   0.276   5.118
 4644SOL    HW214832   0.850   0.293   5.234
 4645SOL     OW14833   1.473   0.800   4.570
 4645SOL    HW114834   1.393   0.847   4.607
 4645SOL    HW214835   1.467   0.702   4.589
 4646SOL     OW14836   2.441   5.854   3.679
 4646SOL    HW114837   2.495   5.778   3.714
 4646SOL    HW214838   2.346   5.826   3.671
 4647SOL     OW14839   1.521   0.752   2.637
 4647SOL    HW114840   1.472   0.665   2.645
 4647SOL    HW214841   1.591   0.757   2.708
 4648SOL     OW14842   3.853   1.168   3.532
 4648SOL    HW114843   3.821   1.135   3.443
 4648SOL    HW214844   3.804   1.121   3.605
 4649SOL     OW14845   5.884   0.848   0.629
 4649SOL    HW114846   5.819   0.871   0.701
 4649SOL    HW214847   5.969   0.813   0.670
 4650SOL     OW14848   4.572   5.673   2.056
 4650SOL    HW114849   4.544   5.728   2.135
 4650SOL    HW214850   4.506   5.685   1.982
 4651SOL     OW14851   6.553   3.225   6.333
 4651SOL    HW114852   6.602   3.312   6.335
 4651SOL    HW214853   6.517   3.209   6.241
 4652SOL     OW14854   6.712   6.042   4.623
 4652SOL    HW114855   6.688   5.961   4.678
 4652SOL    HW214856   6.798   6.080   4.656
 4653SOL     OW14857   5.448   6.169   1.282
 4653SOL    HW114858   5.469   6.259   1.321
 4653SOL    HW214859   5.357   6.140   1.313
 4654SOL     OW14860   0.391   5.917   6.021
 4654SOL    HW114861   0.347   5.960   6.100
 4654SOL    HW214862   0.483   5.955   6.010
 4655SOL     OW14863   6.350   3.473   1.198
 4655SOL    HW114864   6.311   3.382   1.214
 4655SOL    HW214865   6.299   3.520   1.126
 4656SOL     OW14866   1.106   1.270   1.655
 4656SOL    HW114867   1.109   1.171   1.641
 4656SOL    HW214868   1.199   1.304   1.670
 4657SOL     OW14869   4.697   6.068   1.668
 4657SOL    HW114870   4.734   6.147   1.617
 4657SOL    HW214871   4.601   6.085   1.689
 4658SOL     OW14872   2.906   0.894   4.442
 4658SOL    HW114873   2.939   0.959   4.374
 4658SOL    HW214874   2.864   0.816   4.397
 4659SOL     OW14875   2.387   4.242   6.360
 4659SOL    HW114876   2.405   4.169   6.425
 4659SOL    HW214877   2.474   4.277   6.324
 4660SOL     OW14878   0.926   6.185   4.714
 4660SOL    HW114879   0.958   6.128   4.639
 4660SOL    HW214880   0.931   6.282   4.688
 4661SOL     OW14881   3.172   4.827   6.611
 4661SOL    HW114882   3.207   4.811   6.703
 4661SOL    HW214883   3.229   4.895   6.565
 4662SOL     OW14884   2.720   0.438   5.642
 4662SOL    HW114885   2.762   0.528   5.654
 4662SOL    HW214886   2.758   0.375   5.710
 4663SOL     OW14887   0.385   0.848   1.400
 4663SOL    HW114888   0.387   0.837   1.301
 4663SOL    HW214889   0.413   0.763   1.444
 4664SOL     OW14890   1.168   0.620   0.442
 4664SOL    HW114891   1.138   0.693   0.502
 4664SOL    HW214892   1.252   0.578   0.478
 4665SOL     OW14893   3.199   6.908   6.138
 4665SOL    HW114894   3.273   6.901   6.205
 4665SOL    HW214895   3.111   6.902   6.184
 4666SOL     OW14896   2.092   2.762   0.235
 4666SOL    HW114897   2.007   2.777   0.284
 4666SOL    HW214898   2.085   2.799   0.142
 4667SOL     OW14899   6.328   3.899   1.429
 4667SOL    HW114900   6.315   3.940   1.520
 4667SOL    HW214901   6.239   3.891   1.383
 4668SOL     OW14902   4.787   1.415   4.099
 4668SOL    HW114903   4.764   1.318   4.104
 4668SOL    HW214904   4.779   1.456   4.190
 4669SOL     OW14905   4.939   6.024   6.729
 4669SOL    HW114906   4.964   5.948   6.669
 4669SOL    HW214907   4.862   5.997   6.787
 4670SOL     OW14908   1.020   2.516   6.284
 4670SOL    HW114909   1.026   2.589   6.216
 4670SOL    HW214910   1.100   2.520   6.344
 4671SOL     OW14911   0.576   3.184   6.730
 4671SOL    HW114912   0.527   3.176   6.816
 4671SOL    HW214913   0.519   3.232   6.663
 4672SOL     OW14914   2.922   4.724   6.647
 4672SOL    HW114915   3.008   4.768   6.621
 4672SOL    HW214916   2.940   4.653   6.715
 4673SOL     OW14917   5.029   0.477   1.202
 4673SOL    HW114918   4.938   0.451   1.233
 4673SOL    HW214919   5.094   0.466   1.277
 4674SOL     OW14920   5.351   1.286   0.060
 4674SOL    HW114921   5.394   1.211   0.110
 4674SOL    HW214922   5.397   1.372   0.083
 4675SOL     OW14923   3.260   0.941   0.643
 4675SOL    HW114924   3.215   1.029   0.652
 4675SOL    HW214925   3.320   0.942   0.563
 4676SOL     OW14926   0.198   6.686   4.348
 4676SOL    HW114927   0.208   6.660   4.252
 4676SOL    HW214928   0.128   6.629   4.391
 4677SOL     OW14929   3.087   1.063   0.365
 4677SOL    HW114930   2.996   1.021   0.371
 4677SOL    HW214931   3.157   0.991   0.365
 4678SOL     OW14932   1.782   4.441   2.348
 4678SOL    HW114933   1.717   4.425   2.422
 4678SOL    HW214934   1.875   4.433   2.383
 4679SOL     OW14935   3.603   1.277   0.082
 4679SOL    HW114936   3.659   1.291   0.163
 4679SOL    HW214937   3.519   1.228   0.108
 4680SOL     OW14938   1.872   0.249   2.238
 4680SOL    HW114939   1.825   0.269   2.324
 4680SOL    HW214940   1.845   0.159   2.205
 4681SOL     OW14941   6.180   5.319   5.681
 4681SOL    HW114942   6.198   5.295   5.776
 4681SOL    HW214943   6.102   5.381   5.676
 4682SOL     OW14944   4.433   4.175   6.502
 4682SOL    HW114945   4.428   4.236   6.423
 4682SOL    HW214946   4.358   4.197   6.565
 4683SOL     OW14947   4.619   4.805   2.339
 4683SOL    HW114948   4.622   4.895   2.380
 4683SOL    HW214949   4.658   4.738   2.401
 4684SOL     OW14950   6.839   1.637   4.330
 4684SOL    HW114951   6.922   1.589   4.359
 4684SOL    HW214952   6.760   1.578   4.342
 4685SOL     OW14953   0.294   6.543   5.175
 4685SOL    HW114954   0.255   6.453   5.193
 4685SOL    HW214955   0.330   6.581   5.260
 4686SOL     OW14956   5.316   5.639   0.303
 4686SOL    HW114957   5.337   5.561   0.244
 4686SOL    HW214958   5.402   5.679   0.336
 4687SOL     OW14959   0.102   5.031   5.350
 4687SOL    HW114960   0.104   4.994   5.257
 4687SOL    HW214961   0.127   4.960   5.415
 4688SOL     OW14962   6.679   3.474   5.707
 4688SOL    HW114963   6.737   3.523   5.772
 4688SOL    HW214964   6.723   3.388   5.682
 4689SOL     OW14965   6.323   0.560   0.067
 4689SOL    HW114966   6.308   0.654   0.034
 4689SOL    HW214967   6.271   0.497   0.010
 4690SOL     OW14968   1.493   0.799   7.009
 4690SOL    HW114969   1.526   0.886   6.973
 4690SOL    HW214970   1.397   0.787   6.983
 4691SOL     OW14971   3.003   4.822   1.968
 4691SOL    HW114972   2.931   4.754   1.976
 4691SOL    HW214973   3.060   4.801   1.888
 4692SOL     OW14974   6.819   5.969   2.562
 4692SOL    HW114975   6.801   6.001   2.655
 4692SOL    HW214976   6.850   5.874   2.565
 4693SOL     OW14977   0.549   0.766   3.625
 4693SOL    HW114978   0.553   0.673   3.660
 4693SOL    HW214979   0.498   0.768   3.539
 4694SOL     OW14980   2.941   0.307   0.289
 4694SOL    HW114981   2.858   0.355   0.258
 4694SOL    HW214982   2.947   0.312   0.389
 4695SOL     OW14983   2.594   3.124   1.690
 4695SOL    HW114984   2.508   3.175   1.682
 4695SOL    HW214985   2.578   3.029   1.661
 4696SOL     OW14986   0.462   4.447   5.663
 4696SOL    HW114987   0.528   4.372   5.667
 4696SOL    HW214988   0.410   4.441   5.578
 4697SOL     OW14989   1.867   2.787   1.064
 4697SOL    HW114990   1.784   2.808   1.115
 4697SOL    HW214991   1.896   2.868   1.013
 4698SOL     OW14992   3.769   5.719   2.848
 4698SOL    HW114993   3.852   5.663   2.840
 4698SOL    HW214994   3.728   5.705   2.938
 4699SOL     OW14995   1.104   6.224   2.470
 4699SOL    HW114996   1.174   6.285   2.433
 4699SOL    HW214997   1.080   6.156   2.400
 4700SOL     OW14998   6.527   1.500   2.586
 4700SOL    HW114999   6.481   1.542   2.509
 4700SOL    HW215000   6.583   1.423   2.554
 4701SOL     OW15001   1.905   1.820   1.205
 4701SOL    HW115002   1.857   1.785   1.285
 4701SOL    HW215003   1.842   1.824   1.127
 4702SOL     OW15004   5.816   4.635   6.594
 4702SOL    HW115005   5.824   4.711   6.658
 4702SOL    HW215006   5.811   4.549   6.644
 4703SOL     OW15007   1.422   2.470   1.802
 4703SOL    HW115008   1.521   2.486   1.802
 4703SOL    HW215009   1.386   2.486   1.711
 4704SOL     OW15010   1.134   6.616   6.994
 4704SOL    HW115011   1.079   6.669   6.931
 4704SOL    HW215012   1.200   6.676   0.012
 4705SOL     OW15013   3.700   3.288   2.712
 4705SOL    HW115014   3.737   3.195   2.704
 4705SOL    HW215015   3.700   3.332   2.622
 4706SOL     OW15016   3.654   6.591   6.360
 4706SOL    HW115017   3.646   6.539   6.445
 4706SOL    HW215018   3.576   6.653   6.352
 4707SOL     OW15019   2.192   5.552   0.767
 4707SOL    HW115020   2.275   5.582   0.720
 4707SOL    HW215021   2.209   5.546   0.865
 4708SOL     OW15022   1.619   2.492   6.484
 4708SOL    HW115023   1.623   2.585   6.522
 4708SOL    HW215024   1.547   2.440   6.530
 4709SOL     OW15025   3.853   5.347   5.143
 4709SOL    HW115026   3.850   5.410   5.065
 4709SOL    HW215027   3.893   5.260   5.115
 4710SOL     OW15028   3.666   1.339   6.000
 4710SOL    HW115029   3.613   1.260   6.029
 4710SOL    HW215030   3.670   1.406   6.074
 4711SOL     OW15031   5.395   0.697   1.893
 4711SOL    HW115032   5.484   0.652   1.886
 4711SOL    HW215033   5.323   0.629   1.879
 4712SOL     OW15034   3.131   4.277   0.557
 4712SOL    HW115035   3.173   4.289   0.467
 4712SOL    HW215036   3.124   4.180   0.578
 4713SOL     OW15037   3.106   4.028   1.207
 4713SOL    HW115038   3.106   3.928   1.207
 4713SOL    HW215039   3.124   4.061   1.114
 4714SOL     OW15040   1.782   2.353   0.101
 4714SOL    HW115041   1.773   2.442   0.056
 4714SOL    HW215042   1.693   2.308   0.103
 4715SOL     OW15043   6.588   3.368   1.634
 4715SOL    HW115044   6.518   3.435   1.656
 4715SOL    HW215045   6.578   3.339   1.539
 4716SOL     OW15046   4.301   6.089   6.410
 4716SOL    HW115047   4.244   6.107   6.490
 4716SOL    HW215048   4.272   6.004   6.366
 4717SOL     OW15049   0.177   6.566   3.651
 4717SOL    HW115050   0.158   6.557   3.553
 4717SOL    HW215051   0.090   6.574   3.701
 4718SOL     OW15052   5.479   2.203   6.787
 4718SOL    HW115053   5.399   2.196   6.847
 4718SOL    HW215054   5.465   2.277   6.721
 4719SOL     OW15055   5.228   3.320   2.524
 4719SOL    HW115056   5.249   3.244   2.585
 4719SOL    HW215057   5.195   3.286   2.437
 4720SOL     OW15058   2.006   5.957   5.692
 4720SOL    HW115059   1.982   5.885   5.626
 4720SOL    HW215060   2.013   6.044   5.644
 4721SOL     OW15061   6.895   2.540   1.081
 4721SOL    HW115062   6.933   2.622   1.039
 4721SOL    HW215063   6.868   2.475   1.010
 4722SOL     OW15064   1.072   5.663   6.662
 4722SOL    HW115065   0.997   5.608   6.625
 4722SOL    HW215066   1.038   5.755   6.683
 4723SOL     OW15067   2.387   4.838   6.235
 4723SOL    HW115068   2.364   4.845   6.138
 4723SOL    HW215069   2.424   4.925   6.267
 4724SOL     OW15070   5.143   5.910   2.803
 4724SOL    HW115071   5.113   5.964   2.723
 4724SOL    HW215072   5.071   5.912   2.872
 4725SOL     OW15073   6.548   6.638   2.181
 4725SOL    HW115074   6.590   6.722   2.217
 4725SOL    HW215075   6.478   6.607   2.245
 4726SOL     OW15076   1.984   3.198   6.562
 4726SOL    HW115077   1.999   3.128   6.492
 4726SOL    HW215078   1.888   3.198   6.590
 4727SOL     OW15079   0.215   6.523   6.525
 4727SOL    HW115080   0.301   6.519   6.576
 4727SOL    HW215081   0.216   6.601   6.463
 4728SOL     OW15082   5.100   0.703   0.301
 4728SOL    HW115083   5.188   0.676   0.262
 4728SOL    HW215084   5.116   0.757   0.385
 4729SOL     OW15085   2.529   1.428   1.776
 4729SOL    HW115086   2.556   1.434   1.680
 4729SOL    HW215087   2.437   1.465   1.788
 4730SOL     OW15088   2.583   5.562   5.355
 4730SOL    HW115089   2.578   5.622   5.275
 4730SOL    HW215090   2.637   5.606   5.427
 4731SOL     OW15091   4.307   6.968   6.003
 4731SOL    HW115092   4.277   0.026   6.042
 4731SOL    HW215093   4.385   6.933   6.055
 4732SOL     OW15094   0.108   3.838   5.680
 4732SOL    HW115095   0.074   3.901   5.611
 4732SOL    HW215096   0.205   3.856   5.697
 4733SOL     OW15097   1.485   4.269   3.465
 4733SOL    HW115098   1.551   4.201   3.497
 4733SOL    HW215099   1.417   4.286   3.536
 4734SOL     OW15100   5.026   2.924   6.747
 4734SOL    HW115101   5.069   2.892   6.831
 4734SOL    HW215102   5.000   2.846   6.690
 4735SOL     OW15103   0.904   5.594   4.375
 4735SOL    HW115104   0.820   5.582   4.427
 4735SOL    HW215105   0.975   5.532   4.410
 4736SOL     OW15106   0.253   1.766   6.253
 4736SOL    HW115107   0.316   1.775   6.176
 4736SOL    HW215108   0.269   1.841   6.318
 4737SOL     OW15109   0.977   5.099   2.353
 4737SOL    HW115110   0.961   5.141   2.442
 4737SOL    HW215111   0.969   5.000   2.361
 4738SOL     OW15112   0.104   5.516   2.572
 4738SOL    HW115113   0.021   5.566   2.595
 4738SOL    HW215114   0.181   5.555   2.623
 4739SOL     OW15115   4.956   6.704   3.396
 4739SOL    HW115116   4.930   6.674   3.304
 4739SOL    HW215117   4.893   6.664   3.463
 4740SOL     OW15118   0.251   1.601   1.028
 4740SOL    HW115119   0.183   1.528   1.016
 4740SOL    HW215120   0.299   1.587   1.114
 4741SOL     OW15121   3.376   2.841   1.133
 4741SOL    HW115122   3.353   2.795   1.218
 4741SOL    HW215123   3.301   2.901   1.105
 4742SOL     OW15124   2.311   6.264   5.226
 4742SOL    HW115125   2.314   6.184   5.166
 4742SOL    HW215126   2.215   6.285   5.248
 4743SOL     OW15127   2.237   4.068   2.708
 4743SOL    HW115128   2.162   4.002   2.708
 4743SOL    HW215129   2.245   4.110   2.617
 4744SOL     OW15130   1.799   5.080   0.947
 4744SOL    HW115131   1.809   5.085   0.848
 4744SOL    HW215132   1.868   5.139   0.990
 4745SOL     OW15133   2.947   4.328   6.658
 4745SOL    HW115134   2.995   4.240   6.664
 4745SOL    HW215135   2.927   4.348   6.562
 4746SOL     OW15136   4.521   6.576   3.711
 4746SOL    HW115137   4.536   6.659   3.766
 4746SOL    HW215138   4.582   6.504   3.744
 4747SOL     OW15139   0.991   3.766   0.656
 4747SOL    HW115140   1.059   3.707   0.700
 4747SOL    HW215141   1.028   3.858   0.648
 4748SOL     OW15142   1.800   5.893   1.215
 4748SOL    HW115143   1.747   5.816   1.250
 4748SOL    HW215144   1.842   5.942   1.291
 4749SOL     OW15145   2.008   6.527   6.394
 4749SOL    HW115146   2.089   6.585   6.386
 4749SOL    HW215147   1.945   6.548   6.319
 4750SOL     OW15148   6.801   3.335   5.223
 4750SOL    HW115149   6.797   3.380   5.134
 4750SOL    HW215150   6.886   3.360   5.270
 4751SOL     OW15151   4.541   2.476   2.853
 4751SOL    HW115152   4.593   2.561   2.851
 4751SOL    HW215153   4.490   2.465   2.768
 4752SOL     OW15154   4.318   1.151   0.201
 4752SOL    HW115155   4.376   1.231   0.191
 4752SOL    HW215156   4.356   1.075   0.149
 4753SOL     OW15157   0.644   0.368   4.097
 4753SOL    HW115158   0.673   0.463   4.090
 4753SOL    HW215159   0.562   0.353   4.041
 4754SOL     OW15160   5.234   3.882   4.757
 4754SOL    HW115161   5.234   3.837   4.846
 4754SOL    HW215162   5.322   3.866   4.711
 4755SOL     OW15163   3.144   1.207   0.610
 4755SOL    HW115164   3.161   1.296   0.567
 4755SOL    HW215165   3.118   1.141   0.539
 4756SOL     OW15166   5.613   3.759   5.464
 4756SOL    HW115167   5.597   3.711   5.377
 4756SOL    HW215168   5.701   3.807   5.459
 4757SOL     OW15169   2.552   1.900   1.236
 4757SOL    HW115170   2.510   1.986   1.265
 4757SOL    HW215171   2.483   1.828   1.236
 4758SOL     OW15172   1.661   6.486   3.073
 4758SOL    HW115173   1.698   6.399   3.039
 4758SOL    HW215174   1.737   6.549   3.090
 4759SOL     OW15175   0.877   4.742   6.417
 4759SOL    HW115176   0.867   4.830   6.371
 4759SOL    HW215177   0.919   4.756   6.507
 4760SOL     OW15178   2.679   1.727   0.546
 4760SOL    HW115179   2.637   1.748   0.458
 4760SOL    HW215180   2.612   1.745   0.619
 4761SOL     OW15181   1.271   0.340   0.738
 4761SOL    HW115182   1.252   0.356   0.835
 4761SOL    HW215183   1.198   0.284   0.698
 4762SOL     OW15184   1.229   5.948   2.673
 4762SOL    HW115185   1.280   5.875   2.718
 4762SOL    HW215186   1.256   5.954   2.577
 4763SOL     OW15187   5.349   0.505   2.621
 4763SOL    HW115188   5.359   0.517   2.522
 4763SOL    HW215189   5.310   0.587   2.661
 4764SOL     OW15190   4.486   3.693   5.371
 4764SOL    HW115191   4.522   3.643   5.292
 4764SOL    HW215192   4.459   3.785   5.343
 4765SOL     OW15193   3.513   0.615   5.542
 4765SOL    HW115194   3.471   0.652   5.459
 4765SOL    HW215195   3.471   0.657   5.622
 4766SOL     OW15196   6.208   6.172   4.227
 4766SOL    HW115197   6.186   6.270   4.223
 4766SOL    HW215198   6.126   6.120   4.251
 4767SOL     OW15199   3.445   4.863   5.285
 4767SOL    HW115200   3.356   4.841   5.326
 4767SOL    HW215201   3.517   4.815   5.335
 4768SOL     OW15202   3.715   2.629   6.000
 4768SOL    HW115203   3.686   2.609   6.094
 4768SOL    HW215204   3.813   2.613   5.991
 4769SOL     OW15205   4.554   5.986   0.628
 4769SOL    HW115206   4.540   6.054   0.701
 4769SOL    HW215207   4.536   5.895   0.664
 4770SOL     OW15208   0.383   2.124   4.409
 4770SOL    HW115209   0.448   2.049   4.419
 4770SOL    HW215210   0.423   2.196   4.353
 4771SOL     OW15211   3.091   6.730   6.440
 4771SOL    HW115212   3.185   6.699   6.430
 4771SOL    HW215213   3.048   6.683   6.517
 4772SOL     OW15214   3.701   4.700   0.661
 4772SOL    HW115215   3.636   4.768   0.628
 4772SOL    HW215216   3.704   4.702   0.761
 4773SOL     OW15217   0.454   5.617   5.375
 4773SOL    HW115218   0.473   5.616   5.473
 4773SOL    HW215219   0.385   5.686   5.355
 4774SOL     OW15220   1.654   4.127   1.295
 4774SOL    HW115221   1.679   4.039   1.254
 4774SOL    HW215222   1.629   4.113   1.390
 4775SOL     OW15223   4.781   6.554   3.537
 4775SOL    HW115224   4.752   6.489   3.607
 4775SOL    HW215225   4.772   6.513   3.447
 4776SOL     OW15226   0.767   1.103   5.328
 4776SOL    HW115227   0.730   1.119   5.236
 4776SOL    HW215228   0.810   1.186   5.362
 4777SOL     OW15229   1.847   5.579   0.972
 4777SOL    HW115230   1.780   5.614   1.038
 4777SOL    HW215231   1.934   5.625   0.985
 4778SOL     OW15232   0.064   2.500   4.649
 4778SOL    HW115233   0.150   2.545   4.673
 4778SOL    HW215234   0.054   2.417   4.703
 4779SOL     OW15235   5.615   6.992   3.586
 4779SOL    HW115236   5.701   7.001   3.636
 4779SOL    HW215237   5.586   6.896   3.588
 4780SOL     OW15238   5.771   2.517   6.874
 4780SOL    HW115239   5.695   2.502   6.810
 4780SOL    HW215240   5.855   2.530   6.822
 4781SOL     OW15241   2.843   5.417   1.981
 4781SOL    HW115242   2.835   5.408   1.882
 4781SOL    HW215243   2.777   5.357   2.026
 4782SOL     OW15244   5.815   5.784   6.505
 4782SOL    HW115245   5.891   5.719   6.505
 4782SOL    HW215246   5.759   5.771   6.424
 4783SOL     OW15247   5.482   3.514   6.850
 4783SOL    HW115248   5.541   3.506   6.770
 4783SOL    HW215249   5.528   3.475   6.929
 4784SOL     OW15250   6.222   2.256   6.322
 4784SOL    HW115251   6.147   2.193   6.340
 4784SOL    HW215252   6.191   2.328   6.259
 4785SOL     OW15253   0.186   6.272   3.100
 4785SOL    HW115254   0.096   6.312   3.082
 4785SOL    HW215255   0.174   6.190   3.157
 4786SOL     OW15256   2.507   6.817   0.408
 4786SOL    HW115257   2.464   6.727   0.400
 4786SOL    HW215258   2.599   6.814   0.369
 4787SOL     OW15259   3.810   1.835   3.261
 4787SOL    HW115260   3.814   1.931   3.233
 4787SOL    HW215261   3.716   1.802   3.254
 4788SOL     OW15262   6.713   5.735   0.542
 4788SOL    HW115263   6.706   5.822   0.591
 4788SOL    HW215264   6.764   5.669   0.597
 4789SOL     OW15265   4.905   1.911   1.459
 4789SOL    HW115266   4.916   1.945   1.552
 4789SOL    HW215267   4.986   1.934   1.405
 4790SOL     OW15268   5.819   1.868   5.856
 4790SOL    HW115269   5.859   1.802   5.792
 4790SOL    HW215270   5.877   1.950   5.860
 4791SOL     OW15271   0.070   2.955   1.807
 4791SOL    HW115272   0.020   2.878   1.769
 4791SOL    HW215273   0.061   2.955   1.907
 4792SOL     OW15274   2.470   4.468   4.559
 4792SOL    HW115275   2.444   4.384   4.609
 4792SOL    HW215276   2.466   4.450   4.461
 4793SOL     OW15277   1.911   3.826   5.179
 4793SOL    HW115278   1.837   3.812   5.245
 4793SOL    HW215279   1.903   3.917   5.139
 4794SOL     OW15280   4.286   6.781   4.502
 4794SOL    HW115281   4.197   6.808   4.540
 4794SOL    HW215282   4.325   6.708   4.558
 4795SOL     OW15283   6.438   1.408   4.227
 4795SOL    HW115284   6.506   1.402   4.154
 4795SOL    HW215285   6.476   1.461   4.303
 4796SOL     OW15286   4.263   0.408   6.151
 4796SOL    HW115287   4.240   0.321   6.107
 4796SOL    HW215288   4.187   0.436   6.210
 4797SOL     OW15289   0.625   6.392   4.652
 4797SOL    HW115290   0.549   6.344   4.695
 4797SOL    HW215291   0.688   6.424   4.723
 4798SOL     OW15292   6.226   4.781   5.474
 4798SOL    HW115293   6.172   4.857   5.508
 4798SOL    HW215294   6.272   4.808   5.389
 4799SOL     OW15295   4.433   1.389   0.792
 4799SOL    HW115296   4.416   1.482   0.760
 4799SOL    HW215297   4.347   1.337   0.792
 4800SOL     OW15298   1.940   3.995   6.815
 4800SOL    HW115299   1.979   3.955   6.898
 4800SOL    HW215300   1.963   4.092   6.810
 4801SOL     OW15301   3.103   2.606   6.579
 4801SOL    HW115302   3.126   2.674   6.509
 4801SOL    HW215303   3.113   2.647   6.670
 4802SOL     OW15304   0.369   6.557   1.708
 4802SOL    HW115305   0.275   6.588   1.702
 4802SOL    HW215306   0.417   6.579   1.623
 4803SOL     OW15307   6.950   4.408   0.978
 4803SOL    HW115308   6.880   4.349   0.938
 4803SOL    HW215309   6.937   4.413   1.077
 4804SOL     OW15310   6.899   6.860   1.317
 4804SOL    HW115311   6.825   6.842   1.383
 4804SOL    HW215312   6.925   6.774   1.273
 4805SOL     OW15313   6.449   1.401   2.230
 4805SOL    HW115314   6.545   1.421   2.246
 4805SOL    HW215315   6.409   1.471   2.170
 4806SOL     OW15316   0.992   3.647   2.757
 4806SOL    HW115317   0.976   3.726   2.817
 4806SOL    HW215318   0.943   3.661   2.671
 4807SOL     OW15319   0.852   4.175   6.117
 4807SOL    HW115320   0.907   4.257   6.136
 4807SOL    HW215321   0.815   4.140   6.202
 4808SOL     OW15322   4.105   5.345   1.071
 4808SOL    HW115323   4.064   5.351   0.980
 4808SOL    HW215324   4.204   5.354   1.064
 4809SOL     OW15325   3.886   4.981   1.253
 4809SOL    HW115326   3.871   4.998   1.351
 4809SOL    HW215327   3.968   4.925   1.242
 4810SOL     OW15328   1.869   4.319   3.213
 4810SOL    HW115329   1.900   4.326   3.119
 4810SOL    HW215330   1.937   4.360   3.274
 4811SOL     OW15331   3.691   3.751   2.974
 4811SOL    HW115332   3.649   3.748   2.883
 4811SOL    HW215333   3.778   3.801   2.969
 4812SOL     OW15334   0.348   0.626   2.526
 4812SOL    HW115335   0.263   0.617   2.473
 4812SOL    HW215336   0.413   0.556   2.496
 4813SOL     OW15337   5.793   1.474   6.484
 4813SOL    HW115338   5.830   1.456   6.394
 4813SOL    HW215339   5.730   1.552   6.480
 4814SOL     OW15340   6.977   3.356   1.787
 4814SOL    HW115341   0.038   3.328   1.820
 4814SOL    HW215342   6.933   3.280   1.739
 4815SOL     OW15343   5.481   4.377   2.963
 4815SOL    HW115344   5.406   4.401   3.025
 4815SOL    HW215345   5.559   4.346   3.017
 4816SOL     OW15346   2.165   5.383   1.437
 4816SOL    HW115347   2.247   5.433   1.466
 4816SOL    HW215348   2.123   5.339   1.517
 4817SOL     OW15349   2.934   0.929   1.484
 4817SOL    HW115350   3.020   0.960   1.525
 4817SOL    HW215351   2.867   0.915   1.557
 4818SOL     OW15352   0.848   1.139   4.115
 4818SOL    HW115353   0.779   1.083   4.070
 4818SOL    HW215354   0.930   1.084   4.131
 4819SOL     OW15355   2.716   2.472   1.486
 4819SOL    HW115356   2.762   2.414   1.554
 4819SOL    HW215357   2.707   2.565   1.522
 4820SOL     OW15358   6.646   2.105   0.248
 4820SOL    HW115359   6.591   2.100   0.165
 4820SOL    HW215360   6.699   2.021   0.258
 4821SOL     OW15361   6.922   0.081   1.184
 4821SOL    HW115362   6.913   7.019   1.225
 4821SOL    HW215363   6.904   0.151   1.253
 4822SOL     OW15364   1.847   2.774   3.495
 4822SOL    HW115365   1.910   2.746   3.423
 4822SOL    HW215366   1.830   2.873   3.489
 4823SOL     OW15367   0.657   1.620   4.015
 4823SOL    HW115368   0.640   1.525   4.042
 4823SOL    HW215369   0.713   1.621   3.932
 4824SOL     OW15370   5.620   1.829   4.000
 4824SOL    HW115371   5.522   1.810   3.990
 4824SOL    HW215372   5.662   1.758   4.056
 4825SOL     OW15373   2.136   2.664   4.225
 4825SOL    HW115374   2.210   2.732   4.227
 4825SOL    HW215375   2.173   2.575   4.201
 4826SOL     OW15376   0.551   0.510   6.602
 4826SOL    HW115377   0.595   0.459   6.676
 4826SOL    HW215378   0.477   0.566   6.640
 4827SOL     OW15379   5.948   1.185   1.620
 4827SOL    HW115380   5.947   1.147   1.527
 4827SOL    HW215381   5.856   1.218   1.643
 4828SOL     OW15382   5.599   3.090   0.985
 4828SOL    HW115383   5.669   3.080   0.914
 4828SOL    HW215384   5.527   3.022   0.970
 4829SOL     OW15385   4.024   6.578   6.778
 4829SOL    HW115386   4.057   6.612   6.866
 4829SOL    HW215387   3.954   6.639   6.742
 4830SOL     OW15388   5.224   5.972   3.904
 4830SOL    HW115389   5.320   6.001   3.897
 4830SOL    HW215390   5.218   5.889   3.958
 4831SOL     OW15391   6.823   5.360   5.927
 4831SOL    HW115392   6.822   5.271   5.974
 4831SOL    HW215393   6.904   5.411   5.955
 4832SOL     OW15394   2.656   2.627   5.657
 4832SOL    HW115395   2.620   2.564   5.587
 4832SOL    HW215396   2.754   2.641   5.642
 4833SOL     OW15397   5.001   1.148   3.062
 4833SOL    HW115398   5.090   1.120   3.027
 4833SOL    HW215399   4.971   1.231   3.014
 4834SOL     OW15400   3.738   0.570   0.572
 4834SOL    HW115401   3.728   0.632   0.649
 4834SOL    HW215402   3.671   0.496   0.579
 4835SOL     OW15403   1.141   1.259   6.520
 4835SOL    HW115404   1.151   1.160   6.511
 4835SOL    HW215405   1.120   1.299   6.431
 4836SOL     OW15406   4.905   3.300   3.321
 4836SOL    HW115407   4.859   3.214   3.344
 4836SOL    HW215408   4.913   3.356   3.404
 4837SOL     OW15409   4.678   3.449   1.548
 4837SOL    HW115410   4.766   3.495   1.543
 4837SOL    HW215411   4.673   3.395   1.632
 4838SOL     OW15412   1.816   4.985   1.880
 4838SOL    HW115413   1.862   4.905   1.843
 4838SOL    HW215414   1.751   5.021   1.813
 4839SOL     OW15415   1.641   3.786   5.587
 4839SOL    HW115416   1.566   3.830   5.637
 4839SOL    HW215417   1.728   3.826   5.614
 4840SOL     OW15418   0.833   6.718   5.411
 4840SOL    HW115419   0.918   6.768   5.395
 4840SOL    HW215420   0.765   6.780   5.450
 4841SOL     OW15421   2.764   6.011   1.669
 4841SOL    HW115422   2.786   5.993   1.573
 4841SOL    HW215423   2.680   5.963   1.695
 4842SOL     OW15424   3.303   4.803   1.805
 4842SOL    HW115425   3.267   4.867   1.873
 4842SOL    HW215426   3.387   4.761   1.840
 4843SOL     OW15427   5.899   3.723   0.497
 4843SOL    HW115428   5.923   3.628   0.518
 4843SOL    HW215429   5.920   3.742   0.401
 4844SOL     OW15430   6.444   3.473   5.871
 4844SOL    HW115431   6.505   3.472   5.792
 4844SOL    HW215432   6.496   3.490   5.954
 4845SOL     OW15433   6.765   5.656   4.536
 4845SOL    HW115434   6.724   5.722   4.599
 4845SOL    HW215435   6.693   5.608   4.486
 4846SOL     OW15436   6.648   3.243   3.162
 4846SOL    HW115437   6.587   3.236   3.084
 4846SOL    HW215438   6.677   3.338   3.173
 4847SOL     OW15439   3.413   1.295   5.763
 4847SOL    HW115440   3.464   1.319   5.680
 4847SOL    HW215441   3.401   1.377   5.820
 4848SOL     OW15442   1.505   0.996   3.532
 4848SOL    HW115443   1.431   0.930   3.518
 4848SOL    HW215444   1.478   1.061   3.603
 4849SOL     OW15445   1.135   6.427   5.946
 4849SOL    HW115446   1.106   6.331   5.944
 4849SOL    HW215447   1.080   6.480   5.882
 4850SOL     OW15448   4.014   1.463   2.593
 4850SOL    HW115449   4.040   1.558   2.612
 4850SOL    HW215450   3.918   1.450   2.617
 4851SOL     OW15451   3.709   6.059   5.196
 4851SOL    HW115452   3.746   6.021   5.281
 4851SOL    HW215453   3.783   6.103   5.144
 4852SOL     OW15454   0.565   0.454   5.354
 4852SOL    HW115455   0.619   0.385   5.305
 4852SOL    HW215456   0.523   0.413   5.435
 4853SOL     OW15457   3.245   1.013   3.206
 4853SOL    HW115458   3.294   0.943   3.258
 4853SOL    HW215459   3.204   0.971   3.125
 4854SOL     OW15460   5.147   0.102   2.464
 4854SOL    HW115461   5.068   0.048   2.493
 4854SOL    HW215462   5.143   0.192   2.508
 4855SOL     OW15463   5.769   2.651   2.212
 4855SOL    HW115464   5.786   2.749   2.203
 4855SOL    HW215465   5.722   2.634   2.299
 4856SOL     OW15466   1.911   4.032   2.312
 4856SOL    HW115467   1.969   4.008   2.234
 4856SOL    HW215468   1.915   3.959   2.380
 4857SOL     OW15469   2.146   2.979   5.910
 4857SOL    HW115470   2.198   2.894   5.912
 4857SOL    HW215471   2.155   3.022   5.820
 4858SOL     OW15472   1.021   1.499   4.648
 4858SOL    HW115473   0.965   1.489   4.729
 4858SOL    HW215474   1.052   1.409   4.616
 4859SOL     OW15475   1.615   0.733   4.268
 4859SOL    HW115476   1.694   0.672   4.269
 4859SOL    HW215477   1.592   0.760   4.362
 4860SOL     OW15478   3.871   4.874   1.951
 4860SOL    HW115479   3.778   4.850   1.979
 4860SOL    HW215480   3.911   4.799   1.899
 4861SOL     OW15481   5.198   5.077   0.317
 4861SOL    HW115482   5.150   5.027   0.245
 4861SOL    HW215483   5.294   5.047   0.320
 4862SOL     OW15484   3.057   4.844   5.098
 4862SOL    HW115485   3.085   4.850   5.194
 4862SOL    HW215486   3.014   4.756   5.081
 4863SOL     OW15487   5.867   4.192   1.942
 4863SOL    HW115488   5.880   4.202   1.843
 4863SOL    HW215489   5.874   4.095   1.967
 4864SOL     OW15490   4.078   1.179   3.651
 4864SOL    HW115491   3.994   1.172   3.599
 4864SOL    HW215492   4.062   1.149   3.745
 4865SOL     OW15493   2.417   0.467   5.747
 4865SOL    HW115494   2.487   0.469   5.676
 4865SOL    HW215495   2.348   0.538   5.728
 4866SOL     OW15496   0.120   2.258   0.633
 4866SOL    HW115497   0.136   2.333   0.569
 4866SOL    HW215498   0.063   2.291   0.708
 4867SOL     OW15499   3.965   4.982   3.218
 4867SOL    HW115500   4.002   5.074   3.237
 4867SOL    HW215501   3.977   4.924   3.298
 4868SOL     OW15502   6.743   5.141   2.716
 4868SOL    HW115503   6.834   5.179   2.732
 4868SOL    HW215504   6.675   5.214   2.725
 4869SOL     OW15505   1.322   1.646   2.329
 4869SOL    HW115506   1.320   1.734   2.375
 4869SOL    HW215507   1.246   1.590   2.362
 4870SOL     OW15508   0.651   6.223   1.784
 4870SOL    HW115509   0.617   6.311   1.818
 4870SOL    HW215510   0.656   6.225   1.684
 4871SOL     OW15511   1.624   0.726   3.840
 4871SOL    HW115512   1.656   0.735   3.745
 4871SOL    HW215513   1.525   0.730   3.842
 4872SOL     OW15514   6.480   0.168   3.739
 4872SOL    HW115515   6.391   0.210   3.719
 4872SOL    HW215516   6.530   0.155   3.653
 4873SOL     OW15517   6.651   5.247   4.140
 4873SOL    HW115518   6.580   5.301   4.186
 4873SOL    HW215519   6.609   5.195   4.065
 4874SOL     OW15520   6.001   3.936   2.024
 4874SOL    HW115521   5.923   3.905   2.078
 4874SOL    HW215522   6.010   3.879   1.943
 4875SOL     OW15523   5.834   1.753   0.548
 4875SOL    HW115524   5.917   1.727   0.499
 4875SOL    HW215525   5.797   1.674   0.597
 4876SOL     OW15526   6.124   2.094   2.736
 4876SOL    HW115527   6.112   2.191   2.759
 4876SOL    HW215528   6.036   2.056   2.707
 4877SOL     OW15529   1.466   2.104   5.704
 4877SOL    HW115530   1.495   2.082   5.797
 4877SOL    HW215531   1.520   2.050   5.639
 4878SOL     OW15532   6.120   0.865   1.827
 4878SOL    HW115533   6.095   0.948   1.877
 4878SOL    HW215534   6.115   0.787   1.889
 4879SOL     OW15535   4.709   1.776   2.962
 4879SOL    HW115536   4.636   1.754   3.027
 4879SOL    HW215537   4.705   1.712   2.885
 4880SOL     OW15538   5.295   3.130   0.169
 4880SOL    HW115539   5.251   3.219   0.158
 4880SOL    HW215540   5.235   3.059   0.134
 4881SOL     OW15541   1.547   1.018   6.861
 4881SOL    HW115542   1.554   1.104   6.911
 4881SOL    HW215543   1.546   1.036   6.763
 4882SOL     OW15544   4.830   0.537   4.641
 4882SOL    HW115545   4.801   0.443   4.627
 4882SOL    HW215546   4.817   0.590   4.557
 4883SOL     OW15547   4.989   4.944   1.547
 4883SOL    HW115548   5.020   4.862   1.498
 4883SOL    HW215549   4.902   4.975   1.507
 4884SOL     OW15550   3.127   6.145   1.850
 4884SOL    HW115551   3.052   6.105   1.902
 4884SOL    HW215552   3.214   6.117   1.891
 4885SOL     OW15553   2.215   5.031   1.390
 4885SOL    HW115554   2.191   5.125   1.364
 4885SOL    HW215555   2.143   4.969   1.362
 4886SOL     OW15556   1.593   5.925   1.584
 4886SOL    HW115557   1.621   5.853   1.648
 4886SOL    HW215558   1.674   5.959   1.536
 4887SOL     OW15559   0.106   0.089   1.475
 4887SOL    HW115560   0.186   0.037   1.505
 4887SOL    HW215561   0.066   0.139   1.553
 4888SOL     OW15562   2.721   0.531   4.733
 4888SOL    HW115563   2.775   0.503   4.812
 4888SOL    HW215564   2.736   0.467   4.657
 4889SOL     OW15565   6.645   1.591   5.255
 4889SOL    HW115566   6.551   1.582   5.288
 4889SOL    HW215567   6.657   1.537   5.172
 4890SOL     OW15568   7.005   1.150   5.904
 4890SOL    HW115569   0.040   1.099   5.961
 4890SOL    HW215570   6.926   1.179   5.958
 4891SOL     OW15571   1.590   4.881   0.231
 4891SOL    HW115572   1.646   4.913   0.154
 4891SOL    HW215573   1.525   4.812   0.198
 4892SOL     OW15574   3.638   5.663   2.122
 4892SOL    HW115575   3.696   5.602   2.176
 4892SOL    HW215576   3.548   5.622   2.110
 4893SOL     OW15577   6.387   2.841   1.719
 4893SOL    HW115578   6.395   2.811   1.624
 4893SOL    HW215579   6.291   2.835   1.747
 4894SOL     OW15580   3.452   0.926   2.636
 4894SOL    HW115581   3.447   1.023   2.659
 4894SOL    HW215582   3.369   0.900   2.586
 4895SOL     OW15583   0.644   4.968   4.563
 4895SOL    HW115584   0.678   4.989   4.471
 4895SOL    HW215585   0.700   4.896   4.604
 4896SOL     OW15586   2.174   4.426   1.671
 4896SOL    HW115587   2.146   4.422   1.767
 4896SOL    HW215588   2.112   4.370   1.616
 4897SOL     OW15589   2.026   4.545   5.765
 4897SOL    HW115590   2.116   4.516   5.731
 4897SOL    HW215591   1.994   4.623   5.712
 4898SOL     OW15592   4.497   0.759   4.495
 4898SOL    HW115593   4.513   0.819   4.573
 4898SOL    HW215594   4.555   0.789   4.418
 4899SOL     OW15595   5.753   5.300   2.835
 4899SOL    HW115596   5.654   5.300   2.825
 4899SOL    HW215597   5.778   5.275   2.929
 4900SOL     OW15598   3.064   6.282   5.244
 4900SOL    HW115599   3.127   6.206   5.233
 4900SOL    HW215600   3.099   6.345   5.313
 4901SOL     OW15601   2.866   1.485   5.446
 4901SOL    HW115602   2.888   1.388   5.437
 4901SOL    HW215603   2.769   1.499   5.426
 4902SOL     OW15604   1.912   1.586   5.124
 4902SOL    HW115605   1.849   1.662   5.138
 4902SOL    HW215606   2.006   1.618   5.138
 4903SOL     OW15607   3.886   5.770   0.536
 4903SOL    HW115608   3.843   5.836   0.475
 4903SOL    HW215609   3.873   5.799   0.631
 4904SOL     OW15610   2.397   0.343   5.309
 4904SOL    HW115611   2.417   0.248   5.334
 4904SOL    HW215612   2.442   0.404   5.375
 4905SOL     OW15613   3.434   0.517   3.199
 4905SOL    HW115614   3.359   0.452   3.186
 4905SOL    HW215615   3.483   0.529   3.112
 4906SOL     OW15616   5.147   1.599   6.599
 4906SOL    HW115617   5.188   1.509   6.611
 4906SOL    HW215618   5.097   1.625   6.681
 4907SOL     OW15619   4.388   6.665   2.266
 4907SOL    HW115620   4.289   6.659   2.250
 4907SOL    HW215621   4.415   6.595   2.332
 4908SOL     OW15622   5.698   6.404   0.388
 4908SOL    HW115623   5.757   6.483   0.368
 4908SOL    HW215624   5.710   6.334   0.318
 4909SOL     OW15625   0.466   6.452   3.915
 4909SOL    HW115626   0.553   6.432   3.869
 4909SOL    HW215627   0.399   6.483   3.848
 4910SOL     OW15628   4.957   1.181   4.602
 4910SOL    HW115629   4.982   1.134   4.517
 4910SOL    HW215630   4.987   1.276   4.597
 4911SOL     OW15631   1.726   4.044   3.148
 4911SOL    HW115632   1.738   4.134   3.106
 4911SOL    HW215633   1.756   4.048   3.244
 4912SOL     OW15634   5.855   0.889   6.028
 4912SOL    HW115635   5.876   0.891   6.126
 4912SOL    HW215636   5.760   0.916   6.013
 4913SOL     OW15637   3.977   3.328   5.450
 4913SOL    HW115638   3.980   3.228   5.454
 4913SOL    HW215639   4.027   3.365   5.529
 4914SOL     OW15640   3.952   0.009   5.090
 4914SOL    HW115641   4.029   6.978   5.115
 4914SOL    HW215642   3.959   0.032   4.993
 4915SOL     OW15643   3.116   5.834   5.783
 4915SOL    HW115644   3.167   5.748   5.776
 4915SOL    HW215645   3.143   5.882   5.866
 4916SOL     OW15646   1.349   0.441   4.137
 4916SOL    HW115647   1.439   0.452   4.094
 4916SOL    HW215648   1.285   0.402   4.072
 4917SOL     OW15649   2.527   5.210   1.355
 4917SOL    HW115650   2.617   5.184   1.321
 4917SOL    HW215651   2.476   5.127   1.379
 4918SOL     OW15652   5.202   6.546   2.210
 4918SOL    HW115653   5.164   6.502   2.291
 4918SOL    HW215654   5.222   6.642   2.230
 4919SOL     OW15655   3.445   2.500   0.489
 4919SOL    HW115656   3.384   2.428   0.454
 4919SOL    HW215657   3.527   2.458   0.528
 4920SOL     OW15658   5.328   6.984   4.595
 4920SOL    HW115659   5.315   0.050   4.568
 4920SOL    HW215660   5.250   6.953   4.649
 4921SOL     OW15661   0.770   5.594   0.043
 4921SOL    HW115662   0.753   5.660   6.999
 4921SOL    HW215663   0.841   5.628   0.104
 4922SOL     OW15664   2.866   2.167   4.900
 4922SOL    HW115665   2.799   2.236   4.870
 4922SOL    HW215666   2.939   2.211   4.951
 4923SOL     OW15667   3.657   1.395   2.539
 4923SOL    HW115668   3.582   1.433   2.485
 4923SOL    HW215669   3.673   1.452   2.620
 4924SOL     OW15670   3.421   1.115   4.983
 4924SOL    HW115671   3.427   1.154   5.075
 4924SOL    HW215672   3.458   1.180   4.917
 4925SOL     OW15673   6.312   6.922   2.343
 4925SOL    HW115674   6.213   6.931   2.347
 4925SOL    HW215675   6.339   6.829   2.366
 4926SOL     OW15676   5.072   1.352   0.931
 4926SOL    HW115677   5.134   1.319   1.003
 4926SOL    HW215678   4.992   1.293   0.927
 4927SOL     OW15679   3.516   3.767   4.664
 4927SOL    HW115680   3.594   3.809   4.712
 4927SOL    HW215681   3.526   3.667   4.666
 4928SOL     OW15682   1.810   0.095   6.834
 4928SOL    HW115683   1.889   0.150   6.807
 4928SOL    HW215684   1.758   0.068   6.753
 4929SOL     OW15685   6.528   6.866   4.484
 4929SOL    HW115686   6.441   6.874   4.533
 4929SOL    HW215687   6.559   6.772   4.487
 4930SOL     OW15688   5.633   0.883   2.881
 4930SOL    HW115689   5.620   0.946   2.805
 4930SOL    HW215690   5.594   0.922   2.964
 4931SOL     OW15691   6.830   6.730   0.792
 4931SOL    HW115692   6.870   6.821   0.801
 4931SOL    HW215693   6.731   6.738   0.783
 4932SOL     OW15694   3.763   3.067   1.688
 4932SOL    HW115695   3.835   3.127   1.721
 4932SOL    HW215696   3.736   3.004   1.760
 4933SOL     OW15697   2.183   6.532   2.361
 4933SOL    HW115698   2.192   6.572   2.452
 4933SOL    HW215699   2.163   6.434   2.370
 4934SOL     OW15700   3.554   5.444   3.093
 4934SOL    HW115701   3.475   5.495   3.059
 4934SOL    HW215702   3.544   5.347   3.071
 4935SOL     OW15703   1.664   2.083   6.342
 4935SOL    HW115704   1.599   2.027   6.394
 4935SOL    HW215705   1.699   2.030   6.265
 4936SOL     OW15706   3.051   5.114   1.209
 4936SOL    HW115707   3.125   5.137   1.146
 4936SOL    HW215708   3.040   5.015   1.213
 4937SOL     OW15709   5.710   3.097   5.975
 4937SOL    HW115710   5.793   3.088   5.919
 4937SOL    HW215711   5.730   3.152   6.056
 4938SOL     OW15712   1.907   5.355   6.105
 4938SOL    HW115713   1.970   5.377   6.031
 4938SOL    HW215714   1.905   5.256   6.121
 4939SOL     OW15715   5.826   2.256   4.608
 4939SOL    HW115716   5.751   2.313   4.575
 4939SOL    HW215717   5.796   2.161   4.613
 4940SOL     OW15718   0.666   1.003   4.813
 4940SOL    HW115719   0.720   1.002   4.729
 4940SOL    HW215720   0.578   0.957   4.797
 4941SOL     OW15721   4.686   1.921   5.686
 4941SOL    HW115722   4.658   2.000   5.740
 4941SOL    HW215723   4.656   1.933   5.591
 4942SOL     OW15724   5.097   2.887   5.743
 4942SOL    HW115725   5.034   2.941   5.798
 4942SOL    HW215726   5.166   2.846   5.803
 4943SOL     OW15727   4.656   3.306   6.805
 4943SOL    HW115728   4.587   3.280   6.872
 4943SOL    HW215729   4.731   3.354   6.852
 4944SOL     OW15730   1.954   4.243   1.883
 4944SOL    HW115731   2.053   4.230   1.884
 4944SOL    HW215732   1.923   4.271   1.974
 4945SOL     OW15733   1.235   1.245   3.839
 4945SOL    HW115734   1.258   1.328   3.890
 4945SOL    HW215735   1.253   1.165   3.896
 4946SOL     OW15736   0.630   3.097   0.976
 4946SOL    HW115737   0.675   3.146   0.901
 4946SOL    HW215738   0.581   3.017   0.939
 4947SOL     OW15739   1.952   0.954   1.546
 4947SOL    HW115740   1.960   0.859   1.575
 4947SOL    HW215741   1.997   0.966   1.458
 4948SOL     OW15742   2.116   1.385   2.701
 4948SOL    HW115743   2.215   1.396   2.711
 4948SOL    HW215744   2.092   1.288   2.706
 4949SOL     OW15745   4.185   6.450   6.604
 4949SOL    HW115746   4.143   6.432   6.515
 4949SOL    HW215747   4.114   6.456   6.674
 4950SOL     OW15748   3.008   5.353   4.564
 4950SOL    HW115749   3.059   5.289   4.622
 4950SOL    HW215750   2.931   5.391   4.615
 4951SOL     OW15751   5.014   1.472   4.555
 4951SOL    HW115752   5.044   1.481   4.460
 4951SOL    HW215753   4.966   1.556   4.582
 4952SOL     OW15754   0.111   1.100   4.894
 4952SOL    HW115755   0.209   1.112   4.911
 4952SOL    HW215756   0.093   1.004   4.872
 4953SOL     OW15757   2.018   6.473   2.121
 4953SOL    HW115758   1.927   6.485   2.160
 4953SOL    HW215759   2.087   6.485   2.193
 4954SOL     OW15760   4.338   3.910   6.878
 4954SOL    HW115761   4.365   3.921   6.782
 4954SOL    HW215762   4.259   3.849   6.883
 4955SOL     OW15763   2.365   6.286   6.597
 4955SOL    HW115764   2.286   6.298   6.657
 4955SOL    HW215765   2.353   6.202   6.543
 4956SOL     OW15766   2.737   6.628   5.067
 4956SOL    HW115767   2.670   6.556   5.085
 4956SOL    HW215768   2.801   6.597   4.996
 4957SOL     OW15769   6.731   1.889   2.817
 4957SOL    HW115770   6.725   1.793   2.789
 4957SOL    HW215771   6.784   1.940   2.749
 4958SOL     OW15772   6.871   6.339   5.487
 4958SOL    HW115773   6.803   6.395   5.439
 4958SOL    HW215774   6.911   6.273   5.424
 4959SOL     OW15775   6.656   1.662   6.597
 4959SOL    HW115776   6.624   1.755   6.576
 4959SOL    HW215777   6.747   1.667   6.638
 4960SOL     OW15778   3.503   5.682   3.618
 4960SOL    HW115779   3.522   5.778   3.638
 4960SOL    HW215780   3.553   5.624   3.682
 4961SOL     OW15781   5.086   1.738   5.619
 4961SOL    HW115782   5.023   1.801   5.665
 4961SOL    HW215783   5.135   1.786   5.547
 4962SOL     OW15784   5.958   2.703   0.710
 4962SOL    HW115785   5.869   2.666   0.684
 4962SOL    HW215786   6.028   2.669   0.648
 4963SOL     OW15787   6.456   6.042   6.654
 4963SOL    HW115788   6.437   6.129   6.610
 4963SOL    HW215789   6.479   6.057   6.750
 4964SOL     OW15790   3.658   6.791   3.811
 4964SOL    HW115791   3.619   6.869   3.860
 4964SOL    HW215792   3.756   6.806   3.798
 4965SOL     OW15793   0.193   0.515   3.439
 4965SOL    HW115794   0.094   0.529   3.435
 4965SOL    HW215795   0.215   0.456   3.516
 4966SOL     OW15796   1.916   0.437   5.473
 4966SOL    HW115797   1.885   0.343   5.490
 4966SOL    HW215798   2.009   0.434   5.438
 4967SOL     OW15799   4.328   3.313   5.936
 4967SOL    HW115800   4.301   3.312   5.839
 4967SOL    HW215801   4.341   3.407   5.966
 4968SOL     OW15802   5.430   2.898   3.166
 4968SOL    HW115803   5.388   2.969   3.221
 4968SOL    HW215804   5.503   2.937   3.111
 4969SOL     OW15805   2.166   1.059   2.149
 4969SOL    HW115806   2.073   1.023   2.141
 4969SOL    HW215807   2.162   1.154   2.180
 4970SOL     OW15808   1.661   2.133   4.395
 4970SOL    HW115809   1.613   2.122   4.482
 4970SOL    HW215810   1.632   2.062   4.331
 4971SOL     OW15811   5.818   5.842   3.409
 4971SOL    HW115812   5.884   5.812   3.340
 4971SOL    HW215813   5.740   5.779   3.410
 4972SOL     OW15814   1.552   2.962   0.726
 4972SOL    HW115815   1.512   2.890   0.784
 4972SOL    HW215816   1.589   2.921   0.643
 4973SOL     OW15817   0.126   0.557   2.332
 4973SOL    HW115818   0.049   0.542   2.269
 4973SOL    HW215819   0.141   0.474   2.386
 4974SOL     OW15820   5.852   4.636   1.137
 4974SOL    HW115821   5.828   4.716   1.192
 4974SOL    HW215822   5.871   4.559   1.198
 4975SOL     OW15823   5.378   5.247   6.026
 4975SOL    HW115824   5.447   5.318   6.014
 4975SOL    HW215825   5.323   5.266   6.107
 4976SOL     OW15826   3.074   6.930   5.010
 4976SOL    HW115827   3.081   7.029   4.993
 4976SOL    HW215828   3.021   6.887   4.937
 4977SOL     OW15829   4.911   4.141   0.519
 4977SOL    HW115830   4.897   4.173   0.425
 4977SOL    HW215831   4.949   4.215   0.575
 4978SOL     OW15832   6.650   3.619   5.488
 4978SOL    HW115833   6.747   3.641   5.474
 4978SOL    HW215834   6.641   3.557   5.566
 4979SOL     OW15835   0.289   1.093   5.272
 4979SOL    HW115836   0.232   1.010   5.269
 4979SOL    HW215837   0.344   1.092   5.355
 4980SOL     OW15838   4.493   0.013   3.432
 4980SOL    HW115839   4.532   6.951   3.447
 4980SOL    HW215840   4.554   0.082   3.472
 4981SOL     OW15841   4.932   5.449   6.108
 4981SOL    HW115842   4.911   5.365   6.158
 4981SOL    HW215843   4.965   5.426   6.016
 4982SOL     OW15844   1.850   2.124   6.899
 4982SOL    HW115845   1.870   2.047   6.838
 4982SOL    HW215846   1.900   2.113   6.984
 4983SOL     OW15847   5.161   2.628   4.208
 4983SOL    HW115848   5.135   2.707   4.152
 4983SOL    HW215849   5.109   2.630   4.294
 4984SOL     OW15850   5.828   3.820   4.358
 4984SOL    HW115851   5.765   3.781   4.425
 4984SOL    HW215852   5.864   3.747   4.300
 4985SOL     OW15853   6.015   6.441   2.995
 4985SOL    HW115854   5.941   6.452   2.928
 4985SOL    HW215855   5.978   6.445   3.087
 4986SOL     OW15856   6.413   3.886   2.830
 4986SOL    HW115857   6.348   3.810   2.821
 4986SOL    HW215858   6.431   3.903   2.927
 4987SOL     OW15859   1.012   1.979   1.110
 4987SOL    HW115860   1.065   1.899   1.083
 4987SOL    HW215861   1.069   2.061   1.101
 4988SOL     OW15862   6.174   1.757   3.624
 4988SOL    HW115863   6.269   1.743   3.651
 4988SOL    HW215864   6.116   1.690   3.671
 4989SOL     OW15865   5.225   0.669   1.099
 4989SOL    HW115866   5.280   0.638   1.176
 4989SOL    HW215867   5.130   0.640   1.112
 4990SOL     OW15868   1.664   1.695   5.741
 4990SOL    HW115869   1.762   1.705   5.757
 4990SOL    HW215870   1.647   1.620   5.677
 4991SOL     OW15871   0.701   3.488   4.044
 4991SOL    HW115872   0.759   3.550   4.096
 4991SOL    HW215873   0.674   3.411   4.101
 4992SOL     OW15874   5.039   0.892   4.452
 4992SOL    HW115875   4.986   0.933   4.378
 4992SOL    HW215876   4.994   0.909   4.539
 4993SOL     OW15877   3.478   5.258   4.235
 4993SOL    HW115878   3.551   5.317   4.270
 4993SOL    HW215879   3.500   5.163   4.253
 4994SOL     OW15880   1.387   0.389   2.285
 4994SOL    HW115881   1.386   0.488   2.300
 4994SOL    HW215882   1.440   0.345   2.357
 4995SOL     OW15883   6.430   2.438   5.992
 4995SOL    HW115884   6.390   2.368   5.934
 4995SOL    HW215885   6.493   2.395   6.057
 4996SOL     OW15886   1.656   1.340   2.552
 4996SOL    HW115887   1.700   1.423   2.520
 4996SOL    HW215888   1.636   1.347   2.650
 4997SOL     OW15889   6.192   1.922   2.971
 4997SOL    HW115890   6.194   1.848   2.905
 4997SOL    HW215891   6.168   2.007   2.925
 4998SOL     OW15892   2.134   3.768   4.999
 4998SOL    HW115893   2.222   3.807   5.026
 4998SOL    HW215894   2.060   3.814   5.046
 4999SOL     OW15895   5.506   5.189   1.194
 4999SOL    HW115896   5.460   5.100   1.201
 4999SOL    HW215897   5.474   5.248   1.268
 5000SOL     OW15898   1.781   0.307   4.297
 5000SOL    HW115899   1.694   0.262   4.276
 5000SOL    HW215900   1.856   0.241   4.289
 5001SOL     OW15901   1.625   4.178   6.267
 5001SOL    HW115902   1.617   4.276   6.248
 5001SOL    HW215903   1.718   4.147   6.246
 5002SOL     OW15904   1.570   3.146   2.817
 5002SOL    HW115905   1.538   3.077   2.752
 5002SOL    HW215906   1.494   3.203   2.847
 5003SOL     OW15907   2.159   6.823   2.931
 5003SOL    HW115908   2.088   6.826   3.002
 5003SOL    HW215909   2.242   6.782   2.968
 5004SOL     OW15910   2.961   4.788   5.549
 5004SOL    HW115911   3.009   4.818   5.631
 5004SOL    HW215912   2.903   4.862   5.515
 5005SOL     OW15913   3.217   2.757   0.848
 5005SOL    HW115914   3.149   2.826   0.825
 5005SOL    HW215915   3.287   2.754   0.777
 5006SOL     OW15916   5.510   6.575   6.799
 5006SOL    HW115917   5.577   6.515   6.756
 5006SOL    HW215918   5.472   6.637   6.730
 5007SOL     OW15919   2.044   0.265   6.857
 5007SOL    HW115920   2.070   0.335   6.790
 5007SOL    HW215921   2.026   0.308   6.945
 5008SOL     OW15922   6.456   0.638   3.317
 5008SOL    HW115923   6.471   0.568   3.247
 5008SOL    HW215924   6.526   0.708   3.311
 5009SOL     OW15925   1.954   6.374   1.861
 5009SOL    HW115926   2.012   6.396   1.940
 5009SOL    HW215927   1.991   6.418   1.780
 5010SOL     OW15928   3.094   3.241   3.363
 5010SOL    HW115929   3.139   3.163   3.406
 5010SOL    HW215930   3.077   3.220   3.266
 5011SOL     OW15931   1.889   3.547   2.060
 5011SOL    HW115932   1.871   3.449   2.052
 5011SOL    HW215933   1.943   3.577   1.982
 5012SOL     OW15934   4.912   3.410   5.868
 5012SOL    HW115935   4.888   3.506   5.852
 5012SOL    HW215936   4.851   3.351   5.815
 5013SOL     OW15937   5.203   1.868   6.959
 5013SOL    HW115938   5.272   1.882   6.889
 5013SOL    HW215939   5.247   1.865   0.020
 5014SOL     OW15940   5.483   4.679   0.626
 5014SOL    HW115941   5.499   4.678   0.725
 5014SOL    HW215942   5.411   4.745   0.604
 5015SOL     OW15943   4.575   2.101   4.138
 5015SOL    HW115944   4.500   2.143   4.087
 5015SOL    HW215945   4.619   2.169   4.195
 5016SOL     OW15946   2.628   1.500   1.281
 5016SOL    HW115947   2.670   1.435   1.218
 5016SOL    HW215948   2.692   1.575   1.299
 5017SOL     OW15949   2.114   2.452   0.429
 5017SOL    HW115950   2.179   2.528   0.421
 5017SOL    HW215951   2.142   2.393   0.505
 5018SOL     OW15952   0.769   4.611   1.469
 5018SOL    HW115953   0.832   4.625   1.546
 5018SOL    HW215954   0.685   4.568   1.501
 5019SOL     OW15955   2.438   4.195   0.334
 5019SOL    HW115956   2.430   4.197   0.234
 5019SOL    HW215957   2.487   4.112   0.361
 5020SOL     OW15958   4.619   6.337   5.848
 5020SOL    HW115959   4.531   6.312   5.808
 5020SOL    HW215960   4.693   6.302   5.791
 5021SOL     OW15961   1.596   2.330   5.560
 5021SOL    HW115962   1.605   2.406   5.496
 5021SOL    HW215963   1.514   2.277   5.537
 5022SOL     OW15964   2.096   0.290   0.618
 5022SOL    HW115965   2.088   0.214   0.554
 5022SOL    HW215966   2.017   0.291   0.679
 5023SOL     OW15967   6.363   2.694   1.480
 5023SOL    HW115968   6.294   2.671   1.412
 5023SOL    HW215969   6.442   2.633   1.470
 5024SOL     OW15970   6.830   4.634   3.108
 5024SOL    HW115971   6.804   4.704   3.041
 5024SOL    HW215972   6.928   4.617   3.102
 5025SOL     OW15973   4.443   2.054   1.855
 5025SOL    HW115974   4.533   2.081   1.820
 5025SOL    HW215975   4.411   1.974   1.804
 5026SOL     OW15976   5.663   5.711   6.285
 5026SOL    HW115977   5.606   5.709   6.203
 5026SOL    HW215978   5.640   5.633   6.343
 5027SOL     OW15979   0.464   0.160   2.040
 5027SOL    HW115980   0.507   0.181   2.127
 5027SOL    HW215981   0.424   0.068   2.043
 5028SOL     OW15982   0.236   6.986   2.828
 5028SOL    HW115983   0.327   6.966   2.863
 5028SOL    HW215984   0.211   0.051   2.852
 5029SOL     OW15985   6.281   3.127   3.936
 5029SOL    HW115986   6.187   3.093   3.938
 5029SOL    HW215987   6.343   3.053   3.909
 5030SOL     OW15988   6.915   0.447   0.062
 5030SOL    HW115989   6.882   0.375   0.001
 5030SOL    HW215990   6.884   0.536   0.028
 5031SOL     OW15991   5.584   1.101   4.721
 5031SOL    HW115992   5.528   1.084   4.640
 5031SOL    HW215993   5.679   1.118   4.693
 5032SOL     OW15994   1.102   4.042   1.301
 5032SOL    HW115995   1.041   3.965   1.279
 5032SOL    HW215996   1.047   4.119   1.333
 5033SOL     OW15997   1.444   4.279   6.743
 5033SOL    HW115998   1.464   4.216   6.667
 5033SOL    HW215999   1.361   4.330   6.722
 5034SOL     OW16000   6.504   3.136   2.574
 5034SOL    HW116001   6.443   3.207   2.538
 5034SOL    HW216002   6.587   3.132   2.518
 5035SOL     OW16003   6.240   4.157   0.757
 5035SOL    HW116004   6.182   4.099   0.814
 5035SOL    HW216005   6.188   4.234   0.722
 5036SOL     OW16006   0.283   5.280   6.775
 5036SOL    HW116007   0.311   5.221   6.851
 5036SOL    HW216008   0.215   5.233   6.719
 5037SOL     OW16009   4.587   2.222   2.556
 5037SOL    HW116010   4.635   2.202   2.471
 5037SOL    HW216011   4.492   2.189   2.550
 5038SOL     OW16012   1.759   5.175   5.771
 5038SOL    HW116013   1.719   5.110   5.836
 5038SOL    HW216014   1.706   5.259   5.772
 5039SOL     OW16015   2.082   3.592   5.268
 5039SOL    HW116016   2.060   3.683   5.233
 5039SOL    HW216017   2.145   3.547   5.205
 5040SOL     OW16018   2.217   4.321   6.141
 5040SOL    HW116019   2.280   4.312   6.219
 5040SOL    HW216020   2.260   4.283   6.059
 5041SOL     OW16021   1.132   3.375   1.419
 5041SOL    HW116022   1.230   3.369   1.439
 5041SOL    HW216023   1.118   3.418   1.330
 5042SOL     OW16024   0.219   3.051   6.652
 5042SOL    HW116025   0.135   3.086   6.693
 5042SOL    HW216026   0.293   3.055   6.720
 5043SOL     OW16027   3.553   1.053   5.760
 5043SOL    HW116028   3.512   1.135   5.799
 5043SOL    HW216029   3.587   0.995   5.835
 5044SOL     OW16030   6.183   0.138   3.027
 5044SOL    HW116031   6.244   0.139   3.106
 5044SOL    HW216032   6.088   0.126   3.058
 5045SOL     OW16033   5.182   2.787   6.948
 5045SOL    HW116034   5.163   2.740   0.005
 5045SOL    HW216035   5.272   2.761   6.914
 5046SOL     OW16036   4.064   3.649   4.868
 5046SOL    HW116037   4.145   3.651   4.926
 5046SOL    HW216038   3.984   3.622   4.922
 5047SOL     OW16039   6.605   2.327   2.398
 5047SOL    HW116040   6.618   2.415   2.352
 5047SOL    HW216041   6.622   2.253   2.334
 5048SOL     OW16042   6.990   2.193   0.915
 5048SOL    HW116043   7.028   2.223   1.002
 5048SOL    HW216044   6.901   2.150   0.930
 5049SOL     OW16045   0.247   1.283   4.045
 5049SOL    HW116046   0.210   1.376   4.049
 5049SOL    HW216047   0.182   1.223   3.999
 5050SOL     OW16048   0.983   1.402   1.995
 5050SOL    HW116049   1.013   1.461   1.920
 5050SOL    HW216050   0.892   1.430   2.025
 5051SOL     OW16051   4.328   3.827   0.524
 5051SOL    HW116052   4.365   3.918   0.504
 5051SOL    HW216053   4.367   3.794   0.610
 5052SOL     OW16054   2.801   5.105   5.874
 5052SOL    HW116055   2.834   5.155   5.955
 5052SOL    HW216056   2.787   5.170   5.799
 5053SOL     OW16057   1.877   4.089   3.371
 5053SOL    HW116058   1.870   4.172   3.317
 5053SOL    HW216059   1.970   4.080   3.408
 5054SOL     OW16060   3.629   5.470   4.753
 5054SOL    HW116061   3.537   5.451   4.786
 5054SOL    HW216062   3.669   5.386   4.715
 5055SOL     OW16063   0.335   1.341   5.164
 5055SOL    HW116064   0.414   1.386   5.203
 5055SOL    HW216065   0.334   1.245   5.192
 5056SOL     OW16066   6.359   4.341   0.051
 5056SOL    HW116067   6.273   4.320   0.006
 5056SOL    HW216068   6.423   4.266   0.038
 5057SOL     OW16069   1.030   5.618   3.620
 5057SOL    HW116070   1.126   5.619   3.592
 5057SOL    HW216071   0.974   5.663   3.551
 5058SOL     OW16072   2.515   3.699   6.223
 5058SOL    HW116073   2.477   3.718   6.313
 5058SOL    HW216074   2.601   3.748   6.212
 5059SOL     OW16075   5.379   3.500   4.470
 5059SOL    HW116076   5.307   3.499   4.540
 5059SOL    HW216077   5.337   3.503   4.380
 5060SOL     OW16078   0.064   2.507   5.358
 5060SOL    HW116079   0.121   2.501   5.277
 5060SOL    HW216080   0.021   2.598   5.363
 5061SOL     OW16081   3.164   3.039   3.754
 5061SOL    HW116082   3.171   3.021   3.656
 5061SOL    HW216083   3.097   3.111   3.770
 5062SOL     OW16084   5.720   1.360   2.309
 5062SOL    HW116085   5.729   1.427   2.383
 5062SOL    HW216086   5.810   1.334   2.276
 5063SOL     OW16087   1.077   5.728   1.780
 5063SOL    HW116088   1.056   5.826   1.790
 5063SOL    HW216089   0.998   5.681   1.741
 5064SOL     OW16090   4.888   5.355   1.504
 5064SOL    HW116091   4.837   5.410   1.570
 5064SOL    HW216092   4.937   5.282   1.551
 5065SOL     OW16093   1.723   1.359   2.846
 5065SOL    HW116094   1.669   1.302   2.908
 5065SOL    HW216095   1.706   1.456   2.866
 5066SOL     OW16096   2.708   4.339   1.682
 5066SOL    HW116097   2.726   4.373   1.589
 5066SOL    HW216098   2.780   4.371   1.743
 5067SOL     OW16099   4.462   1.123   2.817
 5067SOL    HW116100   4.392   1.061   2.852
 5067SOL    HW216101   4.481   1.193   2.885
 5068SOL     OW16102   3.137   5.440   6.798
 5068SOL    HW116103   3.082   5.446   6.715
 5068SOL    HW216104   3.230   5.469   6.778
 5069SOL     OW16105   2.395   3.170   6.001
 5069SOL    HW116106   2.376   3.245   5.938
 5069SOL    HW216107   2.311   3.142   6.047
 5070SOL     OW16108   5.836   4.601   4.744
 5070SOL    HW116109   5.862   4.505   4.756
 5070SOL    HW216110   5.885   4.657   4.810
 5071SOL     OW16111   4.057   2.217   3.370
 5071SOL    HW116112   4.150   2.197   3.402
 5071SOL    HW216113   4.055   2.308   3.328
 5072SOL     OW16114   1.736   1.036   1.378
 5072SOL    HW116115   1.786   0.998   1.301
 5072SOL    HW216116   1.768   0.994   1.463
 5073SOL     OW16117   1.651   5.102   1.255
 5073SOL    HW116118   1.556   5.100   1.225
 5073SOL    HW216119   1.660   5.051   1.341
 5074SOL     OW16120   4.243   2.380   1.726
 5074SOL    HW116121   4.330   2.411   1.764
 5074SOL    HW216122   4.182   2.352   1.800
 5075SOL     OW16123   1.117   2.171   0.034
 5075SOL    HW116124   1.034   2.179   0.088
 5075SOL    HW216125   1.168   2.090   0.061
 5076SOL     OW16126   5.837   6.984   0.410
 5076SOL    HW116127   5.901   6.918   0.449
 5076SOL    HW216128   5.793   0.006   0.484
 5077SOL     OW16129   0.224   3.710   5.964
 5077SOL    HW116130   0.289   3.767   5.914
 5077SOL    HW216131   0.172   3.766   6.028
 5078SOL     OW16132   0.450   0.938   4.236
 5078SOL    HW116133   0.449   0.839   4.250
 5078SOL    HW216134   0.356   0.970   4.224
 5079SOL     OW16135   2.271   2.730   5.493
 5079SOL    HW116136   2.325   2.741   5.410
 5079SOL    HW216137   2.332   2.729   5.572
 5080SOL     OW16138   5.708   5.611   5.816
 5080SOL    HW116139   5.731   5.708   5.817
 5080SOL    HW216140   5.620   5.599   5.769
 5081SOL     OW16141   3.002   4.692   5.914
 5081SOL    HW116142   3.023   4.633   5.836
 5081SOL    HW216143   2.903   4.695   5.928
 5082SOL     OW16144   5.335   7.007   0.601
 5082SOL    HW116145   5.294   6.916   0.599
 5082SOL    HW216146   5.283   0.039   0.542
 5083SOL     OW16147   3.560   0.646   1.732
 5083SOL    HW116148   3.487   0.578   1.727
 5083SOL    HW216149   3.647   0.600   1.747
 5084SOL     OW16150   0.780   5.052   4.303
 5084SOL    HW116151   0.726   5.132   4.276
 5084SOL    HW216152   0.863   5.047   4.247
 5085SOL     OW16153   0.360   2.969   5.528
 5085SOL    HW116154   0.343   2.991   5.432
 5085SOL    HW216155   0.381   2.872   5.537
 5086SOL     OW16156   1.036   4.555   2.560
 5086SOL    HW116157   1.121   4.573   2.610
 5086SOL    HW216158   0.970   4.512   2.621
 5087SOL     OW16159   0.067   5.335   1.326
 5087SOL    HW116160   7.017   5.314   1.268
 5087SOL    HW216161   0.151   5.323   1.274
 5088SOL     OW16162   5.365   6.854   3.293
 5088SOL    HW116163   5.395   6.846   3.388
 5088SOL    HW216164   5.391   6.943   3.257
 5089SOL     OW16165   6.107   4.613   4.295
 5089SOL    HW116166   6.119   4.712   4.306
 5089SOL    HW216167   6.189   4.574   4.252
 5090SOL     OW16168   2.015   1.785   2.350
 5090SOL    HW116169   1.950   1.861   2.360
 5090SOL    HW216170   2.001   1.721   2.425
 5091SOL     OW16171   6.621   0.689   1.544
 5091SOL    HW116172   6.555   0.732   1.605
 5091SOL    HW216173   6.576   0.617   1.491
 5092SOL     OW16174   3.459   2.873   3.710
 5092SOL    HW116175   3.365   2.844   3.724
 5092SOL    HW216176   3.487   2.936   3.782
 5093SOL     OW16177   3.535   1.403   1.010
 5093SOL    HW116178   3.468   1.376   0.941
 5093SOL    HW216179   3.615   1.443   0.966
 5094SOL     OW16180   2.376   6.038   6.470
 5094SOL    HW116181   2.331   6.023   6.558
 5094SOL    HW216182   2.313   6.013   6.397
 5095SOL     OW16183   0.213   2.221   3.218
 5095SOL    HW116184   0.133   2.229   3.278
 5095SOL    HW216185   0.289   2.181   3.269
 5096SOL     OW16186   4.857   4.816   6.750
 5096SOL    HW116187   4.943   4.868   6.752
 5096SOL    HW216188   4.804   4.837   6.832
 5097SOL     OW16189   0.380   6.694   6.991
 5097SOL    HW116190   0.291   6.655   6.969
 5097SOL    HW216191   0.447   6.620   7.003
 5098SOL     OW16192   3.308   1.275   2.079
 5098SOL    HW116193   3.363   1.260   2.161
 5098SOL    HW216194   3.268   1.367   2.083
 5099SOL     OW16195   0.562   6.510   2.189
 5099SOL    HW116196   0.540   6.467   2.102
 5099SOL    HW216197   0.661   6.509   2.203
 5100SOL     OW16198   3.261   5.485   4.391
 5100SOL    HW116199   3.176   5.463   4.437
 5100SOL    HW216200   3.338   5.451   4.445
 5101SOL     OW16201   4.466   6.589   5.718
 5101SOL    HW116202   4.377   6.583   5.763
 5101SOL    HW216203   4.486   6.503   5.670
 5102SOL     OW16204   5.350   6.341   4.193
 5102SOL    HW116205   5.444   6.355   4.224
 5102SOL    HW216206   5.293   6.416   4.226
 5103SOL     OW16207   0.852   1.337   4.337
 5103SOL    HW116208   0.917   1.308   4.407
 5103SOL    HW216209   0.858   1.276   4.258
 5104SOL     OW16210   2.721   6.692   1.985
 5104SOL    HW116211   2.683   6.696   2.077
 5104SOL    HW216212   2.668   6.751   1.924
 5105SOL     OW16213   3.439   3.210   6.758
 5105SOL    HW116214   3.463   3.122   6.718
 5105SOL    HW216215   3.498   3.227   6.838
 5106SOL     OW16216   4.207   1.302   1.902
 5106SOL    HW116217   4.163   1.362   1.970
 5106SOL    HW216218   4.218   1.351   1.816
 5107SOL     OW16219   4.684   2.440   1.692
 5107SOL    HW116220   4.726   2.530   1.697
 5107SOL    HW216221   4.688   2.406   1.597
 5108SOL     OW16222   3.834   3.591   5.035
 5108SOL    HW116223   3.861   3.685   5.056
 5108SOL    HW216224   3.812   3.543   5.120
 5109SOL     OW16225   1.107   2.088   0.771
 5109SOL    HW116226   1.103   2.012   0.836
 5109SOL    HW216227   1.198   2.093   0.731
 5110SOL     OW16228   1.016   0.671   6.357
 5110SOL    HW116229   1.100   0.650   6.406
 5110SOL    HW216230   0.955   0.723   6.416
 5111SOL     OW16231   1.865   0.555   4.315
 5111SOL    HW116232   1.832   0.461   4.312
 5111SOL    HW216233   1.947   0.564   4.258
 5112SOL     OW16234   0.565   0.428   2.809
 5112SOL    HW116235   0.576   0.459   2.714
 5112SOL    HW216236   0.541   0.331   2.810
 5113SOL     OW16237   1.342   5.607   1.458
 5113SOL    HW116238   1.351   5.636   1.554
 5113SOL    HW216239   1.411   5.654   1.403
 5114SOL     OW16240   3.945   0.046   6.564
 5114SOL    HW116241   4.012   0.001   6.622
 5114SOL    HW216242   3.915   7.012   6.492
 5115SOL     OW16243   1.344   4.814   3.181
 5115SOL    HW116244   1.438   4.816   3.214
 5115SOL    HW216245   1.281   4.799   3.257
 5116SOL     OW16246   0.956   6.435   0.695
 5116SOL    HW116247   1.028   6.434   0.626
 5116SOL    HW216248   0.996   6.438   0.786
 5117SOL     OW16249   0.764   3.833   3.787
 5117SOL    HW116250   0.752   3.897   3.863
 5117SOL    HW216251   0.676   3.788   3.768
 5118SOL     OW16252   5.538   0.792   0.104
 5118SOL    HW116253   5.479   0.720   0.070
 5118SOL    HW216254   5.557   0.857   0.030
 5119SOL     OW16255   4.682   1.109   2.601
 5119SOL    HW116256   4.726   1.025   2.630
 5119SOL    HW216257   4.616   1.138   2.670
 5120SOL     OW16258   4.169   6.926   5.187
 5120SOL    HW116259   4.181   7.012   5.235
 5120SOL    HW216260   4.157   6.852   5.253
 5121SOL     OW16261   3.551   3.119   7.005
 5121SOL    HW116262   3.585   3.119   0.070
 5121SOL    HW216263   3.455   3.090   7.005
 5122SOL     OW16264   3.422   6.123   3.423
 5122SOL    HW116265   3.510   6.078   3.434
 5122SOL    HW216266   3.367   6.108   3.505
 5123SOL     OW16267   5.222   1.771   4.543
 5123SOL    HW116268   5.255   1.851   4.493
 5123SOL    HW216269   5.283   1.693   4.526
 5124SOL     OW16270   1.701   6.030   4.482
 5124SOL    HW116271   1.751   6.104   4.436
 5124SOL    HW216272   1.766   5.968   4.525
 5125SOL     OW16273   6.345   3.116   3.237
 5125SOL    HW116274   6.411   3.168   3.292
 5125SOL    HW216275   6.265   3.095   3.293
 5126SOL     OW16276   6.762   5.763   6.701
 5126SOL    HW116277   6.781   5.674   6.661
 5126SOL    HW216278   6.720   5.822   6.633
 5127SOL     OW16279   0.109   3.910   7.004
 5127SOL    HW116280   0.014   3.878   7.001
 5127SOL    HW216281   0.167   3.844   6.955
 5128SOL     OW16282   0.522   0.336   0.400
 5128SOL    HW116283   0.618   0.355   0.379
 5128SOL    HW216284   0.513   0.241   0.431
 5129SOL     OW16285   6.407   6.808   3.040
 5129SOL    HW116286   6.308   6.794   3.042
 5129SOL    HW216287   6.427   6.902   3.012
 5130SOL     OW16288   6.903   5.720   2.427
 5130SOL    HW116289   6.901   5.731   2.327
 5130SOL    HW216290   6.841   5.647   2.453
 5131SOL     OW16291   1.854   3.697   4.396
 5131SOL    HW116292   1.944   3.734   4.371
 5131SOL    HW216293   1.817   3.645   4.319
 5132SOL     OW16294   4.149   2.776   6.404
 5132SOL    HW116295   4.126   2.872   6.419
 5132SOL    HW216296   4.222   2.749   6.466
 5133SOL     OW16297   1.756   4.967   0.042
 5133SOL    HW116298   1.781   5.062   0.028
 5133SOL    HW216299   1.831   4.908   0.013
 5134SOL     OW16300   6.975   2.875   2.132
 5134SOL    HW116301   7.021   2.800   2.180
 5134SOL    HW216302   6.953   2.948   2.197
 5135SOL     OW16303   6.160   2.676   5.258
 5135SOL    HW116304   6.063   2.651   5.254
 5135SOL    HW216305   6.167   2.775   5.268
 5136SOL     OW16306   4.810   0.466   6.285
 5136SOL    HW116307   4.799   0.367   6.276
 5136SOL    HW216308   4.720   0.508   6.297
 5137SOL     OW16309   5.440   3.334   6.193
 5137SOL    HW116310   5.401   3.390   6.119
 5137SOL    HW216311   5.396   3.244   6.192
 5138SOL     OW16312   2.862   2.814   5.956
 5138SOL    HW116313   2.811   2.777   5.878
 5138SOL    HW216314   2.806   2.882   6.003
 5139SOL     OW16315   1.916   0.098   3.014
 5139SOL    HW116316   2.014   0.111   3.001
 5139SOL    HW216317   1.866   0.174   2.972
 5140SOL     OW16318   3.822   2.353   0.284
 5140SOL    HW116319   3.731   2.376   0.317
 5140SOL    HW216320   3.819   2.338   0.185
 5141SOL     OW16321   6.595   3.762   0.289
 5141SOL    HW116322   6.656   3.683   0.302
 5141SOL    HW216323   6.508   3.745   0.335
 5142SOL     OW16324   6.081   0.711   3.925
 5142SOL    HW116325   6.097   0.618   3.893
 5142SOL    HW216326   6.163   0.766   3.913
 5143SOL     OW16327   6.910   4.522   3.753
 5143SOL    HW116328   6.904   4.429   3.790
 5143SOL    HW216329   6.964   4.521   3.669
 5144SOL     OW16330   1.111   4.716   6.217
 5144SOL    HW116331   1.020   4.722   6.258
 5144SOL    HW216332   1.171   4.783   6.261
 5145SOL     OW16333   2.206   4.903   5.523
 5145SOL    HW116334   2.107   4.895   5.536
 5145SOL    HW216335   2.249   4.814   5.532
 5146SOL     OW16336   3.804   3.868   5.101
 5146SOL    HW116337   3.785   3.939   5.034
 5146SOL    HW216338   3.729   3.863   5.167
 5147SOL     OW16339   6.759   4.747   2.836
 5147SOL    HW116340   6.846   4.761   2.791
 5147SOL    HW216341   6.718   4.836   2.860
 5148SOL     OW16342   1.167   6.261   1.335
 5148SOL    HW116343   1.079   6.293   1.368
 5148SOL    HW216344   1.233   6.262   1.411
 5149SOL     OW16345   6.153   6.136   3.454
 5149SOL    HW116346   6.083   6.075   3.491
 5149SOL    HW216347   6.243   6.094   3.465
 5150SOL     OW16348   2.242   5.118   2.372
 5150SOL    HW116349   2.224   5.120   2.470
 5150SOL    HW216350   2.232   5.024   2.338
 5151SOL     OW16351   5.519   2.073   0.757
 5151SOL    HW116352   5.522   2.110   0.664
 5151SOL    HW216353   5.613   2.052   0.787
 5152SOL     OW16354   2.168   4.241   6.953
 5152SOL    HW116355   2.097   4.270   6.889
 5152SOL    HW216356   2.125   4.204   0.007
 5153SOL     OW16357   2.536   0.216   7.022
 5153SOL    HW116358   2.506   0.246   0.084
 5153SOL    HW216359   2.473   0.253   6.953
 5154SOL     OW16360   1.462   3.352   5.962
 5154SOL    HW116361   1.530   3.423   5.943
 5154SOL    HW216362   1.451   3.342   6.061
 5155SOL     OW16363   4.221   0.133   2.596
 5155SOL    HW116364   4.285   0.099   2.527
 5155SOL    HW216365   4.270   0.150   2.681
 5156SOL     OW16366   6.552   2.964   6.458
 5156SOL    HW116367   6.488   2.914   6.399
 5156SOL    HW216368   6.562   3.058   6.424
 5157SOL     OW16369   4.222   2.193   3.652
 5157SOL    HW116370   4.132   2.199   3.695
 5157SOL    HW216371   4.278   2.270   3.680
 5158SOL     OW16372   3.775   0.975   1.577
 5158SOL    HW116373   3.801   1.052   1.519
 5158SOL    HW216374   3.798   0.996   1.672
 5159SOL     OW16375   0.011   3.088   3.943
 5159SOL    HW116376   0.082   3.158   3.931
 5159SOL    HW216377   7.000   3.066   3.854
 5160SOL     OW16378   0.356   4.246   3.460
 5160SOL    HW116379   0.318   4.288   3.543
 5160SOL    HW216380   0.285   4.245   3.389
 5161SOL     OW16381   1.613   3.590   4.693
 5161SOL    HW116382   1.630   3.529   4.770
 5161SOL    HW216383   1.690   3.652   4.681
 5162SOL     OW16384   1.440   5.060   3.569
 5162SOL    HW116385   1.523   5.031   3.617
 5162SOL    HW216386   1.391   5.126   3.625
 5163SOL     OW16387   4.053   6.048   1.215
 5163SOL    HW116388   4.057   5.949   1.222
 5163SOL    HW216389   3.959   6.079   1.226
 5164SOL     OW16390   4.666   2.657   6.514
 5164SOL    HW116391   4.755   2.687   6.548
 5164SOL    HW216392   4.605   2.735   6.506
 5165SOL     OW16393   5.837   4.322   5.380
 5165SOL    HW116394   5.794   4.307   5.469
 5165SOL    HW216395   5.835   4.419   5.357
 5166SOL     OW16396   0.102   5.877   2.475
 5166SOL    HW116397   0.073   5.922   2.560
 5166SOL    HW216398   0.022   5.842   2.427
 5167SOL     OW16399   6.416   5.792   5.676
 5167SOL    HW116400   6.399   5.697   5.651
 5167SOL    HW216401   6.333   5.832   5.714
 5168SOL     OW16402   5.161   3.642   3.212
 5168SOL    HW116403   5.258   3.648   3.188
 5168SOL    HW216404   5.142   3.702   3.289
 5169SOL     OW16405   4.168   1.761   5.386
 5169SOL    HW116406   4.213   1.844   5.353
 5169SOL    HW216407   4.136   1.775   5.480
 5170SOL     OW16408   0.394   4.007   5.315
 5170SOL    HW116409   0.419   4.034   5.407
 5170SOL    HW216410   0.331   4.075   5.276
 5171SOL     OW16411   1.649   5.695   3.647
 5171SOL    HW116412   1.640   5.628   3.573
 5171SOL    HW216413   1.734   5.678   3.697
 5172SOL     OW16414   6.815   2.672   2.352
 5172SOL    HW116415   6.742   2.637   2.294
 5172SOL    HW216416   6.776   2.714   2.434
 5173SOL     OW16417   5.815   4.559   6.021
 5173SOL    HW116418   5.880   4.497   5.976
 5173SOL    HW216419   5.862   4.605   6.097
 5174SOL     OW16420   2.552   4.995   3.150
 5174SOL    HW116421   2.598   5.017   3.064
 5174SOL    HW216422   2.616   4.951   3.212
 5175SOL     OW16423   2.364   3.924   7.028
 5175SOL    HW116424   2.302   3.903   0.075
 5175SOL    HW216425   2.311   3.945   6.946
 5176SOL     OW16426   4.723   3.222   6.518
 5176SOL    HW116427   4.800   3.280   6.543
 5176SOL    HW216428   4.648   3.238   6.582
 5177SOL     OW16429   5.175   0.171   6.568
 5177SOL    HW116430   5.190   0.103   6.497
 5177SOL    HW216431   5.211   0.260   6.538
 5178SOL     OW16432   1.518   3.799   1.439
 5178SOL    HW116433   1.425   3.766   1.425
 5178SOL    HW216434   1.522   3.854   1.522
 5179SOL     OW16435   3.973   5.846   4.894
 5179SOL    HW116436   3.894   5.844   4.834
 5179SOL    HW216437   3.988   5.939   4.927
 5180SOL     OW16438   3.297   3.012   7.012
 5180SOL    HW116439   3.243   3.078   0.035
 5180SOL    HW216440   3.242   2.978   6.936
 5181SOL     OW16441   5.059   1.885   2.221
 5181SOL    HW116442   5.060   1.857   2.317
 5181SOL    HW216443   5.021   1.977   2.214
 5182SOL     OW16444   3.830   4.958   1.545
 5182SOL    HW116445   3.748   4.903   1.562
 5182SOL    HW216446   3.859   5.001   1.630
 5183SOL     OW16447   3.724   1.280   2.820
 5183SOL    HW116448   3.717   1.379   2.806
 5183SOL    HW216449   3.653   1.250   2.884
 5184SOL     OW16450   0.177   2.313   4.198
 5184SOL    HW116451   0.132   2.345   4.281
 5184SOL    HW216452   0.274   2.336   4.201
 5185SOL     OW16453   5.609   0.780   2.297
 5185SOL    HW116454   5.532   0.776   2.234
 5185SOL    HW216455   5.608   0.699   2.356
 5186SOL     OW16456   5.937   3.403   0.844
 5186SOL    HW116457   5.955   3.499   0.864
 5186SOL    HW216458   5.949   3.349   0.927
 5187SOL     OW16459   6.922   0.897   3.829
 5187SOL    HW116460   6.872   0.958   3.767
 5187SOL    HW216461   6.880   0.806   3.827
 5188SOL     OW16462   0.680   5.514   0.329
 5188SOL    HW116463   0.696   5.484   0.235
 5188SOL    HW216464   0.582   5.531   0.342
 5189SOL     OW16465   4.697   4.983   1.141
 5189SOL    HW116466   4.689   5.060   1.204
 5189SOL    HW216467   4.788   4.942   1.150
 5190SOL     OW16468   0.137   2.897   4.114
 5190SOL    HW116469   0.210   2.960   4.142
 5190SOL    HW216470   0.074   2.945   4.052
 5191SOL     OW16471   4.784   0.577   2.027
 5191SOL    HW116472   4.762   0.604   2.121
 5191SOL    HW216473   4.700   0.551   1.979
 5192SOL     OW16474   2.984   5.566   2.899
 5192SOL    HW116475   2.996   5.653   2.946
 5192SOL    HW216476   2.970   5.494   2.966
 5193SOL     OW16477   5.022   4.904   4.144
 5193SOL    HW116478   5.104   4.914   4.201
 5193SOL    HW216479   5.003   4.807   4.129
 5194SOL     OW16480   4.341   0.741   6.944
 5194SOL    HW116481   4.254   0.754   6.896
 5194SOL    HW216482   4.397   0.676   6.892
 5195SOL     OW16483   6.953   5.853   4.107
 5195SOL    HW116484   6.935   5.789   4.033
 5195SOL    HW216485   6.945   5.947   4.073
 5196SOL     OW16486   1.550   3.887   0.813
 5196SOL    HW116487   1.568   3.803   0.761
 5196SOL    HW216488   1.535   3.864   0.909
 5197SOL     OW16489   1.342   5.328   5.253
 5197SOL    HW116490   1.304   5.292   5.338
 5197SOL    HW216491   1.268   5.359   5.193
 5198SOL     OW16492   4.260   6.729   3.715
 5198SOL    HW116493   4.307   6.645   3.690
 5198SOL    HW216494   4.233   6.779   3.632
 5199SOL     OW16495   1.090   6.701   6.568
 5199SOL    HW116496   1.051   6.686   6.477
 5199SOL    HW216497   1.189   6.695   6.563
 5200SOL     OW16498   1.605   1.901   5.578
 5200SOL    HW116499   1.524   1.867   5.530
 5200SOL    HW216500   1.625   1.841   5.655
 5201SOL     OW16501   5.734   5.959   4.228
 5201SOL    HW116502   5.748   6.057   4.214
 5201SOL    HW216503   5.781   5.908   4.156
 5202SOL     OW16504   5.791   4.267   5.687
 5202SOL    HW116505   5.750   4.358   5.687
 5202SOL    HW216506   5.721   4.199   5.707
 5203SOL     OW16507   2.399   0.573   0.096
 5203SOL    HW116508   2.410   0.479   0.128
 5203SOL    HW216509   2.473   0.629   0.131
 5204SOL     OW16510   3.590   6.365   0.490
 5204SOL    HW116511   3.578   6.464   0.486
 5204SOL    HW216512   3.504   6.322   0.515
 5205SOL     OW16513   6.872   5.990   6.818
 5205SOL    HW116514   6.834   6.072   6.775
 5205SOL    HW216515   6.799   5.926   6.839
 5206SOL     OW16516   6.841   5.520   6.643
 5206SOL    HW116517   6.913   5.546   6.579
 5206SOL    HW216518   6.810   5.427   6.623
 5207SOL     OW16519   1.044   0.208   3.314
 5207SOL    HW116520   1.007   0.115   3.314
 5207SOL    HW216521   1.075   0.231   3.222
 5208SOL     OW16522   4.399   2.470   6.897
 5208SOL    HW116523   4.457   2.460   6.978
 5208SOL    HW216524   4.345   2.387   6.884
 5209SOL     OW16525   5.419   0.892   1.353
 5209SOL    HW116526   5.421   0.925   1.447
 5209SOL    HW216527   5.507   0.912   1.309
 5210SOL     OW16528   4.807   3.927   0.725
 5210SOL    HW116529   4.826   3.833   0.752
 5210SOL    HW216530   4.725   3.959   0.772
 5211SOL     OW16531   4.826   1.723   5.203
 5211SOL    HW116532   4.780   1.719   5.115
 5211SOL    HW216533   4.760   1.711   5.277
 5212SOL     OW16534   1.809   2.812   1.598
 5212SOL    HW116535   1.790   2.722   1.559
 5212SOL    HW216536   1.755   2.881   1.550
 5213SOL     OW16537   4.522   3.533   1.012
 5213SOL    HW116538   4.429   3.501   0.996
 5213SOL    HW216539   4.581   3.456   1.035
 5214SOL     OW16540   5.550   2.718   5.802
 5214SOL    HW116541   5.559   2.724   5.702
 5214SOL    HW216542   5.580   2.804   5.843
 5215SOL     OW16543   0.678   4.635   4.446
 5215SOL    HW116544   0.585   4.661   4.420
 5215SOL    HW216545   0.690   4.649   4.545
 5216SOL     OW16546   4.615   5.232   1.263
 5216SOL    HW116547   4.516   5.234   1.269
 5216SOL    HW216548   4.647   5.311   1.211
 5217SOL     OW16549   3.418   5.781   4.438
 5217SOL    HW116550   3.373   5.696   4.465
 5217SOL    HW216551   3.498   5.759   4.382
 5218SOL     OW16552   0.486   1.506   1.545
 5218SOL    HW116553   0.473   1.415   1.506
 5218SOL    HW216554   0.486   1.574   1.472
 5219SOL     OW16555   3.517   1.770   4.611
 5219SOL    HW116556   3.426   1.728   4.609
 5219SOL    HW216557   3.573   1.726   4.681
 5220SOL     OW16558   1.527   5.166   3.083
 5220SOL    HW116559   1.611   5.152   3.031
 5220SOL    HW216560   1.530   5.110   3.167
 5221SOL     OW16561   6.345   0.705   2.612
 5221SOL    HW116562   6.259   0.682   2.657
 5221SOL    HW216563   6.329   0.721   2.515
 5222SOL     OW16564   4.112   6.617   2.228
 5222SOL    HW116565   4.103   6.518   2.237
 5222SOL    HW216566   4.074   6.661   2.310
 5223SOL     OW16567   0.130   2.757   6.949
 5223SOL    HW116568   0.128   2.843   6.999
 5223SOL    HW216569   0.037   2.721   6.941
 5224SOL     OW16570   6.761   2.705   4.278
 5224SOL    HW116571   6.854   2.737   4.261
 5224SOL    HW216572   6.759   2.651   4.362
 5225SOL     OW16573   6.417   1.088   3.272
 5225SOL    HW116574   6.347   1.100   3.343
 5225SOL    HW216575   6.462   1.175   3.254
 5226SOL     OW16576   0.654   6.600   4.052
 5226SOL    HW116577   0.714   6.619   3.974
 5226SOL    HW216578   0.581   6.539   4.023
 5227SOL     OW16579   0.212   4.216   5.811
 5227SOL    HW116580   0.185   4.246   5.719
 5227SOL    HW216581   0.181   4.283   5.878
 5228SOL     OW16582   0.925   2.110   0.229
 5228SOL    HW116583   0.826   2.096   0.230
 5228SOL    HW216584   0.953   2.155   0.314
 5229SOL     OW16585   2.971   6.392   0.453
 5229SOL    HW116586   2.947   6.407   0.357
 5229SOL    HW216587   2.913   6.450   0.511
 5230SOL     OW16588   6.859   6.295   2.089
 5230SOL    HW116589   6.917   6.231   2.140
 5230SOL    HW216590   6.809   6.245   2.018
 5231SOL     OW16591   4.592   2.682   3.493
 5231SOL    HW116592   4.543   2.594   3.497
 5231SOL    HW216593   4.596   2.713   3.398
 5232SOL     OW16594   1.035   3.979   5.984
 5232SOL    HW116595   1.088   3.918   6.044
 5232SOL    HW216596   0.974   4.035   6.039
 5233SOL     OW16597   3.525   1.129   3.017
 5233SOL    HW116598   3.435   1.173   3.010
 5233SOL    HW216599   3.514   1.031   3.005
 5234SOL     OW16600   2.342   2.394   6.652
 5234SOL    HW116601   2.362   2.492   6.649
 5234SOL    HW216602   2.369   2.352   6.566
 5235SOL     OW16603   2.039   2.163   0.824
 5235SOL    HW116604   2.090   2.191   0.743
 5235SOL    HW216605   1.942   2.187   0.813
 5236SOL     OW16606   3.652   5.914   2.232
 5236SOL    HW116607   3.654   5.831   2.176
 5236SOL    HW216608   3.734   5.968   2.215
 5237SOL     OW16609   1.109   1.092   5.168
 5237SOL    HW116610   1.203   1.120   5.184
 5237SOL    HW216611   1.074   1.138   5.087
 5238SOL     OW16612   0.430   5.601   0.423
 5238SOL    HW116613   0.495   5.641   0.488
 5238SOL    HW216614   0.348   5.658   0.420
 5239SOL     OW16615   3.693   2.460   6.826
 5239SOL    HW116616   3.773   2.517   6.844
 5239SOL    HW216617   3.685   2.444   6.727
 5240SOL     OW16618   3.423   2.199   5.198
 5240SOL    HW116619   3.420   2.181   5.296
 5240SOL    HW216620   3.357   2.272   5.176
 5241SOL     OW16621   0.959   5.831   4.261
 5241SOL    HW116622   1.015   5.881   4.326
 5241SOL    HW216623   0.929   5.745   4.301
 5242SOL     OW16624   5.777   6.736   2.182
 5242SOL    HW116625   5.868   6.776   2.173
 5242SOL    HW216626   5.708   6.808   2.182
 5243SOL     OW16627   1.923   5.591   1.834
 5243SOL    HW116628   1.849   5.645   1.794
 5243SOL    HW216629   2.007   5.606   1.783
 5244SOL     OW16630   3.719   4.872   6.835
 5244SOL    HW116631   3.744   4.899   6.742
 5244SOL    HW216632   3.649   4.934   6.870
 5245SOL     OW16633   3.757   4.456   0.552
 5245SOL    HW116634   3.855   4.465   0.534
 5245SOL    HW216635   3.722   4.540   0.593
 5246SOL     OW16636   6.673   2.862   2.019
 5246SOL    HW116637   6.642   2.858   2.114
 5246SOL    HW216638   6.754   2.804   2.007
 5247SOL     OW16639   2.720   0.019   6.447
 5247SOL    HW116640   2.779   0.010   6.367
 5247SOL    HW216641   2.727   6.965   6.503
 5248SOL     OW16642   6.340   2.301   3.188
 5248SOL    HW116643   6.393   2.357   3.250
 5248SOL    HW216644   6.396   2.275   3.109
 5249SOL     OW16645   0.827   5.667   6.130
 5249SOL    HW116646   0.917   5.706   6.147
 5249SOL    HW216647   0.824   5.631   6.037
 5250SOL     OW16648   1.055   6.152   0.321
 5250SOL    HW116649   1.137   6.203   0.295
 5250SOL    HW216650   1.044   6.155   0.420
 5251SOL     OW16651   0.825   2.983   0.561
 5251SOL    HW116652   0.860   3.061   0.613
 5251SOL    HW216653   0.898   2.947   0.503
 5252SOL     OW16654   3.007   6.376   0.910
 5252SOL    HW116655   2.997   6.349   1.005
 5252SOL    HW216656   3.102   6.401   0.892
 5253SOL     OW16657   6.802   3.998   4.842
 5253SOL    HW116658   6.772   3.903   4.828
 5253SOL    HW216659   6.821   4.040   4.753
 5254SOL     OW16660   5.426   0.930   3.352
 5254SOL    HW116661   5.506   0.873   3.330
 5254SOL    HW216662   5.376   0.890   3.428
 5255SOL     OW16663   5.527   2.177   5.347
 5255SOL    HW116664   5.473   2.092   5.342
 5255SOL    HW216665   5.467   2.253   5.371
 5256SOL     OW16666   5.195   1.956   4.014
 5256SOL    HW116667   5.217   1.897   4.091
 5256SOL    HW216668   5.179   1.900   3.932
 5257SOL     OW16669   4.892   6.974   1.276
 5257SOL    HW116670   4.932   7.003   1.190
 5257SOL    HW216671   4.926   6.882   1.299
 5258SOL     OW16672   6.018   3.120   1.879
 5258SOL    HW116673   6.078   3.117   1.799
 5258SOL    HW216674   5.969   3.033   1.887
 5259SOL     OW16675   4.828   6.025   2.698
 5259SOL    HW116676   4.761   6.044   2.627
 5259SOL    HW216677   4.876   5.940   2.676
 5260SOL     OW16678   4.677   3.895   0.486
 5260SOL    HW116679   4.739   3.900   0.564
 5260SOL    HW216680   4.691   3.976   0.428
 5261SOL     OW16681   6.433   3.973   5.972
 5261SOL    HW116682   6.352   3.963   5.915
 5261SOL    HW216683   6.406   3.997   6.066
 5262SOL     OW16684   2.504   1.366   3.304
 5262SOL    HW116685   2.595   1.403   3.283
 5262SOL    HW216686   2.508   1.313   3.389
 5263SOL     OW16687   1.753   1.502   3.222
 5263SOL    HW116688   1.731   1.406   3.207
 5263SOL    HW216689   1.849   1.518   3.198
 5264SOL     OW16690   6.385   2.212   2.097
 5264SOL    HW116691   6.288   2.192   2.114
 5264SOL    HW216692   6.393   2.285   2.029
 5265SOL     OW16693   6.077   3.565   3.784
 5265SOL    HW116694   6.096   3.498   3.856
 5265SOL    HW216695   6.100   3.527   3.695
 5266SOL     OW16696   3.325   5.791   0.088
 5266SOL    HW116697   3.274   5.706   0.104
 5266SOL    HW216698   3.418   5.781   0.122
 5267SOL     OW16699   4.956   2.329   4.840
 5267SOL    HW116700   4.977   2.254   4.776
 5267SOL    HW216701   5.036   2.388   4.849
 5268SOL     OW16702   5.971   0.888   0.069
 5268SOL    HW116703   6.062   0.874   0.109
 5268SOL    HW216704   5.935   0.801   0.036
 5269SOL     OW16705   0.999   6.700   2.591
 5269SOL    HW116706   0.938   6.632   2.552
 5269SOL    HW216707   1.029   6.670   2.682
 5270SOL     OW16708   5.093   1.048   1.897
 5270SOL    HW116709   4.993   1.039   1.904
 5270SOL    HW216710   5.122   1.133   1.941
 5271SOL     OW16711   6.086   4.412   5.022
 5271SOL    HW116712   6.096   4.444   5.117
 5271SOL    HW216713   6.089   4.312   5.020
 5272SOL     OW16714   3.399   6.419   1.614
 5272SOL    HW116715   3.466   6.368   1.561
 5272SOL    HW216716   3.442   6.451   1.699
 5273SOL     OW16717   0.485   2.755   3.457
 5273SOL    HW116718   0.398   2.755   3.408
 5273SOL    HW216719   0.523   2.848   3.456
 5274SOL     OW16720   6.131   0.372   2.891
 5274SOL    HW116721   6.135   0.278   2.924
 5274SOL    HW216722   6.215   0.421   2.917
 5275SOL     OW16723   3.881   2.075   0.351
 5275SOL    HW116724   3.829   2.158   0.368
 5275SOL    HW216725   3.882   2.018   0.433
 5276SOL     OW16726   1.877   0.240   0.787
 5276SOL    HW116727   1.910   0.217   0.879
 5276SOL    HW216728   1.781   0.266   0.791
 5277SOL     OW16729   2.259   1.593   2.246
 5277SOL    HW116730   2.236   1.512   2.192
 5277SOL    HW216731   2.175   1.631   2.285
 5278SOL     OW16732   5.362   5.947   3.276
 5278SOL    HW116733   5.424   5.969   3.351
 5278SOL    HW216734   5.316   5.860   3.296
 5279SOL     OW16735   1.984   5.254   0.284
 5279SOL    HW116736   2.035   5.330   0.325
 5279SOL    HW216737   2.031   5.223   0.202
 5280SOL     OW16738   3.174   5.662   5.221
 5280SOL    HW116739   3.219   5.586   5.175
 5280SOL    HW216740   3.209   5.749   5.185
 5281SOL     OW16741   6.763   1.816   1.896
 5281SOL    HW116742   6.745   1.720   1.874
 5281SOL    HW216743   6.845   1.823   1.953
 5282SOL     OW16744   4.000   1.888   3.418
 5282SOL    HW116745   3.981   1.849   3.508
 5282SOL    HW216746   3.925   1.867   3.356
 5283SOL     OW16747   4.351   6.299   2.348
 5283SOL    HW116748   4.389   6.367   2.411
 5283SOL    HW216749   4.405   6.297   2.264
 5284SOL     OW16750   4.606   4.417   3.292
 5284SOL    HW116751   4.628   4.334   3.343
 5284SOL    HW216752   4.564   4.393   3.205
 5285SOL     OW16753   2.510   4.499   4.149
 5285SOL    HW116754   2.422   4.458   4.173
 5285SOL    HW216755   2.507   4.531   4.055
 5286SOL     OW16756   1.807   4.656   0.301
 5286SOL    HW116757   1.829   4.711   0.382
 5286SOL    HW216758   1.734   4.699   0.249
 5287SOL     OW16759   3.226   0.710   0.313
 5287SOL    HW116760   3.147   0.739   0.260
 5287SOL    HW216761   3.307   0.758   0.280
 5288SOL     OW16762   2.795   7.023   1.844
 5288SOL    HW116763   2.838   6.957   1.781
 5288SOL    HW216764   2.826   7.004   1.937
 5289SOL     OW16765   1.810   4.985   6.393
 5289SOL    HW116766   1.885   5.008   6.331
 5289SOL    HW216767   1.783   5.067   6.443
 5290SOL     OW16768   2.566   5.640   5.807
 5290SOL    HW116769   2.632   5.668   5.877
 5290SOL    HW216770   2.480   5.689   5.821
 5291SOL     OW16771   2.375   5.821   5.377
 5291SOL    HW116772   2.295   5.880   5.364
 5291SOL    HW216773   2.366   5.771   5.464
 5292SOL     OW16774   5.606   2.829   6.980
 5292SOL    HW116775   5.525   2.827   0.011
 5292SOL    HW216776   5.638   2.735   6.965
 5293SOL     OW16777   0.370   1.068   4.965
 5293SOL    HW116778   0.438   1.142   4.957
 5293SOL    HW216779   0.342   1.060   5.061
 5294SOL     OW16780   5.030   3.586   6.340
 5294SOL    HW116781   5.077   3.571   6.427
 5294SOL    HW216782   4.997   3.498   6.305
 5295SOL     OW16783   6.670   1.033   2.786
 5295SOL    HW116784   6.727   1.001   2.710
 5295SOL    HW216785   6.696   0.985   2.870
 5296SOL     OW16786   1.856   5.844   6.963
 5296SOL    HW116787   1.919   5.854   6.886
 5296SOL    HW216788   1.801   5.761   6.952
 5297SOL     OW16789   1.686   2.052   1.388
 5297SOL    HW116790   1.640   2.019   1.305
 5297SOL    HW216791   1.783   2.068   1.369
 5298SOL     OW16792   6.657   6.009   2.326
 5298SOL    HW116793   6.724   5.998   2.400
 5298SOL    HW216794   6.588   6.076   2.353
 5299SOL     OW16795   2.783   2.253   1.365
 5299SOL    HW116796   2.837   2.269   1.282
 5299SOL    HW216797   2.737   2.337   1.391
 5300SOL     OW16798   0.205   5.379   2.361
 5300SOL    HW116799   0.160   5.433   2.432
 5300SOL    HW216800   0.208   5.283   2.389
 5301SOL     OW16801   4.741   1.373   0.411
 5301SOL    HW116802   4.768   1.436   0.339
 5301SOL    HW216803   4.729   1.281   0.373
 5302SOL     OW16804   6.315   4.560   3.188
 5302SOL    HW116805   6.315   4.639   3.250
 5302SOL    HW216806   6.397   4.562   3.131
 5303SOL     OW16807   6.771   6.781   3.925
 5303SOL    HW116808   6.692   6.738   3.882
 5303SOL    HW216809   6.838   6.711   3.949
 5304SOL     OW16810   5.990   2.150   6.346
 5304SOL    HW116811   5.952   2.092   6.419
 5304SOL    HW216812   5.937   2.234   6.340
 5305SOL     OW16813   1.111   0.355   4.015
 5305SOL    HW116814   1.067   0.422   3.955
 5305SOL    HW216815   1.075   0.365   4.108
 5306SOL     OW16816   1.897   6.352   5.008
 5306SOL    HW116817   1.816   6.401   5.039
 5306SOL    HW216818   1.873   6.257   4.987
 5307SOL     OW16819   4.279   6.400   6.105
 5307SOL    HW116820   4.287   6.307   6.142
 5307SOL    HW216821   4.305   6.466   6.175
 5308SOL     OW16822   0.025   1.092   3.963
 5308SOL    HW116823   7.020   1.009   3.918
 5308SOL    HW216824   6.996   1.169   3.937
 5309SOL     OW16825   3.883   3.939   3.263
 5309SOL    HW116826   3.861   3.998   3.186
 5309SOL    HW216827   3.856   3.983   3.348
 5310SOL     OW16828   5.086   2.509   2.120
 5310SOL    HW116829   5.057   2.574   2.190
 5310SOL    HW216830   5.133   2.432   2.163
 5311SOL     OW16831   0.533   6.019   6.854
 5311SOL    HW116832   0.507   5.955   6.781
 5311SOL    HW216833   0.603   6.081   6.820
 5312SOL     OW16834   0.280   4.683   2.270
 5312SOL    HW116835   0.334   4.744   2.328
 5312SOL    HW216836   0.189   4.721   2.257
 5313SOL     OW16837   0.458   5.588   0.025
 5313SOL    HW116838   0.553   5.560   0.033
 5313SOL    HW216839   0.452   5.687   0.015
 5314SOL     OW16840   4.851   5.302   0.785
 5314SOL    HW116841   4.803   5.224   0.826
 5314SOL    HW216842   4.915   5.340   0.851
 5315SOL     OW16843   4.677   4.489   1.871
 5315SOL    HW116844   4.731   4.538   1.939
 5315SOL    HW216845   4.643   4.403   1.910
 5316SOL     OW16846   0.473   5.372   4.709
 5316SOL    HW116847   0.486   5.382   4.610
 5316SOL    HW216848   0.418   5.448   4.743
 5317SOL     OW16849   5.569   1.403   4.014
 5317SOL    HW116850   5.640   1.355   4.065
 5317SOL    HW216851   5.496   1.338   3.990
 5318SOL     OW16852   6.816   2.028   4.897
 5318SOL    HW116853   6.802   2.082   4.814
 5318SOL    HW216854   6.773   1.938   4.885
 5319SOL     OW16855   5.156   6.654   6.538
 5319SOL    HW116856   5.074   6.711   6.536
 5319SOL    HW216857   5.215   6.683   6.612
 5320SOL     OW16858   6.265   5.050   0.384
 5320SOL    HW116859   6.176   5.006   0.387
 5320SOL    HW216860   6.314   5.022   0.301
 5321SOL     OW16861   0.722   4.826   3.391
 5321SOL    HW116862   0.718   4.907   3.332
 5321SOL    HW216863   0.658   4.837   3.467
 5322SOL     OW16864   3.791   6.716   6.734
 5322SOL    HW116865   3.800   6.756   6.825
 5322SOL    HW216866   3.717   6.762   6.685
 5323SOL     OW16867   4.350   2.902   1.338
 5323SOL    HW116868   4.283   2.936   1.404
 5323SOL    HW216869   4.442   2.928   1.369
 5324SOL     OW16870   3.708   2.618   1.755
 5324SOL    HW116871   3.649   2.655   1.683
 5324SOL    HW216872   3.686   2.521   1.769
 5325SOL     OW16873   5.693   0.123   2.972
 5325SOL    HW116874   5.625   0.157   3.037
 5325SOL    HW216875   5.669   0.154   2.880
 5326SOL     OW16876   6.106   5.193   2.527
 5326SOL    HW116877   6.163   5.147   2.595
 5326SOL    HW216878   6.079   5.127   2.456
 5327SOL     OW16879   0.555   6.313   5.591
 5327SOL    HW116880   0.551   6.406   5.629
 5327SOL    HW216881   0.465   6.271   5.597
 5328SOL     OW16882   3.466   2.427   5.589
 5328SOL    HW116883   3.458   2.338   5.544
 5328SOL    HW216884   3.534   2.482   5.541
 5329SOL     OW16885   6.774   4.144   0.647
 5329SOL    HW116886   6.725   4.135   0.560
 5329SOL    HW216887   6.826   4.060   0.664
 5330SOL     OW16888   3.862   4.147   6.783
 5330SOL    HW116889   3.955   4.129   6.816
 5330SOL    HW216890   3.807   4.183   6.858
 5331SOL     OW16891   4.836   2.176   0.814
 5331SOL    HW116892   4.915   2.237   0.821
 5331SOL    HW216893   4.753   2.230   0.798
 5332SOL     OW16894   6.398   4.781   0.255
 5332SOL    HW116895   6.302   4.779   0.227
 5332SOL    HW216896   6.447   4.705   0.212
 5333SOL     OW16897   1.929   0.929   3.527
 5333SOL    HW116898   1.875   0.936   3.610
 5333SOL    HW216899   1.935   1.019   3.483
 5334SOL     OW16900   4.776   5.190   4.374
 5334SOL    HW116901   4.831   5.108   4.389
 5334SOL    HW216902   4.770   5.242   4.459
 5335SOL     OW16903   6.641   4.237   2.693
 5335SOL    HW116904   6.546   4.211   2.678
 5335SOL    HW216905   6.645   4.327   2.735
 5336SOL     OW16906   2.188   1.843   3.855
 5336SOL    HW116907   2.144   1.894   3.781
 5336SOL    HW216908   2.285   1.831   3.833
 5337SOL     OW16909   6.049   4.713   1.645
 5337SOL    HW116910   6.057   4.738   1.548
 5337SOL    HW216911   6.120   4.646   1.668
 5338SOL     OW16912   5.408   2.770   0.127
 5338SOL    HW116913   5.316   2.740   0.151
 5338SOL    HW216914   5.464   2.776   0.209
 5339SOL     OW16915   5.927   1.918   1.614
 5339SOL    HW116916   5.945   1.849   1.685
 5339SOL    HW216917   5.851   1.976   1.644
 5340SOL     OW16918   5.410   3.961   1.674
 5340SOL    HW116919   5.488   3.937   1.616
 5340SOL    HW216920   5.359   3.879   1.697
 5341SOL     OW16921   4.349   4.834   4.256
 5341SOL    HW116922   4.274   4.858   4.319
 5341SOL    HW216923   4.432   4.880   4.285
 5342SOL     OW16924   4.723   6.446   5.493
 5342SOL    HW116925   4.729   6.515   5.421
 5342SOL    HW216926   4.629   6.413   5.499
 5343SOL     OW16927   3.589   3.489   4.483
 5343SOL    HW116928   3.654   3.516   4.412
 5343SOL    HW216929   3.496   3.508   4.453
 5344SOL     OW16930   0.438   1.434   6.863
 5344SOL    HW116931   0.428   1.334   6.863
 5344SOL    HW216932   0.480   1.464   6.777
 5345SOL     OW16933   5.054   1.175   0.254
 5345SOL    HW116934   5.148   1.148   0.234
 5345SOL    HW216935   4.993   1.098   0.239
 5346SOL     OW16936   2.849   4.816   3.978
 5346SOL    HW116937   2.801   4.742   4.025
 5346SOL    HW216938   2.873   4.887   4.044
 5347SOL     OW16939   7.026   2.800   3.448
 5347SOL    HW116940   6.971   2.721   3.422
 5347SOL    HW216941   0.080   2.804   3.392
 5348SOL     OW16942   0.069   1.465   5.103
 5348SOL    HW116943   0.035   1.464   5.009
 5348SOL    HW216944   0.159   1.421   5.106
 5349SOL     OW16945   1.963   3.134   1.747
 5349SOL    HW116946   2.060   3.132   1.770
 5349SOL    HW216947   1.918   3.053   1.786
 5350SOL     OW16948   1.754   6.837   5.619
 5350SOL    HW116949   1.778   6.854   5.715
 5350SOL    HW216950   1.837   6.815   5.568
 5351SOL     OW16951   0.363   4.425   2.039
 5351SOL    HW116952   0.324   4.491   1.975
 5351SOL    HW216953   0.451   4.458   2.073
 5352SOL     OW16954   2.236   4.538   2.609
 5352SOL    HW116955   2.248   4.631   2.644
 5352SOL    HW216956   2.300   4.521   2.534
 5353SOL     OW16957   3.340   5.230   3.808
 5353SOL    HW116958   3.393   5.268   3.732
 5353SOL    HW216959   3.333   5.299   3.880
 5354SOL     OW16960   3.015   4.710   0.303
 5354SOL    HW116961   3.104   4.664   0.297
 5354SOL    HW216962   2.987   4.740   0.212
 5355SOL     OW16963   4.596   5.151   5.386
 5355SOL    HW116964   4.658   5.073   5.393
 5355SOL    HW216965   4.542   5.159   5.470
 5356SOL     OW16966   6.606   3.156   1.955
 5356SOL    HW116967   6.702   3.172   1.974
 5356SOL    HW216968   6.583   3.061   1.976
 5357SOL     OW16969   4.145   4.914   2.134
 5357SOL    HW116970   4.225   4.916   2.074
 5357SOL    HW216971   4.072   4.861   2.091
 5358SOL     OW16972   4.584   2.168   0.205
 5358SOL    HW116973   4.630   2.103   0.265
 5358SOL    HW216974   4.485   2.161   0.216
 5359SOL     OW16975   2.548   2.401   0.078
 5359SOL    HW116976   2.456   2.438   0.072
 5359SOL    HW216977   2.612   2.473   0.106
 5360SOL     OW16978   5.190   6.050   3.091
 5360SOL    HW116979   5.215   6.140   3.056
 5360SOL    HW216980   5.257   6.021   3.159
 5361SOL     OW16981   2.857   6.565   3.256
 5361SOL    HW116982   2.943   6.515   3.243
 5361SOL    HW216983   2.781   6.511   3.218
 5362SOL     OW16984   6.324   6.628   2.354
 5362SOL    HW116985   6.249   6.589   2.300
 5362SOL    HW216986   6.331   6.579   2.441
 5363SOL     OW16987   5.291   6.468   4.630
 5363SOL    HW116988   5.198   6.502   4.648
 5363SOL    HW216989   5.307   6.386   4.685
 5364SOL     OW16990   5.346   0.737   2.175
 5364SOL    HW116991   5.249   0.749   2.193
 5364SOL    HW216992   5.364   0.748   2.077
 5365SOL     OW16993   3.087   3.967   2.363
 5365SOL    HW116994   3.086   4.025   2.282
 5365SOL    HW216995   3.065   3.873   2.337
 5366SOL     OW16996   6.706   0.225   1.779
 5366SOL    HW116997   6.692   0.275   1.693
 5366SOL    HW216998   6.658   0.138   1.775
 5367SOL     OW16999   6.177   0.201   0.583
 5367SOL    HW117000   6.222   0.136   0.523
 5367SOL    HW217001   6.078   0.192   0.575
 5368SOL     OW17002   0.301   5.849   2.102
 5368SOL    HW117003   0.364   5.921   2.130
 5368SOL    HW217004   0.288   5.785   2.177
 5369SOL     OW17005   2.812   5.767   1.498
 5369SOL    HW117006   2.759   5.688   1.466
 5369SOL    HW217007   2.849   5.747   1.589
 5370SOL     OW17008   4.138   3.197   1.882
 5370SOL    HW117009   4.222   3.177   1.832
 5370SOL    HW217010   4.071   3.238   1.820
 5371SOL     OW17011   0.122   5.004   5.094
 5371SOL    HW117012   0.217   4.988   5.123
 5371SOL    HW217013   0.119   5.083   5.034
 5372SOL     OW17014   0.850   0.281   2.401
 5372SOL    HW117015   0.862   0.223   2.320
 5372SOL    HW217016   0.940   0.308   2.436
 5373SOL     OW17017   3.829   6.925   6.364
 5373SOL    HW117018   3.835   6.903   6.266
 5373SOL    HW217019   3.733   6.929   6.392
 5374SOL     OW17020   2.445   4.787   0.899
 5374SOL    HW117021   2.376   4.817   0.964
 5374SOL    HW217022   2.524   4.749   0.948
 5375SOL     OW17023   0.751   6.464   5.408
 5375SOL    HW117024   0.733   6.432   5.501
 5375SOL    HW217025   0.771   6.562   5.409
 5376SOL     OW17026   1.228   2.080   2.106
 5376SOL    HW117027   1.287   2.005   2.077
 5376SOL    HW217028   1.243   2.159   2.046
 5377SOL     OW17029   2.336   0.841   3.310
 5377SOL    HW117030   2.400   0.832   3.387
 5377SOL    HW217031   2.361   0.776   3.238
 5378SOL     OW17032   5.890   0.287   0.570
 5378SOL    HW117033   5.796   0.315   0.584
 5378SOL    HW217034   5.952   0.357   0.607
 5379SOL     OW17035   1.231   3.159   5.678
 5379SOL    HW117036   1.325   3.191   5.674
 5379SOL    HW217037   1.225   3.079   5.739
 5380SOL     OW17038   3.158   0.007   1.338
 5380SOL    HW117039   3.197   0.062   1.412
 5380SOL    HW217040   3.206   0.027   1.252
 5381SOL     OW17041   6.213   5.827   2.164
 5381SOL    HW117042   6.256   5.916   2.178
 5381SOL    HW217043   6.133   5.818   2.224
 5382SOL     OW17044   3.759   1.982   2.564
 5382SOL    HW117045   3.735   1.885   2.566
 5382SOL    HW217046   3.708   2.026   2.490
 5383SOL     OW17047   0.878   2.996   4.550
 5383SOL    HW117048   0.873   3.070   4.618
 5383SOL    HW217049   0.959   2.940   4.567
 5384SOL     OW17050   4.466   5.112   4.842
 5384SOL    HW117051   4.547   5.140   4.894
 5384SOL    HW217052   4.384   5.134   4.895
 5385SOL     OW17053   6.700   2.387   5.603
 5385SOL    HW117054   6.669   2.294   5.582
 5385SOL    HW217055   6.736   2.390   5.696
 5386SOL     OW17056   5.402   2.563   4.111
 5386SOL    HW117057   5.418   2.466   4.131
 5386SOL    HW217058   5.327   2.597   4.167
 5387SOL     OW17059   2.832   6.971   3.073
 5387SOL    HW117060   2.824   0.040   3.094
 5387SOL    HW217061   2.805   6.918   3.153
 5388SOL     OW17062   1.433   6.581   2.944
 5388SOL    HW117063   1.508   6.540   2.995
 5388SOL    HW217064   1.470   6.630   2.865
 5389SOL     OW17065   4.262   2.339   4.508
 5389SOL    HW117066   4.175   2.298   4.537
 5389SOL    HW217067   4.245   2.400   4.431
 5390SOL     OW17068   5.630   3.445   4.176
 5390SOL    HW117069   5.532   3.437   4.194
 5390SOL    HW217070   5.682   3.418   4.257
 5391SOL     OW17071   2.898   2.414   0.119
 5391SOL    HW117072   2.997   2.431   0.114
 5391SOL    HW217073   2.878   2.355   0.197
 5392SOL     OW17074   4.730   2.819   2.572
 5392SOL    HW117075   4.716   2.918   2.574
 5392SOL    HW217076   4.828   2.800   2.561
 5393SOL     OW17077   4.248   0.105   5.330
 5393SOL    HW117078   4.213   0.167   5.259
 5393SOL    HW217079   4.343   0.082   5.311
 5394SOL     OW17080   0.938   6.161   1.581
 5394SOL    HW117081   0.844   6.129   1.568
 5394SOL    HW217082   0.945   6.255   1.548
 5395SOL     OW17083   4.799   0.730   1.017
 5395SOL    HW117084   4.838   0.764   1.103
 5395SOL    HW217085   4.851   0.766   0.940
 5396SOL     OW17086   5.313   5.866   1.892
 5396SOL    HW117087   5.379   5.794   1.910
 5396SOL    HW217088   5.342   5.919   1.813
 5397SOL     OW17089   6.972   1.871   2.078
 5397SOL    HW117090   6.941   1.938   2.145
 5397SOL    HW217091   0.041   1.885   2.059
 5398SOL     OW17092   3.931   2.215   3.777
 5398SOL    HW117093   3.844   2.204   3.827
 5398SOL    HW217094   3.912   2.255   3.687
 5399SOL     OW17095   2.017   6.411   5.792
 5399SOL    HW117096   2.083   6.358   5.739
 5399SOL    HW217097   1.979   6.353   5.865
 5400SOL     OW17098   3.533   3.100   1.093
 5400SOL    HW117099   3.572   3.101   1.001
 5400SOL    HW217100   3.493   3.010   1.111
 5401SOL     OW17101   4.797   4.614   3.502
 5401SOL    HW117102   4.820   4.538   3.441
 5401SOL    HW217103   4.748   4.579   3.581
 5402SOL     OW17104   3.254   6.431   0.795
 5402SOL    HW117105   3.226   6.526   0.784
 5402SOL    HW217106   3.318   6.423   0.871
 5403SOL     OW17107   5.393   3.064   6.212
 5403SOL    HW117108   5.416   3.081   6.308
 5403SOL    HW217109   5.298   3.035   6.205
 5404SOL     OW17110   0.454   0.607   0.948
 5404SOL    HW117111   0.550   0.628   0.967
 5404SOL    HW217112   0.446   0.557   0.862
 5405SOL     OW17113   5.571   5.152   0.089
 5405SOL    HW117114   5.522   5.207   0.156
 5405SOL    HW217115   5.665   5.183   0.083
 5406SOL     OW17116   1.799   0.775   4.708
 5406SOL    HW117117   1.852   0.758   4.790
 5406SOL    HW217118   1.701   0.766   4.729
 5407SOL     OW17119   2.921   1.125   1.274
 5407SOL    HW117120   2.911   1.060   1.199
 5407SOL    HW217121   2.894   1.082   1.360
 5408SOL     OW17122   3.900   1.849   4.639
 5408SOL    HW117123   3.898   1.944   4.672
 5408SOL    HW217124   3.884   1.848   4.540
 5409SOL     OW17125   6.302   1.916   1.818
 5409SOL    HW117126   6.384   1.950   1.863
 5409SOL    HW217127   6.246   1.993   1.787
 5410SOL     OW17128   0.288   2.906   0.880
 5410SOL    HW117129   0.326   2.903   0.788
 5410SOL    HW217130   0.324   2.829   0.933
 5411SOL     OW17131   5.845   4.351   7.006
 5411SOL    HW117132   5.753   4.383   6.984
 5411SOL    HW217133   5.859   4.352   0.076
 5412SOL     OW17134   2.235   1.408   6.192
 5412SOL    HW117135   2.215   1.407   6.290
 5412SOL    HW217136   2.232   1.314   6.156
 5413SOL     OW17137   6.661   0.233   5.690
 5413SOL    HW117138   6.608   0.150   5.672
 5413SOL    HW217139   6.719   0.254   5.612
 5414SOL     OW17140   0.354   4.693   5.737
 5414SOL    HW117141   0.421   4.767   5.747
 5414SOL    HW217142   0.403   4.606   5.727
 5415SOL     OW17143   3.063   5.830   0.239
 5415SOL    HW117144   2.969   5.799   0.230
 5415SOL    HW217145   3.112   5.812   0.154
 5416SOL     OW17146   2.996   5.142   4.924
 5416SOL    HW117147   3.028   5.120   4.832
 5416SOL    HW217148   2.914   5.089   4.944
 5417SOL     OW17149   4.600   6.636   4.140
 5417SOL    HW117150   4.598   6.634   4.040
 5417SOL    HW217151   4.510   6.664   4.175
 5418SOL     OW17152   5.585   4.693   4.844
 5418SOL    HW117153   5.605   4.728   4.935
 5418SOL    HW217154   5.648   4.619   4.822
 5419SOL     OW17155   4.059   6.704   7.014
 5419SOL    HW117156   4.043   6.798   0.016
 5419SOL    HW217157   4.017   6.640   0.051
 5420SOL     OW17158   1.356   1.558   1.554
 5420SOL    HW117159   1.389   1.479   1.606
 5420SOL    HW217160   1.393   1.642   1.594
 5421SOL     OW17161   3.398   5.545   2.078
 5421SOL    HW117162   3.353   5.555   2.166
 5421SOL    HW217163   3.330   5.519   2.009
 5422SOL     OW17164   2.196   5.546   4.087
 5422SOL    HW117165   2.226   5.641   4.078
 5422SOL    HW217166   2.239   5.505   4.168
 5423SOL     OW17167   6.400   5.401   2.165
 5423SOL    HW117168   6.420   5.322   2.223
 5423SOL    HW217169   6.336   5.462   2.212
 5424SOL     OW17170   4.938   4.074   4.788
 5424SOL    HW117171   4.954   4.024   4.873
 5424SOL    HW217172   4.840   4.092   4.779
 5425SOL     OW17173   6.332   3.063   5.106
 5425SOL    HW117174   6.374   3.153   5.117
 5425SOL    HW217175   6.348   3.030   5.014
 5426SOL     OW17176   5.002   5.228   1.905
 5426SOL    HW117177   5.012   5.319   1.945
 5426SOL    HW217178   5.023   5.158   1.973
 5427SOL     OW17179   4.533   2.828   0.178
 5427SOL    HW117180   4.583   2.743   0.164
 5427SOL    HW217181   4.594   2.895   0.222
 5428SOL     OW17182   5.442   5.899   2.325
 5428SOL    HW117183   5.388   5.927   2.246
 5428SOL    HW217184   5.458   5.800   2.321
 5429SOL     OW17185   2.925   6.962   4.542
 5429SOL    HW117186   2.914   0.006   4.473
 5429SOL    HW217187   2.941   6.875   4.497
 5430SOL     OW17188   1.973   3.341   5.576
 5430SOL    HW117189   2.063   3.331   5.533
 5430SOL    HW217190   1.982   3.399   5.657
 5431SOL     OW17191   3.432   5.181   6.388
 5431SOL    HW117192   3.334   5.197   6.378
 5431SOL    HW217193   3.483   5.259   6.351
 5432SOL     OW17194   5.560   5.979   0.642
 5432SOL    HW117195   5.472   5.979   0.688
 5432SOL    HW217196   5.595   6.073   0.637
 5433SOL     OW17197   1.229   0.074   1.305
 5433SOL    HW117198   1.243   7.013   1.348
 5433SOL    HW217199   1.282   0.143   1.353
 5434SOL     OW17200   4.635   0.886   4.678
 5434SOL    HW117201   4.734   0.875   4.666
 5434SOL    HW217202   4.612   0.883   4.775
 5435SOL     OW17203   6.388   3.700   0.448
 5435SOL    HW117204   6.327   3.755   0.505
 5435SOL    HW217205   6.417   3.619   0.498
 5436SOL     OW17206   0.335   5.715   2.996
 5436SOL    HW117207   0.263   5.771   3.036
 5436SOL    HW217208   0.338   5.626   3.041
 5437SOL     OW17209   3.156   5.102   6.416
 5437SOL    HW117210   3.148   5.022   6.358
 5437SOL    HW217211   3.064   5.133   6.443
 5438SOL     OW17212   5.433   4.791   2.048
 5438SOL    HW117213   5.365   4.745   2.103
 5438SOL    HW217214   5.388   4.852   1.983
 5439SOL     OW17215   1.176   3.998   0.215
 5439SOL    HW117216   1.181   4.050   0.300
 5439SOL    HW217217   1.152   4.060   0.140
 5440SOL     OW17218   5.740   6.911   3.325
 5440SOL    HW117219   5.753   6.996   3.375
 5440SOL    HW217220   5.686   6.847   3.381
 5441SOL     OW17221   4.879   3.115   3.737
 5441SOL    HW117222   4.818   3.052   3.785
 5441SOL    HW217223   4.875   3.098   3.639
 5442SOL     OW17224   5.067   0.705   3.757
 5442SOL    HW117225   5.076   0.740   3.664
 5442SOL    HW217226   4.977   0.663   3.768
 5443SOL     OW17227   4.684   6.784   4.442
 5443SOL    HW117228   4.645   6.836   4.365
 5443SOL    HW217229   4.759   6.836   4.481
 5444SOL     OW17230   0.350   1.958   4.135
 5444SOL    HW117231   0.279   1.959   4.206
 5444SOL    HW217232   0.331   2.030   4.068
 5445SOL     OW17233   5.080   5.237   4.903
 5445SOL    HW117234   5.092   5.220   5.000
 5445SOL    HW217235   5.104   5.333   4.883
 5446SOL     OW17236   6.591   4.770   5.007
 5446SOL    HW117237   6.642   4.711   5.069
 5446SOL    HW217238   6.494   4.748   5.010
 5447SOL     OW17239   2.490   1.408   1.473
 5447SOL    HW117240   2.512   1.314   1.496
 5447SOL    HW217241   2.551   1.440   1.401
 5448SOL     OW17242   4.360   5.644   4.098
 5448SOL    HW117243   4.423   5.669   4.172
 5448SOL    HW217244   4.267   5.636   4.134
 5449SOL     OW17245   3.089   1.339   1.890
 5449SOL    HW117246   3.103   1.416   1.952
 5449SOL    HW217247   3.143   1.353   1.807
 5450SOL     OW17248   3.384   6.091   1.927
 5450SOL    HW117249   3.414   6.000   1.955
 5450SOL    HW217250   3.448   6.159   1.961
 5451SOL     OW17251   1.056   0.133   2.603
 5451SOL    HW117252   0.970   0.085   2.588
 5451SOL    HW217253   1.107   0.087   2.676
 5452SOL     OW17254   1.546   4.726   1.120
 5452SOL    HW117255   1.510   4.639   1.087
 5452SOL    HW217256   1.508   4.746   1.210
 5453SOL     OW17257   4.763   4.136   2.257
 5453SOL    HW117258   4.685   4.180   2.212
 5453SOL    HW217259   4.830   4.107   2.189
 5454SOL     OW17260   5.737   5.865   2.290
 5454SOL    HW117261   5.762   5.946   2.344
 5454SOL    HW217262   5.648   5.831   2.321
 5455SOL     OW17263   0.809   1.399   2.838
 5455SOL    HW117264   0.798   1.429   2.743
 5455SOL    HW217265   0.820   1.299   2.841
 5456SOL     OW17266   5.300   0.667   7.008
 5456SOL    HW117267   5.303   0.606   0.059
 5456SOL    HW217268   5.371   0.641   6.944
 5457SOL     OW17269   6.384   2.049   0.081
 5457SOL    HW117270   6.346   1.971   0.130
 5457SOL    HW217271   6.363   2.041   7.012
 5458SOL     OW17272   6.204   5.160   0.798
 5458SOL    HW117273   6.122   5.128   0.752
 5458SOL    HW217274   6.285   5.118   0.757
 5459SOL     OW17275   2.117   5.172   5.493
 5459SOL    HW117276   2.141   5.076   5.476
 5459SOL    HW217277   2.146   5.228   5.416
 5460SOL     OW17278   1.939   1.320   1.425
 5460SOL    HW117279   2.012   1.296   1.490
 5460SOL    HW217280   1.859   1.353   1.476
 5461SOL     OW17281   1.359   1.711   5.582
 5461SOL    HW117282   1.372   1.786   5.518
 5461SOL    HW217283   1.267   1.673   5.571
 5462SOL     OW17284   5.569   6.098   7.019
 5462SOL    HW117285   5.585   6.145   0.077
 5462SOL    HW217286   5.484   6.130   6.978
 5463SOL     OW17287   6.399   2.069   6.336
 5463SOL    HW117288   6.386   2.012   6.255
 5463SOL    HW217289   6.334   2.144   6.336
 5464SOL     OW17290   6.340   5.704   5.122
 5464SOL    HW117291   6.273   5.774   5.146
 5464SOL    HW217292   6.395   5.681   5.203
 5465SOL     OW17293   6.510   6.780   3.316
 5465SOL    HW117294   6.586   6.807   3.375
 5465SOL    HW217295   6.524   6.816   3.224
 5466SOL     OW17296   5.554   2.902   5.384
 5466SOL    HW117297   5.535   2.900   5.286
 5466SOL    HW217298   5.477   2.941   5.433
 5467SOL     OW17299   5.880   3.743   3.709
 5467SOL    HW117300   5.965   3.710   3.750
 5467SOL    HW217301   5.873   3.709   3.615
 5468SOL     OW17302   7.028   2.484   3.537
 5468SOL    HW117303   7.004   2.395   3.498
 5468SOL    HW217304   7.010   2.555   3.470
 5469SOL     OW17305   1.873   6.717   6.119
 5469SOL    HW117306   1.965   6.720   6.157
 5469SOL    HW217307   1.828   6.631   6.146
 5470SOL     OW17308   4.210   5.206   4.001
 5470SOL    HW117309   4.232   5.253   3.916
 5470SOL    HW217310   4.232   5.108   3.991
 5471SOL     OW17311   6.082   0.708   2.451
 5471SOL    HW117312   6.079   0.767   2.532
 5471SOL    HW217313   5.993   0.665   2.438
 5472SOL     OW17314   3.373   2.778   5.735
 5472SOL    HW117315   3.286   2.804   5.777
 5472SOL    HW217316   3.359   2.698   5.676
 5473SOL     OW17317   1.297   4.882   0.915
 5473SOL    HW117318   1.397   4.886   0.920
 5473SOL    HW217319   1.265   4.800   0.963
 5474SOL     OW17320   1.103   5.779   3.826
 5474SOL    HW117321   1.065   5.720   3.756
 5474SOL    HW217322   1.063   5.871   3.818
 5475SOL     OW17323   1.529   1.639   0.963
 5475SOL    HW117324   1.474   1.557   0.944
 5475SOL    HW217325   1.547   1.645   1.061
 5476SOL     OW17326   2.634   4.968   5.325
 5476SOL    HW117327   2.553   4.953   5.269
 5476SOL    HW217328   2.703   4.899   5.302
 5477SOL     OW17329   1.889   4.351   2.753
 5477SOL    HW117330   1.971   4.351   2.695
 5477SOL    HW217331   1.915   4.328   2.847
 5478SOL     OW17332   4.667   5.572   6.100
 5478SOL    HW117333   4.753   5.521   6.114
 5478SOL    HW217334   4.619   5.534   6.021
 5479SOL     OW17335   4.701   0.822   4.038
 5479SOL    HW117336   4.677   0.853   4.130
 5479SOL    HW217337   4.636   0.861   3.972
 5480SOL     OW17338   6.164   5.221   5.117
 5480SOL    HW117339   6.258   5.242   5.092
 5480SOL    HW217340   6.106   5.301   5.101
 5481SOL     OW17341   5.137   0.789   4.862
 5481SOL    HW117342   5.057   0.748   4.820
 5481SOL    HW217343   5.217   0.732   4.844
 5482SOL     OW17344   3.268   4.045   2.053
 5482SOL    HW117345   3.219   3.958   2.057
 5482SOL    HW217346   3.298   4.071   2.145
 5483SOL     OW17347   6.391   2.610   5.420
 5483SOL    HW117348   6.316   2.653   5.370
 5483SOL    HW217349   6.399   2.514   5.391
 5484SOL     OW17350   5.880   0.176   3.418
 5484SOL    HW117351   5.812   0.248   3.405
 5484SOL    HW217352   5.957   0.191   3.356
 5485SOL     OW17353   2.891   6.955   4.794
 5485SOL    HW117354   2.833   0.003   4.819
 5485SOL    HW217355   2.891   6.944   4.694
 5486SOL     OW17356   2.232   6.921   3.860
 5486SOL    HW117357   2.313   6.974   3.884
 5486SOL    HW217358   2.259   6.832   3.825
 5487SOL     OW17359   5.939   3.944   6.701
 5487SOL    HW117360   5.963   4.041   6.692
 5487SOL    HW217361   5.847   3.928   6.667
 5488SOL     OW17362   4.855   1.598   0.799
 5488SOL    HW117363   4.846   1.546   0.884
 5488SOL    HW217364   4.787   1.567   0.734
 5489SOL     OW17365   1.542   3.895   1.686
 5489SOL    HW117366   1.620   3.873   1.745
 5489SOL    HW217367   1.458   3.896   1.741
 5490SOL     OW17368   3.952   0.032   0.904
 5490SOL    HW117369   3.897   0.062   0.826
 5490SOL    HW217370   4.035   7.015   0.871
 5491SOL     OW17371   1.157   4.080   6.801
 5491SOL    HW117372   1.223   4.091   6.727
 5491SOL    HW217373   1.084   4.148   6.789
 5492SOL     OW17374   1.062   1.882   5.924
 5492SOL    HW117375   1.125   1.922   5.858
 5492SOL    HW217376   0.968   1.900   5.895
 5493SOL     OW17377   3.494   3.484   4.770
 5493SOL    HW117378   3.534   3.469   4.679
 5493SOL    HW217379   3.478   3.396   4.814
 5494SOL     OW17380   6.444   2.499   0.394
 5494SOL    HW117381   6.407   2.411   0.363
 5494SOL    HW217382   6.488   2.487   0.483
 5495SOL     OW17383   2.953   2.958   1.696
 5495SOL    HW117384   3.012   2.893   1.745
 5495SOL    HW217385   2.899   2.908   1.628
 5496SOL     OW17386   2.548   6.607   2.471
 5496SOL    HW117387   2.517   6.512   2.469
 5496SOL    HW217388   2.554   6.638   2.566
 5497SOL     OW17389   0.404   2.128   3.401
 5497SOL    HW117390   0.344   2.151   3.477
 5497SOL    HW217391   0.441   2.035   3.414
 5498SOL     OW17392   5.421   0.542   0.499
 5498SOL    HW117393   5.405   0.578   0.591
 5498SOL    HW217394   5.415   0.616   0.433
 5499SOL     OW17395   1.125   0.665   3.879
 5499SOL    HW117396   1.085   0.669   3.787
 5499SOL    HW217397   1.060   0.703   3.945
 5500SOL     OW17398   1.638   5.975   6.704
 5500SOL    HW117399   1.555   5.985   6.649
 5500SOL    HW217400   1.643   5.882   6.741
 5501SOL     OW17401   3.289   6.922   0.720
 5501SOL    HW117402   3.297   6.860   0.798
 5501SOL    HW217403   3.240   7.004   0.749
 5502SOL     OW17404   5.975   4.402   5.878
 5502SOL    HW117405   5.899   4.384   5.815
 5502SOL    HW217406   5.967   4.339   5.956
 5503SOL     OW17407   0.475   4.298   3.060
 5503SOL    HW117408   0.398   4.234   3.073
 5503SOL    HW217409   0.558   4.246   3.038
 5504SOL     OW17410   2.968   1.159   5.721
 5504SOL    HW117411   3.062   1.155   5.754
 5504SOL    HW217412   2.941   1.254   5.707
 5505SOL     OW17413   2.786   5.437   4.683
 5505SOL    HW117414   2.728   5.369   4.728
 5505SOL    HW217415   2.739   5.525   4.679
 5506SOL     OW17416   6.447   0.704   5.725
 5506SOL    HW117417   6.472   0.608   5.739
 5506SOL    HW217418   6.348   0.712   5.721
 5507SOL     OW17419   2.467   0.306   2.681
 5507SOL    HW117420   2.512   0.289   2.768
 5507SOL    HW217421   2.380   0.353   2.696
 5508SOL     OW17422   2.574   1.183   6.940
 5508SOL    HW117423   2.636   1.112   6.973
 5508SOL    HW217424   2.596   1.270   6.984
 5509SOL     OW17425   1.095   6.551   0.271
 5509SOL    HW117426   1.043   6.624   0.315
 5509SOL    HW217427   1.117   6.578   0.177
 5510SOL     OW17428   5.316   6.021   0.773
 5510SOL    HW117429   5.335   5.964   0.853
 5510SOL    HW217430   5.245   6.088   0.795
 5511SOL     OW17431   2.620   0.167   4.147
 5511SOL    HW117432   2.659   0.077   4.167
 5511SOL    HW217433   2.581   0.167   4.055
 5512SOL     OW17434   6.637   1.708   0.979
 5512SOL    HW117435   6.683   1.645   0.916
 5512SOL    HW217436   6.592   1.780   0.928
 5513SOL     OW17437   4.189   4.405   6.332
 5513SOL    HW117438   4.145   4.374   6.248
 5513SOL    HW217439   4.286   4.380   6.331
 5514SOL     OW17440   4.885   5.761   2.582
 5514SOL    HW117441   4.872   5.823   2.505
 5514SOL    HW217442   4.898   5.668   2.548
 5515SOL     OW17443   0.375   4.205   1.442
 5515SOL    HW117444   0.442   4.173   1.509
 5515SOL    HW217445   0.344   4.296   1.466
 5516SOL     OW17446   0.834   2.580   0.520
 5516SOL    HW117447   0.862   2.664   0.474
 5516SOL    HW217448   0.862   2.583   0.616
 5517SOL     OW17449   2.683   2.381   2.475
 5517SOL    HW117450   2.657   2.472   2.507
 5517SOL    HW217451   2.766   2.351   2.522
 5518SOL     OW17452   6.362   6.316   6.052
 5518SOL    HW117453   6.388   6.241   6.113
 5518SOL    HW217454   6.264   6.330   6.055
 5519SOL     OW17455   5.192   3.575   2.897
 5519SOL    HW117456   5.115   3.562   2.959
 5519SOL    HW217457   5.163   3.563   2.803
 5520SOL     OW17458   0.350   4.551   3.066
 5520SOL    HW117459   0.389   4.460   3.055
 5520SOL    HW217460   0.424   4.619   3.061
 5521SOL     OW17461   3.832   5.959   2.661
 5521SOL    HW117462   3.802   5.869   2.694
 5521SOL    HW217463   3.765   5.995   2.596
 5522SOL     OW17464   1.321   4.454   0.691
 5522SOL    HW117465   1.282   4.404   0.769
 5522SOL    HW217466   1.319   4.552   0.709
 5523SOL     OW17467   3.078   6.864   3.248
 5523SOL    HW117468   3.001   6.801   3.245
 5523SOL    HW217469   3.083   6.914   3.162
 5524SOL     OW17470   6.920   5.439   4.445
 5524SOL    HW117471   6.871   5.502   4.506
 5524SOL    HW217472   6.884   5.447   4.352
 5525SOL     OW17473   0.036   3.580   0.422
 5525SOL    HW117474   0.075   3.566   0.332
 5525SOL    HW217475   0.079   3.658   0.466
 5526SOL     OW17476   6.185   3.997   5.061
 5526SOL    HW117477   6.120   4.067   5.093
 5526SOL    HW217478   6.232   3.956   5.140
 5527SOL     OW17479   0.811   3.588   3.448
 5527SOL    HW117480   0.847   3.666   3.500
 5527SOL    HW217481   0.857   3.582   3.360
 5528SOL     OW17482   1.039   1.809   6.517
 5528SOL    HW117483   1.107   1.867   6.472
 5528SOL    HW217484   1.025   1.726   6.464
 5529SOL     OW17485   2.595   6.970   4.569
 5529SOL    HW117486   2.570   0.030   4.529
 5529SOL    HW217487   2.686   6.944   4.537
 5530SOL     OW17488   6.937   2.752   2.636
 5530SOL    HW117489   6.863   2.741   2.703
 5530SOL    HW217490   6.969   2.662   2.606
 5531SOL     OW17491   3.709   3.705   3.227
 5531SOL    HW117492   3.758   3.785   3.263
 5531SOL    HW217493   3.701   3.713   3.128
 5532SOL     OW17494   1.025   1.382   1.321
 5532SOL    HW117495   1.014   1.339   1.410
 5532SOL    HW217496   0.935   1.401   1.282
 5533SOL     OW17497   3.279   1.234   3.022
 5533SOL    HW117498   3.277   1.334   3.015
 5533SOL    HW217499   3.187   1.200   3.042
 5534SOL     OW17500   1.020   3.238   5.510
 5534SOL    HW117501   1.105   3.242   5.563
 5534SOL    HW217502   0.943   3.261   5.569
 5535SOL     OW17503   0.336   3.221   3.519
 5535SOL    HW117504   0.258   3.237   3.580
 5535SOL    HW217505   0.370   3.308   3.483
 5536SOL     OW17506   3.595   1.558   4.357
 5536SOL    HW117507   3.589   1.495   4.279
 5536SOL    HW217508   3.545   1.520   4.435
 5537SOL     OW17509   3.184   0.737   4.406
 5537SOL    HW117510   3.240   0.717   4.486
 5537SOL    HW217511   3.145   0.829   4.414
 5538SOL     OW17512   3.067   0.702   4.929
 5538SOL    HW117513   3.150   0.742   4.968
 5538SOL    HW217514   3.059   0.729   4.833
 5539SOL     OW17515   1.118   2.854   0.589
 5539SOL    HW117516   1.178   2.931   0.570
 5539SOL    HW217517   1.069   2.870   0.675
 5540SOL     OW17518   5.664   3.561   2.333
 5540SOL    HW117519   5.658   3.589   2.237
 5540SOL    HW217520   5.736   3.493   2.343
 5541SOL     OW17521   5.252   2.453   6.182
 5541SOL    HW117522   5.233   2.370   6.130
 5541SOL    HW217523   5.347   2.482   6.168
 5542SOL     OW17524   5.551   6.452   5.912
 5542SOL    HW117525   5.523   6.535   5.864
 5542SOL    HW217526   5.484   6.431   5.984
 5543SOL     OW17527   2.514   5.114   6.360
 5543SOL    HW117528   2.441   5.131   6.427
 5543SOL    HW217529   2.601   5.106   6.407
 5544SOL     OW17530   4.985   5.858   6.307
 5544SOL    HW117531   4.927   5.939   6.305
 5544SOL    HW217532   5.076   5.881   6.270
 5545SOL     OW17533   4.478   1.234   3.490
 5545SOL    HW117534   4.552   1.188   3.441
 5545SOL    HW217535   4.391   1.215   3.444
 5546SOL     OW17536   0.849   7.000   4.337
 5546SOL    HW117537   0.916   6.926   4.337
 5546SOL    HW217538   0.779   6.983   4.406
 5547SOL     OW17539   4.058   0.530   4.783
 5547SOL    HW117540   4.091   0.615   4.741
 5547SOL    HW217541   4.129   0.460   4.774
 5548SOL     OW17542   5.942   3.298   5.090
 5548SOL    HW117543   5.853   3.279   5.130
 5548SOL    HW217544   5.988   3.212   5.067
 5549SOL     OW17545   3.984   4.529   0.887
 5549SOL    HW117546   3.942   4.615   0.912
 5549SOL    HW217547   4.071   4.518   0.936
 5550SOL     OW17548   2.199   4.312   2.149
 5550SOL    HW117549   2.225   4.298   2.053
 5550SOL    HW217550   2.163   4.405   2.160
 5551SOL     OW17551   1.825   6.696   3.010
 5551SOL    HW117552   1.771   6.778   2.993
 5551SOL    HW217553   1.863   6.700   3.103
 5552SOL     OW17554   6.885   0.545   6.546
 5552SOL    HW117555   6.933   0.545   6.634
 5552SOL    HW217556   6.932   0.482   6.483
 5553SOL     OW17557   4.733   6.307   6.296
 5553SOL    HW117558   4.731   6.342   6.390
 5553SOL    HW217559   4.680   6.368   6.237
 5554SOL     OW17560   4.241   2.239   6.821
 5554SOL    HW117561   4.294   2.168   6.774
 5554SOL    HW217562   4.182   2.286   6.755
 5555SOL     OW17563   1.125   4.022   2.862
 5555SOL    HW117564   1.081   3.953   2.919
 5555SOL    HW217565   1.079   4.110   2.875
 5556SOL     OW17566   6.414   2.023   3.139
 5556SOL    HW117567   6.330   2.005   3.087
 5556SOL    HW217568   6.401   2.104   3.196
 5557SOL     OW17569   3.659   6.681   2.989
 5557SOL    HW117570   3.619   6.632   2.912
 5557SOL    HW217571   3.679   6.616   3.063
 5558SOL     OW17572   3.608   3.684   5.924
 5558SOL    HW117573   3.681   3.645   5.868
 5558SOL    HW217574   3.568   3.614   5.982
 5559SOL     OW17575   2.073   0.240   1.620
 5559SOL    HW117576   2.146   0.222   1.554
 5559SOL    HW217577   2.077   0.336   1.650
 5560SOL     OW17578   0.433   5.269   1.820
 5560SOL    HW117579   0.343   5.239   1.788
 5560SOL    HW217580   0.500   5.258   1.746
 5561SOL     OW17581   1.795   1.398   4.048
 5561SOL    HW117582   1.732   1.403   4.126
 5561SOL    HW217583   1.886   1.429   4.077
 5562SOL     OW17584   4.274   2.608   6.622
 5562SOL    HW117585   4.232   2.517   6.620
 5562SOL    HW217586   4.269   2.645   6.715
 5563SOL     OW17587   3.573   4.942   2.442
 5563SOL    HW117588   3.600   4.854   2.483
 5563SOL    HW217589   3.537   4.927   2.350
 5564SOL     OW17590   4.884   0.184   0.942
 5564SOL    HW117591   4.797   0.134   0.943
 5564SOL    HW217592   4.866   0.280   0.966
 5565SOL     OW17593   4.465   2.122   6.256
 5565SOL    HW117594   4.460   2.038   6.311
 5565SOL    HW217595   4.435   2.200   6.311
 5566SOL     OW17596   1.504   3.672   6.571
 5566SOL    HW117597   1.520   3.577   6.597
 5566SOL    HW217598   1.582   3.707   6.520
 5567SOL     OW17599   0.070   2.670   0.925
 5567SOL    HW117600   0.068   2.767   0.900
 5567SOL    HW217601   0.166   2.641   0.935
 5568SOL     OW17602   4.846   1.933   3.789
 5568SOL    HW117603   4.918   1.902   3.726
 5568SOL    HW217604   4.870   1.906   3.882
 5569SOL     OW17605   2.385   2.068   2.443
 5569SOL    HW117606   2.387   1.968   2.448
 5569SOL    HW217607   2.291   2.099   2.432
 5570SOL     OW17608   6.497   3.671   5.271
 5570SOL    HW117609   6.512   3.578   5.236
 5570SOL    HW217610   6.548   3.683   5.356
 5571SOL     OW17611   6.483   5.874   0.417
 5571SOL    HW117612   6.532   5.945   0.367
 5571SOL    HW217613   6.548   5.814   0.463
 5572SOL     OW17614   1.027   2.909   4.821
 5572SOL    HW117615   1.104   2.971   4.804
 5572SOL    HW217616   1.061   2.815   4.825
 5573SOL     OW17617   1.973   5.315   5.660
 5573SOL    HW117618   2.021   5.269   5.586
 5573SOL    HW217619   1.897   5.257   5.691
 5574SOL     OW17620   0.153   1.910   2.516
 5574SOL    HW117621   0.081   1.977   2.500
 5574SOL    HW217622   0.123   1.821   2.482
 5575SOL     OW17623   6.719   0.949   0.773
 5575SOL    HW117624   6.801   0.994   0.807
 5575SOL    HW217625   6.742   0.891   0.695
 5576SOL     OW17626   0.979   4.653   1.657
 5576SOL    HW117627   1.075   4.626   1.658
 5576SOL    HW217628   0.961   4.718   1.731
 5577SOL     OW17629   3.204   3.135   5.620
 5577SOL    HW117630   3.246   3.048   5.594
 5577SOL    HW217631   3.195   3.193   5.539
 5578SOL     OW17632   3.347   3.543   1.131
 5578SOL    HW117633   3.426   3.497   1.172
 5578SOL    HW217634   3.284   3.572   1.203
 5579SOL     OW17635   0.902   3.011   1.060
 5579SOL    HW117636   0.807   3.038   1.074
 5579SOL    HW217637   0.958   3.093   1.048
 5580SOL     OW17638   5.355   2.503   5.668
 5580SOL    HW117639   5.429   2.553   5.622
 5580SOL    HW217640   5.371   2.504   5.767
 5581SOL     OW17641   1.441   6.834   1.678
 5581SOL    HW117642   1.447   6.790   1.768
 5581SOL    HW217643   1.349   6.870   1.664
 5582SOL     OW17644   2.848   3.341   5.511
 5582SOL    HW117645   2.843   3.289   5.426
 5582SOL    HW217646   2.930   3.399   5.509
 5583SOL     OW17647   4.781   0.469   2.576
 5583SOL    HW117648   4.773   0.492   2.479
 5583SOL    HW217649   4.699   0.500   2.624
 5584SOL     OW17650   5.928   5.017   3.818
 5584SOL    HW117651   5.838   5.039   3.782
 5584SOL    HW217652   5.936   4.918   3.830
 5585SOL     OW17653   5.353   5.461   3.505
 5585SOL    HW117654   5.438   5.414   3.527
 5585SOL    HW217655   5.303   5.480   3.590
 5586SOL     OW17656   0.523   2.570   6.485
 5586SOL    HW117657   0.534   2.523   6.398
 5586SOL    HW217658   0.426   2.582   6.506
 5587SOL     OW17659   4.342   6.724   1.551
 5587SOL    HW117660   4.333   6.773   1.637
 5587SOL    HW217661   4.393   6.781   1.486
 5588SOL     OW17662   1.739   5.613   3.252
 5588SOL    HW117663   1.727   5.607   3.153
 5588SOL    HW217664   1.669   5.558   3.297
 5589SOL     OW17665   6.375   3.399   5.476
 5589SOL    HW117666   6.424   3.422   5.392
 5589SOL    HW217667   6.358   3.482   5.529
 5590SOL     OW17668   6.951   6.577   4.106
 5590SOL    HW117669   6.916   6.619   4.190
 5590SOL    HW217670   0.022   6.586   4.104
 5591SOL     OW17671   5.209   1.701   0.361
 5591SOL    HW117672   5.175   1.621   0.313
 5591SOL    HW217673   5.133   1.747   0.408
 5592SOL     OW17674   0.181   4.981   2.212
 5592SOL    HW117675   0.214   5.063   2.166
 5592SOL    HW217676   0.136   4.921   2.146
 5593SOL     OW17677   0.845   3.624   0.185
 5593SOL    HW117678   0.860   3.538   0.136
 5593SOL    HW217679   0.933   3.663   0.211
 5594SOL     OW17680   4.247   0.714   6.232
 5594SOL    HW117681   4.288   0.662   6.157
 5594SOL    HW217682   4.302   0.796   6.250
 5595SOL     OW17683   6.878   0.682   4.658
 5595SOL    HW117684   6.810   0.746   4.622
 5595SOL    HW217685   6.931   0.644   4.582
 5596SOL     OW17686   4.965   0.580   3.043
 5596SOL    HW117687   5.042   0.518   3.053
 5596SOL    HW217688   4.959   0.611   2.947
 5597SOL     OW17689   5.216   2.483   4.871
 5597SOL    HW117690   5.177   2.556   4.816
 5597SOL    HW217691   5.281   2.521   4.936
 5598SOL     OW17692   5.928   3.657   3.420
 5598SOL    HW117693   5.961   3.748   3.397
 5598SOL    HW217694   6.002   3.591   3.410
 5599SOL     OW17695   0.871   2.483   1.511
 5599SOL    HW117696   0.923   2.546   1.453
 5599SOL    HW217697   0.870   2.516   1.605
 5600SOL     OW17698   1.497   0.883   1.663
 5600SOL    HW117699   1.572   0.907   1.724
 5600SOL    HW217700   1.425   0.835   1.713
 5601SOL     OW17701   2.362   0.904   6.677
 5601SOL    HW117702   2.357   1.004   6.679
 5601SOL    HW217703   2.351   0.869   6.770
 5602SOL     OW17704   0.200   1.945   1.407
 5602SOL    HW117705   0.273   1.952   1.475
 5602SOL    HW217706   0.124   2.006   1.432
 5603SOL     OW17707   5.890   2.495   0.288
 5603SOL    HW117708   5.894   2.594   0.273
 5603SOL    HW217709   5.880   2.476   0.386
 5604SOL     OW17710   6.178   2.004   4.491
 5604SOL    HW117711   6.229   1.959   4.564
 5604SOL    HW217712   6.094   1.952   4.472
 5605SOL     OW17713   6.574   1.234   5.224
 5605SOL    HW117714   6.498   1.196   5.170
 5605SOL    HW217715   6.618   1.308   5.172
 5606SOL     OW17716   5.034   6.165   0.141
 5606SOL    HW117717   5.110   6.167   0.207
 5606SOL    HW217718   4.968   6.095   0.169
 5607SOL     OW17719   5.997   0.904   2.628
 5607SOL    HW117720   5.937   0.984   2.622
 5607SOL    HW217721   6.091   0.933   2.613
 5608SOL     OW17722   5.754   0.520   3.925
 5608SOL    HW117723   5.705   0.579   3.990
 5608SOL    HW217724   5.694   0.498   3.849
 5609SOL     OW17725   3.239   6.045   1.439
 5609SOL    HW117726   3.310   6.092   1.492
 5609SOL    HW217727   3.279   6.011   1.353
 5610SOL     OW17728   4.784   5.689   1.135
 5610SOL    HW117729   4.703   5.720   1.086
 5610SOL    HW217730   4.764   5.681   1.233
 5611SOL     OW17731   0.533   5.876   3.093
 5611SOL    HW117732   0.496   5.967   3.076
 5611SOL    HW217733   0.470   5.807   3.058
 5612SOL     OW17734   4.020   2.154   5.990
 5612SOL    HW117735   4.106   2.104   6.001
 5612SOL    HW217736   4.037   2.252   5.996
 5613SOL     OW17737   6.922   5.010   3.646
 5613SOL    HW117738   7.013   5.028   3.686
 5613SOL    HW217739   6.918   4.916   3.613
 5614SOL     OW17740   4.519   2.213   4.522
 5614SOL    HW117741   4.507   2.173   4.613
 5614SOL    HW217742   4.437   2.266   4.498
 5615SOL     OW17743   6.597   1.507   3.717
 5615SOL    HW117744   6.584   1.573   3.791
 5615SOL    HW217745   6.526   1.437   3.722
 5616SOL     OW17746   2.777   2.365   4.566
 5616SOL    HW117747   2.762   2.271   4.596
 5616SOL    HW217748   2.866   2.396   4.601
 5617SOL     OW17749   2.867   6.204   5.688
 5617SOL    HW117750   2.950   6.151   5.670
 5617SOL    HW217751   2.795   6.144   5.722
 5618SOL     OW17752   0.222   4.428   3.653
 5618SOL    HW117753   0.295   4.484   3.693
 5618SOL    HW217754   0.166   4.390   3.726
 5619SOL     OW17755   3.790   4.077   4.786
 5619SOL    HW117756   3.816   4.134   4.708
 5619SOL    HW217757   3.773   3.983   4.755
 5620SOL     OW17758   4.334   3.367   0.744
 5620SOL    HW117759   4.251   3.371   0.689
 5620SOL    HW217760   4.412   3.396   0.689
 5621SOL     OW17761   2.305   2.653   0.423
 5621SOL    HW117762   2.260   2.680   0.338
 5621SOL    HW217763   2.405   2.656   0.410
 5622SOL     OW17764   5.156   0.426   5.756
 5622SOL    HW117765   5.091   0.419   5.681
 5622SOL    HW217766   5.194   0.519   5.758
 5623SOL     OW17767   3.859   5.537   4.934
 5623SOL    HW117768   3.919   5.617   4.939
 5623SOL    HW217769   3.785   5.555   4.869
 5624SOL     OW17770   0.632   4.281   3.343
 5624SOL    HW117771   0.566   4.267   3.270
 5624SOL    HW217772   0.658   4.192   3.382
 5625SOL     OW17773   5.525   0.389   4.717
 5625SOL    HW117774   5.595   0.318   4.710
 5625SOL    HW217775   5.447   0.354   4.769
 5626SOL     OW17776   2.401   6.058   4.761
 5626SOL    HW117777   2.352   6.110   4.691
 5626SOL    HW217778   2.405   5.962   4.735
 5627SOL     OW17779   0.325   5.411   6.345
 5627SOL    HW117780   0.371   5.406   6.256
 5627SOL    HW217781   0.309   5.507   6.369
 5628SOL     OW17782   1.337   2.302   2.302
 5628SOL    HW117783   1.433   2.275   2.303
 5628SOL    HW217784   1.283   2.232   2.256
 5629SOL     OW17785   3.787   3.578   2.199
 5629SOL    HW117786   3.776   3.523   2.281
 5629SOL    HW217787   3.712   3.645   2.193
 5630SOL     OW17788   1.924   3.599   6.594
 5630SOL    HW117789   1.856   3.639   6.532
 5630SOL    HW217790   1.879   3.568   6.677
 5631SOL     OW17791   4.520   2.137   1.487
 5631SOL    HW117792   4.424   2.161   1.505
 5631SOL    HW217793   4.554   2.079   1.561
 5632SOL     OW17794   2.898   2.453   6.171
 5632SOL    HW117795   2.876   2.370   6.222
 5632SOL    HW217796   2.814   2.494   6.137
 5633SOL     OW17797   6.336   4.622   4.685
 5633SOL    HW117798   6.366   4.546   4.744
 5633SOL    HW217799   6.239   4.610   4.663
 5634SOL     OW17800   2.351   5.155   3.931
 5634SOL    HW117801   2.326   5.252   3.923
 5634SOL    HW217802   2.445   5.148   3.963
 5635SOL     OW17803   2.031   5.061   5.835
 5635SOL    HW117804   2.030   4.975   5.886
 5635SOL    HW217805   1.941   5.078   5.797
 5636SOL     OW17806   4.636   0.000   4.886
 5636SOL    HW117807   4.586   0.072   4.935
 5636SOL    HW217808   4.571   6.966   4.844
 5637SOL     OW17809   5.196   0.375   2.818
 5637SOL    HW117810   5.254   0.403   2.742
 5637SOL    HW217811   5.168   0.280   2.806
 5638SOL     OW17812   6.594   4.057   0.472
 5638SOL    HW117813   6.577   3.961   0.497
 5638SOL    HW217814   6.515   4.095   0.426
 5639SOL     OW17815   1.133   1.000   2.688
 5639SOL    HW117816   1.208   0.972   2.628
 5639SOL    HW217817   1.090   1.082   2.650
 5640SOL     OW17818   3.741   0.189   3.777
 5640SOL    HW117819   3.728   0.280   3.736
 5640SOL    HW217820   3.755   0.121   3.705
 5641SOL     OW17821   1.002   5.186   5.119
 5641SOL    HW117822   0.958   5.272   5.147
 5641SOL    HW217823   0.948   5.109   5.152
 5642SOL     OW17824   2.121   6.504   4.943
 5642SOL    HW117825   2.089   6.597   4.960
 5642SOL    HW217826   2.049   6.439   4.966
 5643SOL     OW17827   4.227   1.189   5.165
 5643SOL    HW117828   4.157   1.257   5.185
 5643SOL    HW217829   4.309   1.234   5.129
 5644SOL     OW17830   2.834   0.348   4.910
 5644SOL    HW117831   2.799   0.399   4.989
 5644SOL    HW217832   2.927   0.317   4.929
 5645SOL     OW17833   6.221   4.832   3.669
 5645SOL    HW117834   6.234   4.746   3.621
 5645SOL    HW217835   6.162   4.818   3.748
 5646SOL     OW17836   1.707   4.981   3.656
 5646SOL    HW117837   1.707   4.928   3.741
 5646SOL    HW217838   1.793   5.032   3.649
 5647SOL     OW17839   4.759   5.412   1.104
 5647SOL    HW117840   4.840   5.387   1.051
 5647SOL    HW217841   4.749   5.511   1.107
 5648SOL     OW17842   1.944   6.888   2.733
 5648SOL    HW117843   2.023   6.885   2.794
 5648SOL    HW217844   1.909   6.795   2.720
 5649SOL     OW17845   0.716   0.594   4.259
 5649SOL    HW117846   0.620   0.599   4.234
 5649SOL    HW217847   0.731   0.641   4.346
 5650SOL     OW17848   0.237   5.563   0.932
 5650SOL    HW117849   0.166   5.630   0.954
 5650SOL    HW217850   0.299   5.602   0.863
 5651SOL     OW17851   1.734   0.565   1.611
 5651SOL    HW117852   1.640   0.542   1.633
 5651SOL    HW217853   1.796   0.510   1.667
 5652SOL     OW17854   6.599   0.081   1.451
 5652SOL    HW117855   6.681   0.124   1.414
 5652SOL    HW217856   6.536   0.059   1.376
 5653SOL     OW17857   6.163   6.179   6.438
 5653SOL    HW117858   6.161   6.220   6.529
 5653SOL    HW217859   6.070   6.173   6.402
 5654SOL     OW17860   0.192   6.257   5.194
 5654SOL    HW117861   0.178   6.266   5.293
 5654SOL    HW217862   0.104   6.252   5.148
 5655SOL     OW17863   1.206   3.770   3.908
 5655SOL    HW117864   1.215   3.868   3.888
 5655SOL    HW217865   1.109   3.746   3.907
 5656SOL     OW17866   6.941   3.600   6.251
 5656SOL    HW117867   7.011   3.635   6.314
 5656SOL    HW217868   6.932   3.501   6.262
 5657SOL     OW17869   6.502   2.371   0.050
 5657SOL    HW117870   6.492   2.345   0.146
 5657SOL    HW217871   6.417   2.352   0.001
 5658SOL     OW17872   3.418   3.596   6.853
 5658SOL    HW117873   3.321   3.579   6.839
 5658SOL    HW217874   3.448   3.555   6.939
 5659SOL     OW17875   3.508   3.220   5.125
 5659SOL    HW117876   3.603   3.199   5.152
 5659SOL    HW217877   3.503   3.227   5.026
 5660SOL     OW17878   4.126   7.001   6.257
 5660SOL    HW117879   4.040   6.994   6.307
 5660SOL    HW217880   4.202   6.997   6.322
 5661SOL     OW17881   1.542   5.506   5.136
 5661SOL    HW117882   1.634   5.494   5.172
 5661SOL    HW217883   1.477   5.452   5.190
 5662SOL     OW17884   2.842   6.266   3.963
 5662SOL    HW117885   2.753   6.241   4.002
 5662SOL    HW217886   2.896   6.183   3.948
 5663SOL     OW17887   2.204   2.237   0.638
 5663SOL    HW117888   2.298   2.205   0.622
 5663SOL    HW217889   2.207   2.324   0.687
 5664SOL     OW17890   6.810   3.471   4.461
 5664SOL    HW117891   6.858   3.499   4.544
 5664SOL    HW217892   6.811   3.371   4.454
 5665SOL     OW17893   2.456   0.786   0.502
 5665SOL    HW117894   2.422   0.799   0.595
 5665SOL    HW217895   2.383   0.750   0.444
 5666SOL     OW17896   6.525   0.311   3.403
 5666SOL    HW117897   6.602   0.278   3.456
 5666SOL    HW217898   6.555   0.383   3.340
 5667SOL     OW17899   1.845   4.954   4.596
 5667SOL    HW117900   1.813   4.999   4.680
 5667SOL    HW217901   1.773   4.894   4.561
 5668SOL     OW17902   5.107   2.927   3.338
 5668SOL    HW117903   5.182   2.955   3.399
 5668SOL    HW217904   5.111   2.829   3.323
 5669SOL     OW17905   6.812   3.702   0.880
 5669SOL    HW117906   6.887   3.642   0.851
 5669SOL    HW217907   6.752   3.653   0.943
 5670SOL     OW17908   0.952   3.642   3.890
 5670SOL    HW117909   0.966   3.547   3.861
 5670SOL    HW217910   0.887   3.687   3.830
 5671SOL     OW17911   5.864   5.720   5.416
 5671SOL    HW117912   5.894   5.737   5.322
 5671SOL    HW217913   5.905   5.788   5.477
 5672SOL     OW17914   4.357   3.685   0.126
 5672SOL    HW117915   4.260   3.707   0.113
 5672SOL    HW217916   4.387   3.717   0.216
 5673SOL     OW17917   1.921   6.744   1.314
 5673SOL    HW117918   1.934   6.679   1.240
 5673SOL    HW217919   1.879   6.697   1.392
 5674SOL     OW17920   0.464   4.361   5.066
 5674SOL    HW117921   0.366   4.381   5.074
 5674SOL    HW217922   0.510   4.388   5.151
 5675SOL     OW17923   4.125   3.146   6.022
 5675SOL    HW117924   4.136   3.074   5.954
 5675SOL    HW217925   4.201   3.211   6.015
 5676SOL     OW17926   2.798   1.646   2.441
 5676SOL    HW117927   2.747   1.726   2.474
 5676SOL    HW217928   2.859   1.674   2.366
 5677SOL     OW17929   0.575   1.056   0.922
 5677SOL    HW117930   0.539   0.976   0.970
 5677SOL    HW217931   0.592   1.032   0.827
 5678SOL     OW17932   4.219   6.650   2.861
 5678SOL    HW117933   4.225   6.680   2.956
 5678SOL    HW217934   4.123   6.634   2.837
 5679SOL     OW17935   6.349   1.361   3.751
 5679SOL    HW117936   6.314   1.366   3.658
 5679SOL    HW217937   6.294   1.421   3.810
 5680SOL     OW17938   1.693   5.215   6.471
 5680SOL    HW117939   1.782   5.242   6.507
 5680SOL    HW217940   1.649   5.294   6.429
 5681SOL     OW17941   0.659   3.423   1.694
 5681SOL    HW117942   0.743   3.381   1.659
 5681SOL    HW217943   0.664   3.428   1.794
 5682SOL     OW17944   2.211   5.466   4.669
 5682SOL    HW117945   2.199   5.533   4.596
 5682SOL    HW217946   2.125   5.417   4.684
 5683SOL     OW17947   3.865   1.156   5.918
 5683SOL    HW117948   3.786   1.214   5.938
 5683SOL    HW217949   3.837   1.060   5.919
 5684SOL     OW17950   2.008   3.623   5.790
 5684SOL    HW117951   2.014   3.687   5.866
 5684SOL    HW217952   2.033   3.531   5.821
 5685SOL     OW17953   2.217   1.425   3.040
 5685SOL    HW117954   2.223   1.368   3.122
 5685SOL    HW217955   2.291   1.492   3.040
 5686SOL     OW17956   2.756   1.856   6.397
 5686SOL    HW117957   2.728   1.928   6.334
 5686SOL    HW217958   2.855   1.846   6.395
 5687SOL     OW17959   0.405   5.592   6.739
 5687SOL    HW117960   0.428   5.553   6.828
 5687SOL    HW217961   0.307   5.611   6.736
 5688SOL     OW17962   1.163   2.548   2.146
 5688SOL    HW117963   1.226   2.472   2.162
 5688SOL    HW217964   1.146   2.596   2.232
 5689SOL     OW17965   3.367   1.471   1.431
 5689SOL    HW117966   3.308   1.391   1.422
 5689SOL    HW217967   3.362   1.526   1.348
 5690SOL     OW17968   1.854   6.233   0.213
 5690SOL    HW117969   1.774   6.217   0.272
 5690SOL    HW217970   1.880   6.147   0.169
 5691SOL     OW17971   4.245   0.646   2.140
 5691SOL    HW117972   4.240   0.702   2.223
 5691SOL    HW217973   4.153   0.614   2.116
 5692SOL     OW17974   5.641   3.871   0.805
 5692SOL    HW117975   5.630   3.966   0.775
 5692SOL    HW217976   5.645   3.869   0.905
 5693SOL     OW17977   4.662   1.624   2.734
 5693SOL    HW117978   4.690   1.542   2.683
 5693SOL    HW217979   4.563   1.624   2.745
 5694SOL     OW17980   1.062   1.233   3.204
 5694SOL    HW117981   1.066   1.177   3.121
 5694SOL    HW217982   0.987   1.299   3.196
 5695SOL     OW17983   1.933   1.859   4.210
 5695SOL    HW117984   1.845   1.891   4.246
 5695SOL    HW217985   1.948   1.764   4.239
 5696SOL     OW17986   1.051   1.146   3.650
 5696SOL    HW117987   1.136   1.151   3.702
 5696SOL    HW217988   0.998   1.067   3.681
 5697SOL     OW17989   6.213   2.215   1.332
 5697SOL    HW117990   6.138   2.249   1.276
 5697SOL    HW217991   6.177   2.156   1.404
 5698SOL     OW17992   0.646   4.697   3.747
 5698SOL    HW117993   0.703   4.705   3.829
 5698SOL    HW217994   0.689   4.636   3.681
 5699SOL     OW17995   0.727   2.611   3.327
 5699SOL    HW117996   0.801   2.568   3.378
 5699SOL    HW217997   0.665   2.657   3.391
 5700SOL     OW17998   6.168   0.274   3.411
 5700SOL    HW117999   6.208   0.219   3.338
 5700SOL    HW218000   6.241   0.313   3.468
 5701SOL     OW18001   0.560   0.133   1.116
 5701SOL    HW118002   0.484   0.074   1.143
 5701SOL    HW218003   0.612   0.160   1.197
 5702SOL     OW18004   2.761   5.538   4.268
 5702SOL    HW118005   2.740   5.608   4.337
 5702SOL    HW218006   2.851   5.498   4.287
 5703SOL     OW18007   6.270   4.669   0.955
 5703SOL    HW118008   6.316   4.613   1.024
 5703SOL    HW218009   6.302   4.764   0.962
 5704SOL     OW18010   4.796   4.140   3.071
 5704SOL    HW118011   4.823   4.108   2.980
 5704SOL    HW218012   4.808   4.065   3.136
 5705SOL     OW18013   5.151   6.751   0.150
 5705SOL    HW118014   5.170   6.754   0.052
 5705SOL    HW218015   5.179   6.663   0.187
 5706SOL     OW18016   6.980   3.093   2.290
 5706SOL    HW118017   7.022   3.046   2.368
 5706SOL    HW218018   6.984   3.192   2.304
 5707SOL     OW18019   0.045   6.738   0.450
 5707SOL    HW118020   6.981   6.753   0.418
 5707SOL    HW218021   0.068   6.807   0.519
 5708SOL     OW18022   5.069   5.908   2.279
 5708SOL    HW118023   4.991   5.886   2.219
 5708SOL    HW218024   5.149   5.928   2.222
 5709SOL     OW18025   1.128   1.281   2.601
 5709SOL    HW118026   1.132   1.381   2.601
 5709SOL    HW218027   1.117   1.248   2.507
 5710SOL     OW18028   3.019   2.954   0.837
 5710SOL    HW118029   2.943   2.905   0.795
 5710SOL    HW218030   2.995   3.051   0.844
 5711SOL     OW18031   5.411   1.301   2.551
 5711SOL    HW118032   5.350   1.320   2.474
 5711SOL    HW218033   5.466   1.383   2.571
 5712SOL     OW18034   6.539   0.332   0.317
 5712SOL    HW118035   6.509   0.333   0.413
 5712SOL    HW218036   6.589   0.416   0.297
 5713SOL     OW18037   2.803   3.816   1.406
 5713SOL    HW118038   2.817   3.768   1.492
 5713SOL    HW218039   2.868   3.783   1.338
 5714SOL     OW18040   0.409   5.417   0.635
 5714SOL    HW118041   0.343   5.404   0.709
 5714SOL    HW218042   0.474   5.489   0.660
 5715SOL     OW18043   0.809   0.831   2.393
 5715SOL    HW118044   0.752   0.903   2.431
 5715SOL    HW218045   0.865   0.869   2.319
 5716SOL     OW18046   1.531   4.713   6.229
 5716SOL    HW118047   1.452   4.721   6.167
 5716SOL    HW218048   1.535   4.792   6.289
 5717SOL     OW18049   1.588   4.825   0.647
 5717SOL    HW118050   1.679   4.810   0.608
 5717SOL    HW218051   1.597   4.849   0.744
 5718SOL     OW18052   0.511   3.124   0.249
 5718SOL    HW118053   0.569   3.192   0.204
 5718SOL    HW218054   0.488   3.051   0.184
 5719SOL     OW18055   1.673   2.536   6.961
 5719SOL    HW118056   1.620   2.453   6.942
 5719SOL    HW218057   1.688   2.587   6.876
 5720SOL     OW18058   2.488   5.811   5.120
 5720SOL    HW118059   2.446   5.831   5.208
 5720SOL    HW218060   2.507   5.897   5.073
 5721SOL     OW18061   6.445   3.715   0.780
 5721SOL    HW118062   6.522   3.777   0.794
 5721SOL    HW218063   6.478   3.620   0.786
 5722SOL     OW18064   6.830   2.173   5.128
 5722SOL    HW118065   6.872   2.109   5.064
 5722SOL    HW218066   6.734   2.188   5.102
 5723SOL     OW18067   4.317   3.303   0.272
 5723SOL    HW118068   4.407   3.344   0.257
 5723SOL    HW218069   4.303   3.227   0.209
 5724SOL     OW18070   5.076   2.857   4.521
 5724SOL    HW118071   5.068   2.759   4.503
 5724SOL    HW218072   5.142   2.897   4.458
 5725SOL     OW18073   6.173   5.155   3.862
 5725SOL    HW118074   6.076   5.160   3.838
 5725SOL    HW218075   6.183   5.139   3.960
 5726SOL     OW18076   6.898   5.646   3.937
 5726SOL    HW118077   6.980   5.645   3.881
 5726SOL    HW218078   6.822   5.605   3.886
 5727SOL     OW18079   6.169   2.291   4.529
 5727SOL    HW118080   6.257   2.335   4.545
 5727SOL    HW218081   6.175   2.194   4.553
 5728SOL     OW18082   4.173   6.326   5.621
 5728SOL    HW118083   4.219   6.314   5.709
 5728SOL    HW218084   4.098   6.392   5.630
 5729SOL     OW18085   2.427   0.323   0.238
 5729SOL    HW118086   2.468   0.360   0.322
 5729SOL    HW218087   2.338   0.282   0.260
 5730SOL     OW18088   5.444   4.724   6.279
 5730SOL    HW118089   5.415   4.628   6.282
 5730SOL    HW218090   5.430   4.760   6.187
 5731SOL     OW18091   0.521   6.956   2.886
 5731SOL    HW118092   0.545   6.969   2.790
 5731SOL    HW218093   0.562   0.000   2.940
 5732SOL     OW18094   0.235   5.393   3.903
 5732SOL    HW118095   0.296   5.380   3.825
 5732SOL    HW218096   0.283   5.443   3.975
 5733SOL     OW18097   3.528   6.451   5.618
 5733SOL    HW118098   3.608   6.483   5.567
 5733SOL    HW218099   3.504   6.519   5.688
 5734SOL     OW18100   0.804   0.580   5.067
 5734SOL    HW118101   0.805   0.484   5.097
 5734SOL    HW218102   0.794   0.639   5.147
 5735SOL     OW18103   4.067   2.084   1.377
 5735SOL    HW118104   3.999   2.070   1.449
 5735SOL    HW218105   4.047   2.022   1.301
 5736SOL     OW18106   6.123   4.184   0.008
 5736SOL    HW118107   6.168   4.095   0.005
 5736SOL    HW218108   6.051   4.183   0.077
 5737SOL     OW18109   5.675   6.245   0.600
 5737SOL    HW118110   5.695   6.316   0.532
 5737SOL    HW218111   5.623   6.285   0.675
 5738SOL     OW18112   1.963   2.612   5.949
 5738SOL    HW118113   1.909   2.696   5.937
 5738SOL    HW218114   1.932   2.564   6.030
 5739SOL     OW18115   1.824   0.702   6.082
 5739SOL    HW118116   1.889   0.733   6.152
 5739SOL    HW218117   1.732   0.702   6.120
 5740SOL     OW18118   4.363   4.423   0.579
 5740SOL    HW118119   4.314   4.336   0.587
 5740SOL    HW218120   4.410   4.442   0.665
 5741SOL     OW18121   1.263   5.367   4.783
 5741SOL    HW118122   1.262   5.460   4.822
 5741SOL    HW218123   1.169   5.333   4.778
 5742SOL     OW18124   5.498   6.588   2.645
 5742SOL    HW118125   5.433   6.528   2.599
 5742SOL    HW218126   5.570   6.614   2.581
 5743SOL     OW18127   2.662   6.066   4.900
 5743SOL    HW118128   2.682   6.143   4.962
 5743SOL    HW218129   2.574   6.080   4.856
 5744SOL     OW18130   4.789   0.093   2.268
 5744SOL    HW118131   4.721   0.136   2.208
 5744SOL    HW218132   4.764   0.108   2.364
 5745SOL     OW18133   3.479   0.658   3.834
 5745SOL    HW118134   3.397   0.603   3.815
 5745SOL    HW218135   3.550   0.600   3.873
 5746SOL     OW18136   5.250   6.981   1.402
 5746SOL    HW118137   5.249   6.912   1.329
 5746SOL    HW218138   5.259   0.044   1.361
 5747SOL     OW18139   0.168   4.744   2.582
 5747SOL    HW118140   0.106   4.795   2.523
 5747SOL    HW218141   0.125   4.729   2.671
 5748SOL     OW18142   1.270   5.607   0.383
 5748SOL    HW118143   1.239   5.595   0.477
 5748SOL    HW218144   1.265   5.704   0.359
 5749SOL     OW18145   2.102   0.266   4.508
 5749SOL    HW118146   2.078   0.198   4.439
 5749SOL    HW218147   2.058   0.243   4.594
 5750SOL     OW18148   5.856   5.236   4.498
 5750SOL    HW118149   5.828   5.295   4.422
 5750SOL    HW218150   5.838   5.141   4.475
 5751SOL     OW18151   2.231   2.668   4.527
 5751SOL    HW118152   2.268   2.672   4.620
 5751SOL    HW218153   2.153   2.604   4.525
 5752SOL     OW18154   6.755   0.383   6.828
 5752SOL    HW118155   6.686   0.400   6.897
 5752SOL    HW218156   6.741   0.445   6.750
 5753SOL     OW18157   2.876   3.829   5.623
 5753SOL    HW118158   2.925   3.901   5.673
 5753SOL    HW218159   2.916   3.819   5.532
 5754SOL     OW18160   5.825   4.516   1.608
 5754SOL    HW118161   5.743   4.551   1.563
 5754SOL    HW218162   5.891   4.590   1.620
 5755SOL     OW18163   2.774   3.571   5.696
 5755SOL    HW118164   2.820   3.524   5.621
 5755SOL    HW218165   2.808   3.665   5.702
 5756SOL     OW18166   6.367   6.255   3.242
 5756SOL    HW118167   6.376   6.193   3.319
 5756SOL    HW218168   6.357   6.349   3.276
 5757SOL     OW18169   6.509   6.601   2.715
 5757SOL    HW118170   6.437   6.666   2.740
 5757SOL    HW218171   6.554   6.568   2.798
 5758SOL     OW18172   3.495   1.119   3.958
 5758SOL    HW118173   3.581   1.167   3.945
 5758SOL    HW218174   3.419   1.184   3.955
 5759SOL     OW18175   4.550   1.634   6.591
 5759SOL    HW118176   4.591   1.593   6.509
 5759SOL    HW218177   4.608   1.707   6.625
 5760SOL     OW18178   1.254   5.256   1.634
 5760SOL    HW118179   1.274   5.311   1.715
 5760SOL    HW218180   1.262   5.313   1.552
 5761SOL     OW18181   5.466   0.119   6.199
 5761SOL    HW118182   5.467   0.161   6.290
 5761SOL    HW218183   5.514   0.179   6.134
 5762SOL     OW18184   4.958   6.948   0.188
 5762SOL    HW118185   5.043   6.901   0.162
 5762SOL    HW218186   4.925   6.910   0.274
 5763SOL     OW18187   0.216   0.152   0.129
 5763SOL    HW118188   0.237   0.054   0.119
 5763SOL    HW218189   0.281   0.205   0.074
 5764SOL     OW18190   5.716   4.679   6.335
 5764SOL    HW118191   5.723   4.693   6.434
 5764SOL    HW218192   5.622   4.696   6.305
 5765SOL     OW18193   6.611   3.980   6.277
 5765SOL    HW118194   6.674   4.050   6.242
 5765SOL    HW218195   6.523   4.023   6.297
 5766SOL     OW18196   2.423   1.783   0.668
 5766SOL    HW118197   2.414   1.875   0.705
 5766SOL    HW218198   2.401   1.716   0.739
 5767SOL     OW18199   2.335   0.028   0.356
 5767SOL    HW118200   2.337   0.088   0.275
 5767SOL    HW218201   2.425   7.016   0.369
 5768SOL     OW18202   0.243   6.747   3.084
 5768SOL    HW118203   0.180   6.759   3.007
 5768SOL    HW218204   0.274   6.653   3.087
 5769SOL     OW18205   2.971   0.223   3.988
 5769SOL    HW118206   2.907   0.294   4.016
 5769SOL    HW218207   2.994   0.235   3.891
 5770SOL     OW18208   0.365   6.767   0.673
 5770SOL    HW118209   0.343   6.685   0.726
 5770SOL    HW218210   0.456   6.758   0.633
 5771SOL     OW18211   1.059   6.039   2.278
 5771SOL    HW118212   1.101   5.999   2.196
 5771SOL    HW218213   0.963   6.013   2.283
 5772SOL     OW18214   5.658   2.752   0.486
 5772SOL    HW118215   5.617   2.695   0.415
 5772SOL    HW218216   5.683   2.695   0.565
 5773SOL     OW18217   5.127   0.749   4.030
 5773SOL    HW118218   5.088   0.736   3.939
 5773SOL    HW218219   5.209   0.692   4.040
 5774SOL     OW18220   2.908   5.033   4.118
 5774SOL    HW118221   2.931   4.985   4.203
 5774SOL    HW218222   2.979   5.099   4.097
 5775SOL     OW18223   1.547   6.910   1.426
 5775SOL    HW118224   1.533   6.879   1.520
 5775SOL    HW218225   1.644   6.899   1.402
 5776SOL     OW18226   6.790   0.943   6.059
 5776SOL    HW118227   6.791   1.041   6.080
 5776SOL    HW218228   6.763   0.892   6.141
 5777SOL     OW18229   5.981   0.478   4.290
 5777SOL    HW118230   5.925   0.535   4.350
 5777SOL    HW218231   5.968   0.382   4.313
 5778SOL     OW18232   1.849   6.964   1.085
 5778SOL    HW118233   1.846   6.876   1.036
 5778SOL    HW218234   1.768   7.017   1.060
 5779SOL     OW18235   3.808   1.239   1.066
 5779SOL    HW118236   3.901   1.211   1.044
 5779SOL    HW218237   3.751   1.158   1.078
 5780SOL     OW18238   6.019   5.298   2.757
 5780SOL    HW118239   5.929   5.257   2.776
 5780SOL    HW218240   6.053   5.264   2.670
 5781SOL     OW18241   1.678   4.700   5.048
 5781SOL    HW118242   1.583   4.672   5.062
 5781SOL    HW218243   1.684   4.800   5.053
 5782SOL     OW18244   1.594   1.028   1.046
 5782SOL    HW118245   1.613   1.125   1.028
 5782SOL    HW218246   1.677   0.984   1.081
 5783SOL     OW18247   1.779   1.255   1.009
 5783SOL    HW118248   1.757   1.245   0.912
 5783SOL    HW218249   1.869   1.216   1.028
 5784SOL     OW18250   0.627   6.698   0.213
 5784SOL    HW118251   0.624   6.629   0.141
 5784SOL    HW218252   0.639   6.789   0.172
 5785SOL     OW18253   1.938   2.084   1.326
 5785SOL    HW118254   1.950   2.173   1.282
 5785SOL    HW218255   1.929   2.013   1.255
 5786SOL     OW18256   1.367   4.026   0.645
 5786SOL    HW118257   1.431   3.996   0.716
 5786SOL    HW218258   1.416   4.075   0.573
 5787SOL     OW18259   4.785   2.315   4.566
 5787SOL    HW118260   4.704   2.281   4.517
 5787SOL    HW218261   4.832   2.239   4.611
 5788SOL     OW18262   2.674   0.197   1.592
 5788SOL    HW118263   2.672   0.178   1.691
 5788SOL    HW218264   2.769   0.194   1.560
 5789SOL     OW18265   3.502   2.560   6.394
 5789SOL    HW118266   3.447   2.490   6.348
 5789SOL    HW218267   3.525   2.633   6.328
 5790SOL     OW18268   6.719   6.069   5.500
 5790SOL    HW118269   6.726   6.116   5.412
 5790SOL    HW218270   6.624   6.068   5.530
 5791SOL     OW18271   3.200   1.631   2.724
 5791SOL    HW118272   3.120   1.691   2.727
 5791SOL    HW218273   3.199   1.578   2.640
 5792SOL     OW18274   4.846   3.713   3.475
 5792SOL    HW118275   4.911   3.695   3.401
 5792SOL    HW218276   4.794   3.795   3.454
 5793SOL     OW18277   6.123   1.321   6.005
 5793SOL    HW118278   6.055   1.390   5.981
 5793SOL    HW218279   6.133   1.255   5.930
 5794SOL     OW18280   3.669   0.142   6.853
 5794SOL    HW118281   3.753   0.186   6.883
 5794SOL    HW218282   3.615   0.206   6.797
 5795SOL     OW18283   0.658   6.419   1.309
 5795SOL    HW118284   0.559   6.415   1.320
 5795SOL    HW218285   0.693   6.502   1.353
 5796SOL     OW18286   4.687   0.594   7.011
 5796SOL    HW118287   4.772   0.552   0.014
 5796SOL    HW218288   4.666   0.561   6.919
 5797SOL     OW18289   5.742   1.071   0.117
 5797SOL    HW118290   5.692   0.991   0.084
 5797SOL    HW218291   5.819   1.042   0.174
 5798SOL     OW18292   0.722   4.045   4.484
 5798SOL    HW118293   0.651   4.106   4.450
 5798SOL    HW218294   0.772   4.090   4.558
 5799SOL     OW18295   0.452   0.181   2.722
 5799SOL    HW118296   0.353   0.197   2.728
 5799SOL    HW218297   0.470   0.098   2.669
 5800SOL     OW18298   0.855   0.254   1.872
 5800SOL    HW118299   0.913   0.176   1.847
 5800SOL    HW218300   0.896   0.339   1.838
 5801SOL     OW18301   2.285   2.502   3.899
 5801SOL    HW118302   2.306   2.459   3.811
 5801SOL    HW218303   2.237   2.588   3.884
 5802SOL     OW18304   6.080   3.579   2.310
 5802SOL    HW118305   6.071   3.598   2.407
 5802SOL    HW218306   6.053   3.484   2.292
 5803SOL     OW18307   1.089   5.142   3.847
 5803SOL    HW118308   1.118   5.053   3.884
 5803SOL    HW218309   0.992   5.138   3.822
 5804SOL     OW18310   6.315   6.288   3.810
 5804SOL    HW118311   6.331   6.282   3.908
 5804SOL    HW218312   6.401   6.271   3.761
 5805SOL     OW18313   1.642   2.856   1.191
 5805SOL    HW118314   1.652   2.939   1.138
 5805SOL    HW218315   1.601   2.784   1.134
 5806SOL     OW18316   0.018   4.369   4.804
 5806SOL    HW118317   6.961   4.332   4.769
 5806SOL    HW218318   0.090   4.300   4.793
 5807SOL     OW18319   1.355   5.953   1.032
 5807SOL    HW118320   1.351   5.883   1.104
 5807SOL    HW218321   1.448   5.957   0.995
 5808SOL     OW18322   6.245   6.907   5.034
 5808SOL    HW118323   6.285   6.989   5.076
 5808SOL    HW218324   6.318   6.850   4.995
 5809SOL     OW18325   0.176   2.179   5.803
 5809SOL    HW118326   0.163   2.080   5.801
 5809SOL    HW218327   0.160   2.213   5.896
 5810SOL     OW18328   4.210   0.301   4.827
 5810SOL    HW118329   4.170   0.275   4.915
 5810SOL    HW218330   4.310   0.304   4.836
 5811SOL     OW18331   2.575   2.083   5.612
 5811SOL    HW118332   2.523   2.169   5.605
 5811SOL    HW218333   2.560   2.042   5.702
 5812SOL     OW18334   5.408   3.662   6.245
 5812SOL    HW118335   5.465   3.712   6.179
 5812SOL    HW218336   5.347   3.599   6.196
 5813SOL     OW18337   2.975   6.160   1.418
 5813SOL    HW118338   2.957   6.213   1.501
 5813SOL    HW218339   3.050   6.096   1.435
 5814SOL     OW18340   0.019   1.925   1.747
 5814SOL    HW118341   0.067   2.013   1.738
 5814SOL    HW218342   6.949   1.942   1.750
 5815SOL     OW18343   5.620   1.990   4.409
 5815SOL    HW118344   5.617   2.078   4.362
 5815SOL    HW218345   5.596   2.002   4.505
 5816SOL     OW18346   6.758   5.146   2.044
 5816SOL    HW118347   6.814   5.176   2.121
 5816SOL    HW218348   6.691   5.079   2.075
 5817SOL     OW18349   6.136   4.498   5.276
 5817SOL    HW118350   6.233   4.499   5.299
 5817SOL    HW218351   6.086   4.441   5.342
 5818SOL     OW18352   0.780   5.831   5.315
 5818SOL    HW118353   0.814   5.754   5.262
 5818SOL    HW218354   0.687   5.853   5.286
 5819SOL     OW18355   3.090   5.155   6.744
 5819SOL    HW118356   3.188   5.157   6.727
 5819SOL    HW218357   3.042   5.197   6.667
 5820SOL     OW18358   4.646   4.974   2.088
 5820SOL    HW118359   4.627   4.915   2.166
 5820SOL    HW218360   4.720   5.038   2.111
 5821SOL     OW18361   6.473   0.799   1.735
 5821SOL    HW118362   6.380   0.762   1.738
 5821SOL    HW218363   6.485   0.864   1.810
 5822SOL     OW18364   1.008   2.358   2.429
 5822SOL    HW118365   1.088   2.301   2.448
 5822SOL    HW218366   0.994   2.422   2.505
 5823SOL     OW18367   2.243   6.191   4.604
 5823SOL    HW118368   2.258   6.277   4.653
 5823SOL    HW218369   2.146   6.180   4.585
 5824SOL     OW18370   0.797   0.005   2.807
 5824SOL    HW118371   0.764   0.002   2.713
 5824SOL    HW218372   0.790   0.099   2.841
 5825SOL     OW18373   0.362   5.798   4.891
 5825SOL    HW118374   0.351   5.867   4.820
 5825SOL    HW218375   0.446   5.746   4.874
 5826SOL     OW18376   0.041   6.980   5.684
 5826SOL    HW118377   0.022   0.012   5.607
 5826SOL    HW218378   6.999   6.994   5.755
 5827SOL     OW18379   1.048   3.648   4.742
 5827SOL    HW118380   1.006   3.588   4.810
 5827SOL    HW218381   1.012   3.624   4.651
 5828SOL     OW18382   5.004   1.066   3.634
 5828SOL    HW118383   4.954   1.132   3.579
 5828SOL    HW218384   5.010   0.979   3.586
 5829SOL     OW18385   1.407   0.562   5.061
 5829SOL    HW118386   1.367   0.582   4.972
 5829SOL    HW218387   1.501   0.595   5.064
 5830SOL     OW18388   4.388   5.793   5.488
 5830SOL    HW118389   4.307   5.779   5.544
 5830SOL    HW218390   4.400   5.891   5.470
 5831SOL     OW18391   1.393   1.906   5.392
 5831SOL    HW118392   1.376   1.891   5.295
 5831SOL    HW218393   1.374   2.001   5.415
 5832SOL     OW18394   3.379   4.389   1.404
 5832SOL    HW118395   3.328   4.471   1.375
 5832SOL    HW218396   3.315   4.314   1.419
 5833SOL     OW18397   4.099   3.086   5.628
 5833SOL    HW118398   4.127   3.015   5.692
 5833SOL    HW218399   4.149   3.170   5.648
 5834SOL     OW18400   6.505   3.424   6.683
 5834SOL    HW118401   6.564   3.343   6.685
 5834SOL    HW218402   6.556   3.503   6.715
 5835SOL     OW18403   6.472   1.672   2.390
 5835SOL    HW118404   6.506   1.760   2.421
 5835SOL    HW218405   6.375   1.679   2.369
 5836SOL     OW18406   2.971   6.790   2.014
 5836SOL    HW118407   2.893   6.733   1.991
 5836SOL    HW218408   3.055   6.747   1.981
 5837SOL     OW18409   4.042   3.652   0.108
 5837SOL    HW118410   4.082   3.681   0.195
 5837SOL    HW218411   4.006   3.559   0.117
 5838SOL     OW18412   2.703   1.347   1.058
 5838SOL    HW118413   2.720   1.402   0.977
 5838SOL    HW218414   2.647   1.267   1.034
 5839SOL     OW18415   0.636   2.639   1.308
 5839SOL    HW118416   0.659   2.702   1.382
 5839SOL    HW218417   0.689   2.555   1.319
 5840SOL     OW18418   7.015   3.783   1.553
 5840SOL    HW118419   6.972   3.722   1.619
 5840SOL    HW218420   6.948   3.810   1.483
 5841SOL     OW18421   5.201   0.527   1.857
 5841SOL    HW118422   5.134   0.597   1.881
 5841SOL    HW218423   5.175   0.440   1.900
 5842SOL     OW18424   4.089   1.966   1.055
 5842SOL    HW118425   4.092   1.882   1.109
 5842SOL    HW218426   4.046   1.948   0.967
 5843SOL     OW18427   2.093   3.536   1.173
 5843SOL    HW118428   2.150   3.603   1.220
 5843SOL    HW218429   2.135   3.512   1.085
 5844SOL     OW18430   0.908   6.332   5.180
 5844SOL    HW118431   1.003   6.351   5.205
 5844SOL    HW218432   0.847   6.380   5.243
 5845SOL     OW18433   0.646   0.065   1.853
 5845SOL    HW118434   0.722   0.116   1.813
 5845SOL    HW218435   0.598   0.123   1.919
 5846SOL     OW18436   5.922   3.593   5.559
 5846SOL    HW118437   5.910   3.521   5.628
 5846SOL    HW218438   5.864   3.671   5.581
 5847SOL     OW18439   2.690   2.604   1.789
 5847SOL    HW118440   2.622   2.532   1.783
 5847SOL    HW218441   2.780   2.564   1.809
 5848SOL     OW18442   1.962   6.006   4.068
 5848SOL    HW118443   1.932   6.101   4.078
 5848SOL    HW218444   1.959   5.980   3.972
 5849SOL     OW18445   1.986   6.331   5.300
 5849SOL    HW118446   1.947   6.416   5.336
 5849SOL    HW218447   1.959   6.320   5.205
 5850SOL     OW18448   0.670   3.079   1.721
 5850SOL    HW118449   0.689   3.106   1.627
 5850SOL    HW218450   0.752   3.040   1.762
 5851SOL     OW18451   5.632   3.614   3.764
 5851SOL    HW118452   5.600   3.644   3.854
 5851SOL    HW218453   5.721   3.656   3.744
 5852SOL     OW18454   4.386   6.020   2.689
 5852SOL    HW118455   4.343   5.930   2.678
 5852SOL    HW218456   4.477   6.019   2.648
 5853SOL     OW18457   4.366   5.286   5.253
 5853SOL    HW118458   4.341   5.382   5.246
 5853SOL    HW218459   4.456   5.279   5.297
 5854SOL     OW18460   4.076   4.636   5.623
 5854SOL    HW118461   3.991   4.590   5.647
 5854SOL    HW218462   4.146   4.615   5.691
 5855SOL     OW18463   1.664   2.634   4.052
 5855SOL    HW118464   1.633   2.723   4.085
 5855SOL    HW218465   1.651   2.566   4.124
 5856SOL     OW18466   1.199   6.821   2.469
 5856SOL    HW118467   1.154   6.878   2.401
 5856SOL    HW218468   1.131   6.773   2.524
 5857SOL     OW18469   6.654   3.096   5.235
 5857SOL    HW118470   6.731   3.159   5.246
 5857SOL    HW218471   6.635   3.050   5.322
 5858SOL     OW18472   2.543   2.154   2.627
 5858SOL    HW118473   2.591   2.233   2.589
 5858SOL    HW218474   2.474   2.122   2.563
 5859SOL     OW18475   6.121   6.244   1.510
 5859SOL    HW118476   6.101   6.323   1.451
 5859SOL    HW218477   6.043   6.181   1.508
 5860SOL     OW18478   0.772   4.552   3.479
 5860SOL    HW118479   0.778   4.650   3.459
 5860SOL    HW218480   0.857   4.508   3.451
 5861SOL     OW18481   5.367   0.628   4.793
 5861SOL    HW118482   5.411   0.709   4.830
 5861SOL    HW218483   5.435   0.557   4.776
 5862SOL     OW18484   6.135   5.713   1.885
 5862SOL    HW118485   6.070   5.776   1.841
 5862SOL    HW218486   6.166   5.753   1.972
 5863SOL     OW18487   3.287   1.117   4.567
 5863SOL    HW118488   3.387   1.111   4.569
 5863SOL    HW218489   3.252   1.122   4.661
 5864SOL     OW18490   3.880   3.552   2.596
 5864SOL    HW118491   3.967   3.591   2.566
 5864SOL    HW218492   3.889   3.518   2.690
 5865SOL     OW18493   5.466   0.413   5.727
 5865SOL    HW118494   5.388   0.351   5.723
 5865SOL    HW218495   5.502   0.427   5.635
 5866SOL     OW18496   2.954   3.119   0.401
 5866SOL    HW118497   2.913   3.194   0.452
 5866SOL    HW218498   3.040   3.092   0.443
 5867SOL     OW18499   2.387   2.325   2.130
 5867SOL    HW118500   2.484   2.317   2.155
 5867SOL    HW218501   2.376   2.398   2.063
 5868SOL     OW18502   1.090   2.182   5.814
 5868SOL    HW118503   1.017   2.238   5.854
 5868SOL    HW218504   1.166   2.176   5.878
 5869SOL     OW18505   1.724   4.408   3.507
 5869SOL    HW118506   1.760   4.480   3.447
 5869SOL    HW218507   1.627   4.394   3.487
 5870SOL     OW18508   4.154   5.623   5.552
 5870SOL    HW118509   4.084   5.557   5.580
 5870SOL    HW218510   4.114   5.687   5.486
 5871SOL     OW18511   4.106   3.658   2.458
 5871SOL    HW118512   4.082   3.755   2.468
 5871SOL    HW218513   4.090   3.629   2.364
 5872SOL     OW18514   4.284   6.322   1.315
 5872SOL    HW118515   4.206   6.285   1.363
 5872SOL    HW218516   4.363   6.324   1.376
 5873SOL     OW18517   2.899   6.095   2.436
 5873SOL    HW118518   2.879   6.107   2.338
 5873SOL    HW218519   2.967   6.163   2.464
 5874SOL     OW18520   2.266   4.431   5.187
 5874SOL    HW118521   2.209   4.361   5.229
 5874SOL    HW218522   2.268   4.418   5.088
 5875SOL     OW18523   3.478   2.167   0.226
 5875SOL    HW118524   3.513   2.259   0.207
 5875SOL    HW218525   3.413   2.141   0.154
 5876SOL     OW18526   3.787   3.361   2.007
 5876SOL    HW118527   3.821   3.283   2.060
 5876SOL    HW218528   3.697   3.340   1.970
 5877SOL     OW18529   6.031   6.260   0.336
 5877SOL    HW118530   5.964   6.245   0.262
 5877SOL    HW218531   6.091   6.181   0.344
 5878SOL     OW18532   0.827   5.969   4.025
 5878SOL    HW118533   0.803   5.896   3.960
 5878SOL    HW218534   0.852   5.927   4.112
 5879SOL     OW18535   0.840   3.384   0.384
 5879SOL    HW118536   0.786   3.402   0.302
 5879SOL    HW218537   0.937   3.392   0.363
 5880SOL     OW18538   2.980   4.527   0.630
 5880SOL    HW118539   3.039   4.469   0.575
 5880SOL    HW218540   2.900   4.553   0.576
 5881SOL     OW18541   0.119   4.920   3.018
 5881SOL    HW118542   0.195   4.977   2.987
 5881SOL    HW218543   0.071   4.966   3.092
 5882SOL     OW18544   6.647   6.270   1.334
 5882SOL    HW118545   6.672   6.283   1.430
 5882SOL    HW218546   6.548   6.261   1.326
 5883SOL     OW18547   1.295   1.917   6.808
 5883SOL    HW118548   1.262   1.877   6.893
 5883SOL    HW218549   1.224   1.975   6.768
 5884SOL     OW18550   2.758   1.374   3.976
 5884SOL    HW118551   2.756   1.458   3.921
 5884SOL    HW218552   2.683   1.314   3.948
 5885SOL     OW18553   7.006   0.150   2.515
 5885SOL    HW118554   0.022   0.207   2.446
 5885SOL    HW218555   6.908   0.171   2.518
 5886SOL     OW18556   0.524   2.008   5.215
 5886SOL    HW118557   0.622   2.023   5.231
 5886SOL    HW218558   0.511   1.969   5.124
 5887SOL     OW18559   3.724   1.018   3.727
 5887SOL    HW118560   3.765   0.957   3.795
 5887SOL    HW218561   3.640   0.976   3.692
 5888SOL     OW18562   2.688   0.696   2.836
 5888SOL    HW118563   2.696   0.778   2.779
 5888SOL    HW218564   2.722   0.717   2.928
 5889SOL     OW18565   1.603   6.429   1.473
 5889SOL    HW118566   1.505   6.421   1.490
 5889SOL    HW218567   1.649   6.348   1.509
 5890SOL     OW18568   1.168   0.148   5.505
 5890SOL    HW118569   1.137   0.059   5.538
 5890SOL    HW218570   1.195   0.205   5.582
 5891SOL     OW18571   3.067   3.083   5.893
 5891SOL    HW118572   3.053   3.131   5.807
 5891SOL    HW218573   3.068   2.984   5.877
 5892SOL     OW18574   0.556   5.718   1.612
 5892SOL    HW118575   0.554   5.818   1.606
 5892SOL    HW218576   0.640   5.684   1.570
 5893SOL     OW18577   1.489   4.112   3.954
 5893SOL    HW118578   1.498   4.167   3.871
 5893SOL    HW218579   1.529   4.022   3.939
 5894SOL     OW18580   0.736   5.917   3.627
 5894SOL    HW118581   0.706   6.011   3.642
 5894SOL    HW218582   0.718   5.863   3.710
 5895SOL     OW18583   4.874   3.107   4.244
 5895SOL    HW118584   4.880   3.060   4.333
 5895SOL    HW218585   4.787   3.083   4.200
 5896SOL     OW18586   4.126   1.728   0.722
 5896SOL    HW118587   4.051   1.733   0.788
 5896SOL    HW218588   4.206   1.775   0.759
 5897SOL     OW18589   3.773   0.504   1.842
 5897SOL    HW118590   3.857   0.464   1.806
 5897SOL    HW218591   3.700   0.435   1.841
 5898SOL     OW18592   2.024   6.744   3.231
 5898SOL    HW118593   2.005   6.675   3.300
 5898SOL    HW218594   1.988   6.832   3.261
 5899SOL     OW18595   4.932   6.577   5.678
 5899SOL    HW118596   4.886   6.516   5.614
 5899SOL    HW218597   4.864   6.635   5.723
 5900SOL     OW18598   4.722   5.359   3.537
 5900SOL    HW118599   4.727   5.435   3.472
 5900SOL    HW218600   4.802   5.363   3.598
 5901SOL     OW18601   2.698   0.463   0.146
 5901SOL    HW118602   2.629   0.451   0.218
 5901SOL    HW218603   2.719   0.560   0.136
 5902SOL     OW18604   6.930   2.237   7.025
 5902SOL    HW118605   6.991   2.167   6.989
 5902SOL    HW218606   6.977   2.289   0.068
 5903SOL     OW18607   4.350   4.163   0.213
 5903SOL    HW118608   4.312   4.254   0.197
 5903SOL    HW218609   4.408   4.137   0.136
 5904SOL     OW18610   0.989   3.459   1.845
 5904SOL    HW118611   0.921   3.529   1.822
 5904SOL    HW218612   0.975   3.379   1.786
 5905SOL     OW18613   6.439   6.222   2.979
 5905SOL    HW118614   6.369   6.257   2.917
 5905SOL    HW218615   6.410   6.233   3.074
 5906SOL     OW18616   4.610   1.611   4.371
 5906SOL    HW118617   4.564   1.565   4.447
 5906SOL    HW218618   4.546   1.628   4.297
 5907SOL     OW18619   1.720   5.760   2.199
 5907SOL    HW118620   1.766   5.839   2.239
 5907SOL    HW218621   1.756   5.676   2.240
 5908SOL     OW18622   0.762   2.237   6.540
 5908SOL    HW118623   0.796   2.328   6.513
 5908SOL    HW218624   0.811   2.167   6.488
 5909SOL     OW18625   6.839   5.248   0.894
 5909SOL    HW118626   6.917   5.292   0.850
 5909SOL    HW218627   6.791   5.191   0.827
 5910SOL     OW18628   0.874   2.748   3.124
 5910SOL    HW118629   0.933   2.809   3.176
 5910SOL    HW218630   0.825   2.688   3.187
 5911SOL     OW18631   6.278   5.912   6.493
 5911SOL    HW118632   6.354   5.948   6.548
 5911SOL    HW218633   6.223   5.988   6.459
 5912SOL     OW18634   6.499   0.620   5.449
 5912SOL    HW118635   6.544   0.658   5.530
 5912SOL    HW218636   6.509   0.682   5.372
 5913SOL     OW18637   4.701   3.009   6.724
 5913SOL    HW118638   4.705   3.056   6.636
 5913SOL    HW218639   4.774   3.043   6.783
 5914SOL     OW18640   1.090   6.185   6.763
 5914SOL    HW118641   1.071   6.282   6.775
 5914SOL    HW218642   1.188   6.172   6.748
 5915SOL     OW18643   4.493   6.486   1.121
 5915SOL    HW118644   4.477   6.476   1.023
 5915SOL    HW218645   4.423   6.435   1.171
 5916SOL     OW18646   0.178   5.954   2.772
 5916SOL    HW118647   0.126   5.976   2.855
 5916SOL    HW218648   0.275   5.949   2.795
 5917SOL     OW18649   3.090   3.991   4.675
 5917SOL    HW118650   3.056   4.050   4.749
 5917SOL    HW218651   3.173   3.944   4.705
 5918SOL     OW18652   2.290   5.069   5.741
 5918SOL    HW118653   2.194   5.062   5.767
 5918SOL    HW218654   2.303   5.033   5.649
 5919SOL     OW18655   3.052   3.592   2.566
 5919SOL    HW118656   3.151   3.602   2.569
 5919SOL    HW218657   3.018   3.622   2.476
 5920SOL     OW18658   5.207   0.750   6.141
 5920SOL    HW118659   5.143   0.825   6.158
 5920SOL    HW218660   5.161   0.662   6.154
 5921SOL     OW18661   4.181   5.163   6.487
 5921SOL    HW118662   4.254   5.219   6.447
 5921SOL    HW218663   4.220   5.079   6.524
 5922SOL     OW18664   6.197   4.160   4.274
 5922SOL    HW118665   6.194   4.192   4.368
 5922SOL    HW218666   6.124   4.204   4.221
 5923SOL     OW18667   6.944   1.286   2.357
 5923SOL    HW118668   6.895   1.243   2.282
 5923SOL    HW218669   0.011   1.298   2.333
 5924SOL     OW18670   5.960   0.086   2.605
 5924SOL    HW118671   5.879   0.091   2.664
 5924SOL    HW218672   6.019   0.011   2.637
 5925SOL     OW18673   3.515   6.530   1.857
 5925SOL    HW118674   3.505   6.440   1.899
 5925SOL    HW218675   3.585   6.583   1.906
 5926SOL     OW18676   4.392   4.618   2.140
 5926SOL    HW118677   4.369   4.553   2.068
 5926SOL    HW218678   4.463   4.681   2.108
 5927SOL     OW18679   1.079   4.526   1.931
 5927SOL    HW118680   1.034   4.578   2.003
 5927SOL    HW218681   1.072   4.428   1.950
 5928SOL     OW18682   3.793   6.968   1.340
 5928SOL    HW118683   3.700   6.949   1.308
 5928SOL    HW218684   3.837   6.882   1.367
 5929SOL     OW18685   5.754   0.578   5.713
 5929SOL    HW118686   5.655   0.582   5.719
 5929SOL    HW218687   5.782   0.490   5.676
 5930SOL     OW18688   0.612   3.174   2.946
 5930SOL    HW118689   0.667   3.256   2.930
 5930SOL    HW218690   0.584   3.136   2.858
 5931SOL     OW18691   6.581   6.399   2.493
 5931SOL    HW118692   6.575   6.471   2.562
 5931SOL    HW218693   6.650   6.424   2.425
 5932SOL     OW18694   3.647   0.132   0.499
 5932SOL    HW118695   3.636   0.213   0.443
 5932SOL    HW218696   3.622   0.050   0.447
 5933SOL     OW18697   6.866   5.108   4.242
 5933SOL    HW118698   6.775   5.136   4.211
 5933SOL    HW218699   6.872   5.117   4.341
 5934SOL     OW18700   3.912   2.931   5.139
 5934SOL    HW118701   3.952   2.872   5.068
 5934SOL    HW218702   3.936   2.895   5.229
 5935SOL     OW18703   0.611   5.296   6.194
 5935SOL    HW118704   0.647   5.282   6.286
 5935SOL    HW218705   0.550   5.220   6.170
 5936SOL     OW18706   3.029   3.394   1.689
 5936SOL    HW118707   2.996   3.350   1.605
 5936SOL    HW218708   3.079   3.477   1.665
 5937SOL     OW18709   6.175   3.054   1.672
 5937SOL    HW118710   6.176   3.007   1.584
 5937SOL    HW218711   6.269   3.064   1.706
 5938SOL     OW18712   6.248   5.711   3.950
 5938SOL    HW118713   6.239   5.733   3.853
 5938SOL    HW218714   6.287   5.788   3.999
 5939SOL     OW18715   2.623   5.942   3.949
 5939SOL    HW118716   2.602   5.872   3.881
 5939SOL    HW218717   2.699   5.912   4.006
 5940SOL     OW18718   4.072   5.148   3.538
 5940SOL    HW118719   4.168   5.135   3.564
 5940SOL    HW218720   4.067   5.161   3.439
 5941SOL     OW18721   5.554   3.217   2.489
 5941SOL    HW118722   5.494   3.190   2.564
 5941SOL    HW218723   5.499   3.236   2.408
 5942SOL     OW18724   5.603   3.893   6.800
 5942SOL    HW118725   5.630   3.822   6.865
 5942SOL    HW218726   5.627   3.983   6.837
 5943SOL     OW18727   3.375   3.467   6.314
 5943SOL    HW118728   3.310   3.473   6.239
 5943SOL    HW218729   3.467   3.487   6.280
 5944SOL     OW18730   0.440   2.398   0.260
 5944SOL    HW118731   0.464   2.408   0.356
 5944SOL    HW218732   0.450   2.302   0.233
 5945SOL     OW18733   6.865   5.242   5.098
 5945SOL    HW118734   6.913   5.198   5.022
 5945SOL    HW218735   6.924   5.245   5.178
 5946SOL     OW18736   3.482   4.264   0.063
 5946SOL    HW118737   3.408   4.321   0.028
 5946SOL    HW218738   3.557   4.322   0.094
 5947SOL     OW18739   3.235   3.524   3.058
 5947SOL    HW118740   3.288   3.520   3.143
 5947SOL    HW218741   3.141   3.549   3.078
 5948SOL     OW18742   4.153   4.981   2.609
 5948SOL    HW118743   4.243   4.966   2.568
 5948SOL    HW218744   4.085   4.994   2.537
 5949SOL     OW18745   5.336   4.898   1.553
 5949SOL    HW118746   5.374   4.813   1.589
 5949SOL    HW218747   5.402   4.972   1.564
 5950SOL     OW18748   5.506   2.021   4.944
 5950SOL    HW118749   5.521   2.095   5.009
 5950SOL    HW218750   5.408   2.007   4.931
 5951SOL     OW18751   1.101   5.637   4.917
 5951SOL    HW118752   1.143   5.723   4.889
 5951SOL    HW218753   1.009   5.631   4.878
 5952SOL     OW18754   4.558   5.836   3.420
 5952SOL    HW118755   4.518   5.804   3.507
 5952SOL    HW218756   4.658   5.831   3.426
 5953SOL     OW18757   6.985   4.359   5.187
 5953SOL    HW118758   6.925   4.281   5.167
 5953SOL    HW218759   6.939   4.421   5.250
 5954SOL     OW18760   6.637   5.326   4.855
 5954SOL    HW118761   6.620   5.345   4.952
 5954SOL    HW218762   6.671   5.232   4.846
 5955SOL     OW18763   4.683   5.434   1.944
 5955SOL    HW118764   4.711   5.362   2.008
 5955SOL    HW218765   4.647   5.512   1.995
 5956SOL     OW18766   5.409   2.286   4.091
 5956SOL    HW118767   5.391   2.218   4.021
 5956SOL    HW218768   5.329   2.296   4.150
 5957SOL     OW18769   3.309   1.599   4.608
 5957SOL    HW118770   3.246   1.629   4.679
 5957SOL    HW218771   3.289   1.505   4.582
 5958SOL     OW18772   3.828   0.341   2.914
 5958SOL    HW118773   3.912   0.379   2.876
 5958SOL    HW218774   3.818   0.245   2.885
 5959SOL     OW18775   4.598   2.875   5.651
 5959SOL    HW118776   4.541   2.873   5.569
 5959SOL    HW218777   4.542   2.852   5.731
 5960SOL     OW18778   3.495   6.063   4.363
 5960SOL    HW118779   3.504   5.986   4.427
 5960SOL    HW218780   3.529   6.146   4.407
 5961SOL     OW18781   4.594   1.443   2.403
 5961SOL    HW118782   4.692   1.448   2.423
 5961SOL    HW218783   4.543   1.418   2.485
 5962SOL     OW18784   5.140   6.184   6.119
 5962SOL    HW118785   5.126   6.092   6.082
 5962SOL    HW218786   5.079   6.248   6.073
 5963SOL     OW18787   3.238   3.877   6.663
 5963SOL    HW118788   3.300   3.801   6.645
 5963SOL    HW218789   3.286   3.948   6.715
 5964SOL     OW18790   1.598   6.402   4.778
 5964SOL    HW118791   1.563   6.492   4.805
 5964SOL    HW218792   1.558   6.332   4.838
 5965SOL     OW18793   2.313   1.177   0.403
 5965SOL    HW118794   2.276   1.263   0.369
 5965SOL    HW218795   2.270   1.100   0.355
 5966SOL     OW18796   1.752   6.497   6.242
 5966SOL    HW118797   1.755   6.446   6.328
 5966SOL    HW218798   1.736   6.433   6.166
 5967SOL     OW18799   2.563   0.453   6.028
 5967SOL    HW118800   2.625   0.525   5.995
 5967SOL    HW218801   2.490   0.439   5.961
 5968SOL     OW18802   5.248   2.212   6.911
 5968SOL    HW118803   5.178   2.145   6.936
 5968SOL    HW218804   5.203   2.296   6.879
 5969SOL     OW18805   6.301   0.790   6.951
 5969SOL    HW118806   6.366   0.761   6.881
 5969SOL    HW218807   6.334   0.873   6.995
 5970SOL     OW18808   6.889   5.051   1.804
 5970SOL    HW118809   6.838   5.077   1.722
 5970SOL    HW218810   6.834   5.073   1.886
 5971SOL     OW18811   0.058   0.388   1.066
 5971SOL    HW118812   0.082   0.291   1.070
 5971SOL    HW218813   0.015   0.408   0.978
 5972SOL     OW18814   4.652   5.763   6.319
 5972SOL    HW118815   4.660   5.859   6.295
 5972SOL    HW218816   4.628   5.710   6.237
 5973SOL     OW18817   1.478   2.570   2.917
 5973SOL    HW118818   1.494   2.659   2.874
 5973SOL    HW218819   1.533   2.563   3.000
 5974SOL     OW18820   5.288   6.531   0.277
 5974SOL    HW118821   5.220   6.502   0.345
 5974SOL    HW218822   5.366   6.572   0.324
 5975SOL     OW18823   4.417   6.692   0.454
 5975SOL    HW118824   4.410   6.678   0.553
 5975SOL    HW218825   4.327   6.711   0.416
 5976SOL     OW18826   3.776   2.677   5.499
 5976SOL    HW118827   3.688   2.677   5.452
 5976SOL    HW218828   3.850   2.680   5.432
 5977SOL     OW18829   0.839   5.775   0.322
 5977SOL    HW118830   0.792   5.687   0.332
 5977SOL    HW218831   0.894   5.774   0.239
 5978SOL     OW18832   3.391   5.632   1.615
 5978SOL    HW118833   3.305   5.671   1.646
 5978SOL    HW218834   3.464   5.699   1.626
 5979SOL     OW18835   6.479   0.301   2.104
 5979SOL    HW118836   6.438   0.344   2.184
 5979SOL    HW218837   6.494   0.204   2.123
 5980SOL     OW18838   4.252   3.626   1.429
 5980SOL    HW118839   4.348   3.599   1.426
 5980SOL    HW218840   4.228   3.676   1.346
 5981SOL     OW18841   4.932   1.773   0.368
 5981SOL    HW118842   4.913   1.757   0.464
 5981SOL    HW218843   4.867   1.723   0.312
 5982SOL     OW18844   6.197   2.015   2.420
 5982SOL    HW118845   6.260   1.954   2.371
 5982SOL    HW218846   6.136   1.960   2.477
 5983SOL     OW18847   1.388   1.180   4.262
 5983SOL    HW118848   1.417   1.262   4.312
 5983SOL    HW218849   1.429   1.181   4.171
 5984SOL     OW18850   5.201   6.544   3.437
 5984SOL    HW118851   5.252   6.576   3.517
 5984SOL    HW218852   5.130   6.610   3.414
 5985SOL     OW18853   6.701   2.859   3.297
 5985SOL    HW118854   6.760   2.883   3.219
 5985SOL    HW218855   6.703   2.933   3.364
 5986SOL     OW18856   3.253   3.903   5.209
 5986SOL    HW118857   3.290   3.974   5.269
 5986SOL    HW218858   3.243   3.940   5.116
 5987SOL     OW18859   5.058   0.269   4.134
 5987SOL    HW118860   4.966   0.299   4.108
 5987SOL    HW218861   5.126   0.314   4.076
 5988SOL     OW18862   4.747   0.418   5.869
 5988SOL    HW118863   4.782   0.329   5.843
 5988SOL    HW218864   4.799   0.490   5.823
 5989SOL     OW18865   2.102   5.543   6.192
 5989SOL    HW118866   2.171   5.492   6.243
 5989SOL    HW218867   2.024   5.484   6.172
 5990SOL     OW18868   3.560   3.548   0.615
 5990SOL    HW118869   3.545   3.613   0.541
 5990SOL    HW218870   3.475   3.534   0.665
 5991SOL     OW18871   4.145   6.006   6.827
 5991SOL    HW118872   4.241   6.032   6.837
 5991SOL    HW218873   4.104   6.056   6.751
 5992SOL     OW18874   3.829   0.299   2.118
 5992SOL    HW118875   3.775   0.227   2.073
 5992SOL    HW218876   3.767   0.368   2.156
 5993SOL     OW18877   4.162   4.075   6.055
 5993SOL    HW118878   4.163   4.003   5.986
 5993SOL    HW218879   4.193   4.038   6.143
 5994SOL     OW18880   6.674   2.182   6.941
 5994SOL    HW118881   6.762   2.193   6.987
 5994SOL    HW218882   6.604   2.234   6.990
 5995SOL     OW18883   4.949   3.161   2.141
 5995SOL    HW118884   4.937   3.259   2.152
 5995SOL    HW218885   4.875   3.124   2.085
 5996SOL     OW18886   0.958   6.000   1.180
 5996SOL    HW118887   1.022   6.072   1.154
 5996SOL    HW218888   0.981   5.965   1.271
 5997SOL     OW18889   1.192   5.685   2.460
 5997SOL    HW118890   1.093   5.693   2.472
 5997SOL    HW218891   1.216   5.710   2.366
 5998SOL     OW18892   6.567   1.814   2.089
 5998SOL    HW118893   6.631   1.814   2.166
 5998SOL    HW218894   6.618   1.812   2.003
 5999SOL     OW18895   2.830   3.183   1.566
 5999SOL    HW118896   2.740   3.175   1.609
 5999SOL    HW218897   2.887   3.105   1.593
 6000SOL     OW18898   1.294   6.340   0.338
 6000SOL    HW118899   1.346   6.360   0.255
 6000SOL    HW218900   1.225   6.410   0.353
 6001SOL     OW18901   6.675   5.281   6.605
 6001SOL    HW118902   6.701   5.197   6.559
 6001SOL    HW218903   6.633   5.259   6.693
 6002SOL     OW18904   6.118   6.919   6.267
 6002SOL    HW118905   6.211   6.917   6.302
 6002SOL    HW218906   6.120   6.911   6.167
 6003SOL     OW18907   5.804   1.837   5.207
 6003SOL    HW118908   5.815   1.933   5.235
 6003SOL    HW218909   5.713   1.806   5.232
 6004SOL     OW18910   6.587   3.319   3.619
 6004SOL    HW118911   6.678   3.357   3.599
 6004SOL    HW218912   6.579   3.303   3.718
 6005SOL     OW18913   5.870   4.921   4.744
 6005SOL    HW118914   5.965   4.889   4.755
 6005SOL    HW218915   5.852   4.937   4.647
 6006SOL     OW18916   2.368   0.356   5.003
 6006SOL    HW118917   2.424   0.435   4.981
 6006SOL    HW218918   2.363   0.345   5.102
 6007SOL     OW18919   6.625   3.107   5.990
 6007SOL    HW118920   6.684   3.187   5.976
 6007SOL    HW218921   6.608   3.062   5.903
 6008SOL     OW18922   2.635   4.992   6.065
 6008SOL    HW118923   2.692   4.993   5.984
 6008SOL    HW218924   2.539   5.002   6.039
 6009SOL     OW18925   3.801   0.025   3.996
 6009SOL    HW118926   3.783   0.084   3.918
 6009SOL    HW218927   3.724   0.029   4.060
 6010SOL     OW18928   0.560   4.462   3.601
 6010SOL    HW118929   0.645   4.458   3.549
 6010SOL    HW218930   0.485   4.486   3.539
 6011SOL     OW18931   5.596   3.181   3.229
 6011SOL    HW118932   5.605   3.191   3.130
 6011SOL    HW218933   5.550   3.262   3.267
 6012SOL     OW18934   6.054   0.500   0.638
 6012SOL    HW118935   6.033   0.526   0.544
 6012SOL    HW218936   6.139   0.544   0.666
 6013SOL     OW18937   4.798   0.983   2.963
 6013SOL    HW118938   4.708   0.992   3.004
 6013SOL    HW218939   4.859   1.052   3.002
 6014SOL     OW18940   3.791   4.065   3.488
 6014SOL    HW118941   3.879   4.106   3.511
 6014SOL    HW218942   3.760   4.008   3.564
 6015SOL     OW18943   5.977   4.035   4.574
 6015SOL    HW118944   5.959   4.001   4.666
 6015SOL    HW218945   6.019   4.125   4.580
 6016SOL     OW18946   6.507   1.208   6.137
 6016SOL    HW118947   6.485   1.115   6.110
 6016SOL    HW218948   6.465   1.272   6.073
 6017SOL     OW18949   6.123   4.874   4.326
 6017SOL    HW118950   6.181   4.866   4.407
 6017SOL    HW218951   6.176   4.912   4.251
 6018SOL     OW18952   3.406   1.548   5.884
 6018SOL    HW118953   3.495   1.577   5.919
 6018SOL    HW218954   3.334   1.584   5.944
 6019SOL     OW18955   0.728   3.172   5.006
 6019SOL    HW118956   0.701   3.076   5.013
 6019SOL    HW218957   0.790   3.195   5.080
 6020SOL     OW18958   0.526   5.135   0.166
 6020SOL    HW118959   0.508   5.117   0.263
 6020SOL    HW218960   0.622   5.117   0.146
 6021SOL     OW18961   4.339   0.528   3.016
 6021SOL    HW118962   4.362   0.616   3.056
 6021SOL    HW218963   4.247   0.532   2.977
 6022SOL     OW18964   0.132   1.889   3.439
 6022SOL    HW118965   0.085   1.950   3.503
 6022SOL    HW218966   0.230   1.909   3.439
 6023SOL     OW18967   5.052   1.016   1.510
 6023SOL    HW118968   4.958   1.049   1.524
 6023SOL    HW218969   5.050   0.917   1.498
 6024SOL     OW18970   0.842   4.898   1.364
 6024SOL    HW118971   0.922   4.922   1.420
 6024SOL    HW218972   0.821   4.801   1.375
 6025SOL     OW18973   2.953   2.183   3.236
 6025SOL    HW118974   3.020   2.231   3.179
 6025SOL    HW218975   3.001   2.124   3.301
 6026SOL     OW18976   0.105   5.825   5.017
 6026SOL    HW118977   0.193   5.809   4.971
 6026SOL    HW218978   0.059   5.737   5.029
 6027SOL     OW18979   6.944   3.335   6.276
 6027SOL    HW118980   0.005   3.307   6.310
 6027SOL    HW218981   6.930   3.297   6.184
 6028SOL     OW18982   5.452   4.438   1.204
 6028SOL    HW118983   5.517   4.463   1.132
 6028SOL    HW218984   5.393   4.516   1.224
 6029SOL     OW18985   2.926   6.726   3.956
 6029SOL    HW118986   2.951   6.677   3.872
 6029SOL    HW218987   2.963   6.819   3.953
 6030SOL     OW18988   4.588   4.744   3.941
 6030SOL    HW118989   4.673   4.691   3.948
 6030SOL    HW218990   4.514   4.695   3.988
 6031SOL     OW18991   2.805   5.833   4.148
 6031SOL    HW118992   2.808   5.752   4.207
 6031SOL    HW218993   2.880   5.829   4.082
 6032SOL     OW18994   2.214   5.114   2.883
 6032SOL    HW118995   2.194   5.030   2.933
 6032SOL    HW218996   2.255   5.181   2.945
 6033SOL     OW18997   2.178   2.904   2.908
 6033SOL    HW118998   2.078   2.899   2.910
 6033SOL    HW218999   2.212   2.862   2.824
 6034SOL     OW19000   1.141   1.107   5.732
 6034SOL    HW119001   1.233   1.108   5.771
 6034SOL    HW219002   1.143   1.153   5.643
 6035SOL     OW19003   1.778   1.305   1.883
 6035SOL    HW119004   1.877   1.310   1.875
 6035SOL    HW219005   1.738   1.395   1.862
 6036SOL     OW19006   5.438   4.983   2.336
 6036SOL    HW119007   5.343   4.955   2.321
 6036SOL    HW219008   5.487   4.910   2.383
 6037SOL     OW19009   3.942   0.211   0.462
 6037SOL    HW119010   3.962   0.304   0.494
 6037SOL    HW219011   3.846   0.190   0.478
 6038SOL     OW19012   1.713   2.715   6.105
 6038SOL    HW119013   1.775   2.790   6.081
 6038SOL    HW219014   1.619   2.748   6.104
 6039SOL     OW19015   3.706   3.352   3.000
 6039SOL    HW119016   3.712   3.303   2.912
 6039SOL    HW219017   3.666   3.442   2.984
 6040SOL     OW19018   1.405   1.378   1.275
 6040SOL    HW119019   1.498   1.342   1.272
 6040SOL    HW219020   1.394   1.434   1.357
 6041SOL     OW19021   2.719   1.954   4.956
 6041SOL    HW119022   2.659   1.933   4.879
 6041SOL    HW219023   2.764   2.042   4.940
 6042SOL     OW19024   4.056   6.940   2.961
 6042SOL    HW119025   4.014   6.892   2.884
 6042SOL    HW219026   4.089   6.873   3.028
 6043SOL     OW19027   0.759   0.219   4.946
 6043SOL    HW119028   0.713   0.282   4.884
 6043SOL    HW219029   0.858   0.221   4.928
 6044SOL     OW19030   2.325   2.554   1.985
 6044SOL    HW119031   2.383   2.526   1.909
 6044SOL    HW219032   2.282   2.642   1.964
 6045SOL     OW19033   5.492   3.664   3.534
 6045SOL    HW119034   5.561   3.694   3.468
 6045SOL    HW219035   5.535   3.641   3.621
 6046SOL     OW19036   3.072   2.738   1.211
 6046SOL    HW119037   3.105   2.659   1.263
 6046SOL    HW219038   3.049   2.709   1.119
 6047SOL     OW19039   5.342   2.188   1.527
 6047SOL    HW119040   5.309   2.239   1.607
 6047SOL    HW219041   5.429   2.145   1.550
 6048SOL     OW19042   4.792   4.902   5.012
 6048SOL    HW119043   4.796   4.853   5.099
 6048SOL    HW219044   4.707   4.880   4.965
 6049SOL     OW19045   4.380   4.516   6.692
 6049SOL    HW119046   4.417   4.486   6.780
 6049SOL    HW219047   4.281   4.505   6.692
 6050SOL     OW19048   2.016   5.689   6.729
 6050SOL    HW119049   1.980   5.776   6.696
 6050SOL    HW219050   2.043   5.632   6.651
 6051SOL     OW19051   2.187   0.255   2.901
 6051SOL    HW119052   2.278   0.214   2.897
 6051SOL    HW219053   2.163   0.291   2.811
 6052SOL     OW19054   4.977   1.475   1.544
 6052SOL    HW119055   5.038   1.553   1.530
 6052SOL    HW219056   4.954   1.468   1.641
 6053SOL     OW19057   4.404   0.685   5.978
 6053SOL    HW119058   4.438   0.617   5.912
 6053SOL    HW219059   4.476   0.750   5.998
 6054SOL     OW19060   2.289   3.337   0.111
 6054SOL    HW119061   2.303   3.244   0.077
 6054SOL    HW219062   2.257   3.395   0.036
 6055SOL     OW19063   5.057   6.177   4.956
 6055SOL    HW119064   5.099   6.089   4.977
 6055SOL    HW219065   5.050   6.231   5.040
 6056SOL     OW19066   4.634   3.424   5.420
 6056SOL    HW119067   4.728   3.402   5.445
 6056SOL    HW219068   4.634   3.498   5.353
 6057SOL     OW19069   6.854   0.930   2.283
 6057SOL    HW119070   6.815   0.989   2.212
 6057SOL    HW219071   6.835   0.835   2.261
 6058SOL     OW19072   5.138   3.715   0.742
 6058SOL    HW119073   5.171   3.642   0.683
 6058SOL    HW219074   5.215   3.754   0.793
 6059SOL     OW19075   4.691   5.034   5.937
 6059SOL    HW119076   4.683   5.092   6.018
 6059SOL    HW219077   4.628   4.957   5.945
 6060SOL     OW19078   2.349   3.244   6.298
 6060SOL    HW119079   2.290   3.211   6.224
 6060SOL    HW219080   2.329   3.340   6.316
 6061SOL     OW19081   5.209   3.935   7.016
 6061SOL    HW119082   5.257   3.959   0.072
 6061SOL    HW219083   5.252   3.854   6.976
 6062SOL     OW19084   2.543   0.900   5.887
 6062SOL    HW119085   2.635   0.939   5.886
 6062SOL    HW219086   2.477   0.973   5.902
 6063SOL     OW19087   4.562   2.555   6.129
 6063SOL    HW119088   4.463   2.558   6.137
 6063SOL    HW219089   4.603   2.559   6.220
 6064SOL     OW19090   1.671   0.527   1.170
 6064SOL    HW119091   1.690   0.617   1.209
 6064SOL    HW219092   1.732   0.459   1.211
 6065SOL     OW19093   0.903   6.101   3.008
 6065SOL    HW119094   0.841   6.089   2.931
 6065SOL    HW219095   0.997   6.085   2.979
 6066SOL     OW19096   5.294   1.000   5.755
 6066SOL    HW119097   5.348   1.004   5.839
 6066SOL    HW219098   5.227   1.075   5.755
 6067SOL     OW19099   4.863   0.395   5.125
 6067SOL    HW119100   4.786   0.458   5.110
 6067SOL    HW219101   4.923   0.433   5.196
 6068SOL     OW19102   4.847   2.949   4.814
 6068SOL    HW119103   4.855   3.041   4.776
 6068SOL    HW219104   4.796   2.891   4.750
 6069SOL     OW19105   6.027   3.540   5.056
 6069SOL    HW119106   6.106   3.515   5.001
 6069SOL    HW219107   5.978   3.458   5.084
 6070SOL     OW19108   2.817   2.850   1.322
 6070SOL    HW119109   2.799   2.817   1.414
 6070SOL    HW219110   2.909   2.824   1.294
 6071SOL     OW19111   0.310   6.081   4.720
 6071SOL    HW119112   0.399   6.063   4.678
 6071SOL    HW219113   0.239   6.035   4.667
 6072SOL     OW19114   0.449   0.594   1.532
 6072SOL    HW119115   0.376   0.525   1.529
 6072SOL    HW219116   0.537   0.550   1.516
 6073SOL     OW19117   5.142   3.189   0.751
 6073SOL    HW119118   5.046   3.176   0.774
 6073SOL    HW219119   5.189   3.230   0.829
 6074SOL     OW19120   1.428   5.707   2.269
 6074SOL    HW119121   1.424   5.619   2.316
 6074SOL    HW219122   1.523   5.735   2.258
 6075SOL     OW19123   4.695   6.711   5.727
 6075SOL    HW119124   4.604   6.670   5.723
 6075SOL    HW219125   4.712   6.746   5.820
 6076SOL     OW19126   2.921   4.800   3.125
 6076SOL    HW119127   2.934   4.892   3.089
 6076SOL    HW219128   3.008   4.750   3.122
 6077SOL     OW19129   6.424   5.268   1.346
 6077SOL    HW119130   6.404   5.301   1.253
 6077SOL    HW219131   6.338   5.260   1.397
 6078SOL     OW19132   5.097   4.979   0.064
 6078SOL    HW119133   5.067   4.890   0.032
 6078SOL    HW219134   5.138   5.030   7.017
 6079SOL     OW19135   4.979   3.732   5.447
 6079SOL    HW119136   4.888   3.763   5.420
 6079SOL    HW219137   5.007   3.780   5.531
 6080SOL     OW19138   0.376   5.769   0.751
 6080SOL    HW119139   0.293   5.819   0.725
 6080SOL    HW219140   0.414   5.809   0.834
 6081SOL     OW19141   0.107   2.434   5.652
 6081SOL    HW119142   0.115   2.446   5.553
 6081SOL    HW219143   0.124   2.339   5.675
 6082SOL     OW19144   3.096   0.129   2.685
 6082SOL    HW119145   3.063   0.089   2.600
 6082SOL    HW219146   3.196   0.123   2.688
 6083SOL     OW19147   6.218   6.039   0.300
 6083SOL    HW119148   6.222   5.969   0.371
 6083SOL    HW219149   6.303   6.092   0.299
 6084SOL     OW19150   0.892   6.976   2.517
 6084SOL    HW119151   0.920   6.886   2.551
 6084SOL    HW219152   0.933   6.993   2.428
 6085SOL     OW19153   0.372   6.980   7.003
 6085SOL    HW119154   0.283   7.002   6.963
 6085SOL    HW219155   0.379   6.882   7.018
 6086SOL     OW19156   2.786   1.904   5.651
 6086SOL    HW119157   2.853   1.932   5.719
 6086SOL    HW219158   2.734   1.983   5.619
 6087SOL     OW19159   3.493   6.032   1.675
 6087SOL    HW119160   3.445   6.060   1.758
 6087SOL    HW219161   3.553   6.106   1.644
 6088SOL     OW19162   5.455   0.143   4.305
 6088SOL    HW119163   5.530   0.097   4.352
 6088SOL    HW219164   5.377   0.153   4.367
 6089SOL     OW19165   5.719   2.385   2.599
 6089SOL    HW119166   5.783   2.342   2.535
 6089SOL    HW219167   5.758   2.472   2.631
 6090SOL     OW19168   2.231   5.263   4.446
 6090SOL    HW119169   2.327   5.234   4.453
 6090SOL    HW219170   2.184   5.244   4.532
 6091SOL     OW19171   2.485   1.462   6.801
 6091SOL    HW119172   2.578   1.487   6.827
 6091SOL    HW219173   2.487   1.383   6.741
 6092SOL     OW19174   4.203   1.001   2.920
 6092SOL    HW119175   4.189   0.950   3.005
 6092SOL    HW219176   4.134   1.072   2.912
 6093SOL     OW19177   2.282   2.883   2.236
 6093SOL    HW119178   2.368   2.854   2.280
 6093SOL    HW219179   2.284   2.858   2.139
 6094SOL     OW19180   1.395   6.027   3.297
 6094SOL    HW119181   1.416   5.999   3.203
 6094SOL    HW219182   1.459   6.099   3.325
 6095SOL     OW19183   4.783   4.834   7.015
 6095SOL    HW119184   4.866   4.780   7.006
 6095SOL    HW219185   4.793   4.897   0.063
 6096SOL     OW19186   6.228   7.012   2.807
 6096SOL    HW119187   6.216   0.029   2.895
 6096SOL    HW219188   6.303   0.027   2.756
 6097SOL     OW19189   1.790   5.468   2.283
 6097SOL    HW119190   1.886   5.440   2.280
 6097SOL    HW219191   1.735   5.401   2.233
 6098SOL     OW19192   0.101   1.573   5.665
 6098SOL    HW119193   0.002   1.572   5.649
 6098SOL    HW219194   0.145   1.632   5.597
 6099SOL     OW19195   5.436   5.799   5.499
 6099SOL    HW119196   5.374   5.764   5.428
 6099SOL    HW219197   5.509   5.851   5.456
 6100SOL     OW19198   5.549   5.924   1.511
 6100SOL    HW119199   5.576   6.013   1.549
 6100SOL    HW219200   5.477   5.885   1.568
 6101SOL     OW19201   0.114   3.103   2.962
 6101SOL    HW119202   0.105   3.006   2.940
 6101SOL    HW219203   0.164   3.149   2.889
 6102SOL     OW19204   3.750   5.679   3.115
 6102SOL    HW119205   3.792   5.767   3.138
 6102SOL    HW219206   3.680   5.657   3.183
 6103SOL     OW19207   5.491   1.593   1.710
 6103SOL    HW119208   5.574   1.554   1.671
 6103SOL    HW219209   5.415   1.529   1.697
 6104SOL     OW19210   5.358   6.962   5.174
 6104SOL    HW119211   5.364   6.986   5.271
 6104SOL    HW219212   5.399   6.871   5.159
 6105SOL     OW19213   2.405   5.611   6.460
 6105SOL    HW119214   2.327   5.672   6.472
 6105SOL    HW219215   2.374   5.522   6.426
 6106SOL     OW19216   1.796   4.735   6.054
 6106SOL    HW119217   1.852   4.660   6.020
 6106SOL    HW219218   1.763   4.713   6.146
 6107SOL     OW19219   4.554   5.740   4.980
 6107SOL    HW119220   4.570   5.642   4.993
 6107SOL    HW219221   4.539   5.783   5.069
 6108SOL     OW19222   2.242   2.517   2.778
 6108SOL    HW119223   2.292   2.516   2.865
 6108SOL    HW219224   2.245   2.609   2.739
 6109SOL     OW19225   5.672   1.441   5.117
 6109SOL    HW119226   5.762   1.474   5.091
 6109SOL    HW219227   5.626   1.401   5.037
 6110SOL     OW19228   2.707   4.063   1.061
 6110SOL    HW119229   2.622   4.100   1.026
 6110SOL    HW219230   2.690   3.975   1.105
 6111SOL     OW19231   1.290   3.051   2.171
 6111SOL    HW119232   1.360   3.094   2.114
 6111SOL    HW219233   1.284   2.954   2.147
 6112SOL     OW19234   3.396   0.281   2.455
 6112SOL    HW119235   3.386   0.237   2.544
 6112SOL    HW219236   3.448   0.366   2.464
 6113SOL     OW19237   2.698   2.082   5.997
 6113SOL    HW119238   2.773   2.030   5.957
 6113SOL    HW219239   2.611   2.042   5.968
 6114SOL     OW19240   5.098   4.382   2.364
 6114SOL    HW119241   5.184   4.390   2.413
 6114SOL    HW219242   5.029   4.440   2.408
 6115SOL     OW19243   6.283   0.271   4.409
 6115SOL    HW119244   6.351   0.280   4.482
 6115SOL    HW219245   6.294   0.347   4.344
 6116SOL     OW19246   3.838   1.760   6.113
 6116SOL    HW119247   3.833   1.810   6.200
 6116SOL    HW219248   3.781   1.807   6.045
 6117SOL     OW19249   2.164   1.640   3.546
 6117SOL    HW119250   2.244   1.687   3.511
 6117SOL    HW219251   2.108   1.705   3.598
 6118SOL     OW19252   5.550   1.066   0.989
 6118SOL    HW119253   5.600   1.148   0.959
 6118SOL    HW219254   5.480   1.043   0.922
 6119SOL     OW19255   1.054   3.758   0.280
 6119SOL    HW119256   1.018   3.750   0.372
 6119SOL    HW219257   1.092   3.850   0.267
 6120SOL     OW19258   2.502   6.648   5.592
 6120SOL    HW119259   2.497   6.627   5.689
 6120SOL    HW219260   2.594   6.682   5.570
 6121SOL     OW19261   1.089   3.617   5.196
 6121SOL    HW119262   1.016   3.681   5.173
 6121SOL    HW219263   1.065   3.566   5.278
 6122SOL     OW19264   3.785   5.203   0.462
 6122SOL    HW119265   3.795   5.253   0.376
 6122SOL    HW219266   3.756   5.268   0.533
 6123SOL     OW19267   5.180   6.613   6.245
 6123SOL    HW119268   5.190   6.610   6.345
 6123SOL    HW219269   5.086   6.636   6.221
 6124SOL     OW19270   1.498   7.007   5.641
 6124SOL    HW119271   1.544   6.936   5.588
 6124SOL    HW219272   1.521   6.998   5.738
 6125SOL     OW19273   1.774   3.974   0.407
 6125SOL    HW119274   1.763   3.948   0.311
 6125SOL    HW219275   1.833   3.907   0.453
 6126SOL     OW19276   0.086   1.177   4.330
 6126SOL    HW119277   0.100   1.180   4.429
 6126SOL    HW219278   7.018   1.193   4.310
 6127SOL     OW19279   3.111   6.679   0.884
 6127SOL    HW119280   3.041   6.616   0.852
 6127SOL    HW219281   3.068   6.763   0.916
 6128SOL     OW19282   6.098   5.259   0.373
 6128SOL    HW119283   6.179   5.200   0.381
 6128SOL    HW219284   6.106   5.336   0.435
 6129SOL     OW19285   0.387   2.833   2.514
 6129SOL    HW119286   0.477   2.790   2.506
 6129SOL    HW219287   0.323   2.769   2.558
 6130SOL     OW19288   4.887   2.200   2.298
 6130SOL    HW119289   4.972   2.210   2.247
 6130SOL    HW219290   4.902   2.221   2.394
 6131SOL     OW19291   0.854   1.663   3.843
 6131SOL    HW119292   0.865   1.569   3.814
 6131SOL    HW219293   0.936   1.694   3.890
 6132SOL     OW19294   4.031   1.882   6.895
 6132SOL    HW119295   3.981   1.886   6.808
 6132SOL    HW219296   3.967   1.897   6.971
 6133SOL     OW19297   2.130   3.615   3.222
 6133SOL    HW119298   2.182   3.700   3.218
 6133SOL    HW219299   2.035   3.635   3.242
 6134SOL     OW19300   4.410   6.116   6.822
 6134SOL    HW119301   4.474   6.187   6.851
 6134SOL    HW219302   4.430   6.089   6.728
 6135SOL     OW19303   0.389   6.281   1.031
 6135SOL    HW119304   0.398   6.236   0.943
 6135SOL    HW219305   0.453   6.241   1.096
 6136SOL     OW19306   1.370   2.856   1.835
 6136SOL    HW119307   1.374   2.834   1.737
 6136SOL    HW219308   1.449   2.910   1.861
 6137SOL     OW19309   6.815   3.986   2.194
 6137SOL    HW119310   6.848   3.983   2.099
 6137SOL    HW219311   6.893   3.977   2.256
 6138SOL     OW19312   3.832   0.094   2.794
 6138SOL    HW119313   3.771   0.014   2.786
 6138SOL    HW219314   3.901   0.076   2.864
 6139SOL     OW19315   0.974   0.288   5.732
 6139SOL    HW119316   0.924   0.349   5.792
 6139SOL    HW219317   0.992   0.334   5.645
 6140SOL     OW19318   1.217   0.199   2.154
 6140SOL    HW119319   1.177   0.246   2.076
 6140SOL    HW219320   1.257   0.266   2.217
 6141SOL     OW19321   0.579   7.019   5.904
 6141SOL    HW119322   0.555   0.075   5.951
 6141SOL    HW219323   0.516   6.947   5.931
 6142SOL     OW19324   7.005   5.913   6.032
 6142SOL    HW119325   6.996   5.948   6.126
 6142SOL    HW219326   7.026   5.989   5.971
 6143SOL     OW19327   6.692   3.670   1.187
 6143SOL    HW119328   6.683   3.577   1.151
 6143SOL    HW219329   6.601   3.711   1.195
 6144SOL     OW19330   5.273   4.934   4.281
 6144SOL    HW119331   5.242   4.958   4.373
 6144SOL    HW219332   5.353   4.875   4.287
 6145SOL     OW19333   5.368   5.103   4.092
 6145SOL    HW119334   5.455   5.132   4.131
 6145SOL    HW219335   5.331   5.027   4.145
 6146SOL     OW19336   3.304   5.364   4.039
 6146SOL    HW119337   3.375   5.334   4.103
 6146SOL    HW219338   3.257   5.444   4.076
 6147SOL     OW19339   2.401   2.461   5.192
 6147SOL    HW119340   2.415   2.546   5.243
 6147SOL    HW219341   2.314   2.465   5.143
 6148SOL     OW19342   4.242   6.835   4.941
 6148SOL    HW119343   4.196   6.767   4.998
 6148SOL    HW219344   4.259   6.918   4.995
 6149SOL     OW19345   2.334   6.665   1.494
 6149SOL    HW119346   2.264   6.626   1.435
 6149SOL    HW219347   2.422   6.664   1.447
 6150SOL     OW19348   6.059   4.595   0.541
 6150SOL    HW119349   6.125   4.591   0.616
 6150SOL    HW219350   6.090   4.537   0.466
 6151SOL     OW19351   6.614   4.738   6.153
 6151SOL    HW119352   6.621   4.641   6.176
 6151SOL    HW219353   6.522   4.757   6.118
 6152SOL     OW19354   0.713   6.022   4.382
 6152SOL    HW119355   0.679   5.940   4.335
 6152SOL    HW219356   0.779   6.069   4.324
 6153SOL     OW19357   5.348   4.165   1.404
 6153SOL    HW119358   5.301   4.205   1.483
 6153SOL    HW219359   5.412   4.233   1.367
 6154SOL     OW19360   5.965   2.573   2.401
 6154SOL    HW119361   5.954   2.475   2.418
 6154SOL    HW219362   5.916   2.597   2.317
 6155SOL     OW19363   1.759   1.243   3.144
 6155SOL    HW119364   1.788   1.158   3.189
 6155SOL    HW219365   1.817   1.260   3.064
 6156SOL     OW19366   4.813   4.622   2.083
 6156SOL    HW119367   4.849   4.530   2.102
 6156SOL    HW219368   4.864   4.689   2.138
 6157SOL     OW19369   6.740   2.062   3.369
 6157SOL    HW119370   6.698   2.099   3.451
 6157SOL    HW219371   6.690   1.981   3.340
 6158SOL     OW19372   3.799   2.219   7.017
 6158SOL    HW119373   3.742   2.223   6.935
 6158SOL    HW219374   3.822   2.125   0.009
 6159SOL     OW19375   4.345   1.891   0.793
 6159SOL    HW119376   4.323   1.989   0.793
 6159SOL    HW219377   4.408   1.871   0.717
 6160SOL     OW19378   5.719   0.282   6.848
 6160SOL    HW119379   5.651   0.227   6.896
 6160SOL    HW219380   5.676   0.327   6.769
 6161SOL     OW19381   5.668   2.047   6.596
 6161SOL    HW119382   5.646   1.967   6.652
 6161SOL    HW219383   5.640   2.130   6.643
 6162SOL     OW19384   6.427   6.968   3.871
 6162SOL    HW119385   6.336   6.976   3.832
 6162SOL    HW219386   6.488   0.006   3.826
 6163SOL     OW19387   5.744   6.066   1.301
 6163SOL    HW119388   5.647   6.081   1.283
 6163SOL    HW219389   5.797   6.087   1.219
 6164SOL     OW19390   3.170   3.942   3.924
 6164SOL    HW119391   3.202   4.018   3.981
 6164SOL    HW219392   3.126   3.873   3.982
 6165SOL     OW19393   3.940   1.387   6.556
 6165SOL    HW119394   3.951   1.470   6.501
 6165SOL    HW219395   4.029   1.360   6.594
 6166SOL     OW19396   5.433   1.633   6.920
 6166SOL    HW119397   5.451   1.634   7.019
 6166SOL    HW219398   5.448   1.724   6.883
 6167SOL     OW19399   0.803   4.601   2.999
 6167SOL    HW119400   0.747   4.551   3.066
 6167SOL    HW219401   0.866   4.661   3.048
 6168SOL     OW19402   1.738   3.432   3.193
 6168SOL    HW119403   1.717   3.365   3.264
 6168SOL    HW219404   1.796   3.390   3.123
 6169SOL     OW19405   1.371   2.023   0.586
 6169SOL    HW119406   1.356   1.927   0.608
 6169SOL    HW219407   1.333   2.043   0.496
 6170SOL     OW19408   2.590   3.846   5.626
 6170SOL    HW119409   2.689   3.833   5.620
 6170SOL    HW219410   2.551   3.777   5.687
 6171SOL     OW19411   1.589   3.563   0.969
 6171SOL    HW119412   1.563   3.659   0.973
 6171SOL    HW219413   1.684   3.553   1.000
 6172SOL     OW19414   1.576   1.461   3.701
 6172SOL    HW119415   1.603   1.499   3.789
 6172SOL    HW219416   1.655   1.463   3.639
 6173SOL     OW19417   6.605   5.411   2.608
 6173SOL    HW119418   6.508   5.429   2.594
 6173SOL    HW219419   6.650   5.494   2.642
 6174SOL     OW19420   5.852   5.482   3.391
 6174SOL    HW119421   5.760   5.452   3.367
 6174SOL    HW219422   5.910   5.481   3.309
 6175SOL     OW19423   4.422   0.757   3.146
 6175SOL    HW119424   4.469   0.845   3.141
 6175SOL    HW219425   4.407   0.732   3.241
 6176SOL     OW19426   6.250   2.904   6.670
 6176SOL    HW119427   6.263   2.829   6.605
 6176SOL    HW219428   6.164   2.889   6.720
 6177SOL     OW19429   4.981   1.164   1.283
 6177SOL    HW119430   4.924   1.233   1.327
 6177SOL    HW219431   5.020   1.104   1.353
 6178SOL     OW19432   4.783   4.758   3.234
 6178SOL    HW119433   4.800   4.744   3.331
 6178SOL    HW219434   4.692   4.796   3.221
 6179SOL     OW19435   6.284   4.858   4.554
 6179SOL    HW119436   6.212   4.867   4.623
 6179SOL    HW219437   6.336   4.775   4.571
 6180SOL     OW19438   3.998   5.668   0.314
 6180SOL    HW119439   3.965   5.699   0.404
 6180SOL    HW219440   3.925   5.679   0.247
 6181SOL     OW19441   4.210   6.520   0.685
 6181SOL    HW119442   4.266   6.598   0.709
 6181SOL    HW219443   4.115   6.537   0.713
 6182SOL     OW19444   5.723   3.284   6.204
 6182SOL    HW119445   5.633   3.310   6.237
 6182SOL    HW219446   5.764   3.360   6.155
 6183SOL     OW19447   1.602   0.701   2.984
 6183SOL    HW119448   1.682   0.705   2.925
 6183SOL    HW219449   1.555   0.789   2.983
 6184SOL     OW19450   1.560   6.813   6.305
 6184SOL    HW119451   1.649   6.806   6.349
 6184SOL    HW219452   1.538   6.909   6.288
 6185SOL     OW19453   6.707   3.603   6.698
 6185SOL    HW119454   6.790   3.577   6.649
 6185SOL    HW219455   6.672   3.689   6.662
 6186SOL     OW19456   6.229   6.870   5.597
 6186SOL    HW119457   6.205   6.883   5.501
 6186SOL    HW219458   6.154   6.901   5.655
 6187SOL     OW19459   4.320   5.154   3.625
 6187SOL    HW119460   4.379   5.198   3.557
 6187SOL    HW219461   4.370   5.078   3.668
 6188SOL     OW19462   2.305   7.017   0.680
 6188SOL    HW119463   2.398   0.023   0.664
 6188SOL    HW219464   2.245   0.017   0.605
 6189SOL     OW19465   4.864   4.051   4.255
 6189SOL    HW119466   4.961   4.049   4.279
 6189SOL    HW219467   4.849   3.997   4.172
 6190SOL     OW19468   6.682   3.890   5.839
 6190SOL    HW119469   6.781   3.894   5.850
 6190SOL    HW219470   6.641   3.855   5.924
 6191SOL     OW19471   3.896   2.640   6.857
 6191SOL    HW119472   3.931   2.690   6.936
 6191SOL    HW219473   3.957   2.653   6.779
 6192SOL     OW19474   3.147   2.950   6.458
 6192SOL    HW119475   3.151   3.022   6.528
 6192SOL    HW219476   3.230   2.954   6.402
 6193SOL     OW19477   5.464   1.000   2.409
 6193SOL    HW119478   5.518   0.918   2.392
 6193SOL    HW219479   5.487   1.037   2.499
 6194SOL     OW19480   1.299   6.871   0.992
 6194SOL    HW119481   1.365   6.897   1.062
 6194SOL    HW219482   1.221   6.933   0.994
 6195SOL     OW19483   4.056   6.671   5.274
 6195SOL    HW119484   4.095   6.621   5.196
 6195SOL    HW219485   4.107   6.649   5.357
 6196SOL     OW19486   5.958   2.034   1.243
 6196SOL    HW119487   6.030   1.995   1.299
 6196SOL    HW219488   5.886   1.965   1.228
 6197SOL     OW19489   4.670   4.713   0.621
 6197SOL    HW119490   4.578   4.737   0.654
 6197SOL    HW219491   4.726   4.683   0.699
 6198SOL     OW19492   3.408   5.984   2.322
 6198SOL    HW119493   3.493   5.936   2.297
 6198SOL    HW219494   3.429   6.058   2.386
 6199SOL     OW19495   1.310   0.868   0.801
 6199SOL    HW119496   1.295   0.929   0.879
 6199SOL    HW219497   1.341   0.779   0.835
 6200SOL     OW19498   1.910   1.329   5.292
 6200SOL    HW119499   1.882   1.395   5.362
 6200SOL    HW219500   1.900   1.371   5.202
 6201SOL     OW19501   1.105   3.831   4.951
 6201SOL    HW119502   1.064   3.797   4.867
 6201SOL    HW219503   1.182   3.772   4.977
 6202SOL     OW19504   4.343   1.712   2.383
 6202SOL    HW119505   4.307   1.698   2.290
 6202SOL    HW219506   4.268   1.706   2.449
 6203SOL     OW19507   6.708   6.841   3.519
 6203SOL    HW119508   6.744   6.761   3.472
 6203SOL    HW219509   6.770   6.866   3.593
 6204SOL     OW19510   1.667   5.496   4.360
 6204SOL    HW119511   1.747   5.544   4.396
 6204SOL    HW219512   1.684   5.398   4.361
 6205SOL     OW19513   6.455   6.216   0.325
 6205SOL    HW119514   6.418   6.253   0.410
 6205SOL    HW219515   6.553   6.236   0.320
 6206SOL     OW19516   6.952   0.635   2.601
 6206SOL    HW119517   6.936   0.613   2.505
 6206SOL    HW219518   7.025   0.704   2.607
 6207SOL     OW19519   1.688   5.219   4.413
 6207SOL    HW119520   1.778   5.224   4.370
 6207SOL    HW219521   1.698   5.225   4.512
 6208SOL     OW19522   5.636   1.725   6.500
 6208SOL    HW119523   5.718   1.781   6.510
 6208SOL    HW219524   5.569   1.774   6.445
 6209SOL     OW19525   4.732   5.532   0.063
 6209SOL    HW119526   4.810   5.594   0.057
 6209SOL    HW219527   4.752   5.460   0.129
 6210SOL     OW19528   5.175   3.845   3.423
 6210SOL    HW119529   5.216   3.918   3.368
 6210SOL    HW219530   5.115   3.885   3.492
 6211SOL     OW19531   3.212   6.238   5.872
 6211SOL    HW119532   3.275   6.258   5.798
 6211SOL    HW219533   3.142   6.309   5.877
 6212SOL     OW19534   2.048   4.985   3.179
 6212SOL    HW119535   2.136   4.969   3.224
 6212SOL    HW219536   1.978   4.927   3.221
 6213SOL     OW19537   5.443   0.016   6.673
 6213SOL    HW119538   5.414   0.075   6.749
 6213SOL    HW219539   5.539   7.021   6.685
 6214SOL     OW19540   4.552   5.015   4.386
 6214SOL    HW119541   4.601   5.090   4.341
 6214SOL    HW219542   4.601   4.989   4.470
 6215SOL     OW19543   4.710   1.271   1.290
 6215SOL    HW119544   4.646   1.198   1.313
 6215SOL    HW219545   4.676   1.322   1.211
 6216SOL     OW19546   6.120   1.905   2.024
 6216SOL    HW119547   6.026   1.904   1.988
 6216SOL    HW219548   6.185   1.898   1.948
 6217SOL     OW19549   0.589   2.882   2.037
 6217SOL    HW119550   0.540   2.965   2.012
 6217SOL    HW219551   0.600   2.878   2.136
 6218SOL     OW19552   4.030   5.247   5.484
 6218SOL    HW119553   4.057   5.196   5.565
 6218SOL    HW219554   3.984   5.186   5.419
 6219SOL     OW19555   0.489   2.345   4.254
 6219SOL    HW119556   0.549   2.416   4.292
 6219SOL    HW219557   0.514   2.327   4.159
 6220SOL     OW19558   1.344   2.786   4.928
 6220SOL    HW119559   1.253   2.748   4.944
 6220SOL    HW219560   1.369   2.845   5.005
 6221SOL     OW19561   5.757   5.890   0.202
 6221SOL    HW119562   5.786   5.953   0.130
 6221SOL    HW219563   5.837   5.848   0.244
 6222SOL     OW19564   0.786   6.440   1.015
 6222SOL    HW119565   0.791   6.452   1.115
 6222SOL    HW219566   0.708   6.381   0.993
 6223SOL     OW19567   0.428   5.037   4.150
 6223SOL    HW119568   0.449   4.939   4.155
 6223SOL    HW219569   0.334   5.052   4.179
 6224SOL     OW19570   2.296   1.801   5.878
 6224SOL    HW119571   2.211   1.853   5.869
 6224SOL    HW219572   2.275   1.710   5.914
 6225SOL     OW19573   3.509   3.892   0.347
 6225SOL    HW119574   3.458   3.977   0.336
 6225SOL    HW219575   3.607   3.911   0.343
 6226SOL     OW19576   5.941   1.483   5.043
 6226SOL    HW119577   5.963   1.479   4.945
 6226SOL    HW219578   5.993   1.413   5.092
 6227SOL     OW19579   3.830   6.031   5.566
 6227SOL    HW119580   3.851   5.933   5.567
 6227SOL    HW219581   3.733   6.044   5.544
 6228SOL     OW19582   0.901   2.495   3.492
 6228SOL    HW119583   0.924   2.419   3.431
 6228SOL    HW219584   0.984   2.524   3.541
 6229SOL     OW19585   7.010   2.071   3.020
 6229SOL    HW119586   0.058   2.098   3.078
 6229SOL    HW219587   6.959   1.998   3.065
 6230SOL     OW19588   1.467   1.210   3.717
 6230SOL    HW119589   1.371   1.217   3.745
 6230SOL    HW219590   1.503   1.301   3.696
 6231SOL     OW19591   5.973   5.121   1.211
 6231SOL    HW119592   5.893   5.125   1.151
 6231SOL    HW219593   6.011   5.028   1.209
 6232SOL     OW19594   6.605   0.950   0.465
 6232SOL    HW119595   6.645   1.009   0.395
 6232SOL    HW219596   6.678   0.904   0.516
 6233SOL     OW19597   6.354   0.636   0.573
 6233SOL    HW119598   6.306   0.705   0.628
 6233SOL    HW219599   6.319   0.639   0.479
 6234SOL     OW19600   5.805   1.527   5.647
 6234SOL    HW119601   5.745   1.606   5.632
 6234SOL    HW219602   5.872   1.521   5.573
 6235SOL     OW19603   1.317   0.130   1.719
 6235SOL    HW119604   1.416   0.131   1.733
 6235SOL    HW219605   1.289   0.039   1.689
 6236SOL     OW19606   0.750   3.676   0.560
 6236SOL    HW119607   0.690   3.632   0.626
 6236SOL    HW219608   0.840   3.692   0.602
 6237SOL     OW19609   3.708   6.766   0.145
 6237SOL    HW119610   3.684   6.819   0.063
 6237SOL    HW219611   3.788   6.710   0.126
 6238SOL     OW19612   4.412   4.980   2.901
 6238SOL    HW119613   4.352   4.901   2.884
 6238SOL    HW219614   4.481   4.984   2.829
 6239SOL     OW19615   2.743   6.959   2.363
 6239SOL    HW119616   2.656   7.008   2.365
 6239SOL    HW219617   2.815   7.020   2.330
 6240SOL     OW19618   2.623   3.347   6.044
 6240SOL    HW119619   2.550   3.278   6.051
 6240SOL    HW219620   2.618   3.408   6.123
 6241SOL     OW19621   4.052   0.352   1.917
 6241SOL    HW119622   3.961   0.337   1.955
 6241SOL    HW219623   4.121   0.322   1.984
 6242SOL     OW19624   5.419   1.287   3.260
 6242SOL    HW119625   5.344   1.284   3.326
 6242SOL    HW219626   5.497   1.235   3.297
 6243SOL     OW19627   5.898   0.015   4.006
 6243SOL    HW119628   5.947   0.032   3.920
 6243SOL    HW219629   5.955   0.045   4.082
 6244SOL     OW19630   0.715   2.635   2.557
 6244SOL    HW119631   0.798   2.679   2.523
 6244SOL    HW219632   0.736   2.579   2.637
 6245SOL     OW19633   1.849   3.669   0.363
 6245SOL    HW119634   1.766   3.622   0.331
 6245SOL    HW219635   1.928   3.632   0.314
 6246SOL     OW19636   2.047   2.038   5.638
 6246SOL    HW119637   1.978   2.110   5.640
 6246SOL    HW219638   2.045   1.992   5.549
 6247SOL     OW19639   1.382   6.305   4.536
 6247SOL    HW119640   1.472   6.337   4.567
 6247SOL    HW219641   1.389   6.208   4.509
 6248SOL     OW19642   3.347   3.275   0.338
 6248SOL    HW119643   3.299   3.273   0.425
 6248SOL    HW219644   3.441   3.243   0.350
 6249SOL     OW19645   0.377   3.881   0.701
 6249SOL    HW119646   0.301   3.915   0.756
 6249SOL    HW219647   0.430   3.815   0.754
 6250SOL     OW19648   6.712   6.232   0.113
 6250SOL    HW119649   6.638   6.211   0.049
 6250SOL    HW219650   6.800   6.214   0.069
 6251SOL     OW19651   4.181   5.282   7.020
 6251SOL    HW119652   4.172   5.368   0.043
 6251SOL    HW219653   4.234   5.298   6.938
 6252SOL     OW19654   1.431   6.801   5.327
 6252SOL    HW119655   1.367   6.781   5.253
 6252SOL    HW219656   1.386   6.789   5.415
 6253SOL     OW19657   2.011   3.901   2.806
 6253SOL    HW119658   2.067   3.822   2.831
 6253SOL    HW219659   1.926   3.899   2.858
 6254SOL     OW19660   5.146   1.903   0.715
 6254SOL    HW119661   5.076   1.951   0.769
 6254SOL    HW219662   5.114   1.811   0.693
 6255SOL     OW19663   2.894   0.169   0.932
 6255SOL    HW119664   2.944   0.083   0.932
 6255SOL    HW219665   2.796   0.151   0.938
 6256SOL     OW19666   3.465   5.226   2.294
 6256SOL    HW119667   3.450   5.210   2.197
 6256SOL    HW219668   3.390   5.282   2.331
 6257SOL     OW19669   4.913   2.357   7.015
 6257SOL    HW119670   4.980   2.290   0.017
 6257SOL    HW219671   4.828   2.345   0.037
 6258SOL     OW19672   4.038   0.151   3.916
 6258SOL    HW119673   4.037   0.187   4.010
 6258SOL    HW219674   3.956   0.096   3.901
 6259SOL     OW19675   2.587   2.570   0.688
 6259SOL    HW119676   2.559   2.548   0.595
 6259SOL    HW219677   2.550   2.659   0.714
 6260SOL     OW19678   3.153   5.589   0.727
 6260SOL    HW119679   3.140   5.684   0.697
 6260SOL    HW219680   3.091   5.529   0.677
 6261SOL     OW19681   4.244   0.613   6.680
 6261SOL    HW119682   4.191   0.543   6.729
 6261SOL    HW219683   4.193   0.644   6.600
 6262SOL     OW19684   1.924   6.056   0.636
 6262SOL    HW119685   1.939   6.104   0.550
 6262SOL    HW219686   1.847   5.993   0.627
 6263SOL     OW19687   6.472   0.367   5.093
 6263SOL    HW119688   6.373   0.368   5.087
 6263SOL    HW219689   6.500   0.370   5.189
 6264SOL     OW19690   1.510   6.643   2.456
 6264SOL    HW119691   1.434   6.601   2.506
 6264SOL    HW219692   1.504   6.743   2.465
 6265SOL     OW19693   3.413   4.162   0.366
 6265SOL    HW119694   3.474   4.240   0.378
 6265SOL    HW219695   3.324   4.193   0.333
 6266SOL     OW19696   3.777   0.884   4.649
 6266SOL    HW119697   3.847   0.836   4.701
 6266SOL    HW219698   3.692   0.832   4.650
 6267SOL     OW19699   2.352   0.601   6.842
 6267SOL    HW119700   2.356   0.534   6.916
 6267SOL    HW219701   2.420   0.578   6.772
 6268SOL     OW19702   3.163   6.875   3.728
 6268SOL    HW119703   3.234   6.935   3.693
 6268SOL    HW219704   3.130   6.910   3.816
 6269SOL     OW19705   7.016   6.286   1.515
 6269SOL    HW119706   6.998   6.225   1.591
 6269SOL    HW219707   0.083   6.277   1.487
 6270SOL     OW19708   1.747   0.425   5.260
 6270SOL    HW119709   1.727   0.500   5.197
 6270SOL    HW219710   1.826   0.449   5.316
 6271SOL     OW19711   6.169   2.115   6.792
 6271SOL    HW119712   6.170   2.016   6.806
 6271SOL    HW219713   6.214   2.137   6.706
 6272SOL     OW19714   0.284   2.246   6.816
 6272SOL    HW119715   0.375   2.282   6.793
 6272SOL    HW219716   0.233   2.315   6.866
 6273SOL     OW19717   1.668   6.692   2.787
 6273SOL    HW119718   1.666   6.787   2.816
 6273SOL    HW219719   1.758   6.652   2.808
 6274SOL     OW19720   2.969   5.660   6.083
 6274SOL    HW119721   3.030   5.675   6.161
 6274SOL    HW219722   3.023   5.628   6.005
 6275SOL     OW19723   1.881   6.551   5.427
 6275SOL    HW119724   1.798   6.508   5.461
 6275SOL    HW219725   1.936   6.582   5.505
 6276SOL     OW19726   2.283   4.325   2.827
 6276SOL    HW119727   2.278   4.399   2.759
 6276SOL    HW219728   2.287   4.237   2.780
 6277SOL     OW19729   5.450   3.534   1.930
 6277SOL    HW119730   5.407   3.449   1.900
 6277SOL    HW219731   5.410   3.562   2.017
 6278SOL     OW19732   5.190   6.541   4.295
 6278SOL    HW119733   5.167   6.540   4.393
 6278SOL    HW219734   5.191   6.635   4.262
 6279SOL     OW19735   4.403   0.286   6.976
 6279SOL    HW119736   4.414   0.267   6.879
 6279SOL    HW219737   4.487   0.328   7.011
 6280SOL     OW19738   1.323   2.177   5.445
 6280SOL    HW119739   1.230   2.174   5.482
 6280SOL    HW219740   1.323   2.235   5.363
 6281SOL     OW19741   1.093   5.317   3.451
 6281SOL    HW119742   1.009   5.267   3.474
 6281SOL    HW219743   1.075   5.415   3.453
 6282SOL     OW19744   1.312   6.437   4.903
 6282SOL    HW119745   1.322   6.337   4.897
 6282SOL    HW219746   1.339   6.467   4.994
 6283SOL     OW19747   6.881   3.098   5.818
 6283SOL    HW119748   6.793   3.081   5.772
 6283SOL    HW219749   6.926   3.177   5.775
 6284SOL     OW19750   1.922   5.543   4.819
 6284SOL    HW119751   1.880   5.625   4.858
 6284SOL    HW219752   1.853   5.490   4.770
 6285SOL     OW19753   7.015   3.501   4.667
 6285SOL    HW119754   0.011   3.553   4.749
 6285SOL    HW219755   7.014   3.403   4.689
 6286SOL     OW19756   6.028   2.076   3.331
 6286SOL    HW119757   5.983   2.067   3.243
 6286SOL    HW219758   5.967   2.122   3.396
 6287SOL     OW19759   3.598   4.922   3.871
 6287SOL    HW119760   3.513   4.942   3.823
 6287SOL    HW219761   3.667   4.889   3.806
 6288SOL     OW19762   4.793   4.623   2.494
 6288SOL    HW119763   4.790   4.523   2.496
 6288SOL    HW219764   4.742   4.659   2.572
 6289SOL     OW19765   1.821   4.597   1.483
 6289SOL    HW119766   1.820   4.504   1.447
 6289SOL    HW219767   1.902   4.645   1.450
 6290SOL     OW19768   6.998   4.609   4.908
 6290SOL    HW119769   7.020   4.515   4.883
 6290SOL    HW219770   6.927   4.644   4.847
 6291SOL     OW19771   3.654   3.136   4.614
 6291SOL    HW119772   3.706   3.217   4.642
 6291SOL    HW219773   3.706   3.083   4.548
 6292SOL     OW19774   1.394   2.806   4.300
 6292SOL    HW119775   1.422   2.842   4.389
 6292SOL    HW219776   1.461   2.834   4.231
 6293SOL     OW19777   3.394   0.898   0.136
 6293SOL    HW119778   3.483   0.880   0.094
 6293SOL    HW219779   3.331   0.933   0.067
 6294SOL     OW19780   3.794   4.970   4.902
 6294SOL    HW119781   3.795   4.961   4.803
 6294SOL    HW219782   3.700   4.966   4.936
 6295SOL     OW19783   5.721   4.858   5.993
 6295SOL    HW119784   5.736   4.760   6.009
 6295SOL    HW219785   5.772   4.910   6.061
 6296SOL     OW19786   0.474   0.217   6.043
 6296SOL    HW119787   0.458   0.309   6.009
 6296SOL    HW219788   0.400   0.190   6.104
 6297SOL     OW19789   4.728   6.530   4.532
 6297SOL    HW119790   4.708   6.628   4.534
 6297SOL    HW219791   4.665   6.484   4.471
 6298SOL     OW19792   1.328   2.750   6.553
 6298SOL    HW119793   1.370   2.830   6.594
 6298SOL    HW219794   1.230   2.765   6.543
 6299SOL     OW19795   5.403   1.944   6.761
 6299SOL    HW119796   5.438   2.037   6.772
 6299SOL    HW219797   5.346   1.940   6.679
 6300SOL     OW19798   6.414   0.352   0.577
 6300SOL    HW119799   6.336   0.292   0.593
 6300SOL    HW219800   6.383   0.447   0.570
 6301SOL     OW19801   4.040   0.520   0.227
 6301SOL    HW119802   4.004   0.430   0.201
 6301SOL    HW219803   4.125   0.508   0.278
 6302SOL     OW19804   1.922   0.605   3.522
 6302SOL    HW119805   1.852   0.669   3.556
 6302SOL    HW219806   1.970   0.647   3.445
 6303SOL     OW19807   1.527   1.621   4.449
 6303SOL    HW119808   1.571   1.669   4.525
 6303SOL    HW219809   1.455   1.678   4.410
 6304SOL     OW19810   2.458   1.090   1.497
 6304SOL    HW119811   2.401   1.093   1.580
 6304SOL    HW219812   2.534   1.026   1.511
 6305SOL     OW19813   6.097   0.070   1.669
 6305SOL    HW119814   6.061   0.069   1.576
 6305SOL    HW219815   6.126   0.163   1.693
 6306SOL     OW19816   0.564   4.295   4.099
 6306SOL    HW119817   0.501   4.216   4.101
 6306SOL    HW219818   0.646   4.273   4.151
 6307SOL     OW19819   4.200   4.076   5.504
 6307SOL    HW119820   4.148   4.107   5.425
 6307SOL    HW219821   4.221   3.979   5.495
 6308SOL     OW19822   1.686   2.619   4.425
 6308SOL    HW119823   1.718   2.631   4.519
 6308SOL    HW219824   1.636   2.532   4.418
 6309SOL     OW19825   5.187   4.993   5.478
 6309SOL    HW119826   5.203   4.999   5.576
 6309SOL    HW219827   5.274   4.984   5.430
 6310SOL     OW19828   1.764   6.139   3.209
 6310SOL    HW119829   1.834   6.126   3.139
 6310SOL    HW219830   1.749   6.054   3.259
 6311SOL     OW19831   4.512   0.819   5.704
 6311SOL    HW119832   4.476   0.758   5.634
 6311SOL    HW219833   4.472   0.796   5.792
 6312SOL     OW19834   6.337   5.539   5.567
 6312SOL    HW119835   6.335   5.468   5.637
 6312SOL    HW219836   6.254   5.533   5.511
 6313SOL     OW19837   1.422   6.663   4.455
 6313SOL    HW119838   1.515   6.646   4.425
 6313SOL    HW219839   1.360   6.599   4.410
 6314SOL     OW19840   3.611   6.236   1.497
 6314SOL    HW119841   3.707   6.231   1.523
 6314SOL    HW219842   3.603   6.260   1.400
 6315SOL     OW19843   2.010   2.768   5.406
 6315SOL    HW119844   2.108   2.760   5.424
 6315SOL    HW219845   1.965   2.681   5.424
 6316SOL     OW19846   4.357   1.270   6.862
 6316SOL    HW119847   4.439   1.319   6.834
 6316SOL    HW219848   4.371   1.230   6.952
 6317SOL     OW19849   4.591   5.765   2.803
 6317SOL    HW119850   4.640   5.678   2.795
 6317SOL    HW219851   4.609   5.805   2.893
 6318SOL     OW19852   3.790   1.417   4.652
 6318SOL    HW119853   3.783   1.319   4.669
 6318SOL    HW219854   3.812   1.433   4.556
 6319SOL     OW19855   6.599   1.545   4.461
 6319SOL    HW119856   6.546   1.629   4.445
 6319SOL    HW219857   6.614   1.533   4.559
 6320SOL     OW19858   5.596   5.797   5.042
 6320SOL    HW119859   5.637   5.887   5.053
 6320SOL    HW219860   5.643   5.732   5.102
 6321SOL     OW19861   3.342   3.616   0.768
 6321SOL    HW119862   3.246   3.639   0.754
 6321SOL    HW219863   3.357   3.593   0.864
 6322SOL     OW19864   1.495   2.018   6.973
 6322SOL    HW119865   1.503   2.080   0.022
 6322SOL    HW219866   1.425   2.053   6.909
 6323SOL     OW19867   3.407   2.740   1.706
 6323SOL    HW119868   3.488   2.784   1.665
 6323SOL    HW219869   3.402   2.645   1.675
 6324SOL     OW19870   4.965   6.933   6.283
 6324SOL    HW119871   4.997   6.856   6.227
 6324SOL    HW219872   4.880   6.968   6.245
 6325SOL     OW19873   2.379   1.778   2.422
 6325SOL    HW119874   2.365   1.727   2.337
 6325SOL    HW219875   2.357   1.719   2.500
 6326SOL     OW19876   4.705   4.853   1.830
 6326SOL    HW119877   4.695   4.870   1.928
 6326SOL    HW219878   4.633   4.790   1.800
 6327SOL     OW19879   6.814   0.312   4.772
 6327SOL    HW119880   6.793   0.403   4.809
 6327SOL    HW219881   6.898   0.278   4.814
 6328SOL     OW19882   2.833   2.803   0.722
 6328SOL    HW119883   2.739   2.770   0.731
 6328SOL    HW219884   2.852   2.824   0.626
 6329SOL     OW19885   2.137   2.728   3.844
 6329SOL    HW119886   2.118   2.801   3.778
 6329SOL    HW219887   2.069   2.731   3.917
 6330SOL     OW19888   4.458   0.833   1.226
 6330SOL    HW119889   4.360   0.843   1.245
 6330SOL    HW219890   4.476   0.742   1.188
 6331SOL     OW19891   6.370   2.152   6.601
 6331SOL    HW119892   6.378   2.122   6.506
 6331SOL    HW219893   6.460   2.179   6.635
 6332SOL     OW19894   6.320   3.224   1.381
 6332SOL    HW119895   6.250   3.285   1.420
 6332SOL    HW219896   6.285   3.131   1.380
 6333SOL     OW19897   4.786   5.561   5.380
 6333SOL    HW119898   4.784   5.464   5.353
 6333SOL    HW219899   4.704   5.582   5.434
 6334SOL     OW19900   3.373   0.433   1.663
 6334SOL    HW119901   3.281   0.418   1.698
 6334SOL    HW219902   3.380   0.400   1.569
 6335SOL     OW19903   4.446   1.124   0.543
 6335SOL    HW119904   4.494   1.112   0.456
 6335SOL    HW219905   4.512   1.144   0.616
 6336SOL     OW19906   0.850   2.301   5.911
 6336SOL    HW119907   0.838   2.305   6.010
 6336SOL    HW219908   0.772   2.343   5.865
 6337SOL     OW19909   5.189   4.082   6.350
 6337SOL    HW119910   5.256   4.067   6.277
 6337SOL    HW219911   5.232   4.063   6.438
 6338SOL     OW19912   3.811   1.753   4.174
 6338SOL    HW119913   3.874   1.719   4.244
 6338SOL    HW219914   3.732   1.796   4.218
 6339SOL     OW19915   1.512   4.198   2.766
 6339SOL    HW119916   1.500   4.222   2.862
 6339SOL    HW219917   1.464   4.113   2.747
 6340SOL     OW19918   1.740   5.156   2.907
 6340SOL    HW119919   1.663   5.165   2.843
 6340SOL    HW219920   1.792   5.074   2.885
 6341SOL     OW19921   0.947   4.367   4.694
 6341SOL    HW119922   1.017   4.413   4.749
 6341SOL    HW219923   0.965   4.269   4.693
 6342SOL     OW19924   2.054   1.383   1.850
 6342SOL    HW119925   2.054   1.481   1.870
 6342SOL    HW219926   2.115   1.363   1.774
 6343SOL     OW19927   4.642   1.999   6.496
 6343SOL    HW119928   4.672   1.932   6.565
 6343SOL    HW219929   4.579   1.955   6.432
 6344SOL     OW19930   5.767   3.135   5.489
 6344SOL    HW119931   5.751   3.222   5.442
 6344SOL    HW219932   5.697   3.069   5.462
 6345SOL     OW19933   5.192   2.834   2.350
 6345SOL    HW119934   5.261   2.796   2.411
 6345SOL    HW219935   5.102   2.798   2.376
 6346SOL     OW19936   6.921   4.767   3.497
 6346SOL    HW119937   6.845   4.730   3.444
 6346SOL    HW219938   6.989   4.695   3.512
 6347SOL     OW19939   2.380   0.370   0.583
 6347SOL    HW119940   2.426   0.289   0.618
 6347SOL    HW219941   2.282   0.353   0.579
 6348SOL     OW19942   0.943   4.018   5.648
 6348SOL    HW119943   1.015   4.038   5.581
 6348SOL    HW219944   0.946   4.087   5.720
 6349SOL     OW19945   2.536   0.439   1.578
 6349SOL    HW119946   2.563   0.527   1.617
 6349SOL    HW219947   2.599   0.368   1.609
 6350SOL     OW19948   2.191   4.956   4.121
 6350SOL    HW119949   2.093   4.970   4.132
 6350SOL    HW219950   2.232   5.036   4.079
 6351SOL     OW19951   6.439   3.607   3.435
 6351SOL    HW119952   6.421   3.510   3.446
 6351SOL    HW219953   6.438   3.652   3.524
 6352SOL     OW19954   3.735   5.886   4.694
 6352SOL    HW119955   3.666   5.843   4.753
 6352SOL    HW219956   3.703   5.976   4.665
 6353SOL     OW19957   0.340   0.464   5.949
 6353SOL    HW119958   0.284   0.517   6.013
 6353SOL    HW219959   0.340   0.509   5.860
 6354SOL     OW19960   1.756   5.882   3.279
 6354SOL    HW119961   1.844   5.892   3.325
 6354SOL    HW219962   1.742   5.785   3.255
 6355SOL     OW19963   0.734   5.181   6.435
 6355SOL    HW119964   0.788   5.256   6.472
 6355SOL    HW219965   0.673   5.145   6.505
 6356SOL     OW19966   4.044   5.601   2.016
 6356SOL    HW119967   4.117   5.533   2.017
 6356SOL    HW219968   3.973   5.575   2.081
 6357SOL     OW19969   5.389   3.384   2.215
 6357SOL    HW119970   5.473   3.356   2.168
 6357SOL    HW219971   5.325   3.307   2.216
 6358SOL     OW19972   0.763   1.695   6.539
 6358SOL    HW119973   0.728   1.743   6.458
 6358SOL    HW219974   0.848   1.739   6.568
 6359SOL     OW19975   5.906   6.717   6.286
 6359SOL    HW119976   5.821   6.746   6.329
 6359SOL    HW219977   5.983   6.768   6.324
 6360SOL     OW19978   1.202   4.050   3.883
 6360SOL    HW119979   1.179   4.075   3.789
 6360SOL    HW219980   1.301   4.061   3.897
 6361SOL     OW19981   6.194   6.980   0.892
 6361SOL    HW119982   6.238   0.038   0.915
 6361SOL    HW219983   6.252   6.904   0.923
 6362SOL     OW19984   0.651   6.495   0.394
 6362SOL    HW119985   0.597   6.433   0.335
 6362SOL    HW219986   0.670   6.579   0.344
 6363SOL     OW19987   2.484   4.558   3.553
 6363SOL    HW119988   2.573   4.537   3.592
 6363SOL    HW219989   2.477   4.519   3.461
 6364SOL     OW19990   3.187   1.162   5.873
 6364SOL    HW119991   3.262   1.228   5.862
 6364SOL    HW219992   3.220   1.082   5.922
 6365SOL     OW19993   5.433   0.099   4.040
 6365SOL    HW119994   5.513   0.052   4.005
 6365SOL    HW219995   5.451   0.133   4.132
 6366SOL     OW19996   1.023   6.128   5.457
 6366SOL    HW119997   0.980   6.132   5.367
 6366SOL    HW219998   0.953   6.128   5.528
 6367SOL     OW19999   3.886   0.807   4.880
 6367SOL    HW120000   3.971   0.803   4.932
 6367SOL    HW220001   3.811   0.838   4.939
 6368SOL     OW20002   3.535   4.999   3.471
 6368SOL    HW120003   3.512   4.939   3.395
 6368SOL    HW220004   3.600   5.069   3.440
 6369SOL     OW20005   1.914   5.184   3.662
 6369SOL    HW120006   1.939   5.278   3.637
 6369SOL    HW220007   1.997   5.133   3.684
 6370SOL     OW20008   0.495   3.087   3.177
 6370SOL    HW120009   0.402   3.124   3.181
 6370SOL    HW220010   0.546   3.131   3.103
 6371SOL     OW20011   5.189   4.256   4.110
 6371SOL    HW120012   5.286   4.263   4.088
 6371SOL    HW220013   5.174   4.283   4.205
 6372SOL     OW20014   2.313   0.138   2.123
 6372SOL    HW120015   2.253   0.194   2.181
 6372SOL    HW220016   2.271   0.127   2.033
 6373SOL     OW20017   5.046   4.328   3.112
 6373SOL    HW120018   4.972   4.359   3.052
 6373SOL    HW220019   5.038   4.229   3.126
 6374SOL     OW20020   2.948   3.782   4.041
 6374SOL    HW120021   2.986   3.693   4.018
 6374SOL    HW220022   2.935   3.789   4.140
 6375SOL     OW20023   6.431   1.682   3.917
 6375SOL    HW120024   6.483   1.694   4.001
 6375SOL    HW220025   6.454   1.755   3.852
 6376SOL     OW20026   5.920   2.706   4.653
 6376SOL    HW120027   5.825   2.701   4.622
 6376SOL    HW220028   5.950   2.615   4.683
 6377SOL     OW20029   5.974   1.506   5.443
 6377SOL    HW120030   5.982   1.422   5.389
 6377SOL    HW220031   6.013   1.582   5.392
 6378SOL     OW20032   4.765   5.479   3.807
 6378SOL    HW120033   4.820   5.519   3.734
 6378SOL    HW220034   4.708   5.550   3.849
 6379SOL     OW20035   1.791   3.892   4.133
 6379SOL    HW120036   1.709   3.843   4.104
 6379SOL    HW220037   1.839   3.927   4.053
 6380SOL     OW20038   0.278   2.053   6.099
 6380SOL    HW120039   0.248   2.103   6.180
 6380SOL    HW220040   0.201   2.002   6.061
 6381SOL     OW20041   3.308   3.417   1.735
 6381SOL    HW120042   3.353   3.407   1.646
 6381SOL    HW220043   3.298   3.327   1.778
 6382SOL     OW20044   1.108   1.314   1.063
 6382SOL    HW120045   1.019   1.274   1.039
 6382SOL    HW220046   1.108   1.339   1.160
 6383SOL     OW20047   1.283   1.727   3.157
 6383SOL    HW120048   1.364   1.733   3.099
 6383SOL    HW220049   1.256   1.632   3.166
 6384SOL     OW20050   5.754   3.846   1.644
 6384SOL    HW120051   5.694   3.904   1.589
 6384SOL    HW220052   5.704   3.764   1.672
 6385SOL     OW20053   0.026   4.546   3.471
 6385SOL    HW120054   0.104   4.516   3.526
 6385SOL    HW220055   0.033   4.506   3.380
 6386SOL     OW20056   2.382   4.298   5.911
 6386SOL    HW120057   2.343   4.325   5.823
 6386SOL    HW220058   2.452   4.365   5.938
 6387SOL     OW20059   0.825   1.586   6.831
 6387SOL    HW120060   0.917   1.563   6.800
 6387SOL    HW220061   0.759   1.568   6.758
 6388SOL     OW20062   4.163   4.708   1.142
 6388SOL    HW120063   4.101   4.656   1.200
 6388SOL    HW220064   4.202   4.649   1.071
 6389SOL     OW20065   0.780   6.085   2.778
 6389SOL    HW120066   0.786   5.999   2.727
 6389SOL    HW220067   0.848   6.149   2.743
 6390SOL     OW20068   0.371   1.969   5.441
 6390SOL    HW120069   0.417   1.994   5.356
 6390SOL    HW220070   0.420   1.894   5.485
 6391SOL     OW20071   2.428   0.052   6.113
 6391SOL    HW120072   2.382   0.140   6.104
 6391SOL    HW220073   2.510   0.052   6.055
 6392SOL     OW20074   2.553   6.731   3.058
 6392SOL    HW120075   2.643   6.755   3.021
 6392SOL    HW220076   2.519   6.807   3.113
 6393SOL     OW20077   6.758   6.793   1.949
 6393SOL    HW120078   6.750   6.860   1.876
 6393SOL    HW220079   6.673   6.741   1.957
 6394SOL     OW20080   2.116   4.868   0.659
 6394SOL    HW120081   2.157   4.959   0.672
 6394SOL    HW220082   2.105   4.824   0.748
 6395SOL     OW20083   6.498   2.420   1.053
 6395SOL    HW120084   6.569   2.351   1.037
 6395SOL    HW220085   6.479   2.427   1.150
 6396SOL     OW20086   4.936   3.270   6.140
 6396SOL    HW120087   4.840   3.259   6.168
 6396SOL    HW220088   4.940   3.322   6.054
 6397SOL     OW20089   5.500   2.566   6.766
 6397SOL    HW120090   5.456   2.487   6.725
 6397SOL    HW220091   5.502   2.641   6.700
 6398SOL     OW20092   3.295   0.230   0.585
 6398SOL    HW120093   3.273   0.153   0.525
 6398SOL    HW220094   3.213   0.257   0.637
 6399SOL     OW20095   1.032   5.799   6.273
 6399SOL    HW120096   1.123   5.816   6.311
 6399SOL    HW220097   0.978   5.883   6.278
 6400SOL     OW20098   2.141   6.171   1.867
 6400SOL    HW120099   2.058   6.198   1.817
 6400SOL    HW220100   2.221   6.195   1.812
 6401SOL     OW20101   0.164   4.988   3.712
 6401SOL    HW120102   0.241   5.051   3.720
 6401SOL    HW220103   0.196   4.900   3.677
 6402SOL     OW20104   3.834   1.656   2.399
 6402SOL    HW120105   3.857   1.711   2.319
 6402SOL    HW220106   3.882   1.569   2.394
 6403SOL     OW20107   6.729   6.788   6.172
 6403SOL    HW120108   6.763   6.729   6.099
 6403SOL    HW220109   6.804   6.845   6.206
 6404SOL     OW20110   4.555   1.678   2.098
 6404SOL    HW120111   4.504   1.762   2.115
 6404SOL    HW220112   4.500   1.599   2.124
 6405SOL     OW20113   3.091   0.268   3.736
 6405SOL    HW120114   3.173   0.222   3.769
 6405SOL    HW220115   3.116   0.352   3.689
 6406SOL     OW20116   1.115   2.353   3.037
 6406SOL    HW120117   1.071   2.436   3.002
 6406SOL    HW220118   1.049   2.302   3.093
 6407SOL     OW20119   2.623   6.173   4.084
 6407SOL    HW120120   2.664   6.171   4.175
 6407SOL    HW220121   2.621   6.080   4.046
 6408SOL     OW20122   5.951   2.158   0.765
 6408SOL    HW120123   5.876   2.182   0.827
 6408SOL    HW220124   6.017   2.100   0.813
 6409SOL     OW20125   6.764   4.600   3.367
 6409SOL    HW120126   6.778   4.630   3.273
 6409SOL    HW220127   6.744   4.502   3.369
 6410SOL     OW20128   1.788   1.365   0.520
 6410SOL    HW120129   1.720   1.437   0.534
 6410SOL    HW220130   1.767   1.316   0.436
 6411SOL     OW20131   0.514   2.588   3.133
 6411SOL    HW120132   0.606   2.602   3.169
 6411SOL    HW220133   0.464   2.675   3.135
 6412SOL     OW20134   0.338   2.225   5.198
 6412SOL    HW120135   0.396   2.148   5.172
 6412SOL    HW220136   0.336   2.292   5.124
 6413SOL     OW20137   4.256   4.782   3.768
 6413SOL    HW120138   4.304   4.849   3.824
 6413SOL    HW220139   4.300   4.692   3.778
 6414SOL     OW20140   5.935   0.935   0.358
 6414SOL    HW120141   6.013   0.889   0.315
 6414SOL    HW220142   5.932   0.913   0.455
 6415SOL     OW20143   1.874   2.992   3.203
 6415SOL    HW120144   1.814   3.031   3.133
 6415SOL    HW220145   1.825   2.918   3.250
 6416SOL     OW20146   1.468   1.365   6.431
 6416SOL    HW120147   1.485   1.383   6.334
 6416SOL    HW220148   1.370   1.375   6.450
 6417SOL     OW20149   6.480   5.172   2.280
 6417SOL    HW120150   6.437   5.116   2.208
 6417SOL    HW220151   6.468   5.126   2.368
 6418SOL     OW20152   5.073   4.559   1.746
 6418SOL    HW120153   5.044   4.654   1.758
 6418SOL    HW220154   5.023   4.501   1.810
 6419SOL     OW20155   2.474   4.830   2.905
 6419SOL    HW120156   2.560   4.782   2.919
 6419SOL    HW220157   2.479   4.922   2.943
 6420SOL     OW20158   3.371   4.434   5.623
 6420SOL    HW120159   3.374   4.533   5.614
 6420SOL    HW220160   3.337   4.394   5.538
 6421SOL     OW20161   5.257   1.015   2.924
 6421SOL    HW120162   5.249   1.085   2.854
 6421SOL    HW220163   5.353   1.006   2.952
 6422SOL     OW20164   0.494   0.933   3.824
 6422SOL    HW120165   0.474   1.014   3.769
 6422SOL    HW220166   0.516   0.857   3.764
 6423SOL     OW20167   4.688   5.065   2.444
 6423SOL    HW120168   4.766   5.055   2.382
 6423SOL    HW220169   4.658   5.161   2.443
 6424SOL     OW20170   0.032   6.453   5.979
 6424SOL    HW120171   0.028   6.422   5.884
 6424SOL    HW220172   0.126   6.450   6.011
 6425SOL     OW20173   6.407   5.890   2.859
 6425SOL    HW120174   6.312   5.874   2.834
 6425SOL    HW220175   6.423   5.988   2.867
 6426SOL     OW20176   0.994   4.744   3.152
 6426SOL    HW120177   1.041   4.751   3.240
 6426SOL    HW220178   0.970   4.836   3.120
 6427SOL     OW20179   3.115   2.841   5.768
 6427SOL    HW120180   3.073   2.781   5.837
 6427SOL    HW220181   3.055   2.847   5.688
 6428SOL     OW20182   6.161   3.215   6.631
 6428SOL    HW120183   6.186   3.125   6.667
 6428SOL    HW220184   6.212   3.233   6.547
 6429SOL     OW20185   1.889   2.284   5.861
 6429SOL    HW120186   1.965   2.336   5.822
 6429SOL    HW220187   1.897   2.282   5.960
 6430SOL     OW20188   5.763   1.049   2.300
 6430SOL    HW120189   5.686   0.996   2.335
 6430SOL    HW220190   5.735   1.098   2.218
 6431SOL     OW20191   5.163   6.514   4.006
 6431SOL    HW120192   5.153   6.508   4.106
 6431SOL    HW220193   5.074   6.504   3.963
 6432SOL     OW20194   3.717   4.053   6.455
 6432SOL    HW120195   3.740   4.147   6.480
 6432SOL    HW220196   3.619   4.047   6.434
 6433SOL     OW20197   2.800   4.236   0.219
 6433SOL    HW120198   2.767   4.324   0.256
 6433SOL    HW220199   2.750   4.161   0.263
 6434SOL     OW20200   2.002   3.857   0.015
 6434SOL    HW120201   2.047   3.898   0.094
 6434SOL    HW220202   1.950   3.777   0.044
 6435SOL     OW20203   4.244   6.344   0.063
 6435SOL    HW120204   4.269   6.254   0.100
 6435SOL    HW220205   4.163   6.335   0.005
 6436SOL     OW20206   1.939   3.467   3.528
 6436SOL    HW120207   2.015   3.402   3.527
 6436SOL    HW220208   1.908   3.483   3.434
 6437SOL     OW20209   2.415   1.315   0.749
 6437SOL    HW120210   2.480   1.289   0.678
 6437SOL    HW220211   2.323   1.286   0.723
 6438SOL     OW20212   0.417   3.864   6.377
 6438SOL    HW120213   0.489   3.867   6.446
 6438SOL    HW220214   0.431   3.938   6.311
 6439SOL     OW20215   5.336   0.965   1.825
 6439SOL    HW120216   5.354   0.869   1.847
 6439SOL    HW220217   5.237   0.981   1.824
 6440SOL     OW20218   2.298   1.650   6.938
 6440SOL    HW120219   2.340   1.582   6.878
 6440SOL    HW220220   2.303   1.619   0.004
 6441SOL     OW20221   0.948   6.299   2.018
 6441SOL    HW120222   0.904   6.209   2.025
 6441SOL    HW220223   0.938   6.333   1.924
 6442SOL     OW20224   2.393   0.406   4.619
 6442SOL    HW120225   2.387   0.331   4.684
 6442SOL    HW220226   2.482   0.451   4.628
 6443SOL     OW20227   3.872   2.491   5.659
 6443SOL    HW120228   3.832   2.566   5.608
 6443SOL    HW220229   3.842   2.404   5.620
 6444SOL     OW20230   6.515   2.465   3.792
 6444SOL    HW120231   6.562   2.421   3.868
 6444SOL    HW220232   6.416   2.466   3.809
 6445SOL     OW20233   4.448   3.242   5.519
 6445SOL    HW120234   4.508   3.288   5.453
 6445SOL    HW220235   4.408   3.161   5.477
 6446SOL     OW20236   1.840   1.080   5.793
 6446SOL    HW120237   1.765   1.019   5.767
 6446SOL    HW220238   1.883   1.047   5.877
 6447SOL     OW20239   0.016   4.760   2.824
 6447SOL    HW120240   0.061   4.842   2.859
 6447SOL    HW220241   0.021   4.687   2.893
 6448SOL     OW20242   5.144   5.664   2.337
 6448SOL    HW120243   5.106   5.757   2.340
 6448SOL    HW220244   5.081   5.601   2.381
 6449SOL     OW20245   2.552   4.748   0.498
 6449SOL    HW120246   2.493   4.712   0.571
 6449SOL    HW220247   2.647   4.731   0.522
 6450SOL     OW20248   0.339   3.615   1.229
 6450SOL    HW120249   0.310   3.692   1.287
 6450SOL    HW220250   0.431   3.586   1.255
 6451SOL     OW20251   2.325   0.037   5.090
 6451SOL    HW120252   2.297   0.068   4.999
 6451SOL    HW220253   2.336   6.967   5.090
 6452SOL     OW20254   3.386   6.754   4.653
 6452SOL    HW120255   3.347   6.670   4.691
 6452SOL    HW220256   3.400   6.821   4.727
 6453SOL     OW20257   2.442   6.462   1.162
 6453SOL    HW120258   2.500   6.428   1.236
 6453SOL    HW220259   2.405   6.551   1.188
 6454SOL     OW20260   2.505   2.148   3.864
 6454SOL    HW120261   2.579   2.216   3.866
 6454SOL    HW220262   2.425   2.188   3.819
 6455SOL     OW20263   0.262   2.162   3.977
 6455SOL    HW120264   0.211   2.223   4.038
 6455SOL    HW220265   0.198   2.118   3.914
 6456SOL     OW20266   1.687   0.352   3.451
 6456SOL    HW120267   1.697   0.447   3.420
 6456SOL    HW220268   1.760   0.296   3.413
 6457SOL     OW20269   4.908   1.929   0.948
 6457SOL    HW120270   4.916   2.023   0.916
 6457SOL    HW220271   4.817   1.913   0.985
 6458SOL     OW20272   0.444   0.045   3.676
 6458SOL    HW120273   0.483   6.983   3.693
 6458SOL    HW220274   0.371   0.063   3.742
 6459SOL     OW20275   6.127   4.871   0.163
 6459SOL    HW120276   6.107   4.820   0.079
 6459SOL    HW220277   6.172   4.957   0.139
 6460SOL     OW20278   4.849   5.830   5.682
 6460SOL    HW120279   4.814   5.775   5.758
 6460SOL    HW220280   4.818   5.925   5.693
 6461SOL     OW20281   2.570   4.801   5.764
 6461SOL    HW120282   2.596   4.887   5.723
 6461SOL    HW220283   2.592   4.725   5.702
 6462SOL     OW20284   2.378   2.722   4.760
 6462SOL    HW120285   2.376   2.697   4.856
 6462SOL    HW220286   2.433   2.655   4.709
 6463SOL     OW20287   6.730   3.701   6.973
 6463SOL    HW120288   6.652   3.686   6.912
 6463SOL    HW220289   6.756   3.797   6.971
 6464SOL     OW20290   1.715   4.892   3.957
 6464SOL    HW120291   1.705   4.799   3.992
 6464SOL    HW220292   1.629   4.942   3.969
 6465SOL     OW20293   6.744   2.507   3.044
 6465SOL    HW120294   6.711   2.418   3.011
 6465SOL    HW220295   6.704   2.526   3.134
 6466SOL     OW20296   1.695   1.373   6.197
 6466SOL    HW120297   1.763   1.312   6.237
 6466SOL    HW220298   1.726   1.467   6.205
 6467SOL     OW20299   3.305   0.813   6.771
 6467SOL    HW120300   3.387   0.863   6.796
 6467SOL    HW220301   3.304   0.725   6.818
 6468SOL     OW20302   3.902   6.510   0.985
 6468SOL    HW120303   3.993   6.500   1.025
 6468SOL    HW220304   3.846   6.568   1.044
 6469SOL     OW20305   4.842   0.704   4.862
 6469SOL    HW120306   4.848   0.648   4.779
 6469SOL    HW220307   4.773   0.665   4.923
 6470SOL     OW20308   6.520   4.598   0.137
 6470SOL    HW120309   6.552   4.527   0.200
 6470SOL    HW220310   6.465   4.556   0.065
 6471SOL     OW20311   6.406   6.174   5.612
 6471SOL    HW120312   6.410   6.120   5.696
 6471SOL    HW220313   6.441   6.266   5.629
 6472SOL     OW20314   0.915   5.104   1.192
 6472SOL    HW120315   0.846   5.176   1.180
 6472SOL    HW220316   0.885   5.041   1.263
 6473SOL     OW20317   3.282   1.223   4.125
 6473SOL    HW120318   3.376   1.231   4.159
 6473SOL    HW220319   3.247   1.313   4.101
 6474SOL     OW20320   2.320   3.976   5.844
 6474SOL    HW120321   2.395   3.971   5.779
 6474SOL    HW220322   2.259   4.051   5.818
 6475SOL     OW20323   6.426   5.349   4.284
 6475SOL    HW120324   6.352   5.403   4.244
 6475SOL    HW220325   6.388   5.266   4.326
 6476SOL     OW20326   4.637   3.037   1.127
 6476SOL    HW120327   4.594   3.029   1.217
 6476SOL    HW220328   4.589   2.980   1.061
 6477SOL     OW20329   6.111   4.889   1.175
 6477SOL    HW120330   6.179   4.953   1.139
 6477SOL    HW220331   6.070   4.838   1.099
 6478SOL     OW20332   3.593   6.772   1.683
 6478SOL    HW120333   3.543   6.687   1.668
 6478SOL    HW220334   3.691   6.755   1.672
 6479SOL     OW20335   3.923   5.525   3.965
 6479SOL    HW120336   3.905   5.623   3.972
 6479SOL    HW220337   3.980   5.496   4.041
 6480SOL     OW20338   3.225   2.539   5.626
 6480SOL    HW120339   3.150   2.516   5.688
 6480SOL    HW220340   3.298   2.472   5.635
 6481SOL     OW20341   3.675   2.189   1.634
 6481SOL    HW120342   3.645   2.221   1.724
 6481SOL    HW220343   3.630   2.243   1.563
 6482SOL     OW20344   6.929   0.576   5.526
 6482SOL    HW120345   6.888   0.638   5.459
 6482SOL    HW220346   7.027   0.595   5.533
 6483SOL     OW20347   1.143   6.182   1.093
 6483SOL    HW120348   1.226   6.128   1.080
 6483SOL    HW220349   1.149   6.232   1.179
 6484SOL     OW20350   3.602   0.279   1.771
 6484SOL    HW120351   3.576   0.186   1.745
 6484SOL    HW220352   3.538   0.344   1.729
 6485SOL     OW20353   1.841   4.624   3.383
 6485SOL    HW120354   1.893   4.693   3.434
 6485SOL    HW220355   1.903   4.574   3.322
 6486SOL     OW20356   2.044   4.506   4.336
 6486SOL    HW120357   2.063   4.531   4.431
 6486SOL    HW220358   1.991   4.421   4.334
 6487SOL     OW20359   6.894   6.510   5.233
 6487SOL    HW120360   6.935   6.576   5.170
 6487SOL    HW220361   6.900   6.418   5.194
 6488SOL     OW20362   3.587   5.965   5.474
 6488SOL    HW120363   3.505   6.002   5.430
 6488SOL    HW220364   3.587   5.866   5.465
 6489SOL     OW20365   2.642   2.543   6.498
 6489SOL    HW120366   2.666   2.618   6.560
 6489SOL    HW220367   2.720   2.482   6.487
 6490SOL     OW20368   3.920   1.513   6.230
 6490SOL    HW120369   4.018   1.498   6.216
 6490SOL    HW220370   3.898   1.609   6.213
 6491SOL     OW20371   4.098   1.430   0.269
 6491SOL    HW120372   4.035   1.354   0.287
 6491SOL    HW220373   4.186   1.411   0.314
 6492SOL     OW20374   5.550   5.318   0.304
 6492SOL    HW120375   5.499   5.351   0.384
 6492SOL    HW220376   5.639   5.284   0.334
 6493SOL     OW20377   1.519   5.452   4.682
 6493SOL    HW120378   1.427   5.438   4.719
 6493SOL    HW220379   1.531   5.548   4.657
 6494SOL     OW20380   0.313   1.490   3.628
 6494SOL    HW120381   0.268   1.533   3.706
 6494SOL    HW220382   0.272   1.524   3.543
 6495SOL     OW20383   4.964   6.356   4.208
 6495SOL    HW120384   5.046   6.386   4.256
 6495SOL    HW220385   4.984   6.272   4.157
 6496SOL     OW20386   6.741   0.211   2.554
 6496SOL    HW120387   6.713   0.166   2.469
 6496SOL    HW220388   6.692   0.297   2.564
 6497SOL     OW20389   2.467   2.622   1.161
 6497SOL    HW120390   2.533   2.696   1.172
 6497SOL    HW220391   2.377   2.652   1.191
 6498SOL     OW20392   2.105   3.743   4.275
 6498SOL    HW120393   2.175   3.790   4.328
 6498SOL    HW220394   2.064   3.806   4.209
 6499SOL     OW20395   5.550   2.273   5.074
 6499SOL    HW120396   5.583   2.248   5.165
 6499SOL    HW220397   5.452   2.257   5.069
 6500SOL     OW20398   6.993   4.240   3.686
 6500SOL    HW120399   6.941   4.155   3.694
 6500SOL    HW220400   0.060   4.224   3.710
 6501SOL     OW20401   6.251   2.699   6.488
 6501SOL    HW120402   6.275   2.603   6.477
 6501SOL    HW220403   6.277   2.750   6.406
 6502SOL     OW20404   6.635   3.096   1.330
 6502SOL    HW120405   6.687   3.034   1.270
 6502SOL    HW220406   6.652   3.072   1.425
 6503SOL     OW20407   4.518   1.419   3.667
 6503SOL    HW120408   4.517   1.359   3.588
 6503SOL    HW220409   4.575   1.380   3.739
 6504SOL     OW20410   4.794   6.050   6.251
 6504SOL    HW120411   4.767   6.145   6.269
 6504SOL    HW220412   4.825   6.042   6.156
 6505SOL     OW20413   5.202   5.393   1.496
 6505SOL    HW120414   5.131   5.325   1.514
 6505SOL    HW220415   5.258   5.405   1.578
 6506SOL     OW20416   6.403   3.208   1.782
 6506SOL    HW120417   6.420   3.236   1.688
 6506SOL    HW220418   6.490   3.201   1.832
 6507SOL     OW20419   2.148   5.186   6.075
 6507SOL    HW120420   2.100   5.108   6.116
 6507SOL    HW220421   2.123   5.193   5.979
 6508SOL     OW20422   1.998   0.675   3.104
 6508SOL    HW120423   2.012   0.687   3.202
 6508SOL    HW220424   1.985   0.578   3.083
 6509SOL     OW20425   3.230   1.810   4.768
 6509SOL    HW120426   3.200   1.873   4.839
 6509SOL    HW220427   3.329   1.798   4.774
 6510SOL     OW20428   0.156   4.178   6.695
 6510SOL    HW120429   0.140   4.165   6.793
 6510SOL    HW220430   0.119   4.267   6.668
 6511SOL     OW20431   4.757   1.268   4.769
 6511SOL    HW120432   4.835   1.238   4.714
 6511SOL    HW220433   4.751   1.368   4.765
 6512SOL     OW20434   5.217   6.835   2.135
 6512SOL    HW120435   5.248   6.925   2.167
 6512SOL    HW220436   5.283   6.799   2.069
 6513SOL     OW20437   3.196   4.873   2.767
 6513SOL    HW120438   3.261   4.883   2.843
 6513SOL    HW220439   3.246   4.879   2.680
 6514SOL     OW20440   5.296   1.016   4.009
 6514SOL    HW120441   5.338   0.977   4.090
 6514SOL    HW220442   5.283   0.945   3.940
 6515SOL     OW20443   0.559   5.262   4.204
 6515SOL    HW120444   0.619   5.264   4.124
 6515SOL    HW220445   0.493   5.187   4.193
 6516SOL     OW20446   0.259   3.156   1.753
 6516SOL    HW120447   0.198   3.098   1.806
 6516SOL    HW220448   0.219   3.172   1.663
 6517SOL     OW20449   6.736   1.100   0.254
 6517SOL    HW120450   6.720   1.197   0.237
 6517SOL    HW220451   6.834   1.082   0.257
 6518SOL     OW20452   0.249   6.815   6.462
 6518SOL    HW120453   0.157   6.787   6.433
 6518SOL    HW220454   0.290   6.873   6.392
 6519SOL     OW20455   2.612   1.816   3.546
 6519SOL    HW120456   2.681   1.744   3.554
 6519SOL    HW220457   2.649   1.891   3.491
 6520SOL     OW20458   5.678   4.994   1.925
 6520SOL    HW120459   5.738   4.933   1.977
 6520SOL    HW220460   5.602   5.024   1.984
 6521SOL     OW20461   1.814   2.862   4.361
 6521SOL    HW120462   1.788   2.766   4.368
 6521SOL    HW220463   1.897   2.878   4.414
 6522SOL     OW20464   3.583   4.483   0.233
 6522SOL    HW120465   3.639   4.565   0.230
 6522SOL    HW220466   3.552   4.467   0.327
 6523SOL     OW20467   3.528   0.879   6.897
 6523SOL    HW120468   3.588   0.850   6.972
 6523SOL    HW220469   3.579   0.939   6.835
 6524SOL     OW20470   2.848   3.410   2.306
 6524SOL    HW120471   2.836   3.357   2.222
 6524SOL    HW220472   2.837   3.507   2.285
 6525SOL     OW20473   1.326   4.190   3.258
 6525SOL    HW120474   1.235   4.168   3.292
 6525SOL    HW220475   1.391   4.186   3.334
 6526SOL     OW20476   2.107   0.096   6.574
 6526SOL    HW120477   2.098   0.196   6.572
 6526SOL    HW220478   2.178   0.071   6.639
 6527SOL     OW20479   0.786   2.448   5.108
 6527SOL    HW120480   0.744   2.511   5.043
 6527SOL    HW220481   0.838   2.379   5.057
 6528SOL     OW20482   0.205   0.982   4.184
 6528SOL    HW120483   0.156   1.063   4.216
 6528SOL    HW220484   0.201   0.979   4.084
 6529SOL     OW20485   0.761   1.540   2.205
 6529SOL    HW120486   0.806   1.630   2.202
 6529SOL    HW220487   0.686   1.538   2.140
 6530SOL     OW20488   6.858   3.584   1.649
 6530SOL    HW120489   6.891   3.490   1.659
 6530SOL    HW220490   6.759   3.583   1.638
 6531SOL     OW20491   5.865   3.655   4.838
 6531SOL    HW120492   5.877   3.627   4.934
 6531SOL    HW220493   5.935   3.722   4.814
 6532SOL     OW20494   6.477   0.411   6.765
 6532SOL    HW120495   6.521   0.481   6.710
 6532SOL    HW220496   6.438   0.453   6.848
 6533SOL     OW20497   4.583   6.071   0.892
 6533SOL    HW120498   4.518   6.124   0.946
 6533SOL    HW220499   4.567   5.974   0.907
 6534SOL     OW20500   3.406   4.389   0.770
 6534SOL    HW120501   3.416   4.342   0.857
 6534SOL    HW220502   3.420   4.324   0.695
 6535SOL     OW20503   6.446   4.080   3.760
 6535SOL    HW120504   6.389   4.124   3.829
 6535SOL    HW220505   6.535   4.127   3.755
 6536SOL     OW20506   0.583   2.147   6.116
 6536SOL    HW120507   0.583   2.243   6.144
 6536SOL    HW220508   0.505   2.101   6.156
 6537SOL     OW20509   6.161   5.447   6.887
 6537SOL    HW120510   6.079   5.421   6.835
 6537SOL    HW220511   6.134   5.469   6.981
 6538SOL     OW20512   3.120   4.058   6.918
 6538SOL    HW120513   3.198   4.037   6.977
 6538SOL    HW220514   3.064   4.130   6.959
 6539SOL     OW20515   3.648   0.486   6.324
 6539SOL    HW120516   3.568   0.507   6.269
 6539SOL    HW220517   3.661   0.556   6.394
 6540SOL     OW20518   5.152   1.525   4.975
 6540SOL    HW120519   5.178   1.546   4.881
 6540SOL    HW220520   5.145   1.425   4.986
 6541SOL     OW20521   4.012   1.354   5.226
 6541SOL    HW120522   3.971   1.445   5.231
 6541SOL    HW220523   3.977   1.297   5.301
 6542SOL     OW20524   6.678   4.463   4.398
 6542SOL    HW120525   6.659   4.419   4.487
 6542SOL    HW220526   6.658   4.561   4.405
 6543SOL     OW20527   5.977   3.505   6.049
 6543SOL    HW120528   6.001   3.475   6.142
 6543SOL    HW220529   6.060   3.510   5.994
 6544SOL     OW20530   0.342   6.499   3.153
 6544SOL    HW120531   0.428   6.470   3.196
 6544SOL    HW220532   0.289   6.418   3.127
 6545SOL     OW20533   5.077   2.067   6.309
 6545SOL    HW120534   5.116   2.150   6.349
 6545SOL    HW220535   5.067   2.079   6.210
 6546SOL     OW20536   3.536   4.383   6.461
 6546SOL    HW120537   3.616   4.358   6.516
 6546SOL    HW220538   3.522   4.482   6.466
 6547SOL     OW20539   4.910   1.152   6.067
 6547SOL    HW120540   4.842   1.154   5.994
 6547SOL    HW220541   4.968   1.233   6.061
 6548SOL     OW20542   0.924   3.375   0.063
 6548SOL    HW120543   0.960   3.452   0.010
 6548SOL    HW220544   0.966   3.290   0.031
 6549SOL     OW20545   4.549   1.274   1.078
 6549SOL    HW120546   4.540   1.346   1.009
 6549SOL    HW220547   4.549   1.185   1.033
 6550SOL     OW20548   0.637   6.867   3.737
 6550SOL    HW120549   0.717   6.898   3.788
 6550SOL    HW220550   0.618   6.771   3.759
 6551SOL     OW20551   1.892   4.694   2.709
 6551SOL    HW120552   1.816   4.725   2.650
 6551SOL    HW220553   1.949   4.630   2.658
 6552SOL     OW20554   2.367   0.097   5.468
 6552SOL    HW120555   2.332   0.123   5.558
 6552SOL    HW220556   2.310   0.024   5.430
 6553SOL     OW20557   0.518   1.341   2.936
 6553SOL    HW120558   0.489   1.355   3.031
 6553SOL    HW220559   0.618   1.340   2.932
 6554SOL     OW20560   5.775   1.126   5.448
 6554SOL    HW120561   5.811   1.151   5.538
 6554SOL    HW220562   5.744   1.208   5.400
 6555SOL     OW20563   0.168   2.029   2.210
 6555SOL    HW120564   0.140   2.126   2.211
 6555SOL    HW220565   0.268   2.024   2.210
 6556SOL     OW20566   4.632   4.650   5.384
 6556SOL    HW120567   4.715   4.684   5.340
 6556SOL    HW220568   4.561   4.720   5.380
 6557SOL     OW20569   3.284   5.705   1.133
 6557SOL    HW120570   3.311   5.672   1.224
 6557SOL    HW220571   3.191   5.743   1.138
 6558SOL     OW20572   6.498   4.793   0.508
 6558SOL    HW120573   6.463   4.801   0.415
 6558SOL    HW220574   6.450   4.858   0.567
 6559SOL     OW20575   6.891   4.337   6.381
 6559SOL    HW120576   6.983   4.363   6.412
 6559SOL    HW220577   6.823   4.396   6.425
 6560SOL     OW20578   4.420   4.224   0.959
 6560SOL    HW120579   4.455   4.207   0.866
 6560SOL    HW220580   4.449   4.150   1.019
 6561SOL     OW20581   3.826   4.068   2.289
 6561SOL    HW120582   3.783   4.043   2.203
 6561SOL    HW220583   3.910   4.120   2.270
 6562SOL     OW20584   5.510   4.158   0.101
 6562SOL    HW120585   5.481   4.065   0.123
 6562SOL    HW220586   5.551   4.200   0.182
 6563SOL     OW20587   6.723   6.089   0.349
 6563SOL    HW120588   6.719   6.142   0.264
 6563SOL    HW220589   6.809   6.109   0.397
 6564SOL     OW20590   6.701   4.006   2.810
 6564SOL    HW120591   6.624   3.946   2.790
 6564SOL    HW220592   6.689   4.093   2.763
 6565SOL     OW20593   6.709   2.410   4.048
 6565SOL    HW120594   6.722   2.484   4.113
 6565SOL    HW220595   6.795   2.390   4.002
 6566SOL     OW20596   3.035   6.362   2.477
 6566SOL    HW120597   3.036   6.462   2.479
 6566SOL    HW220598   3.114   6.329   2.425
 6567SOL     OW20599   3.985   2.359   1.038
 6567SOL    HW120600   3.939   2.277   1.003
 6567SOL    HW220601   3.995   2.426   0.965
 6568SOL     OW20602   5.066   7.010   3.484
 6568SOL    HW120603   5.153   6.987   3.528
 6568SOL    HW220604   5.031   6.931   3.434
 6569SOL     OW20605   2.711   3.847   6.683
 6569SOL    HW120606   2.644   3.790   6.731
 6569SOL    HW220607   2.801   3.834   6.723
 6570SOL     OW20608   4.298   6.696   2.580
 6570SOL    HW120609   4.251   6.773   2.535
 6570SOL    HW220610   4.283   6.702   2.679
 6571SOL     OW20611   2.551   5.740   2.585
 6571SOL    HW120612   2.623   5.744   2.655
 6571SOL    HW220613   2.544   5.646   2.550
 6572SOL     OW20614   6.962   6.004   5.650
 6572SOL    HW120615   6.951   6.039   5.743
 6572SOL    HW220616   6.872   5.997   5.607
 6573SOL     OW20617   2.891   1.539   2.058
 6573SOL    HW120618   2.810   1.480   2.062
 6573SOL    HW220619   2.898   1.581   1.968
 6574SOL     OW20620   2.832   6.291   2.669
 6574SOL    HW120621   2.888   6.349   2.609
 6574SOL    HW220622   2.786   6.222   2.614
 6575SOL     OW20623   1.270   1.009   1.930
 6575SOL    HW120624   1.216   0.934   1.893
 6575SOL    HW220625   1.276   1.000   2.030
 6576SOL     OW20626   1.987   6.041   6.425
 6576SOL    HW120627   1.963   5.986   6.345
 6576SOL    HW220628   2.036   6.124   6.395
 6577SOL     OW20629   0.885   2.062   3.691
 6577SOL    HW120630   0.834   1.976   3.686
 6577SOL    HW220631   0.855   2.123   3.618
 6578SOL     OW20632   0.993   4.287   2.900
 6578SOL    HW120633   0.937   4.323   2.825
 6578SOL    HW220634   0.942   4.294   2.986
 6579SOL     OW20635   6.868   3.726   5.028
 6579SOL    HW120636   6.828   3.643   4.991
 6579SOL    HW220637   6.814   3.758   5.106
 6580SOL     OW20638   6.620   1.289   1.242
 6580SOL    HW120639   6.628   1.253   1.149
 6580SOL    HW220640   6.695   1.354   1.258
 6581SOL     OW20641   2.754   1.531   6.787
 6581SOL    HW120642   2.840   1.492   6.820
 6581SOL    HW220643   2.761   1.548   6.688
 6582SOL     OW20644   1.490   1.089   1.474
 6582SOL    HW120645   1.474   1.002   1.521
 6582SOL    HW220646   1.582   1.090   1.436
 6583SOL     OW20647   4.466   0.320   4.903
 6583SOL    HW120648   4.546   0.294   4.957
 6583SOL    HW220649   4.489   0.394   4.841
 6584SOL     OW20650   4.936   1.948   6.491
 6584SOL    HW120651   4.991   1.994   6.422
 6584SOL    HW220652   4.863   2.009   6.522
 6585SOL     OW20653   7.009   0.248   6.850
 6585SOL    HW120654   6.920   0.292   6.839
 6585SOL    HW220655   7.000   0.172   6.915
 6586SOL     OW20656   6.345   1.949   6.001
 6586SOL    HW120657   6.363   2.045   5.977
 6586SOL    HW220658   6.432   1.901   6.009
 6587SOL     OW20659   2.591   6.186   5.300
 6587SOL    HW120660   2.567   6.246   5.376
 6587SOL    HW220661   2.514   6.126   5.280
 6588SOL     OW20662   1.597   3.442   1.991
 6588SOL    HW120663   1.594   3.539   2.019
 6588SOL    HW220664   1.677   3.427   1.933
 6589SOL     OW20665   4.794   0.339   0.550
 6589SOL    HW120666   4.802   0.267   0.481
 6589SOL    HW220667   4.877   0.396   0.548
 6590SOL     OW20668   0.931   1.309   5.711
 6590SOL    HW120669   0.871   1.305   5.790
 6590SOL    HW220670   1.018   1.265   5.733
 6591SOL     OW20671   5.318   6.075   2.520
 6591SOL    HW120672   5.390   6.111   2.579
 6591SOL    HW220673   5.354   5.998   2.467
 6592SOL     OW20674   5.787   6.343   3.926
 6592SOL    HW120675   5.819   6.438   3.924
 6592SOL    HW220676   5.814   6.301   4.012
 6593SOL     OW20677   2.788   1.631   3.863
 6593SOL    HW120678   2.796   1.607   3.767
 6593SOL    HW220679   2.692   1.631   3.889
 6594SOL     OW20680   3.851   1.388   6.956
 6594SOL    HW120681   3.832   1.293   6.981
 6594SOL    HW220682   3.767   1.442   6.965
 6595SOL     OW20683   0.684   2.402   0.860
 6595SOL    HW120684   0.721   2.493   0.877
 6595SOL    HW220685   0.759   2.337   0.848
 6596SOL     OW20686   3.457   6.845   4.368
 6596SOL    HW120687   3.473   6.831   4.465
 6596SOL    HW220688   3.521   6.913   4.333
 6597SOL     OW20689   2.199   6.030   2.899
 6597SOL    HW120690   2.172   5.938   2.928
 6597SOL    HW220691   2.298   6.034   2.888
 6598SOL     OW20692   0.569   0.358   4.403
 6598SOL    HW120693   0.586   0.345   4.305
 6598SOL    HW220694   0.652   0.338   4.455
 6599SOL     OW20695   4.381   6.062   5.420
 6599SOL    HW120696   4.388   6.104   5.330
 6599SOL    HW220697   4.285   6.059   5.448
 6600SOL     OW20698   5.044   5.237   5.979
 6600SOL    HW120699   5.091   5.225   6.066
 6600SOL    HW220700   5.023   5.147   5.940
 6601SOL     OW20701   1.093   1.579   5.587
 6601SOL    HW120702   1.073   1.519   5.665
 6601SOL    HW220703   1.013   1.636   5.569
 6602SOL     OW20704   0.395   1.749   1.803
 6602SOL    HW120705   0.441   1.825   1.849
 6602SOL    HW220706   0.338   1.700   1.868
 6603SOL     OW20707   0.292   2.593   3.890
 6603SOL    HW120708   0.227   2.659   3.854
 6603SOL    HW220709   0.377   2.596   3.837
 6604SOL     OW20710   2.459   6.526   0.730
 6604SOL    HW120711   2.504   6.470   0.799
 6604SOL    HW220712   2.360   6.525   0.744
 6605SOL     OW20713   5.564   4.178   1.705
 6605SOL    HW120714   5.494   4.236   1.746
 6605SOL    HW220715   5.521   4.100   1.660
 6606SOL     OW20716   6.724   6.855   2.292
 6606SOL    HW120717   6.748   6.902   2.207
 6606SOL    HW220718   6.790   6.878   2.363
 6607SOL     OW20719   1.737   2.377   2.242
 6607SOL    HW120720   1.827   2.373   2.285
 6607SOL    HW220721   1.741   2.438   2.163
 6608SOL     OW20722   5.253   6.011   2.115
 6608SOL    HW120723   5.276   6.108   2.107
 6608SOL    HW220724   5.261   5.967   2.025
 6609SOL     OW20725   4.825   0.746   6.046
 6609SOL    HW120726   4.828   0.661   6.098
 6609SOL    HW220727   4.836   0.727   5.949
 6610SOL     OW20728   2.858   1.007   6.394
 6610SOL    HW120729   2.887   1.005   6.490
 6610SOL    HW220730   2.893   1.090   6.350
 6611SOL     OW20731   6.172   3.157   4.355
 6611SOL    HW120732   6.222   3.077   4.321
 6611SOL    HW220733   6.150   3.145   4.451
 6612SOL     OW20734   6.685   2.124   6.685
 6612SOL    HW120735   6.679   2.152   6.781
 6612SOL    HW220736   6.705   2.203   6.628
 6613SOL     OW20737   6.079   6.578   4.916
 6613SOL    HW120738   6.179   6.571   4.919
 6613SOL    HW220739   6.048   6.641   4.988
 6614SOL     OW20740   5.338   6.251   0.344
 6614SOL    HW120741   5.348   6.343   0.305
 6614SOL    HW220742   5.422   6.199   0.326
 6615SOL     OW20743   0.634   4.540   3.231
 6615SOL    HW120744   0.674   4.593   3.306
 6615SOL    HW220745   0.620   4.446   3.260
 6616SOL     OW20746   4.227   0.887   5.906
 6616SOL    HW120747   4.171   0.923   5.980
 6616SOL    HW220748   4.290   0.818   5.943
 6617SOL     OW20749   3.615   5.450   2.757
 6617SOL    HW120750   3.678   5.441   2.835
 6617SOL    HW220751   3.522   5.458   2.791
 6618SOL     OW20752   1.628   3.610   2.966
 6618SOL    HW120753   1.549   3.610   2.905
 6618SOL    HW220754   1.616   3.539   3.035
 6619SOL     OW20755   6.422   0.622   4.581
 6619SOL    HW120756   6.342   0.570   4.552
 6619SOL    HW220757   6.504   0.564   4.573
 6620SOL     OW20758   2.096   2.568   5.118
 6620SOL    HW120759   2.048   2.597   5.201
 6620SOL    HW220760   2.138   2.647   5.074
 6621SOL     OW20761   2.366   3.735   6.491
 6621SOL    HW120762   2.279   3.761   6.534
 6621SOL    HW220763   2.407   3.659   6.542
 6622SOL     OW20764   5.680   6.818   1.840
 6622SOL    HW120765   5.694   6.902   1.788
 6622SOL    HW220766   5.660   6.841   1.935
 6623SOL     OW20767   2.400   3.476   6.634
 6623SOL    HW120768   2.309   3.445   6.608
 6623SOL    HW220769   2.447   3.402   6.683
 6624SOL     OW20770   1.876   6.715   4.235
 6624SOL    HW120771   1.950   6.708   4.170
 6624SOL    HW220772   1.823   6.798   4.217
 6625SOL     OW20773   5.368   1.918   5.929
 6625SOL    HW120774   5.370   1.881   6.022
 6625SOL    HW220775   5.320   1.853   5.869
 6626SOL     OW20776   4.334   5.075   5.443
 6626SOL    HW120777   4.269   5.004   5.468
 6626SOL    HW220778   4.315   5.106   5.350
 6627SOL     OW20779   2.389   0.706   5.988
 6627SOL    HW120780   2.355   0.648   5.914
 6627SOL    HW220781   2.459   0.767   5.952
 6628SOL     OW20782   4.642   4.625   4.576
 6628SOL    HW120783   4.725   4.679   4.587
 6628SOL    HW220784   4.571   4.661   4.637
 6629SOL     OW20785   4.024   6.108   0.288
 6629SOL    HW120786   3.954   6.098   0.218
 6629SOL    HW220787   4.114   6.112   0.245
 6630SOL     OW20788   3.743   1.297   1.848
 6630SOL    HW120789   3.818   1.233   1.835
 6630SOL    HW220790   3.747   1.335   1.940
 6631SOL     OW20791   3.129   6.998   2.447
 6631SOL    HW120792   3.209   0.013   2.407
 6631SOL    HW220793   3.129   6.901   2.426
 6632SOL     OW20794   0.502   6.091   1.394
 6632SOL    HW120795   0.516   6.061   1.299
 6632SOL    HW220796   0.436   6.032   1.439
 6633SOL     OW20797   0.623   3.630   6.190
 6633SOL    HW120798   0.658   3.537   6.182
 6633SOL    HW220799   0.525   3.628   6.210
 6634SOL     OW20800   6.077   2.849   4.468
 6634SOL    HW120801   5.999   2.801   4.506
 6634SOL    HW220802   6.161   2.815   4.510
 6635SOL     OW20803   4.522   4.807   3.147
 6635SOL    HW120804   4.431   4.843   3.167
 6635SOL    HW220805   4.516   4.740   3.073
 6636SOL     OW20806   4.463   1.436   5.766
 6636SOL    HW120807   4.433   1.353   5.813
 6636SOL    HW220808   4.493   1.412   5.673
 6637SOL     OW20809   1.485   0.048   6.302
 6637SOL    HW120810   1.525   0.130   6.262
 6637SOL    HW220811   1.386   0.061   6.314
 6638SOL     OW20812   3.291   4.093   4.281
 6638SOL    HW120813   3.367   4.096   4.347
 6638SOL    HW220814   3.327   4.108   4.189
 6639SOL     OW20815   5.691   5.413   6.629
 6639SOL    HW120816   5.604   5.460   6.612
 6639SOL    HW220817   5.748   5.418   6.547
 6640SOL     OW20818   0.898   1.508   4.910
 6640SOL    HW120819   0.801   1.519   4.933
 6640SOL    HW220820   0.954   1.545   4.984
 6641SOL     OW20821   2.617   2.196   0.239
 6641SOL    HW120822   2.553   2.210   0.315
 6641SOL    HW220823   2.601   2.266   0.169
 6642SOL     OW20824   2.781   5.325   6.907
 6642SOL    HW120825   2.725   5.306   6.988
 6642SOL    HW220826   2.877   5.327   6.933
 6643SOL     OW20827   6.984   5.845   6.454
 6643SOL    HW120828   6.993   5.850   6.553
 6643SOL    HW220829   7.004   5.751   6.424
 6644SOL     OW20830   2.803   4.742   2.228
 6644SOL    HW120831   2.803   4.687   2.145
 6644SOL    HW220832   2.881   4.716   2.285
 6645SOL     OW20833   6.953   4.923   0.499
 6645SOL    HW120834   0.008   4.945   0.450
 6645SOL    HW220835   6.887   4.883   0.435
 6646SOL     OW20836   3.694   6.821   4.771
 6646SOL    HW120837   3.735   6.894   4.717
 6646SOL    HW220838   3.652   6.754   4.709
 6647SOL     OW20839   4.431   1.125   2.467
 6647SOL    HW120840   4.360   1.122   2.538
 6647SOL    HW220841   4.520   1.136   2.510
 6648SOL     OW20842   3.374   5.918   3.048
 6648SOL    HW120843   3.464   5.941   3.086
 6648SOL    HW220844   3.353   5.979   2.972
 6649SOL     OW20845   5.587   0.964   6.930
 6649SOL    HW120846   5.613   0.898   6.859
 6649SOL    HW220847   5.506   1.014   6.900
 6650SOL     OW20848   3.000   1.692   4.853
 6650SOL    HW120849   3.076   1.740   4.809
 6650SOL    HW220850   3.015   1.593   4.846
 6651SOL     OW20851   2.123   1.695   6.559
 6651SOL    HW120852   2.073   1.609   6.554
 6651SOL    HW220853   2.218   1.678   6.585
 6652SOL     OW20854   6.919   4.373   0.497
 6652SOL    HW120855   6.871   4.309   0.557
 6652SOL    HW220856   6.896   4.353   0.402
 6653SOL     OW20857   3.716   3.059   2.082
 6653SOL    HW120858   3.622   3.068   2.115
 6653SOL    HW220859   3.721   2.985   2.014
 6654SOL     OW20860   1.770   3.239   1.601
 6654SOL    HW120861   1.842   3.191   1.651
 6654SOL    HW220862   1.808   3.279   1.518
 6655SOL     OW20863   2.548   6.912   1.874
 6655SOL    HW120864   2.635   6.961   1.870
 6655SOL    HW220865   2.479   6.961   1.821
 6656SOL     OW20866   6.008   1.727   1.784
 6656SOL    HW120867   6.098   1.687   1.763
 6656SOL    HW220868   5.985   1.708   1.879
 6657SOL     OW20869   5.614   6.160   6.486
 6657SOL    HW120870   5.555   6.214   6.546
 6657SOL    HW220871   5.581   6.166   6.392
 6658SOL     OW20872   6.154   1.276   4.849
 6658SOL    HW120873   6.184   1.241   4.760
 6658SOL    HW220874   6.090   1.211   4.890
 6659SOL     OW20875   1.941   1.840   0.791
 6659SOL    HW120876   1.982   1.909   0.850
 6659SOL    HW220877   2.006   1.813   0.720
 6660SOL     OW20878   0.605   5.707   0.605
 6660SOL    HW120879   0.684   5.707   0.666
 6660SOL    HW220880   0.526   5.746   0.653
 6661SOL     OW20881   1.074   6.406   4.602
 6661SOL    HW120882   1.153   6.347   4.587
 6661SOL    HW220883   1.102   6.490   4.647
 6662SOL     OW20884   1.164   1.149   0.191
 6662SOL    HW120885   1.119   1.097   0.263
 6662SOL    HW220886   1.165   1.246   0.215
 6663SOL     OW20887   7.016   5.257   3.516
 6663SOL    HW120888   6.940   5.206   3.476
 6663SOL    HW220889   6.987   5.298   3.603
 6664SOL     OW20890   2.167   6.566   0.268
 6664SOL    HW120891   2.154   6.549   0.365
 6664SOL    HW220892   2.099   6.516   0.215
 6665SOL     OW20893   1.438   0.010   3.092
 6665SOL    HW120894   1.447   6.981   3.174
 6665SOL    HW220895   1.459   6.984   3.011
 6666SOL     OW20896   5.461   6.811   6.358
 6666SOL    HW120897   5.475   6.753   6.278
 6666SOL    HW220898   5.543   6.867   6.374
 6667SOL     OW20899   6.724   5.545   6.333
 6667SOL    HW120900   6.674   5.593   6.261
 6667SOL    HW220901   6.688   5.572   6.423
 6668SOL     OW20902   6.479   5.722   1.990
 6668SOL    HW120903   6.478   5.743   2.088
 6668SOL    HW220904   6.438   5.633   1.974
 6669SOL     OW20905   1.883   2.976   3.970
 6669SOL    HW120906   1.846   2.885   3.953
 6669SOL    HW220907   1.952   2.971   4.042
 6670SOL     OW20908   3.697   2.064   5.689
 6670SOL    HW120909   3.726   2.001   5.616
 6670SOL    HW220910   3.721   2.158   5.663
 6671SOL     OW20911   5.883   5.345   1.351
 6671SOL    HW120912   5.791   5.372   1.322
 6671SOL    HW220913   5.907   5.258   1.307
 6672SOL     OW20914   0.376   2.195   5.636
 6672SOL    HW120915   0.407   2.113   5.588
 6672SOL    HW220916   0.288   2.176   5.681
 6673SOL     OW20917   4.896   6.069   3.849
 6673SOL    HW120918   4.915   6.062   3.947
 6673SOL    HW220919   4.803   6.103   3.835
 6674SOL     OW20920   1.053   5.050   5.611
 6674SOL    HW120921   1.120   4.976   5.599
 6674SOL    HW220922   0.962   5.018   5.587
 6675SOL     OW20923   4.311   4.011   1.681
 6675SOL    HW120924   4.330   4.090   1.739
 6675SOL    HW220925   4.216   3.984   1.693
 6676SOL     OW20926   0.039   4.726   5.400
 6676SOL    HW120927   0.063   4.763   5.490
 6676SOL    HW220928   0.018   4.801   5.338
 6677SOL     OW20929   0.690   1.770   6.289
 6677SOL    HW120930   0.750   1.766   6.209
 6677SOL    HW220931   0.610   1.826   6.269
 6678SOL     OW20932   2.378   3.055   0.014
 6678SOL    HW120933   2.370   3.032   0.111
 6678SOL    HW220934   2.465   3.020   7.007
 6679SOL     OW20935   2.968   2.162   3.673
 6679SOL    HW120936   2.916   2.108   3.739
 6679SOL    HW220937   2.920   2.247   3.653
 6680SOL     OW20938   4.470   0.274   6.380
 6680SOL    HW120939   4.534   0.340   6.341
 6680SOL    HW220940   4.386   0.273   6.327
 6681SOL     OW20941   4.519   5.370   0.675
 6681SOL    HW120942   4.431   5.327   0.658
 6681SOL    HW220943   4.557   5.335   0.761
 6682SOL     OW20944   1.627   4.396   2.565
 6682SOL    HW120945   1.631   4.486   2.610
 6682SOL    HW220946   1.598   4.327   2.631
 6683SOL     OW20947   5.364   3.423   5.436
 6683SOL    HW120948   5.282   3.477   5.419
 6683SOL    HW220949   5.357   3.377   5.524
 6684SOL     OW20950   2.661   6.065   0.959
 6684SOL    HW120951   2.737   6.073   0.894
 6684SOL    HW220952   2.594   5.999   0.924
 6685SOL     OW20953   5.884   3.118   6.349
 6685SOL    HW120954   5.810   3.179   6.321
 6685SOL    HW220955   5.938   3.091   6.269
 6686SOL     OW20956   5.107   6.140   4.554
 6686SOL    HW120957   5.011   6.153   4.580
 6686SOL    HW220958   5.165   6.161   4.633
 6687SOL     OW20959   0.601   2.826   0.906
 6687SOL    HW120960   0.518   2.813   0.959
 6687SOL    HW220961   0.679   2.787   0.955
 6688SOL     OW20962   6.733   4.211   2.069
 6688SOL    HW120963   6.737   4.130   2.127
 6688SOL    HW220964   6.782   4.286   2.112
 6689SOL     OW20965   4.554   3.389   0.175
 6689SOL    HW120966   4.590   3.327   0.105
 6689SOL    HW220967   4.538   3.479   0.134
 6690SOL     OW20968   2.379   1.378   1.174
 6690SOL    HW120969   2.472   1.406   1.198
 6690SOL    HW220970   2.352   1.300   1.230
 6691SOL     OW20971   3.170   6.674   1.386
 6691SOL    HW120972   3.131   6.596   1.436
 6691SOL    HW220973   3.118   6.757   1.408
 6692SOL     OW20974   3.863   3.993   5.589
 6692SOL    HW120975   3.847   3.975   5.686
 6692SOL    HW220976   3.906   4.082   5.579
 6693SOL     OW20977   4.332   3.596   6.027
 6693SOL    HW120978   4.339   3.530   6.102
 6693SOL    HW220979   4.371   3.684   6.055
 6694SOL     OW20980   5.277   5.139   0.576
 6694SOL    HW120981   5.227   5.118   0.659
 6694SOL    HW220982   5.226   5.106   0.496
 6695SOL     OW20983   3.055   2.101   6.590
 6695SOL    HW120984   2.976   2.051   6.627
 6695SOL    HW220985   3.082   2.173   6.653
 6696SOL     OW20986   1.180   2.845   6.906
 6696SOL    HW120987   1.256   2.793   6.943
 6696SOL    HW220988   1.158   2.920   6.969
 6697SOL     OW20989   4.933   2.658   2.910
 6697SOL    HW120990   4.936   2.676   3.008
 6697SOL    HW220991   4.993   2.722   2.862
 6698SOL     OW20992   2.878   2.656   0.981
 6698SOL    HW120993   2.873   2.562   0.948
 6698SOL    HW220994   2.871   2.719   0.904
 6699SOL     OW20995   3.235   5.418   6.420
 6699SOL    HW120996   3.271   5.495   6.367
 6699SOL    HW220997   3.152   5.384   6.376
 6700SOL     OW20998   7.000   6.388   0.791
 6700SOL    HW120999   6.920   6.415   0.845
 6700SOL    HW221000   7.005   6.289   0.785
 6701SOL     OW21001   5.666   2.774   1.036
 6701SOL    HW121002   5.577   2.806   1.004
 6701SOL    HW221003   5.737   2.836   1.003
 6702SOL     OW21004   3.106   2.716   1.799
 6702SOL    HW121005   3.074   2.637   1.850
 6702SOL    HW221006   3.205   2.723   1.808
 6703SOL     OW21007   6.014   1.829   0.067
 6703SOL    HW121008   5.983   1.915   0.027
 6703SOL    HW221009   6.067   1.847   0.149
 6704SOL     OW21010   4.384   1.984   2.729
 6704SOL    HW121011   4.403   1.972   2.632
 6704SOL    HW221012   4.470   1.985   2.780
 6705SOL     OW21013   6.670   2.420   1.645
 6705SOL    HW121014   6.698   2.512   1.616
 6705SOL    HW221015   6.625   2.374   1.568
 6706SOL     OW21016   0.375   4.260   1.772
 6706SOL    HW121017   0.389   4.162   1.784
 6706SOL    HW221018   0.385   4.306   1.861
 6707SOL     OW21019   7.003   6.281   3.818
 6707SOL    HW121020   0.071   6.264   3.840
 6707SOL    HW221021   6.992   6.289   3.719
 6708SOL     OW21022   0.891   5.248   2.572
 6708SOL    HW121023   0.799   5.249   2.531
 6708SOL    HW221024   0.908   5.335   2.618
 6709SOL     OW21025   3.215   6.645   1.985
 6709SOL    HW121026   3.312   6.649   2.009
 6709SOL    HW221027   3.182   6.551   1.997
 6710SOL     OW21028   2.867   0.673   5.702
 6710SOL    HW121029   2.817   0.746   5.655
 6710SOL    HW221030   2.851   0.680   5.801
 6711SOL     OW21031   5.507   4.855   0.057
 6711SOL    HW121032   5.515   4.944   0.100
 6711SOL    HW221033   5.415   4.818   0.072
 6712SOL     OW21034   4.774   5.246   0.481
 6712SOL    HW121035   4.787   5.292   0.569
 6712SOL    HW221036   4.749   5.151   0.497
 6713SOL     OW21037   2.459   1.902   1.820
 6713SOL    HW121038   2.398   1.824   1.806
 6713SOL    HW221039   2.433   1.975   1.756
 6714SOL     OW21040   5.729   0.588   6.526
 6714SOL    HW121041   5.690   0.669   6.482
 6714SOL    HW221042   5.795   0.545   6.465
 6715SOL     OW21043   0.749   0.066   6.491
 6715SOL    HW121044   0.746   0.070   6.391
 6715SOL    HW221045   0.708   7.009   6.522
 6716SOL     OW21046   0.363   5.456   2.156
 6716SOL    HW121047   0.304   5.427   2.232
 6716SOL    HW221048   0.308   5.477   2.076
 6717SOL     OW21049   4.591   3.203   0.806
 6717SOL    HW121050   4.521   3.245   0.749
 6717SOL    HW221051   4.559   3.198   0.901
 6718SOL     OW21052   4.463   6.714   6.064
 6718SOL    HW121053   4.408   6.699   6.146
 6718SOL    HW221054   4.408   6.692   5.983
 6719SOL     OW21055   0.940   7.004   5.668
 6719SOL    HW121056   0.903   6.930   5.726
 6719SOL    HW221057   0.923   0.063   5.712
 6720SOL     OW21058   0.733   5.554   3.011
 6720SOL    HW121059   0.647   5.588   3.048
 6720SOL    HW221060   0.741   5.456   3.029
 6721SOL     OW21061   6.429   0.119   5.346
 6721SOL    HW121062   6.329   0.121   5.340
 6721SOL    HW221063   6.466   0.081   5.261
 6722SOL     OW21064   6.436   3.587   1.664
 6722SOL    HW121065   6.509   3.648   1.632
 6722SOL    HW221066   6.354   3.640   1.683
 6723SOL     OW21067   2.192   6.663   2.606
 6723SOL    HW121068   2.245   6.614   2.674
 6723SOL    HW221069   2.243   6.744   2.575
 6724SOL     OW21070   1.198   3.364   5.894
 6724SOL    HW121071   1.189   3.305   5.813
 6724SOL    HW221072   1.295   3.373   5.917
 6725SOL     OW21073   0.877   4.537   1.210
 6725SOL    HW121074   0.845   4.573   1.298
 6725SOL    HW221075   0.814   4.567   1.138
 6726SOL     OW21076   0.876   2.174   4.594
 6726SOL    HW121077   0.850   2.270   4.606
 6726SOL    HW221078   0.876   2.152   4.496
 6727SOL     OW21079   6.271   3.639   5.578
 6727SOL    HW121080   6.343   3.708   5.589
 6727SOL    HW221081   6.196   3.678   5.524
 6728SOL     OW21082   5.127   1.386   4.308
 6728SOL    HW121083   5.103   1.454   4.240
 6728SOL    HW221084   5.221   1.354   4.291
 6729SOL     OW21085   0.213   1.135   2.306
 6729SOL    HW121086   0.288   1.143   2.371
 6729SOL    HW221087   0.165   1.048   2.319
 6730SOL     OW21088   2.395   6.496   6.419
 6730SOL    HW121089   2.363   6.576   6.470
 6730SOL    HW221090   2.371   6.413   6.469
 6731SOL     OW21091   1.215   4.667   1.082
 6731SOL    HW121092   1.139   4.660   1.018
 6731SOL    HW221093   1.260   4.578   1.090
 6732SOL     OW21094   4.386   5.347   6.431
 6732SOL    HW121095   4.385   5.431   6.486
 6732SOL    HW221096   4.478   5.329   6.398
 6733SOL     OW21097   3.707   5.579   0.557
 6733SOL    HW121098   3.785   5.636   0.534
 6733SOL    HW221099   3.738   5.493   0.597
 6734SOL     OW21100   6.607   2.765   5.091
 6734SOL    HW121101   6.678   2.741   5.157
 6734SOL    HW221102   6.642   2.836   5.030
 6735SOL     OW21103   0.218   5.400   5.024
 6735SOL    HW121104   0.139   5.346   4.994
 6735SOL    HW221105   0.258   5.447   4.945
 6736SOL     OW21106   2.287   2.942   0.298
 6736SOL    HW121107   2.250   2.963   0.388
 6736SOL    HW221108   2.223   2.882   0.249
 6737SOL     OW21109   1.940   2.514   1.046
 6737SOL    HW121110   1.917   2.605   1.082
 6737SOL    HW221111   1.949   2.519   0.947
 6738SOL     OW21112   2.159   3.792   2.295
 6738SOL    HW121113   2.175   3.880   2.251
 6738SOL    HW221114   2.151   3.805   2.394
 6739SOL     OW21115   3.630   5.079   6.220
 6739SOL    HW121116   3.704   5.146   6.223
 6739SOL    HW221117   3.558   5.106   6.285
 6740SOL     OW21118   1.671   1.431   4.298
 6740SOL    HW121119   1.738   1.391   4.360
 6740SOL    HW221120   1.637   1.517   4.336
 6741SOL     OW21121   4.585   0.889   6.033
 6741SOL    HW121122   4.670   0.847   6.063
 6741SOL    HW221123   4.599   0.987   6.019
 6742SOL     OW21124   6.992   5.271   2.739
 6742SOL    HW121125   0.038   5.270   2.805
 6742SOL    HW221126   7.026   5.302   2.650
 6743SOL     OW21127   3.984   4.511   0.256
 6743SOL    HW121128   3.935   4.570   0.321
 6743SOL    HW221129   3.962   4.539   0.163
 6744SOL     OW21130   5.228   5.605   5.425
 6744SOL    HW121131   5.138   5.640   5.450
 6744SOL    HW221132   5.257   5.537   5.494
 6745SOL     OW21133   0.836   6.497   2.183
 6745SOL    HW121134   0.925   6.511   2.226
 6745SOL    HW221135   0.841   6.419   2.120
 6746SOL     OW21136   0.822   1.064   3.367
 6746SOL    HW121137   0.921   1.056   3.355
 6746SOL    HW221138   0.777   1.050   3.278
 6747SOL     OW21139   5.110   6.927   4.760
 6747SOL    HW121140   5.178   6.861   4.793
 6747SOL    HW221141   5.100   7.001   4.826
 6748SOL     OW21142   1.289   0.799   2.855
 6748SOL    HW121143   1.233   0.866   2.807
 6748SOL    HW221144   1.337   0.844   2.930
 6749SOL     OW21145   2.817   5.640   0.150
 6749SOL    HW121146   2.833   5.544   0.169
 6749SOL    HW221147   2.876   5.670   0.075
 6750SOL     OW21148   4.130   0.931   5.096
 6750SOL    HW121149   4.065   0.904   5.167
 6750SOL    HW221150   4.170   1.019   5.120
 6751SOL     OW21151   3.960   1.385   4.087
 6751SOL    HW121152   4.050   1.413   4.120
 6751SOL    HW221153   3.940   1.431   4.000
 6752SOL     OW21154   6.419   3.301   2.277
 6752SOL    HW121155   6.399   3.360   2.355
 6752SOL    HW221156   6.509   3.324   2.240
 6753SOL     OW21157   4.560   0.944   6.574
 6753SOL    HW121158   4.582   0.847   6.585
 6753SOL    HW221159   4.590   0.975   6.483
 6754SOL     OW21160   6.361   1.704   6.237
 6754SOL    HW121161   6.412   1.753   6.166
 6754SOL    HW221162   6.272   1.748   6.251
 6755SOL     OW21163   4.542   1.915   3.588
 6755SOL    HW121164   4.590   1.993   3.628
 6755SOL    HW221165   4.517   1.936   3.493
 6756SOL     OW21166   4.744   4.417   4.761
 6756SOL    HW121167   4.694   4.479   4.822
 6756SOL    HW221168   4.729   4.443   4.666
 6757SOL     OW21169   4.757   6.239   0.761
 6757SOL    HW121170   4.702   6.305   0.711
 6757SOL    HW221171   4.697   6.177   0.811
 6758SOL     OW21172   6.430   3.736   1.251
 6758SOL    HW121173   6.397   3.789   1.329
 6758SOL    HW221174   6.384   3.648   1.249
 6759SOL     OW21175   1.206   3.685   4.338
 6759SOL    HW121176   1.279   3.679   4.405
 6759SOL    HW221177   1.154   3.599   4.338
 6760SOL     OW21178   6.582   4.993   4.674
 6760SOL    HW121179   6.650   4.996   4.747
 6760SOL    HW221180   6.537   5.082   4.667
 6761SOL     OW21181   5.871   2.413   6.353
 6761SOL    HW121182   5.776   2.399   6.324
 6761SOL    HW221183   5.875   2.490   6.417
 6762SOL     OW21184   6.879   5.552   3.525
 6762SOL    HW121185   6.965   5.591   3.493
 6762SOL    HW221186   6.828   5.516   3.447
 6763SOL     OW21187   6.579   6.124   3.703
 6763SOL    HW121188   6.666   6.115   3.654
 6763SOL    HW221189   6.556   6.036   3.746
 6764SOL     OW21190   2.884   5.057   6.894
 6764SOL    HW121191   2.965   5.054   6.837
 6764SOL    HW221192   2.823   5.130   6.862
 6765SOL     OW21193   4.974   5.290   3.166
 6765SOL    HW121194   5.008   5.367   3.112
 6765SOL    HW221195   5.010   5.297   3.259
 6766SOL     OW21196   3.225   6.896   6.761
 6766SOL    HW121197   3.152   6.917   6.695
 6766SOL    HW221198   3.229   6.967   6.831
 6767SOL     OW21199   0.559   2.263   1.110
 6767SOL    HW121200   0.487   2.244   1.043
 6767SOL    HW221201   0.644   2.284   1.062
 6768SOL     OW21202   0.852   0.166   3.596
 6768SOL    HW121203   0.785   0.224   3.550
 6768SOL    HW221204   0.805   0.089   3.639
 6769SOL     OW21205   2.757   1.218   5.185
 6769SOL    HW121206   2.834   1.261   5.138
 6769SOL    HW221207   2.773   1.221   5.284
 6770SOL     OW21208   6.972   2.075   3.580
 6770SOL    HW121209   6.897   2.009   3.583
 6770SOL    HW221210   6.967   2.136   3.659
 6771SOL     OW21211   3.842   2.090   3.527
 6771SOL    HW121212   3.756   2.120   3.485
 6771SOL    HW221213   3.914   2.089   3.458
 6772SOL     OW21214   5.515   1.315   2.157
 6772SOL    HW121215   5.478   1.223   2.150
 6772SOL    HW221216   5.591   1.316   2.223
 6773SOL     OW21217   0.479   6.856   1.297
 6773SOL    HW121218   0.482   6.830   1.200
 6773SOL    HW221219   0.415   6.932   1.309
 6774SOL     OW21220   1.918   2.002   5.049
 6774SOL    HW121221   2.017   2.008   5.063
 6774SOL    HW221222   1.870   2.036   5.130
 6775SOL     OW21223   0.594   2.303   3.331
 6775SOL    HW121224   0.510   2.251   3.343
 6775SOL    HW221225   0.587   2.390   3.380
 6776SOL     OW21226   4.092   3.711   2.145
 6776SOL    HW121227   4.093   3.792   2.086
 6776SOL    HW221228   4.186   3.683   2.164
 6777SOL     OW21229   4.521   5.323   0.974
 6777SOL    HW121230   4.479   5.242   1.016
 6777SOL    HW221231   4.619   5.323   0.993
 6778SOL     OW21232   5.662   2.915   2.465
 6778SOL    HW121233   5.699   2.944   2.376
 6778SOL    HW221234   5.737   2.905   2.530
 6779SOL     OW21235   5.363   4.459   6.300
 6779SOL    HW121236   5.268   4.437   6.280
 6779SOL    HW221237   5.395   4.403   6.376
 6780SOL     OW21238   2.164   3.804   2.556
 6780SOL    HW121239   2.245   3.794   2.614
 6780SOL    HW221240   2.095   3.738   2.583
 6781SOL     OW21241   6.695   1.215   3.452
 6781SOL    HW121242   6.786   1.253   3.468
 6781SOL    HW221243   6.666   1.237   3.359
 6782SOL     OW21244   1.292   0.837   3.506
 6782SOL    HW121245   1.296   0.896   3.426
 6782SOL    HW221246   1.197   0.819   3.530
 6783SOL     OW21247   0.868   4.059   4.706
 6783SOL    HW121248   0.830   3.967   4.710
 6783SOL    HW221249   0.930   4.074   4.783
 6784SOL     OW21250   2.545   4.075   1.687
 6784SOL    HW121251   2.640   4.106   1.684
 6784SOL    HW221252   2.489   4.144   1.732
 6785SOL     OW21253   5.843   4.765   5.741
 6785SOL    HW121254   5.835   4.770   5.642
 6785SOL    HW221255   5.767   4.815   5.783
 6786SOL     OW21256   6.630   2.661   0.288
 6786SOL    HW121257   6.563   2.598   0.327
 6786SOL    HW221258   6.652   2.633   0.195
 6787SOL     OW21259   3.102   2.492   1.323
 6787SOL    HW121260   3.129   2.424   1.392
 6787SOL    HW221261   3.008   2.475   1.294
 6788SOL     OW21262   0.287   3.795   2.435
 6788SOL    HW121263   0.189   3.813   2.424
 6788SOL    HW221264   0.333   3.878   2.467
 6789SOL     OW21265   0.005   4.753   4.639
 6789SOL    HW121266   0.047   4.662   4.629
 6789SOL    HW221267   6.937   4.747   4.615
 6790SOL     OW21268   0.180   4.524   6.223
 6790SOL    HW121269   0.230   4.512   6.309
 6790SOL    HW221270   0.240   4.568   6.156
 6791SOL     OW21271   4.717   1.913   3.294
 6791SOL    HW121272   4.792   1.939   3.234
 6791SOL    HW221273   4.646   1.868   3.240
 6792SOL     OW21274   4.026   6.759   5.665
 6792SOL    HW121275   4.051   6.820   5.741
 6792SOL    HW221276   4.001   6.814   5.585
 6793SOL     OW21277   3.277   2.117   0.023
 6793SOL    HW121278   3.290   2.037   0.082
 6793SOL    HW221279   3.195   2.103   6.996
 6794SOL     OW21280   4.948   1.053   5.746
 6794SOL    HW121281   4.961   1.001   5.830
 6794SOL    HW221282   4.861   1.028   5.704
 6795SOL     OW21283   1.098   0.007   0.957
 6795SOL    HW121284   1.022   6.995   0.906
 6795SOL    HW221285   1.080   7.027   1.055
 6796SOL     OW21286   5.475   1.047   2.044
 6796SOL    HW121287   5.406   1.051   2.116
 6796SOL    HW221288   5.434   1.011   1.960
 6797SOL     OW21289   6.425   2.361   1.415
 6797SOL    HW121290   6.391   2.389   1.506
 6797SOL    HW221291   6.351   2.316   1.365
 6798SOL     OW21292   5.381   6.828   1.593
 6798SOL    HW121293   5.468   6.822   1.544
 6798SOL    HW221294   5.318   6.887   1.542
 6799SOL     OW21295   5.538   0.610   2.929
 6799SOL    HW121296   5.548   0.707   2.907
 6799SOL    HW221297   5.506   0.561   2.848
 6800SOL     OW21298   2.159   2.203   1.473
 6800SOL    HW121299   2.092   2.135   1.442
 6800SOL    HW221300   2.182   2.186   1.569
 6801SOL     OW21301   1.431   6.432   4.236
 6801SOL    HW121302   1.475   6.375   4.167
 6801SOL    HW221303   1.387   6.374   4.304
 6802SOL     OW21304   3.472   6.356   0.951
 6802SOL    HW121305   3.444   6.265   0.979
 6802SOL    HW221306   3.558   6.350   0.899
 6803SOL     OW21307   5.292   4.376   0.056
 6803SOL    HW121308   5.331   4.313   0.122
 6803SOL    HW221309   5.241   4.325   7.015
 6804SOL     OW21310   2.921   5.190   2.682
 6804SOL    HW121311   2.835   5.225   2.717
 6804SOL    HW221312   2.934   5.096   2.713
 6805SOL     OW21313   0.353   4.727   6.610
 6805SOL    HW121314   0.417   4.789   6.564
 6805SOL    HW221315   0.300   4.777   6.678
 6806SOL     OW21316   6.827   1.218   4.244
 6806SOL    HW121317   6.811   1.120   4.235
 6806SOL    HW221318   6.795   1.249   4.334
 6807SOL     OW21319   3.432   3.158   3.582
 6807SOL    HW121320   3.486   3.131   3.662
 6807SOL    HW221321   3.493   3.172   3.504
 6808SOL     OW21322   5.393   1.157   5.118
 6808SOL    HW121323   5.298   1.129   5.132
 6808SOL    HW221324   5.422   1.215   5.193
 6809SOL     OW21325   6.805   4.149   0.921
 6809SOL    HW121326   6.861   4.085   0.974
 6809SOL    HW221327   6.773   4.104   0.837
 6810SOL     OW21328   3.649   1.032   3.325
 6810SOL    HW121329   3.618   1.090   3.250
 6810SOL    HW221330   3.600   1.057   3.409
 6811SOL     OW21331   6.586   2.759   2.514
 6811SOL    HW121332   6.620   2.729   2.604
 6811SOL    HW221333   6.490   2.786   2.522
 6812SOL     OW21334   3.345   3.594   4.406
 6812SOL    HW121335   3.258   3.554   4.435
 6812SOL    HW221336   3.328   3.686   4.371
 6813SOL     OW21337   5.196   3.604   2.169
 6813SOL    HW121338   5.162   3.681   2.223
 6813SOL    HW221339   5.264   3.553   2.222
 6814SOL     OW21340   4.311   1.502   6.471
 6814SOL    HW121341   4.260   1.504   6.557
 6814SOL    HW221342   4.402   1.541   6.485
 6815SOL     OW21343   1.444   5.375   6.692
 6815SOL    HW121344   1.422   5.466   6.727
 6815SOL    HW221345   1.463   5.380   6.594
 6816SOL     OW21346   6.741   1.867   4.471
 6816SOL    HW121347   6.780   1.788   4.423
 6816SOL    HW221348   6.641   1.858   4.473
 6817SOL     OW21349   2.545   2.517   4.009
 6817SOL    HW121350   2.550   2.568   4.094
 6817SOL    HW221351   2.450   2.516   3.976
 6818SOL     OW21352   2.207   6.171   5.979
 6818SOL    HW121353   2.291   6.197   6.027
 6818SOL    HW221354   2.184   6.076   6.000
 6819SOL     OW21355   4.849   6.158   2.934
 6819SOL    HW121356   4.820   6.101   3.011
 6819SOL    HW221357   4.833   6.108   2.849
 6820SOL     OW21358   1.737   6.230   1.571
 6820SOL    HW121359   1.748   6.198   1.665
 6820SOL    HW221360   1.763   6.157   1.508
 6821SOL     OW21361   4.637   2.593   5.590
 6821SOL    HW121362   4.653   2.691   5.587
 6821SOL    HW221363   4.708   2.550   5.646
 6822SOL     OW21364   6.915   2.616   6.529
 6822SOL    HW121365   6.843   2.669   6.485
 6822SOL    HW221366   6.971   2.677   6.586
 6823SOL     OW21367   5.357   3.849   6.406
 6823SOL    HW121368   5.394   3.766   6.364
 6823SOL    HW221369   5.364   3.842   6.506
 6824SOL     OW21370   1.502   1.815   0.274
 6824SOL    HW121371   1.585   1.767   0.244
 6824SOL    HW221372   1.521   1.913   0.283
 6825SOL     OW21373   6.611   6.257   0.667
 6825SOL    HW121374   6.632   6.161   0.648
 6825SOL    HW221375   6.681   6.315   0.625
 6826SOL     OW21376   0.561   3.030   3.424
 6826SOL    HW121377   0.476   3.054   3.470
 6826SOL    HW221378   0.550   3.042   3.325
 6827SOL     OW21379   4.859   5.031   5.454
 6827SOL    HW121380   4.930   5.099   5.435
 6827SOL    HW221381   4.898   4.939   5.449
 6828SOL     OW21382   3.272   1.540   2.974
 6828SOL    HW121383   3.273   1.556   2.876
 6828SOL    HW221384   3.364   1.555   3.012
 6829SOL     OW21385   5.169   0.256   5.348
 6829SOL    HW121386   5.240   0.187   5.357
 6829SOL    HW221387   5.211   0.347   5.339
 6830SOL     OW21388   6.462   1.573   3.293
 6830SOL    HW121389   6.475   1.507   3.368
 6830SOL    HW221390   6.366   1.577   3.268
 6831SOL     OW21391   1.127   1.438   5.881
 6831SOL    HW121392   1.224   1.433   5.859
 6831SOL    HW221393   1.097   1.352   5.921
 6832SOL     OW21394   2.672   3.048   6.982
 6832SOL    HW121395   2.664   3.021   6.886
 6832SOL    HW221396   2.767   3.074   7.001
 6833SOL     OW21397   3.606   5.652   6.164
 6833SOL    HW121398   3.637   5.596   6.086
 6833SOL    HW221399   3.619   5.749   6.142
 6834SOL     OW21400   5.028   0.192   0.717
 6834SOL    HW121401   5.089   0.271   0.716
 6834SOL    HW221402   4.972   0.194   0.800
 6835SOL     OW21403   3.581   1.548   5.194
 6835SOL    HW121404   3.606   1.457   5.163
 6835SOL    HW221405   3.547   1.602   5.117
 6836SOL     OW21406   1.823   4.445   6.555
 6836SOL    HW121407   1.734   4.479   6.585
 6836SOL    HW221408   1.889   4.521   6.554
 6837SOL     OW21409   1.373   1.324   2.796
 6837SOL    HW121410   1.340   1.281   2.712
 6837SOL    HW221411   1.316   1.404   2.817
 6838SOL     OW21412   3.074   4.237   5.239
 6838SOL    HW121413   3.171   4.258   5.254
 6838SOL    HW221414   3.023   4.322   5.229
 6839SOL     OW21415   5.361   1.828   3.605
 6839SOL    HW121416   5.419   1.750   3.583
 6839SOL    HW221417   5.384   1.905   3.545
 6840SOL     OW21418   2.435   6.508   5.121
 6840SOL    HW121419   2.385   6.434   5.166
 6840SOL    HW221420   2.445   6.487   5.023
 6841SOL     OW21421   4.180   5.181   1.728
 6841SOL    HW121422   4.204   5.253   1.792
 6841SOL    HW221423   4.262   5.147   1.683
 6842SOL     OW21424   1.165   2.191   6.560
 6842SOL    HW121425   1.133   2.271   6.509
 6842SOL    HW221426   1.095   2.164   6.626
 6843SOL     OW21427   4.795   1.064   1.536
 6843SOL    HW121428   4.736   1.037   1.460
 6843SOL    HW221429   4.740   1.106   1.608
 6844SOL     OW21430   5.239   5.762   4.100
 6844SOL    HW121431   5.291   5.684   4.065
 6844SOL    HW221432   5.293   5.811   4.169
 6845SOL     OW21433   4.843   4.013   2.010
 6845SOL    HW121434   4.786   4.074   1.955
 6845SOL    HW221435   4.938   4.020   1.979
 6846SOL     OW21436   3.870   3.231   0.911
 6846SOL    HW121437   3.941   3.170   0.877
 6846SOL    HW221438   3.807   3.253   0.837
 6847SOL     OW21439   5.090   3.883   2.272
 6847SOL    HW121440   5.074   3.963   2.331
 6847SOL    HW221441   5.180   3.891   2.229
 6848SOL     OW21442   1.439   4.879   3.846
 6848SOL    HW121443   1.487   4.960   3.811
 6848SOL    HW221444   1.371   4.908   3.914
 6849SOL     OW21445   3.196   5.936   4.533
 6849SOL    HW121446   3.292   5.919   4.514
 6849SOL    HW221447   3.176   5.915   4.629
 6850SOL     OW21448   5.694   2.569   2.916
 6850SOL    HW121449   5.634   2.622   2.977
 6850SOL    HW221450   5.790   2.590   2.937
 6851SOL     OW21451   1.681   4.979   4.823
 6851SOL    HW121452   1.592   4.978   4.778
 6851SOL    HW221453   1.688   5.059   4.882
 6852SOL     OW21454   1.185   4.288   0.889
 6852SOL    HW121455   1.213   4.327   0.977
 6852SOL    HW221456   1.089   4.312   0.872
 6853SOL     OW21457   6.648   4.505   6.797
 6853SOL    HW121458   6.650   4.604   6.810
 6853SOL    HW221459   6.680   4.459   6.880
 6854SOL     OW21460   5.895   0.612   5.946
 6854SOL    HW121461   5.871   0.700   5.988
 6854SOL    HW221462   5.837   0.596   5.867
 6855SOL     OW21463   3.061   6.384   3.169
 6855SOL    HW121464   3.127   6.445   3.213
 6855SOL    HW221465   3.037   6.310   3.232
 6856SOL     OW21466   5.414   4.828   5.330
 6856SOL    HW121467   5.450   4.769   5.258
 6856SOL    HW221468   5.422   4.924   5.303
 6857SOL     OW21469   3.233   1.020   6.404
 6857SOL    HW121470   3.185   0.974   6.479
 6857SOL    HW221471   3.308   1.074   6.441
 6858SOL     OW21472   4.026   3.262   4.752
 6858SOL    HW121473   3.944   3.308   4.786
 6858SOL    HW221474   4.002   3.169   4.723
 6859SOL     OW21475   1.565   6.230   1.274
 6859SOL    HW121476   1.517   6.257   1.191
 6859SOL    HW221477   1.567   6.307   1.338
 6860SOL     OW21478   6.046   5.016   1.994
 6860SOL    HW121479   6.010   4.940   1.941
 6860SOL    HW221480   6.132   5.048   1.953
 6861SOL     OW21481   5.648   4.236   1.293
 6861SOL    HW121482   5.662   4.172   1.218
 6861SOL    HW221483   5.564   4.289   1.277
 6862SOL     OW21484   2.599   4.711   4.638
 6862SOL    HW121485   2.554   4.623   4.628
 6862SOL    HW221486   2.651   4.713   4.723
 6863SOL     OW21487   5.722   1.116   5.137
 6863SOL    HW121488   5.679   1.201   5.169
 6863SOL    HW221489   5.667   1.038   5.163
 6864SOL     OW21490   3.353   5.747   4.134
 6864SOL    HW121491   3.451   5.747   4.155
 6864SOL    HW221492   3.316   5.840   4.145
 6865SOL     OW21493   6.285   4.815   3.342
 6865SOL    HW121494   6.379   4.837   3.368
 6865SOL    HW221495   6.222   4.853   3.409
 6866SOL     OW21496   6.211   4.728   2.085
 6866SOL    HW121497   6.119   4.693   2.070
 6866SOL    HW221498   6.270   4.699   2.010
 6867SOL     OW21499   1.203   4.904   1.242
 6867SOL    HW121500   1.188   4.819   1.192
 6867SOL    HW221501   1.119   4.958   1.243
 6868SOL     OW21502   1.788   5.463   5.281
 6868SOL    HW121503   1.821   5.499   5.368
 6868SOL    HW221504   1.863   5.465   5.214
 6869SOL     OW21505   5.537   2.667   5.527
 6869SOL    HW121506   5.624   2.617   5.524
 6869SOL    HW221507   5.549   2.757   5.486
 6870SOL     OW21508   6.244   3.678   2.888
 6870SOL    HW121509   6.315   3.613   2.917
 6870SOL    HW221510   6.161   3.628   2.864
 6871SOL     OW21511   6.360   4.984   2.133
 6871SOL    HW121512   6.440   4.944   2.088
 6871SOL    HW221513   6.291   4.913   2.149
 6872SOL     OW21514   2.357   3.591   0.983
 6872SOL    HW121515   2.268   3.569   0.942
 6872SOL    HW221516   2.350   3.585   1.083
 6873SOL     OW21517   5.855   3.343   5.716
 6873SOL    HW121518   5.910   3.285   5.777
 6873SOL    HW221519   5.823   3.289   5.639
 6874SOL     OW21520   0.956   3.782   3.594
 6874SOL    HW121521   1.050   3.757   3.618
 6874SOL    HW221522   0.905   3.806   3.677
 6875SOL     OW21523   1.795   2.118   3.730
 6875SOL    HW121524   1.795   2.172   3.814
 6875SOL    HW221525   1.815   2.022   3.751
 6876SOL     OW21526   3.768   5.233   6.745
 6876SOL    HW121527   3.797   5.198   6.834
 6876SOL    HW221528   3.697   5.302   6.757
 6877SOL     OW21529   2.452   4.194   0.068
 6877SOL    HW121530   2.516   4.218   7.023
 6877SOL    HW221531   2.396   4.117   0.039
 6878SOL     OW21532   2.521   2.058   5.306
 6878SOL    HW121533   2.600   2.086   5.361
 6878SOL    HW221534   2.438   2.098   5.343
 6879SOL     OW21535   1.047   2.222   0.445
 6879SOL    HW121536   1.048   2.220   0.545
 6879SOL    HW221537   1.029   2.315   0.413
 6880SOL     OW21538   2.242   3.474   5.077
 6880SOL    HW121539   2.224   3.536   5.001
 6880SOL    HW221540   2.230   3.379   5.046
 6881SOL     OW21541   6.605   4.499   2.343
 6881SOL    HW121542   6.635   4.433   2.412
 6881SOL    HW221543   6.521   4.466   2.300
 6882SOL     OW21544   1.983   0.215   6.038
 6882SOL    HW121545   1.928   0.137   6.068
 6882SOL    HW221546   2.050   0.238   6.110
 6883SOL     OW21547   3.658   1.076   0.845
 6883SOL    HW121548   3.625   1.167   0.871
 6883SOL    HW221549   3.730   1.086   0.777
 6884SOL     OW21550   2.101   4.008   4.203
 6884SOL    HW121551   2.143   4.055   4.125
 6884SOL    HW221552   2.116   4.062   4.286
 6885SOL     OW21553   3.127   5.182   4.076
 6885SOL    HW121554   3.195   5.253   4.063
 6885SOL    HW221555   3.171   5.092   4.073
 6886SOL     OW21556   6.833   0.974   2.579
 6886SOL    HW121557   6.920   0.933   2.607
 6886SOL    HW221558   6.832   0.983   2.479
 6887SOL     OW21559   5.295   0.008   5.430
 6887SOL    HW121560   5.205   6.993   5.437
 6887SOL    HW221561   5.340   0.006   5.519
 6888SOL     OW21562   5.726   6.380   6.117
 6888SOL    HW121563   5.729   6.455   6.182
 6888SOL    HW221564   5.675   6.408   6.036
 6889SOL     OW21565   1.040   2.855   5.766
 6889SOL    HW121566   0.969   2.796   5.805
 6889SOL    HW221567   1.008   2.950   5.766
 6890SOL     OW21568   2.265   6.249   0.600
 6890SOL    HW121569   2.237   6.176   0.662
 6890SOL    HW221570   2.252   6.337   0.646
 6891SOL     OW21571   1.908   4.095   4.836
 6891SOL    HW121572   1.822   4.046   4.842
 6891SOL    HW221573   1.905   4.176   4.895
 6892SOL     OW21574   3.684   0.537   4.063
 6892SOL    HW121575   3.781   0.512   4.072
 6892SOL    HW221576   3.631   0.456   4.038
 6893SOL     OW21577   6.155   6.391   1.231
 6893SOL    HW121578   6.107   6.479   1.226
 6893SOL    HW221579   6.242   6.398   1.183
 6894SOL     OW21580   6.099   5.925   0.060
 6894SOL    HW121581   6.142   5.971   0.138
 6894SOL    HW221582   6.156   5.936   7.007
 6895SOL     OW21583   2.871   5.387   0.160
 6895SOL    HW121584   2.932   5.308   0.157
 6895SOL    HW221585   2.779   5.357   0.186
 6896SOL     OW21586   3.411   6.908   3.925
 6896SOL    HW121587   3.374   6.816   3.931
 6896SOL    HW221588   3.380   6.951   3.840
 6897SOL     OW21589   2.709   3.993   0.235
 6897SOL    HW121590   2.655   3.911   0.217
 6897SOL    HW221591   2.789   3.994   0.176
 6898SOL     OW21592   3.539   1.907   1.659
 6898SOL    HW121593   3.598   1.987   1.667
 6898SOL    HW221594   3.448   1.929   1.695
 6899SOL     OW21595   4.670   6.767   6.741
 6899SOL    HW121596   4.768   6.789   6.735
 6899SOL    HW221597   4.652   6.719   6.827
 6900SOL     OW21598   6.404   0.487   6.445
 6900SOL    HW121599   6.449   0.471   6.357
 6900SOL    HW221600   6.306   0.471   6.436
 6901SOL     OW21601   0.685   0.137   6.207
 6901SOL    HW121602   0.621   0.188   6.150
 6901SOL    HW221603   0.778   0.166   6.187
 6902SOL     OW21604   0.423   6.102   0.806
 6902SOL    HW121605   0.504   6.076   0.753
 6902SOL    HW221606   0.345   6.048   0.776
 6903SOL     OW21607   3.438   4.022   6.419
 6903SOL    HW121608   3.391   4.062   6.340
 6903SOL    HW221609   3.379   3.954   6.462
 6904SOL     OW21610   0.150   1.546   3.857
 6904SOL    HW121611   0.155   1.553   3.957
 6904SOL    HW221612   0.097   1.622   3.821
 6905SOL     OW21613   6.762   6.706   6.495
 6905SOL    HW121614   6.682   6.762   6.475
 6905SOL    HW221615   6.753   6.616   6.453
 6906SOL     OW21616   4.342   1.135   3.918
 6906SOL    HW121617   4.336   1.104   3.823
 6906SOL    HW221618   4.256   1.114   3.965
 6907SOL     OW21619   4.583   1.604   1.157
 6907SOL    HW121620   4.666   1.566   1.115
 6907SOL    HW221621   4.514   1.619   1.086
 6908SOL     OW21622   1.433   0.220   5.480
 6908SOL    HW121623   1.339   0.187   5.481
 6908SOL    HW221624   1.477   0.197   5.567
 6909SOL     OW21625   5.159   4.824   1.357
 6909SOL    HW121626   5.218   4.828   1.277
 6909SOL    HW221627   5.203   4.872   1.433
 6910SOL     OW21628   6.261   2.499   2.722
 6910SOL    HW121629   6.231   2.407   2.746
 6910SOL    HW221630   6.219   2.526   2.635
 6911SOL     OW21631   3.780   0.256   3.205
 6911SOL    HW121632   3.816   0.317   3.134
 6911SOL    HW221633   3.723   0.186   3.164
 6912SOL     OW21634   4.765   5.147   1.751
 6912SOL    HW121635   4.836   5.182   1.813
 6912SOL    HW221636   4.730   5.060   1.787
 6913SOL     OW21637   5.150   4.396   5.341
 6913SOL    HW121638   5.159   4.367   5.436
 6913SOL    HW221639   5.139   4.496   5.338
 6914SOL     OW21640   6.223   5.044   6.839
 6914SOL    HW121641   6.282   4.963   6.845
 6914SOL    HW221642   6.261   5.108   6.772
 6915SOL     OW21643   6.971   4.530   1.855
 6915SOL    HW121644   0.040   4.526   1.833
 6915SOL    HW221645   6.918   4.536   1.770
 6916SOL     OW21646   6.255   3.955   6.984
 6916SOL    HW121647   6.309   3.920   0.032
 6916SOL    HW221648   6.310   3.954   6.901
 6917SOL     OW21649   3.497   5.316   0.081
 6917SOL    HW121650   3.433   5.296   0.155
 6917SOL    HW221651   3.545   5.232   0.055
 6918SOL     OW21652   0.894   4.424   4.404
 6918SOL    HW121653   0.912   4.424   4.502
 6918SOL    HW221654   0.805   4.465   4.386
 6919SOL     OW21655   0.970   5.908   2.633
 6919SOL    HW121656   1.067   5.930   2.625
 6919SOL    HW221657   0.950   5.880   2.727
 6920SOL     OW21658   4.459   5.259   5.634
 6920SOL    HW121659   4.392   5.205   5.585
 6920SOL    HW221660   4.427   5.354   5.641
 6921SOL     OW21661   4.895   5.962   3.101
 6921SOL    HW121662   4.979   6.007   3.130
 6921SOL    HW221663   4.917   5.882   3.045
 6922SOL     OW21664   1.641   5.732   6.803
 6922SOL    HW121665   1.568   5.664   6.811
 6922SOL    HW221666   1.711   5.699   6.740
 6923SOL     OW21667   5.621   6.733   3.538
 6923SOL    HW121668   5.569   6.648   3.533
 6923SOL    HW221669   5.713   6.714   3.572
 6924SOL     OW21670   0.649   4.250   6.595
 6924SOL    HW121671   0.712   4.196   6.651
 6924SOL    HW221672   0.555   4.231   6.623
 6925SOL     OW21673   3.762   6.174   3.971
 6925SOL    HW121674   3.788   6.246   3.906
 6925SOL    HW221675   3.749   6.215   4.062
 6926SOL     OW21676   3.539   2.882   2.592
 6926SOL    HW121677   3.564   2.875   2.689
 6926SOL    HW221678   3.620   2.870   2.535
 6927SOL     OW21679   6.001   3.392   6.329
 6927SOL    HW121680   6.005   3.312   6.388
 6927SOL    HW221681   5.988   3.474   6.384
 6928SOL     OW21682   6.105   6.674   0.823
 6928SOL    HW121683   6.105   6.771   0.846
 6928SOL    HW221684   6.011   6.639   0.826
 6929SOL     OW21685   4.999   5.688   0.957
 6929SOL    HW121686   4.957   5.724   0.874
 6929SOL    HW221687   4.935   5.695   1.033
 6930SOL     OW21688   0.440   6.936   1.788
 6930SOL    HW121689   0.377   6.936   1.866
 6930SOL    HW221690   0.507   7.009   1.799
 6931SOL     OW21691   0.679   0.633   2.043
 6931SOL    HW121692   0.699   0.715   1.989
 6931SOL    HW221693   0.756   0.614   2.104
 6932SOL     OW21694   3.978   1.360   0.549
 6932SOL    HW121695   4.073   1.387   0.535
 6932SOL    HW221696   3.917   1.430   0.509
 6933SOL     OW21697   3.159   6.685   5.299
 6933SOL    HW121698   3.062   6.662   5.307
 6933SOL    HW221699   3.190   6.664   5.206
 6934SOL     OW21700   4.922   4.229   5.887
 6934SOL    HW121701   5.018   4.231   5.859
 6934SOL    HW221702   4.870   4.290   5.827
 6935SOL     OW21703   4.189   6.454   3.167
 6935SOL    HW121704   4.170   6.427   3.261
 6935SOL    HW221705   4.286   6.439   3.147
 6936SOL     OW21706   6.288   2.275   2.467
 6936SOL    HW121707   6.382   2.285   2.498
 6936SOL    HW221708   6.260   2.179   2.475
 6937SOL     OW21709   6.645   6.557   6.838
 6937SOL    HW121710   6.697   6.630   6.884
 6937SOL    HW221711   6.558   6.544   6.886
 6938SOL     OW21712   5.042   3.983   5.303
 6938SOL    HW121713   5.106   3.974   5.380
 6938SOL    HW221714   4.985   3.901   5.297
 6939SOL     OW21715   6.837   5.067   2.450
 6939SOL    HW121716   6.823   5.054   2.548
 6939SOL    HW221717   6.807   5.158   2.424
 6940SOL     OW21718   5.001   1.281   0.508
 6940SOL    HW121719   4.925   1.341   0.482
 6940SOL    HW221720   5.036   1.235   0.427
 6941SOL     OW21721   4.059   3.134   2.864
 6941SOL    HW121722   4.157   3.115   2.867
 6941SOL    HW221723   4.017   3.107   2.951
 6942SOL     OW21724   6.328   2.846   0.749
 6942SOL    HW121725   6.278   2.801   0.822
 6942SOL    HW221726   6.264   2.876   0.678
 6943SOL     OW21727   4.901   6.387   0.035
 6943SOL    HW121728   4.961   6.418   6.991
 6943SOL    HW221729   4.936   6.302   0.074
 6944SOL     OW21730   1.335   4.332   5.591
 6944SOL    HW121731   1.426   4.349   5.553
 6944SOL    HW221732   1.339   4.337   5.691
 6945SOL     OW21733   5.907   2.836   6.694
 6945SOL    HW121734   5.931   2.739   6.685
 6945SOL    HW221735   5.935   2.869   6.784
 6946SOL     OW21736   6.020   5.830   2.347
 6946SOL    HW121737   6.017   5.896   2.422
 6946SOL    HW221738   5.928   5.819   2.309
 6947SOL     OW21739   3.430   6.984   5.231
 6947SOL    HW121740   3.475   0.039   5.202
 6947SOL    HW221741   3.489   6.934   5.294
 6948SOL     OW21742   5.969   0.524   0.363
 6948SOL    HW121743   5.887   0.568   0.326
 6948SOL    HW221744   5.956   0.424   0.362
 6949SOL     OW21745   5.544   6.655   4.028
 6949SOL    HW121746   5.517   6.743   3.989
 6949SOL    HW221747   5.484   6.583   3.992
 6950SOL     OW21748   2.582   0.237   2.905
 6950SOL    HW121749   2.567   0.278   2.995
 6950SOL    HW221750   2.677   0.205   2.898
 6951SOL     OW21751   5.707   5.914   5.905
 6951SOL    HW121752   5.757   5.939   5.822
 6951SOL    HW221753   5.665   5.996   5.944
 6952SOL     OW21754   7.009   5.843   3.672
 6952SOL    HW121755   0.031   5.851   3.586
 6952SOL    HW221756   0.042   5.865   3.748
 6953SOL     OW21757   4.945   6.821   6.547
 6953SOL    HW121758   4.954   6.854   6.453
 6953SOL    HW221759   4.946   6.899   6.610
 6954SOL     OW21760   0.887   3.628   4.159
 6954SOL    HW121761   0.931   3.637   4.070
 6954SOL    HW221762   0.861   3.719   4.193
 6955SOL     OW21763   6.656   0.151   2.298
 6955SOL    HW121764   6.583   0.091   2.265
 6955SOL    HW221765   6.665   0.230   2.237
 6956SOL     OW21766   4.337   6.200   2.890
 6956SOL    HW121767   4.355   6.140   2.812
 6956SOL    HW221768   4.396   6.174   2.967
 6957SOL     OW21769   6.320   4.928   1.670
 6957SOL    HW121770   6.271   4.863   1.611
 6957SOL    HW221771   6.392   4.972   1.617
 6958SOL     OW21772   3.045   3.924   5.384
 6958SOL    HW121773   3.092   3.926   5.296
 6958SOL    HW221774   2.963   3.982   5.379
 6959SOL     OW21775   2.387   0.904   4.669
 6959SOL    HW121776   2.340   0.899   4.757
 6959SOL    HW221777   2.368   0.992   4.626
 6960SOL     OW21778   0.546   5.123   0.437
 6960SOL    HW121779   0.640   5.144   0.460
 6960SOL    HW221780   0.495   5.208   0.423
 6961SOL     OW21781   0.008   2.747   4.360
 6961SOL    HW121782   0.041   2.817   4.297
 6961SOL    HW221783   0.054   2.660   4.341
 6962SOL     OW21784   5.213   5.267   2.411
 6962SOL    HW121785   5.172   5.312   2.332
 6962SOL    HW221786   5.142   5.224   2.467
 6963SOL     OW21787   0.068   5.551   0.590
 6963SOL    HW121788   0.038   5.476   0.532
 6963SOL    HW221789   0.092   5.630   0.533
 6964SOL     OW21790   4.887   5.142   4.133
 6964SOL    HW121791   4.846   5.163   4.221
 6964SOL    HW221792   4.949   5.063   4.143
 6965SOL     OW21793   0.757   3.693   5.852
 6965SOL    HW121794   0.823   3.763   5.824
 6965SOL    HW221795   0.790   3.603   5.825
 6966SOL     OW21796   6.064   2.354   2.837
 6966SOL    HW121797   6.078   2.346   2.936
 6966SOL    HW221798   6.038   2.447   2.814
 6967SOL     OW21799   1.576   1.540   5.489
 6967SOL    HW121800   1.500   1.593   5.525
 6967SOL    HW221801   1.541   1.458   5.443
 6968SOL     OW21802   3.548   6.585   2.774
 6968SOL    HW121803   3.550   6.488   2.798
 6968SOL    HW221804   3.578   6.596   2.679
 6969SOL     OW21805   3.564   2.371   1.422
 6969SOL    HW121806   3.608   2.431   1.355
 6969SOL    HW221807   3.529   2.290   1.376
 6970SOL     OW21808   4.634   3.635   0.382
 6970SOL    HW121809   4.669   3.659   0.292
 6970SOL    HW221810   4.619   3.719   0.435
 6971SOL     OW21811   6.445   4.119   2.077
 6971SOL    HW121812   6.508   4.196   2.089
 6971SOL    HW221813   6.487   4.036   2.114
 6972SOL     OW21814   5.878   5.092   4.145
 6972SOL    HW121815   5.817   5.017   4.119
 6972SOL    HW221816   5.904   5.144   4.064
 6973SOL     OW21817   0.962   3.940   5.236
 6973SOL    HW121818   1.013   3.945   5.150
 6973SOL    HW221819   0.887   3.875   5.227
 6974SOL     OW21820   3.030   3.217   3.105
 6974SOL    HW121821   3.076   3.131   3.083
 6974SOL    HW221822   3.012   3.269   3.022
 6975SOL     OW21823   2.928   6.910   6.256
 6975SOL    HW121824   2.847   6.882   6.204
 6975SOL    HW221825   2.963   6.831   6.308
 6976SOL     OW21826   4.116   4.588   6.082
 6976SOL    HW121827   4.117   4.488   6.089
 6976SOL    HW221828   4.022   4.621   6.075
 6977SOL     OW21829   5.252   2.348   1.741
 6977SOL    HW121830   5.337   2.377   1.785
 6977SOL    HW221831   5.192   2.428   1.729
 6978SOL     OW21832   6.354   2.006   1.183
 6978SOL    HW121833   6.302   2.071   1.239
 6978SOL    HW221834   6.428   1.968   1.237
 6979SOL     OW21835   0.996   5.429   0.788
 6979SOL    HW121836   0.909   5.438   0.739
 6979SOL    HW221837   1.065   5.487   0.745
 6980SOL     OW21838   2.061   0.580   3.774
 6980SOL    HW121839   2.053   0.491   3.820
 6980SOL    HW221840   2.016   0.575   3.684
 6981SOL     OW21841   2.354   2.940   6.695
 6981SOL    HW121842   2.272   2.964   6.747
 6981SOL    HW221843   2.341   2.965   6.599
 6982SOL     OW21844   1.155   1.403   4.068
 6982SOL    HW121845   1.072   1.376   4.019
 6982SOL    HW221846   1.181   1.330   4.132
 6983SOL     OW21847   5.829   2.490   3.398
 6983SOL    HW121848   5.845   2.486   3.299
 6983SOL    HW221849   5.906   2.537   3.442
 6984SOL     OW21850   1.819   2.414   4.772
 6984SOL    HW121851   1.842   2.499   4.723
 6984SOL    HW221852   1.871   2.338   4.733
 6985SOL     OW21853   3.801   5.337   2.063
 6985SOL    HW121854   3.885   5.292   2.094
 6985SOL    HW221855   3.766   5.396   2.136
 6986SOL     OW21856   1.557   6.144   6.322
 6986SOL    HW121857   1.585   6.195   6.240
 6986SOL    HW221858   1.620   6.164   6.397
 6987SOL     OW21859   1.095   1.772   6.194
 6987SOL    HW121860   1.184   1.808   6.223
 6987SOL    HW221861   1.078   1.800   6.099
 6988SOL     OW21862   6.158   0.817   5.224
 6988SOL    HW121863   6.100   0.898   5.237
 6988SOL    HW221864   6.108   0.735   5.252
 6989SOL     OW21865   0.282   3.544   3.680
 6989SOL    HW121866   0.307   3.527   3.585
 6989SOL    HW221867   0.364   3.536   3.738
 6990SOL     OW21868   5.702   1.962   0.309
 6990SOL    HW121869   5.645   1.927   0.384
 6990SOL    HW221870   5.694   2.062   0.305
 6991SOL     OW21871   2.322   4.350   3.764
 6991SOL    HW121872   2.359   4.438   3.793
 6991SOL    HW221873   2.385   4.277   3.789
 6992SOL     OW21874   6.210   6.179   4.694
 6992SOL    HW121875   6.169   6.089   4.709
 6992SOL    HW221876   6.278   6.174   4.621
 6993SOL     OW21877   6.585   0.481   2.539
 6993SOL    HW121878   6.619   0.554   2.481
 6993SOL    HW221879   6.512   0.517   2.598
 6994SOL     OW21880   0.663   2.922   5.060
 6994SOL    HW121881   0.615   2.912   5.148
 6994SOL    HW221882   0.761   2.915   5.075
 6995SOL     OW21883   6.102   5.544   5.426
 6995SOL    HW121884   6.101   5.514   5.331
 6995SOL    HW221885   6.024   5.604   5.443
 6996SOL     OW21886   1.909   0.771   5.010
 6996SOL    HW121887   1.944   0.864   5.008
 6996SOL    HW221888   1.944   0.724   5.091
 6997SOL     OW21889   5.619   6.078   5.082
 6997SOL    HW121890   5.555   6.100   5.156
 6997SOL    HW221891   5.703   6.131   5.094
 6998SOL     OW21892   1.998   1.948   1.867
 6998SOL    HW121893   2.066   1.968   1.797
 6998SOL    HW221894   1.927   2.019   1.865
 6999SOL     OW21895   2.263   2.157   6.753
 6999SOL    HW121896   2.304   2.117   6.671
 6999SOL    HW221897   2.256   2.256   6.743
 7000SOL     OW21898   6.992   5.746   2.788
 7000SOL    HW121899   6.977   5.722   2.883
 7000SOL    HW221900   0.061   5.759   2.772
 7001SOL     OW21901   2.618   2.994   5.506
 7001SOL    HW121902   2.589   3.082   5.468
 7001SOL    HW221903   2.661   3.007   5.595
 7002SOL     OW21904   2.152   5.033   2.646
 7002SOL    HW121905   2.186   4.939   2.647
 7002SOL    HW221906   2.161   5.073   2.737
 7003SOL     OW21907   3.683   6.265   0.263
 7003SOL    HW121908   3.618   6.236   0.193
 7003SOL    HW221909   3.635   6.313   0.336
 7004SOL     OW21910   2.154   5.056   1.754
 7004SOL    HW121911   2.171   4.997   1.675
 7004SOL    HW221912   2.230   5.048   1.819
 7005SOL     OW21913   0.585   6.158   6.040
 7005SOL    HW121914   0.662   6.129   5.982
 7005SOL    HW221915   0.601   6.127   6.133
 7006SOL     OW21916   5.523   4.895   4.654
 7006SOL    HW121917   5.589   4.847   4.712
 7006SOL    HW221918   5.483   4.971   4.705
 7007SOL     OW21919   5.153   6.754   3.130
 7007SOL    HW121920   5.221   6.814   3.171
 7007SOL    HW221921   5.065   6.766   3.176
 7008SOL     OW21922   1.958   5.536   4.233
 7008SOL    HW121923   1.922   5.443   4.229
 7008SOL    HW221924   2.054   5.536   4.207
 7009SOL     OW21925   5.811   5.573   2.394
 7009SOL    HW121926   5.824   5.622   2.480
 7009SOL    HW221927   5.842   5.478   2.404
 7010SOL     OW21928   4.520   3.773   5.865
 7010SOL    HW121929   4.448   3.729   5.919
 7010SOL    HW221930   4.537   3.719   5.782
 7011SOL     OW21931   2.029   0.586   6.676
 7011SOL    HW121932   1.970   0.652   6.722
 7011SOL    HW221933   2.091   0.633   6.613
 7012SOL     OW21934   2.191   0.842   2.322
 7012SOL    HW121935   2.192   0.938   2.294
 7012SOL    HW221936   2.207   0.784   2.243
 7013SOL     OW21937   0.440   6.768   1.044
 7013SOL    HW121938   0.351   6.722   1.043
 7013SOL    HW221939   0.496   6.734   0.968
 7014SOL     OW21940   4.912   3.050   1.194
 7014SOL    HW121941   4.825   3.051   1.144
 7014SOL    HW221942   4.919   2.967   1.248
 7015SOL     OW21943   5.941   4.790   2.309
 7015SOL    HW121944   5.964   4.765   2.215
 7015SOL    HW221945   5.972   4.884   2.327
 7016SOL     OW21946   3.692   5.014   2.175
 7016SOL    HW121947   3.701   5.098   2.121
 7016SOL    HW221948   3.650   4.942   2.119
 7017SOL     OW21949   2.110   6.865   2.356
 7017SOL    HW121950   2.200   6.865   2.398
 7017SOL    HW221951   2.117   6.833   2.262
 7018SOL     OW21952   6.492   4.188   5.148
 7018SOL    HW121953   6.484   4.287   5.136
 7018SOL    HW221954   6.506   4.167   5.245
 7019SOL     OW21955   3.219   4.511   6.818
 7019SOL    HW121956   3.241   4.446   6.746
 7019SOL    HW221957   3.122   4.533   6.815
 7020SOL     OW21958   6.349   6.927   6.396
 7020SOL    HW121959   6.372   6.839   6.436
 7020SOL    HW221960   6.425   6.959   6.340
 7021SOL     OW21961   2.178   1.340   5.215
 7021SOL    HW121962   2.083   1.312   5.226
 7021SOL    HW221963   2.184   1.440   5.211
 7022SOL     OW21964   4.407   5.047   1.052
 7022SOL    HW121965   4.493   4.995   1.052
 7022SOL    HW221966   4.342   5.003   1.114
 7023SOL     OW21967   0.576   2.019   3.728
 7023SOL    HW121968   0.605   2.046   3.819
 7023SOL    HW221969   0.611   1.928   3.707
 7024SOL     OW21970   1.663   5.003   5.954
 7024SOL    HW121971   1.566   5.021   5.940
 7024SOL    HW221972   1.685   4.911   5.923
 7025SOL     OW21973   2.815   1.302   0.162
 7025SOL    HW121974   2.824   1.332   0.257
 7025SOL    HW221975   2.734   1.344   0.121
 7026SOL     OW21976   3.011   1.640   2.269
 7026SOL    HW121977   3.053   1.724   2.234
 7026SOL    HW221978   2.959   1.595   2.196
 7027SOL     OW21979   2.757   4.768   2.658
 7027SOL    HW121980   2.734   4.733   2.749
 7027SOL    HW221981   2.719   4.708   2.588
 7028SOL     OW21982   6.231   0.007   4.369
 7028SOL    HW121983   6.267   0.096   4.397
 7028SOL    HW221984   6.268   7.010   4.280
 7029SOL     OW21985   4.208   0.004   6.705
 7029SOL    HW121986   4.297   0.048   6.717
 7029SOL    HW221987   4.191   6.970   6.781
 7030SOL     OW21988   6.608   2.141   5.584
 7030SOL    HW121989   6.509   2.144   5.572
 7030SOL    HW221990   6.631   2.140   5.681
 7031SOL     OW21991   2.292   5.910   4.451
 7031SOL    HW121992   2.350   5.832   4.427
 7031SOL    HW221993   2.284   5.971   4.372
 7032SOL     OW21994   3.278   6.574   3.851
 7032SOL    HW121995   3.317   6.613   3.768
 7032SOL    HW221996   3.209   6.506   3.827
 7033SOL     OW21997   0.045   1.796   3.736
 7033SOL    HW121998   0.018   1.858   3.810
 7033SOL    HW221999   6.996   1.781   3.675
 7034SOL     OW22000   6.139   0.655   2.773
 7034SOL    HW122001   6.191   0.726   2.821
 7034SOL    HW222002   6.156   0.567   2.816
 7035SOL     OW22003   1.303   6.680   2.103
 7035SOL    HW122004   1.319   6.778   2.090
 7035SOL    HW222005   1.258   6.666   2.191
 7036SOL     OW22006   0.058   0.494   1.730
 7036SOL    HW122007   0.123   0.541   1.790
 7036SOL    HW222008   6.993   0.508   1.765
 7037SOL     OW22009   1.321   0.643   6.090
 7037SOL    HW122010   1.325   0.547   6.116
 7037SOL    HW222011   1.261   0.692   6.153
 7038SOL     OW22012   1.749   3.725   3.802
 7038SOL    HW122013   1.824   3.785   3.831
 7038SOL    HW222014   1.686   3.712   3.879
 7039SOL     OW22015   2.997   5.765   1.051
 7039SOL    HW122016   2.909   5.768   1.098
 7039SOL    HW222017   3.013   5.672   1.018
 7040SOL     OW22018   5.568   1.676   5.262
 7040SOL    HW122019   5.484   1.710   5.219
 7040SOL    HW222020   5.615   1.613   5.199
 7041SOL     OW22021   0.525   1.917   2.809
 7041SOL    HW122022   0.580   1.833   2.804
 7041SOL    HW222023   0.429   1.895   2.793
 7042SOL     OW22024   5.592   5.189   6.783
 7042SOL    HW122025   5.612   5.206   6.879
 7042SOL    HW222026   5.622   5.267   6.728
 7043SOL     OW22027   2.276   2.961   3.492
 7043SOL    HW122028   2.303   2.876   3.447
 7043SOL    HW222029   2.240   2.940   3.583
 7044SOL     OW22030   4.943   4.779   2.771
 7044SOL    HW122031   4.887   4.718   2.715
 7044SOL    HW222032   4.956   4.739   2.861
 7045SOL     OW22033   5.355   5.611   2.139
 7045SOL    HW122034   5.266   5.644   2.172
 7045SOL    HW222035   5.388   5.539   2.199
 7046SOL     OW22036   3.666   1.897   3.593
 7046SOL    HW122037   3.750   1.950   3.582
 7046SOL    HW222038   3.593   1.956   3.628
 7047SOL     OW22039   0.752   2.420   2.785
 7047SOL    HW122040   0.815   2.356   2.828
 7047SOL    HW222041   0.662   2.412   2.827
 7048SOL     OW22042   0.053   5.264   1.890
 7048SOL    HW122043   0.017   5.353   1.919
 7048SOL    HW222044   7.006   5.205   1.864
 7049SOL     OW22045   2.170   1.515   1.039
 7049SOL    HW122046   2.088   1.515   1.096
 7049SOL    HW222047   2.235   1.448   1.074
 7050SOL     OW22048   3.986   3.815   2.888
 7050SOL    HW122049   3.939   3.880   2.828
 7050SOL    HW222050   4.052   3.762   2.834
 7051SOL     OW22051   0.166   1.049   0.876
 7051SOL    HW122052   0.143   1.020   0.783
 7051SOL    HW222053   0.203   0.972   0.927
 7052SOL     OW22054   6.019   2.883   4.143
 7052SOL    HW122055   6.069   2.943   4.206
 7052SOL    HW222056   6.061   2.792   4.144
 7053SOL     OW22057   0.900   3.166   4.773
 7053SOL    HW122058   0.859   3.099   4.835
 7053SOL    HW222059   0.941   3.240   4.826
 7054SOL     OW22060   0.989   5.915   1.453
 7054SOL    HW122061   1.083   5.886   1.468
 7054SOL    HW222062   0.969   5.995   1.509
 7055SOL     OW22063   3.769   6.399   5.452
 7055SOL    HW122064   3.811   6.417   5.541
 7055SOL    HW222065   3.728   6.307   5.452
 7056SOL     OW22066   6.022   5.975   2.586
 7056SOL    HW122067   5.955   5.948   2.656
 7056SOL    HW222068   6.070   6.057   2.617
 7057SOL     OW22069   1.445   5.419   3.752
 7057SOL    HW122070   1.389   5.343   3.718
 7057SOL    HW222071   1.541   5.394   3.749
 7058SOL     OW22072   6.017   5.608   6.522
 7058SOL    HW122073   6.048   5.602   6.427
 7058SOL    HW222074   6.095   5.596   6.584
 7059SOL     OW22075   0.151   0.846   3.025
 7059SOL    HW122076   0.167   0.929   3.078
 7059SOL    HW222077   0.113   0.775   3.084
 7060SOL     OW22078   3.681   6.962   1.900
 7060SOL    HW122079   3.633   6.889   1.851
 7060SOL    HW222080   3.725   7.023   1.835
 7061SOL     OW22081   0.152   2.786   3.697
 7061SOL    HW122082   0.091   2.814   3.623
 7061SOL    HW222083   0.218   2.859   3.715
 7062SOL     OW22084   5.722   1.176   5.979
 7062SOL    HW122085   5.691   1.272   5.979
 7062SOL    HW222086   5.693   1.133   6.065
 7063SOL     OW22087   0.305   0.196   0.734
 7063SOL    HW122088   0.277   0.282   0.775
 7063SOL    HW222089   0.271   0.120   0.789
 7064SOL     OW22090   4.187   2.159   1.968
 7064SOL    HW122091   4.108   2.178   1.911
 7064SOL    HW222092   4.263   2.126   1.911
 7065SOL     OW22093   4.094   3.220   6.880
 7065SOL    HW122094   4.154   3.251   6.807
 7065SOL    HW222095   4.014   3.175   6.841
 7066SOL     OW22096   4.086   0.412   0.751
 7066SOL    HW122097   4.039   0.435   0.666
 7066SOL    HW222098   4.022   0.419   0.827
 7067SOL     OW22099   1.721   1.818   5.184
 7067SOL    HW122100   1.644   1.828   5.246
 7067SOL    HW222101   1.792   1.884   5.208
 7068SOL     OW22102   0.765   4.428   3.940
 7068SOL    HW122103   0.718   4.389   4.019
 7068SOL    HW222104   0.760   4.528   3.943
 7069SOL     OW22105   5.878   2.580   4.041
 7069SOL    HW122106   5.839   2.670   4.023
 7069SOL    HW222107   5.806   2.517   4.068
 7070SOL     OW22108   0.019   6.663   4.765
 7070SOL    HW122109   0.090   6.628   4.826
 7070SOL    HW222110   0.057   6.736   4.709
 7071SOL     OW22111   1.405   6.276   5.915
 7071SOL    HW122112   1.332   6.342   5.932
 7071SOL    HW222113   1.445   6.293   5.825
 7072SOL     OW22114   0.338   6.233   5.931
 7072SOL    HW122115   0.339   6.333   5.925
 7072SOL    HW222116   0.425   6.201   5.966
 7073SOL     OW22117   5.728   6.742   4.675
 7073SOL    HW122118   5.664   6.815   4.648
 7073SOL    HW222119   5.734   6.674   4.602
 7074SOL     OW22120   4.146   2.529   1.416
 7074SOL    HW122121   4.191   2.542   1.328
 7074SOL    HW222122   4.215   2.521   1.488
 7075SOL     OW22123   0.753   5.613   5.567
 7075SOL    HW122124   0.766   5.665   5.482
 7075SOL    HW222125   0.817   5.537   5.569
 7076SOL     OW22126   4.515   1.962   6.884
 7076SOL    HW122127   4.435   1.963   6.825
 7076SOL    HW222128   4.562   2.050   6.878
 7077SOL     OW22129   2.322   4.475   4.895
 7077SOL    HW122130   2.401   4.515   4.940
 7077SOL    HW222131   2.352   4.408   4.827
 7078SOL     OW22132   6.180   0.691   1.163
 7078SOL    HW122133   6.082   0.707   1.149
 7078SOL    HW222134   6.232   0.737   1.091
 7079SOL     OW22135   6.157   6.875   5.345
 7079SOL    HW122136   6.148   6.975   5.343
 7079SOL    HW222137   6.152   6.840   5.251
 7080SOL     OW22138   3.497   2.120   4.429
 7080SOL    HW122139   3.496   2.162   4.338
 7080SOL    HW222140   3.404   2.099   4.457
 7081SOL     OW22141   2.987   1.145   6.761
 7081SOL    HW122142   2.989   1.231   6.710
 7081SOL    HW222143   3.049   1.080   6.717
 7082SOL     OW22144   6.357   4.799   6.812
 7082SOL    HW122145   6.307   4.713   6.811
 7082SOL    HW222146   6.435   4.794   6.751
 7083SOL     OW22147   3.106   1.285   0.151
 7083SOL    HW122148   3.126   1.189   0.171
 7083SOL    HW222149   3.037   1.319   0.215
 7084SOL     OW22150   0.202   6.744   5.734
 7084SOL    HW122151   0.128   6.807   5.708
 7084SOL    HW222152   0.261   6.788   5.801
 7085SOL     OW22153   1.890   1.653   2.136
 7085SOL    HW122154   1.850   1.565   2.164
 7085SOL    HW222155   1.958   1.681   2.203
 7086SOL     OW22156   4.788   0.551   5.561
 7086SOL    HW122157   4.771   0.573   5.465
 7086SOL    HW222158   4.718   0.594   5.618
 7087SOL     OW22159   5.858   4.695   4.041
 7087SOL    HW122160   5.867   4.615   4.100
 7087SOL    HW222161   5.786   4.755   4.075
 7088SOL     OW22162   5.473   2.360   3.308
 7088SOL    HW122163   5.391   2.304   3.319
 7088SOL    HW222164   5.512   2.381   3.398
 7089SOL     OW22165   3.797   2.265   5.527
 7089SOL    HW122166   3.867   2.202   5.495
 7089SOL    HW222167   3.772   2.328   5.453
 7090SOL     OW22168   2.400   1.657   6.317
 7090SOL    HW122169   2.339   1.606   6.257
 7090SOL    HW222170   2.380   1.634   6.412
 7091SOL     OW22171   0.242   1.883   0.239
 7091SOL    HW122172   0.193   1.797   0.255
 7091SOL    HW222173   0.274   1.886   0.144
 7092SOL     OW22174   4.467   2.829   6.369
 7092SOL    HW122175   4.447   2.927   6.377
 7092SOL    HW222176   4.392   2.783   6.321
 7093SOL     OW22177   2.898   3.616   3.305
 7093SOL    HW122178   2.834   3.540   3.292
 7093SOL    HW222179   2.960   3.621   3.226
 7094SOL     OW22180   0.666   5.317   5.940
 7094SOL    HW122181   0.637   5.333   6.035
 7094SOL    HW222182   0.588   5.331   5.879
 7095SOL     OW22183   3.684   3.486   6.402
 7095SOL    HW122184   3.622   3.463   6.477
 7095SOL    HW222185   3.706   3.403   6.351
 7096SOL     OW22186   6.251   0.332   3.676
 7096SOL    HW122187   6.253   0.428   3.648
 7096SOL    HW222188   6.157   0.304   3.692
 7097SOL     OW22189   5.976   0.997   1.388
 7097SOL    HW122190   5.887   0.956   1.406
 7097SOL    HW222191   6.009   0.968   1.298
 7098SOL     OW22192   0.878   0.818   4.001
 7098SOL    HW122193   0.867   0.723   3.973
 7098SOL    HW222194   0.790   0.854   4.033
 7099SOL     OW22195   2.885   0.864   5.053
 7099SOL    HW122196   2.932   0.952   5.060
 7099SOL    HW222197   2.947   0.797   5.011
 7100SOL     OW22198   5.641   3.309   1.113
 7100SOL    HW122199   5.740   3.317   1.125
 7100SOL    HW222200   5.621   3.226   1.061
 7101SOL     OW22201   1.944   0.212   4.716
 7101SOL    HW122202   1.848   0.206   4.686
 7101SOL    HW222203   1.950   0.268   4.798
 7102SOL     OW22204   4.682   0.916   0.644
 7102SOL    HW122205   4.731   0.871   0.570
 7102SOL    HW222206   4.584   0.905   0.631
 7103SOL     OW22207   4.341   5.219   1.297
 7103SOL    HW122208   4.283   5.290   1.339
 7103SOL    HW222209   4.283   5.145   1.264
 7104SOL     OW22210   1.313   3.634   5.042
 7104SOL    HW122211   1.241   3.620   5.110
 7104SOL    HW222212   1.374   3.555   5.042
 7105SOL     OW22213   2.911   2.624   5.543
 7105SOL    HW122214   2.951   2.565   5.473
 7105SOL    HW222215   2.956   2.713   5.541
 7106SOL     OW22216   3.007   3.936   2.667
 7106SOL    HW122217   3.030   3.886   2.584
 7106SOL    HW222218   2.998   3.871   2.743
 7107SOL     OW22219   3.118   1.475   1.010
 7107SOL    HW122220   3.054   1.546   0.982
 7107SOL    HW222221   3.155   1.497   1.100
 7108SOL     OW22222   3.974   6.559   2.727
 7108SOL    HW122223   4.000   6.464   2.716
 7108SOL    HW222224   3.883   6.564   2.769
 7109SOL     OW22225   3.756   0.247   6.294
 7109SOL    HW122226   3.746   0.209   6.386
 7109SOL    HW222227   3.713   0.337   6.290
 7110SOL     OW22228   3.463   6.195   3.817
 7110SOL    HW122229   3.515   6.114   3.845
 7110SOL    HW222230   3.395   6.216   3.886
 7111SOL     OW22231   2.319   2.400   4.643
 7111SOL    HW122232   2.253   2.390   4.568
 7111SOL    HW222233   2.288   2.349   4.722
 7112SOL     OW22234   2.366   5.790   4.106
 7112SOL    HW122235   2.298   5.844   4.156
 7112SOL    HW222236   2.450   5.783   4.160
 7113SOL     OW22237   3.284   3.824   4.797
 7113SOL    HW122238   3.234   3.738   4.809
 7113SOL    HW222239   3.369   3.807   4.748
 7114SOL     OW22240   3.741   6.641   1.177
 7114SOL    HW122241   3.807   6.674   1.244
 7114SOL    HW222242   3.711   6.716   1.119
 7115SOL     OW22243   5.188   3.173   2.285
 7115SOL    HW122244   5.106   3.204   2.237
 7115SOL    HW222245   5.242   3.114   2.226
 7116SOL     OW22246   5.354   4.149   3.497
 7116SOL    HW122247   5.413   4.093   3.555
 7116SOL    HW222248   5.406   4.179   3.416
 7117SOL     OW22249   6.666   6.380   4.605
 7117SOL    HW122250   6.721   6.307   4.565
 7117SOL    HW222251   6.605   6.342   4.675
 7118SOL     OW22252   2.684   4.084   0.672
 7118SOL    HW122253   2.590   4.055   0.691
 7118SOL    HW222254   2.745   4.047   0.743
 7119SOL     OW22255   5.034   1.605   3.347
 7119SOL    HW122256   4.934   1.610   3.355
 7119SOL    HW222257   5.064   1.666   3.274
 7120SOL     OW22258   4.130   2.098   2.223
 7120SOL    HW122259   4.167   2.129   2.136
 7120SOL    HW222260   4.032   2.121   2.227
 7121SOL     OW22261   2.472   7.013   2.256
 7121SOL    HW122262   2.404   0.051   2.228
 7121SOL    HW222263   2.507   6.965   2.176
 7122SOL     OW22264   0.121   0.797   5.872
 7122SOL    HW122265   0.117   0.795   5.773
 7122SOL    HW222266   0.211   0.828   5.902
 7123SOL     OW22267   2.259   4.764   2.326
 7123SOL    HW122268   2.322   4.820   2.379
 7123SOL    HW222269   2.189   4.822   2.285
 7124SOL     OW22270   0.152   2.462   0.467
 7124SOL    HW122271   0.228   2.520   0.438
 7124SOL    HW222272   0.075   2.475   0.403
 7125SOL     OW22273   6.339   6.689   0.682
 7125SOL    HW122274   6.297   6.716   0.595
 7125SOL    HW222275   6.267   6.678   0.751
 7126SOL     OW22276   3.483   4.407   0.473
 7126SOL    HW122277   3.575   4.418   0.511
 7126SOL    HW222278   3.423   4.477   0.513
 7127SOL     OW22279   2.018   6.041   4.546
 7127SOL    HW122280   2.108   6.008   4.517
 7127SOL    HW222281   1.987   6.112   4.483
 7128SOL     OW22282   2.746   5.351   0.448
 7128SOL    HW122283   2.750   5.261   0.490
 7128SOL    HW222284   2.692   5.346   0.363
 7129SOL     OW22285   2.877   0.863   0.669
 7129SOL    HW122286   2.971   0.845   0.643
 7129SOL    HW222287   2.872   0.949   0.720
 7130SOL     OW22288   3.688   4.575   5.612
 7130SOL    HW122289   3.607   4.558   5.668
 7130SOL    HW222290   3.739   4.489   5.600
 7131SOL     OW22291   2.824   1.513   0.438
 7131SOL    HW122292   2.809   1.426   0.486
 7131SOL    HW222293   2.772   1.585   0.483
 7132SOL     OW22294   3.232   3.507   0.122
 7132SOL    HW122295   3.283   3.478   0.203
 7132SOL    HW222296   3.229   3.432   0.056
 7133SOL     OW22297   4.941   5.756   4.298
 7133SOL    HW122298   4.900   5.666   4.278
 7133SOL    HW222299   5.027   5.764   4.249
 7134SOL     OW22300   5.886   5.857   1.808
 7134SOL    HW122301   5.857   5.774   1.761
 7134SOL    HW222302   5.821   5.878   1.882
 7135SOL     OW22303   1.394   2.480   2.674
 7135SOL    HW122304   1.466   2.426   2.630
 7135SOL    HW222305   1.431   2.523   2.757
 7136SOL     OW22306   1.757   2.248   1.095
 7136SOL    HW122307   1.731   2.152   1.083
 7136SOL    HW222308   1.846   2.252   1.141
 7137SOL     OW22309   4.643   0.358   0.091
 7137SOL    HW122310   4.638   0.351   0.190
 7137SOL    HW222311   4.638   0.454   0.063
 7138SOL     OW22312   1.654   2.823   0.504
 7138SOL    HW122313   1.572   2.818   0.448
 7138SOL    HW222314   1.726   2.765   0.464
 7139SOL     OW22315   5.089   4.433   2.706
 7139SOL    HW122316   5.126   4.354   2.754
 7139SOL    HW222317   4.991   4.441   2.726
 7140SOL     OW22318   5.791   4.059   4.262
 7140SOL    HW122319   5.703   4.060   4.214
 7140SOL    HW222320   5.814   3.965   4.285
 7141SOL     OW22321   3.109   5.682   1.701
 7141SOL    HW122322   3.084   5.608   1.638
 7141SOL    HW222323   3.029   5.741   1.716
 7142SOL     OW22324   4.711   0.105   3.940
 7142SOL    HW122325   4.664   0.164   3.875
 7142SOL    HW222326   4.782   0.053   3.892
 7143SOL     OW22327   1.503   3.078   5.828
 7143SOL    HW122328   1.495   3.107   5.924
 7143SOL    HW222329   1.523   3.157   5.771
 7144SOL     OW22330   1.728   1.829   3.639
 7144SOL    HW122331   1.780   1.758   3.686
 7144SOL    HW222332   1.648   1.788   3.594
 7145SOL     OW22333   4.324   7.027   6.432
 7145SOL    HW122334   4.399   0.065   6.426
 7145SOL    HW222335   4.296   7.018   6.527
 7146SOL     OW22336   2.254   0.719   0.308
 7146SOL    HW122337   2.288   0.699   0.216
 7146SOL    HW222338   2.171   0.666   0.324
 7147SOL     OW22339   6.671   6.325   3.293
 7147SOL    HW122340   6.662   6.364   3.385
 7147SOL    HW222341   6.586   6.338   3.243
 7148SOL     OW22342   0.303   6.906   0.425
 7148SOL    HW122343   0.298   6.825   0.367
 7148SOL    HW222344   0.327   6.879   0.518
 7149SOL     OW22345   6.619   6.426   2.901
 7149SOL    HW122346   6.550   6.368   2.943
 7149SOL    HW222347   6.651   6.494   2.967
 7150SOL     OW22348   4.184   1.787   2.179
 7150SOL    HW122349   4.229   1.876   2.188
 7150SOL    HW222350   4.085   1.799   2.192
 7151SOL     OW22351   1.659   6.222   0.842
 7151SOL    HW122352   1.624   6.151   0.781
 7151SOL    HW222353   1.701   6.179   0.922
 7152SOL     OW22354   0.767   1.848   4.888
 7152SOL    HW122355   0.828   1.915   4.847
 7152SOL    HW222356   0.758   1.769   4.827
 7153SOL     OW22357   3.162   5.554   2.676
 7153SOL    HW122358   3.148   5.472   2.620
 7153SOL    HW222359   3.077   5.577   2.723
 7154SOL     OW22360   3.911   0.386   4.394
 7154SOL    HW122361   3.900   0.299   4.442
 7154SOL    HW222362   3.829   0.442   4.407
 7155SOL     OW22363   2.388   4.644   1.283
 7155SOL    HW122364   2.336   4.720   1.246
 7155SOL    HW222365   2.486   4.663   1.275
 7156SOL     OW22366   0.387   4.408   4.481
 7156SOL    HW122367   0.421   4.489   4.434
 7156SOL    HW222368   0.363   4.431   4.575
 7157SOL     OW22369   5.992   4.683   0.928
 7157SOL    HW122370   5.934   4.659   1.006
 7157SOL    HW222371   6.086   4.654   0.946
 7158SOL     OW22372   1.070   0.434   2.666
 7158SOL    HW122373   0.994   0.486   2.706
 7158SOL    HW222374   1.052   0.336   2.677
 7159SOL     OW22375   0.415   3.867   2.691
 7159SOL    HW122376   0.401   3.957   2.651
 7159SOL    HW222377   0.508   3.861   2.728
 7160SOL     OW22378   5.503   1.041   3.106
 7160SOL    HW122379   5.480   1.008   3.197
 7160SOL    HW222380   5.542   1.133   3.112
 7161SOL     OW22381   2.928   3.773   4.624
 7161SOL    HW122382   2.938   3.872   4.613
 7161SOL    HW222383   3.016   3.734   4.652
 7162SOL     OW22384   2.309   5.706   5.847
 7162SOL    HW122385   2.265   5.794   5.869
 7162SOL    HW222386   2.268   5.634   5.902
 7163SOL     OW22387   2.696   6.424   2.853
 7163SOL    HW122388   2.736   6.394   2.767
 7163SOL    HW222389   2.734   6.513   2.879
 7164SOL     OW22390   1.809   0.994   3.796
 7164SOL    HW122391   1.837   1.048   3.875
 7164SOL    HW222392   1.729   0.938   3.820
 7165SOL     OW22393   7.026   1.468   1.392
 7165SOL    HW122394   0.014   1.448   1.488
 7165SOL    HW222395   0.058   1.542   1.362
 7166SOL     OW22396   5.547   3.232   0.196
 7166SOL    HW122397   5.450   3.208   0.195
 7166SOL    HW222398   5.600   3.160   0.151
 7167SOL     OW22399   5.223   3.550   4.701
 7167SOL    HW122400   5.265   3.606   4.773
 7167SOL    HW222401   5.125   3.544   4.718
 7168SOL     OW22402   1.477   3.048   3.631
 7168SOL    HW122403   1.395   3.050   3.688
 7168SOL    HW222404   1.558   3.067   3.687
 7169SOL     OW22405   0.133   3.606   4.982
 7169SOL    HW122406   0.193   3.686   4.983
 7169SOL    HW222407   0.037   3.637   4.980
 7170SOL     OW22408   4.776   6.439   3.260
 7170SOL    HW122409   4.857   6.380   3.254
 7170SOL    HW222410   4.743   6.459   3.167
 7171SOL     OW22411   5.811   4.430   6.352
 7171SOL    HW122412   5.764   4.517   6.361
 7171SOL    HW222413   5.776   4.366   6.420
 7172SOL     OW22414   1.575   0.831   5.285
 7172SOL    HW122415   1.506   0.778   5.335
 7172SOL    HW222416   1.635   0.877   5.349
 7173SOL     OW22417   0.103   4.802   5.684
 7173SOL    HW122418   0.126   4.899   5.691
 7173SOL    HW222419   0.185   4.747   5.698
 7174SOL     OW22420   0.773   4.531   0.114
 7174SOL    HW122421   0.705   4.492   0.052
 7174SOL    HW222422   0.732   4.544   0.205
 7175SOL     OW22423   5.267   3.326   6.838
 7175SOL    HW122424   5.355   3.372   6.828
 7175SOL    HW222425   5.266   3.243   6.783
 7176SOL     OW22426   0.943   6.333   3.524
 7176SOL    HW122427   1.012   6.327   3.451
 7176SOL    HW222428   0.882   6.254   3.518
 7177SOL     OW22429   2.295   6.716   4.316
 7177SOL    HW122430   2.224   6.652   4.285
 7177SOL    HW222431   2.286   6.802   4.267
 7178SOL     OW22432   2.206   3.308   5.468
 7178SOL    HW122433   2.289   3.362   5.453
 7178SOL    HW222434   2.200   3.236   5.399
 7179SOL     OW22435   1.672   3.963   4.796
 7179SOL    HW122436   1.661   4.026   4.719
 7179SOL    HW222437   1.712   3.877   4.763
 7180SOL     OW22438   1.571   4.142   6.556
 7180SOL    HW122439   1.625   4.059   6.566
 7180SOL    HW222440   1.601   4.192   6.475
 7181SOL     OW22441   2.041   5.904   0.339
 7181SOL    HW122442   2.060   5.969   0.265
 7181SOL    HW222443   2.127   5.875   0.381
 7182SOL     OW22444   1.913   3.016   5.287
 7182SOL    HW122445   1.925   2.949   5.360
 7182SOL    HW222446   1.898   2.969   5.200
 7183SOL     OW22447   1.414   6.075   0.195
 7183SOL    HW122448   1.488   6.018   0.158
 7183SOL    HW222449   1.453   6.149   0.249
 7184SOL     OW22450   0.638   0.111   3.057
 7184SOL    HW122451   0.706   0.169   3.011
 7184SOL    HW222452   0.674   0.083   3.146
 7185SOL     OW22453   5.552   0.590   5.421
 7185SOL    HW122454   5.643   0.581   5.381
 7185SOL    HW222455   5.527   0.686   5.426
 7186SOL     OW22456   6.719   0.053   6.788
 7186SOL    HW122457   6.790   0.104   6.739
 7186SOL    HW222458   6.727   0.071   6.886
 7187SOL     OW22459   3.167   4.237   0.296
 7187SOL    HW122460   3.180   4.316   0.237
 7187SOL    HW222461   3.126   4.162   0.244
 7188SOL     OW22462   6.426   6.864   0.306
 7188SOL    HW122463   6.372   6.785   0.335
 7188SOL    HW222464   6.446   6.856   0.209
 7189SOL     OW22465   6.704   0.954   6.524
 7189SOL    HW122466   6.607   0.969   6.502
 7189SOL    HW222467   6.738   0.876   6.472
 7190SOL     OW22468   6.892   4.060   3.014
 7190SOL    HW122469   6.909   4.010   3.098
 7190SOL    HW222470   6.805   4.030   2.974
 7191SOL     OW22471   0.501   4.030   3.447
 7191SOL    HW122472   0.579   3.999   3.502
 7191SOL    HW222473   0.481   4.126   3.469
 7192SOL     OW22474   3.156   4.866   5.765
 7192SOL    HW122475   3.253   4.885   5.774
 7192SOL    HW222476   3.130   4.791   5.827
 7193SOL     OW22477   2.130   2.247   2.434
 7193SOL    HW122478   2.184   2.327   2.407
 7193SOL    HW222479   2.112   2.251   2.532
 7194SOL     OW22480   2.961   1.954   0.922
 7194SOL    HW122481   3.052   1.996   0.924
 7194SOL    HW222482   2.916   1.966   1.010
 7195SOL     OW22483   0.091   5.240   6.405
 7195SOL    HW122484   0.062   5.181   6.330
 7195SOL    HW222485   0.175   5.288   6.379
 7196SOL     OW22486   3.221   4.366   1.657
 7196SOL    HW122487   3.230   4.287   1.718
 7196SOL    HW222488   3.302   4.425   1.666
 7197SOL     OW22489   6.950   2.141   6.042
 7197SOL    HW122490   6.937   2.152   6.140
 7197SOL    HW222491   7.013   2.210   6.009
 7198SOL     OW22492   0.684   1.035   6.351
 7198SOL    HW122493   0.746   0.991   6.286
 7198SOL    HW222494   0.692   1.135   6.342
 7199SOL     OW22495   2.272   0.552   2.197
 7199SOL    HW122496   2.366   0.558   2.163
 7199SOL    HW222497   2.273   0.519   2.291
 7200SOL     OW22498   2.521   2.082   6.826
 7200SOL    HW122499   2.432   2.126   6.837
 7200SOL    HW222500   2.593   2.149   6.846
 7201SOL     OW22501   1.409   5.525   4.298
 7201SOL    HW122502   1.496   5.513   4.346
 7201SOL    HW222503   1.426   5.531   4.199
 7202SOL     OW22504   4.505   0.514   5.796
 7202SOL    HW122505   4.460   0.436   5.752
 7202SOL    HW222506   4.595   0.487   5.829
 7203SOL     OW22507   0.312   2.409   1.205
 7203SOL    HW122508   0.322   2.428   1.303
 7203SOL    HW222509   0.391   2.356   1.173
 7204SOL     OW22510   6.738   0.163   5.229
 7204SOL    HW122511   6.695   0.218   5.300
 7204SOL    HW222512   6.786   0.085   5.271
 7205SOL     OW22513   1.309   5.725   2.846
 7205SOL    HW122514   1.307   5.815   2.891
 7205SOL    HW222515   1.301   5.653   2.915
 7206SOL     OW22516   1.861   0.250   1.093
 7206SOL    HW122517   1.875   0.264   1.191
 7206SOL    HW222518   1.783   0.188   1.079
 7207SOL     OW22519   3.903   6.980   2.177
 7207SOL    HW122520   3.911   6.905   2.111
 7207SOL    HW222521   3.987   6.984   2.232
 7208SOL     OW22522   4.352   6.457   3.985
 7208SOL    HW122523   4.447   6.448   3.956
 7208SOL    HW222524   4.292   6.439   3.907
 7209SOL     OW22525   3.278   3.306   2.217
 7209SOL    HW122526   3.201   3.304   2.281
 7209SOL    HW222527   3.362   3.281   2.265
 7210SOL     OW22528   4.605   6.799   3.891
 7210SOL    HW122529   4.539   6.863   3.929
 7210SOL    HW222530   4.697   6.826   3.918
 7211SOL     OW22531   2.491   5.412   3.910
 7211SOL    HW122532   2.573   5.369   3.873
 7211SOL    HW222533   2.517   5.488   3.970
 7212SOL     OW22534   0.834   6.619   3.866
 7212SOL    HW122535   0.898   6.544   3.877
 7212SOL    HW222536   0.884   6.706   3.859
 7213SOL     OW22537   6.153   0.379   6.461
 7213SOL    HW122538   6.175   0.289   6.498
 7213SOL    HW222539   6.107   0.434   6.531
 7214SOL     OW22540   1.235   6.149   4.994
 7214SOL    HW122541   1.293   6.089   5.050
 7214SOL    HW222542   1.139   6.135   5.019
 7215SOL     OW22543   0.398   2.872   4.577
 7215SOL    HW122544   0.478   2.859   4.635
 7215SOL    HW222545   0.395   2.799   4.508
 7216SOL     OW22546   2.043   6.262   0.415
 7216SOL    HW122547   1.977   6.254   0.340
 7216SOL    HW222548   2.123   6.207   0.394
 7217SOL     OW22549   2.126   4.153   2.471
 7217SOL    HW122550   2.157   4.138   2.377
 7217SOL    HW222551   2.031   4.125   2.480
 7218SOL     OW22552   4.980   2.417   5.376
 7218SOL    HW122553   4.911   2.482   5.344
 7218SOL    HW222554   5.072   2.454   5.359
 7219SOL     OW22555   4.724   6.172   4.330
 7219SOL    HW122556   4.735   6.269   4.310
 7219SOL    HW222557   4.643   6.159   4.387
 7220SOL     OW22558   0.612   5.645   4.305
 7220SOL    HW122559   0.533   5.640   4.244
 7220SOL    HW222560   0.589   5.605   4.393
 7221SOL     OW22561   4.872   4.767   4.703
 7221SOL    HW122562   4.897   4.846   4.759
 7221SOL    HW222563   4.911   4.684   4.745
 7222SOL     OW22564   6.314   0.257   1.876
 7222SOL    HW122565   6.368   0.283   1.956
 7222SOL    HW222566   6.217   0.253   1.902
 7223SOL     OW22567   3.052   2.236   1.523
 7223SOL    HW122568   2.954   2.256   1.527
 7223SOL    HW222569   3.101   2.296   1.586
 7224SOL     OW22570   5.627   2.224   4.265
 7224SOL    HW122571   5.713   2.249   4.221
 7224SOL    HW222572   5.551   2.247   4.204
 7225SOL     OW22573   1.171   5.744   5.731
 7225SOL    HW122574   1.195   5.729   5.826
 7225SOL    HW222575   1.220   5.824   5.696
 7226SOL     OW22576   0.766   0.952   0.693
 7226SOL    HW122577   0.680   0.902   0.696
 7226SOL    HW222578   0.831   0.910   0.757
 7227SOL     OW22579   0.822   1.859   0.845
 7227SOL    HW122580   0.783   1.920   0.913
 7227SOL    HW222581   0.816   1.902   0.754
 7228SOL     OW22582   0.132   1.019   1.891
 7228SOL    HW122583   0.135   0.992   1.794
 7228SOL    HW222584   0.151   1.117   1.898
 7229SOL     OW22585   0.516   0.295   4.754
 7229SOL    HW122586   0.589   0.360   4.732
 7229SOL    HW222587   0.436   0.344   4.789
 7230SOL     OW22588   5.183   5.489   4.482
 7230SOL    HW122589   5.262   5.517   4.536
 7230SOL    HW222590   5.103   5.540   4.511
 7231SOL     OW22591   4.886   6.529   0.270
 7231SOL    HW122592   4.898   6.484   0.181
 7231SOL    HW222593   4.962   6.506   0.329
 7232SOL     OW22594   4.708   5.299   3.203
 7232SOL    HW122595   4.801   5.289   3.168
 7232SOL    HW222596   4.650   5.229   3.162
 7233SOL     OW22597   0.023   2.438   4.378
 7233SOL    HW122598   6.966   2.391   4.358
 7233SOL    HW222599   0.021   2.473   4.471
 7234SOL     OW22600   5.515   2.630   3.111
 7234SOL    HW122601   5.475   2.552   3.158
 7234SOL    HW222602   5.499   2.713   3.163
 7235SOL     OW22603   6.734   4.321   3.266
 7235SOL    HW122604   6.655   4.312   3.327
 7235SOL    HW222605   6.753   4.233   3.223
 7236SOL     OW22606   2.875   1.687   3.155
 7236SOL    HW122607   2.917   1.610   3.107
 7236SOL    HW222608   2.892   1.771   3.105
 7237SOL     OW22609   6.616   6.769   5.508
 7237SOL    HW122610   6.656   6.859   5.497
 7237SOL    HW222611   6.520   6.771   5.480
 7238SOL     OW22612   2.418   2.114   1.329
 7238SOL    HW122613   2.439   2.192   1.271
 7238SOL    HW222614   2.319   2.111   1.346
 7239SOL     OW22615   2.720   1.149   3.551
 7239SOL    HW122616   2.775   1.106   3.623
 7239SOL    HW222617   2.678   1.233   3.587
 7240SOL     OW22618   2.776   3.812   6.282
 7240SOL    HW122619   2.770   3.891   6.343
 7240SOL    HW222620   2.845   3.830   6.213
 7241SOL     OW22621   3.188   0.577   6.950
 7241SOL    HW122622   3.208   0.545   0.014
 7241SOL    HW222623   3.105   0.533   6.916
 7242SOL     OW22624   6.685   5.748   6.965
 7242SOL    HW122625   6.709   5.716   6.874
 7242SOL    HW222626   6.594   5.714   6.989
 7243SOL     OW22627   0.584   4.422   5.971
 7243SOL    HW122628   0.646   4.345   5.983
 7243SOL    HW222629   0.556   4.428   5.875
 7244SOL     OW22630   5.192   0.781   0.849
 7244SOL    HW122631   5.210   0.731   0.934
 7244SOL    HW222632   5.098   0.814   0.850
 7245SOL     OW22633   0.804   2.010   5.156
 7245SOL    HW122634   0.816   2.018   5.057
 7245SOL    HW222635   0.775   1.916   5.178
 7246SOL     OW22636   6.003   6.828   4.642
 7246SOL    HW122637   5.955   6.762   4.701
 7246SOL    HW222638   5.940   6.863   4.573
 7247SOL     OW22639   3.230   6.583   3.289
 7247SOL    HW122640   3.316   6.634   3.288
 7247SOL    HW222641   3.168   6.623   3.356
 7248SOL     OW22642   3.723   1.233   3.165
 7248SOL    HW122643   3.673   1.200   3.085
 7248SOL    HW222644   3.802   1.174   3.183
 7249SOL     OW22645   5.684   5.210   1.740
 7249SOL    HW122646   5.664   5.141   1.811
 7249SOL    HW222647   5.780   5.235   1.745
 7250SOL     OW22648   3.884   5.477   6.111
 7250SOL    HW122649   3.845   5.433   6.030
 7250SOL    HW222650   3.974   5.515   6.089
 7251SOL     OW22651   7.008   6.644   5.460
 7251SOL    HW122652   6.951   6.587   5.400
 7251SOL    HW222653   0.059   6.591   5.491
 7252SOL     OW22654   3.276   3.337   3.731
 7252SOL    HW122655   3.209   3.281   3.780
 7252SOL    HW222656   3.326   3.280   3.666
 7253SOL     OW22657   1.993   6.812   0.666
 7253SOL    HW122658   2.049   6.808   0.748
 7253SOL    HW222659   2.052   6.815   0.585
 7254SOL     OW22660   4.729   5.331   5.237
 7254SOL    HW122661   4.823   5.297   5.231
 7254SOL    HW222662   4.670   5.261   5.275
 7255SOL     OW22663   3.505   3.825   1.222
 7255SOL    HW122664   3.501   3.821   1.122
 7255SOL    HW222665   3.580   3.768   1.254
 7256SOL     OW22666   5.105   4.973   4.520
 7256SOL    HW122667   5.116   4.907   4.594
 7256SOL    HW222668   5.112   5.066   4.557
 7257SOL     OW22669   5.029   2.769   3.649
 7257SOL    HW122670   4.934   2.799   3.637
 7257SOL    HW222671   5.043   2.684   3.599
 7258SOL     OW22672   4.109   1.458   3.501
 7258SOL    HW122673   4.023   1.488   3.541
 7258SOL    HW222674   4.139   1.374   3.545
 7259SOL     OW22675   3.796   3.893   1.590
 7259SOL    HW122676   3.777   3.922   1.496
 7259SOL    HW222677   3.803   3.793   1.593
 7260SOL     OW22678   3.095   2.116   2.954
 7260SOL    HW122679   3.193   2.107   2.935
 7260SOL    HW222680   3.059   2.195   2.904
 7261SOL     OW22681   2.692   3.034   0.930
 7261SOL    HW122682   2.710   2.999   1.021
 7261SOL    HW222683   2.681   3.134   0.934
 7262SOL     OW22684   5.302   1.982   4.389
 7262SOL    HW122685   5.299   1.929   4.304
 7262SOL    HW222686   5.311   2.079   4.367
 7263SOL     OW22687   0.344   6.030   2.525
 7263SOL    HW122688   0.250   5.994   2.523
 7263SOL    HW222689   0.382   6.019   2.616
 7264SOL     OW22690   6.335   1.485   6.994
 7264SOL    HW122691   6.316   1.494   6.896
 7264SOL    HW222692   6.335   1.388   7.018
 7265SOL     OW22693   5.907   5.181   5.775
 7265SOL    HW122694   5.911   5.091   5.820
 7265SOL    HW222695   5.849   5.175   5.694
 7266SOL     OW22696   3.906   0.476   0.930
 7266SOL    HW122697   3.901   0.440   1.023
 7266SOL    HW222698   3.822   0.527   0.909
 7267SOL     OW22699   6.928   5.211   5.429
 7267SOL    HW122700   6.981   5.127   5.414
 7267SOL    HW222701   6.864   5.197   5.504
 7268SOL     OW22702   4.557   4.951   3.479
 7268SOL    HW122703   4.476   4.971   3.424
 7268SOL    HW222704   4.531   4.947   3.575
 7269SOL     OW22705   0.020   5.973   1.286
 7269SOL    HW122706   6.988   5.901   1.321
 7269SOL    HW222707   0.074   5.937   1.210
 7270SOL     OW22708   1.139   2.431   3.708
 7270SOL    HW122709   1.224   2.420   3.760
 7270SOL    HW222710   1.090   2.343   3.706
 7271SOL     OW22711   0.302   4.780   3.561
 7271SOL    HW122712   0.344   4.717   3.496
 7271SOL    HW222713   0.309   4.742   3.653
 7272SOL     OW22714   5.977   4.287   2.200
 7272SOL    HW122715   5.926   4.256   2.119
 7272SOL    HW222716   6.075   4.274   2.185
 7273SOL     OW22717   5.625   4.352   1.998
 7273SOL    HW122718   5.698   4.305   1.948
 7273SOL    HW222719   5.537   4.313   1.972
 7274SOL     OW22720   0.405   6.791   5.955
 7274SOL    HW122721   0.346   6.768   6.033
 7274SOL    HW222722   0.489   6.737   5.960
 7275SOL     OW22723   6.857   0.763   1.401
 7275SOL    HW122724   6.846   0.847   1.347
 7275SOL    HW222725   6.772   0.743   1.449
 7276SOL     OW22726   3.455   1.352   3.764
 7276SOL    HW122727   3.548   1.327   3.791
 7276SOL    HW222728   3.446   1.452   3.765
 7277SOL     OW22729   5.790   0.754   5.147
 7277SOL    HW122730   5.726   0.812   5.196
 7277SOL    HW222731   5.749   0.724   5.060
 7278SOL     OW22732   3.642   2.096   3.298
 7278SOL    HW122733   3.723   2.137   3.256
 7278SOL    HW222734   3.599   2.033   3.234
 7279SOL     OW22735   4.342   3.720   6.488
 7279SOL    HW122736   4.325   3.666   6.406
 7279SOL    HW222737   4.261   3.775   6.510
 7280SOL     OW22738   6.058   2.354   5.166
 7280SOL    HW122739   6.013   2.270   5.139
 7280SOL    HW222740   5.996   2.410   5.222
 7281SOL     OW22741   2.887   7.004   0.462
 7281SOL    HW122742   2.834   0.055   0.494
 7281SOL    HW222743   2.850   6.973   0.374
 7282SOL     OW22744   6.776   6.121   1.144
 7282SOL    HW122745   6.846   6.089   1.207
 7282SOL    HW222746   6.712   6.181   1.192
 7283SOL     OW22747   2.384   6.535   2.162
 7283SOL    HW122748   2.401   6.625   2.122
 7283SOL    HW222749   2.321   6.544   2.239
 7284SOL     OW22750   6.527   2.702   4.135
 7284SOL    HW122751   6.543   2.780   4.074
 7284SOL    HW222752   6.607   2.688   4.193
 7285SOL     OW22753   5.308   3.721   1.781
 7285SOL    HW122754   5.217   3.726   1.821
 7285SOL    HW222755   5.363   3.653   1.829
 7286SOL     OW22756   1.017   1.272   0.741
 7286SOL    HW122757   1.113   1.247   0.724
 7286SOL    HW222758   0.962   1.246   0.662
 7287SOL     OW22759   6.516   3.086   4.224
 7287SOL    HW122760   6.489   3.173   4.183
 7287SOL    HW222761   6.441   3.021   4.217
 7288SOL     OW22762   1.536   2.780   2.153
 7288SOL    HW122763   1.522   2.852   2.086
 7288SOL    HW222764   1.478   2.701   2.132
 7289SOL     OW22765   6.125   3.006   2.103
 7289SOL    HW122766   6.125   3.052   2.015
 7289SOL    HW222767   6.216   3.010   2.144
 7290SOL     OW22768   3.048   1.109   5.065
 7290SOL    HW122769   3.112   1.105   5.141
 7290SOL    HW222770   3.018   1.203   5.052
 7291SOL     OW22771   3.862   6.812   0.557
 7291SOL    HW122772   3.942   6.870   0.573
 7291SOL    HW222773   3.779   6.866   0.565
 7292SOL     OW22774   1.821   6.942   3.232
 7292SOL    HW122775   1.734   6.895   3.250
 7292SOL    HW222776   1.832   6.956   3.134
 7293SOL     OW22777   1.868   1.199   6.305
 7293SOL    HW122778   1.892   1.103   6.319
 7293SOL    HW222779   1.948   1.256   6.322
 7294SOL     OW22780   3.133   4.314   1.273
 7294SOL    HW122781   3.122   4.376   1.195
 7294SOL    HW222782   3.132   4.219   1.240
 7295SOL     OW22783   6.565   4.153   1.043
 7295SOL    HW122784   6.661   4.163   1.017
 7295SOL    HW222785   6.512   4.229   1.006
 7296SOL     OW22786   3.823   4.931   2.969
 7296SOL    HW122787   3.889   4.978   2.912
 7296SOL    HW222788   3.861   4.919   3.061
 7297SOL     OW22789   2.842   6.805   2.583
 7297SOL    HW122790   2.769   6.754   2.629
 7297SOL    HW222791   2.805   6.850   2.502
 7298SOL     OW22792   5.183   5.311   0.037
 7298SOL    HW122793   5.232   5.228   0.064
 7298SOL    HW222794   5.247   5.376   7.024
 7299SOL     OW22795   0.496   1.329   0.918
 7299SOL    HW122796   0.536   1.341   0.827
 7299SOL    HW222797   0.513   1.235   0.949
 7300SOL     OW22798   1.195   5.033   1.978
 7300SOL    HW122799   1.188   4.954   1.917
 7300SOL    HW222800   1.281   5.029   2.028
 7301SOL     OW22801   6.812   0.727   5.339
 7301SOL    HW122802   6.849   0.820   5.330
 7301SOL    HW222803   6.718   0.726   5.306
 7302SOL     OW22804   6.684   1.806   4.929
 7302SOL    HW122805   6.694   1.719   4.880
 7302SOL    HW222806   6.592   1.811   4.969
 7303SOL     OW22807   3.298   1.250   6.942
 7303SOL    HW122808   3.312   1.314   7.017
 7303SOL    HW222809   3.317   1.296   6.855
 7304SOL     OW22810   2.058   5.285   1.661
 7304SOL    HW122811   2.109   5.351   1.717
 7304SOL    HW222812   2.075   5.192   1.696
 7305SOL     OW22813   5.331   2.637   1.435
 7305SOL    HW122814   5.332   2.540   1.456
 7305SOL    HW222815   5.424   2.674   1.442
 7306SOL     OW22816   3.867   1.833   2.179
 7306SOL    HW122817   3.770   1.810   2.169
 7306SOL    HW222818   3.885   1.919   2.131
 7307SOL     OW22819   3.902   6.832   2.719
 7307SOL    HW122820   3.910   6.734   2.732
 7307SOL    HW222821   3.829   6.852   2.653
 7308SOL     OW22822   6.910   1.522   3.394
 7308SOL    HW122823   6.882   1.509   3.299
 7308SOL    HW222824   6.839   1.573   3.443
 7309SOL     OW22825   2.091   6.280   2.388
 7309SOL    HW122826   1.997   6.248   2.373
 7309SOL    HW222827   2.121   6.251   2.479
 7310SOL     OW22828   1.166   3.479   6.406
 7310SOL    HW122829   1.225   3.556   6.380
 7310SOL    HW222830   1.201   3.395   6.364
 7311SOL     OW22831   0.980   0.425   0.504
 7311SOL    HW122832   1.049   0.496   0.489
 7311SOL    HW222833   1.025   0.338   0.522
 7312SOL     OW22834   0.691   1.131   5.067
 7312SOL    HW122835   0.647   1.219   5.081
 7312SOL    HW222836   0.671   1.098   4.975
 7313SOL     OW22837   2.714   1.515   0.823
 7313SOL    HW122838   2.620   1.521   0.788
 7313SOL    HW222839   2.774   1.479   0.752
 7314SOL     OW22840   0.170   3.423   6.595
 7314SOL    HW122841   0.136   3.509   6.558
 7314SOL    HW222842   0.108   3.348   6.570
 7315SOL     OW22843   6.021   5.572   2.783
 7315SOL    HW122844   5.989   5.590   2.876
 7315SOL    HW222845   5.997   5.478   2.757
 7316SOL     OW22846   3.344   2.086   5.933
 7316SOL    HW122847   3.260   2.106   5.882
 7316SOL    HW222848   3.335   2.120   6.026
 7317SOL     OW22849   3.709   1.370   2.127
 7317SOL    HW122850   3.653   1.446   2.094
 7317SOL    HW222851   3.805   1.398   2.129
 7318SOL     OW22852   3.676   6.643   2.528
 7318SOL    HW122853   3.607   6.607   2.466
 7318SOL    HW222854   3.767   6.614   2.498
 7319SOL     OW22855   6.360   2.854   6.283
 7319SOL    HW122856   6.382   2.862   6.186
 7319SOL    HW222857   6.330   2.942   6.318
 7320SOL     OW22858   0.187   3.931   0.912
 7320SOL    HW122859   0.109   3.967   0.965
 7320SOL    HW222860   0.190   3.832   0.922
 7321SOL     OW22861   1.667   6.282   6.077
 7321SOL    HW122862   1.746   6.267   6.017
 7321SOL    HW222863   1.584   6.293   6.022
 7322SOL     OW22864   0.407   2.852   3.060
 7322SOL    HW122865   0.452   2.937   3.088
 7322SOL    HW222866   0.425   2.836   2.963
 7323SOL     OW22867   3.138   1.756   1.167
 7323SOL    HW122868   3.085   1.739   1.084
 7323SOL    HW222869   3.076   1.762   1.245
 7324SOL     OW22870   6.265   4.504   2.539
 7324SOL    HW122871   6.302   4.442   2.470
 7324SOL    HW222872   6.329   4.510   2.616
 7325SOL     OW22873   2.806   0.283   5.886
 7325SOL    HW122874   2.737   0.240   5.944
 7325SOL    HW222875   2.860   0.348   5.941
 7326SOL     OW22876   4.554   0.575   6.279
 7326SOL    HW122877   4.473   0.582   6.221
 7326SOL    HW222878   4.539   0.625   6.364
 7327SOL     OW22879   5.815   4.016   3.798
 7327SOL    HW122880   5.819   3.918   3.779
 7327SOL    HW222881   5.885   4.040   3.866
 7328SOL     OW22882   4.122   6.046   5.495
 7328SOL    HW122883   4.031   6.017   5.465
 7328SOL    HW222884   4.114   6.126   5.555
 7329SOL     OW22885   1.208   2.460   6.763
 7329SOL    HW122886   1.221   2.549   6.720
 7329SOL    HW222887   1.121   2.420   6.733
 7330SOL     OW22888   3.025   3.271   1.133
 7330SOL    HW122889   3.032   3.172   1.133
 7330SOL    HW222890   3.110   3.311   1.099
 7331SOL     OW22891   4.831   0.238   1.945
 7331SOL    HW122892   4.749   0.244   2.003
 7331SOL    HW222893   4.851   0.141   1.926
 7332SOL     OW22894   3.849   4.539   0.009
 7332SOL    HW122895   3.783   4.598   0.056
 7332SOL    HW222896   3.800   4.464   6.992
 7333SOL     OW22897   5.899   3.296   3.150
 7333SOL    HW122898   5.822   3.250   3.193
 7333SOL    HW222899   5.956   3.229   3.103
 7334SOL     OW22900   3.153   5.993   6.009
 7334SOL    HW122901   3.173   6.078   5.958
 7334SOL    HW222902   3.102   6.015   6.091
 7335SOL     OW22903   0.519   3.456   2.843
 7335SOL    HW122904   0.448   3.524   2.822
 7335SOL    HW222905   0.511   3.429   2.939
 7336SOL     OW22906   2.460   6.358   1.515
 7336SOL    HW122907   2.534   6.322   1.459
 7336SOL    HW222908   2.497   6.419   1.585
 7337SOL     OW22909   3.312   2.996   1.695
 7337SOL    HW122910   3.233   2.999   1.633
 7337SOL    HW222911   3.335   2.901   1.715
 7338SOL     OW22912   6.256   2.167   1.669
 7338SOL    HW122913   6.262   2.266   1.680
 7338SOL    HW222914   6.333   2.135   1.615
 7339SOL     OW22915   0.312   6.498   5.900
 7339SOL    HW122916   0.277   6.583   5.859
 7339SOL    HW222917   0.402   6.515   5.940
 7340SOL     OW22918   3.923   1.640   6.836
 7340SOL    HW122919   3.923   1.557   6.892
 7340SOL    HW222920   3.982   1.709   6.878
 7341SOL     OW22921   1.759   5.301   4.705
 7341SOL    HW122922   1.759   5.275   4.802
 7341SOL    HW222923   1.668   5.337   4.681
 7342SOL     OW22924   6.614   0.078   0.591
 7342SOL    HW122925   6.679   0.124   0.652
 7342SOL    HW222926   6.659   0.053   0.506
 7343SOL     OW22927   5.689   3.604   2.082
 7343SOL    HW122928   5.770   3.628   2.029
 7343SOL    HW222929   5.617   3.573   2.019
 7344SOL     OW22930   1.808   0.010   6.547
 7344SOL    HW122931   1.881   0.078   6.545
 7344SOL    HW222932   1.725   0.048   6.507
 7345SOL     OW22933   4.323   5.385   6.163
 7345SOL    HW122934   4.231   5.350   6.143
 7345SOL    HW222935   4.336   5.388   6.263
 7346SOL     OW22936   4.280   3.790   1.220
 7346SOL    HW122937   4.307   3.871   1.272
 7346SOL    HW222938   4.352   3.766   1.156
 7347SOL     OW22939   6.924   2.688   1.934
 7347SOL    HW122940   6.965   2.742   2.008
 7347SOL    HW222941   6.887   2.603   1.971
 7348SOL     OW22942   1.644   4.059   3.485
 7348SOL    HW122943   1.583   4.001   3.430
 7348SOL    HW222944   1.739   4.040   3.460
 7349SOL     OW22945   3.788   1.820   1.543
 7349SOL    HW122946   3.854   1.895   1.546
 7349SOL    HW222947   3.697   1.855   1.565
 7350SOL     OW22948   0.314   3.003   3.721
 7350SOL    HW122949   0.350   3.084   3.674
 7350SOL    HW222950   0.389   2.954   3.766
 7351SOL     OW22951   3.990   4.856   6.669
 7351SOL    HW122952   4.068   4.913   6.694
 7351SOL    HW222953   3.976   4.786   6.738
 7352SOL     OW22954   1.609   2.117   3.524
 7352SOL    HW122955   1.600   2.214   3.501
 7352SOL    HW222956   1.679   2.107   3.595
 7353SOL     OW22957   0.675   1.468   5.479
 7353SOL    HW122958   0.768   1.430   5.478
 7353SOL    HW222959   0.622   1.424   5.551
 7354SOL     OW22960   0.449   0.667   6.379
 7354SOL    HW122961   0.363   0.637   6.338
 7354SOL    HW222962   0.469   0.609   6.458
 7355SOL     OW22963   1.652   6.222   0.397
 7355SOL    HW122964   1.638   6.306   0.449
 7355SOL    HW222965   1.624   6.144   0.452
 7356SOL     OW22966   5.225   2.593   6.571
 7356SOL    HW122967   5.262   2.514   6.523
 7356SOL    HW222968   5.246   2.585   6.669
 7357SOL     OW22969   4.604   1.022   1.377
 7357SOL    HW122970   4.536   1.047   1.446
 7357SOL    HW222971   4.570   0.945   1.323
 7358SOL     OW22972   2.496   1.924   2.735
 7358SOL    HW122973   2.397   1.906   2.729
 7358SOL    HW222974   2.514   2.020   2.714
 7359SOL     OW22975   3.325   2.522   0.932
 7359SOL    HW122976   3.421   2.528   0.906
 7359SOL    HW222977   3.284   2.614   0.927
 7360SOL     OW22978   2.467   2.073   5.037
 7360SOL    HW122979   2.483   2.122   5.123
 7360SOL    HW222980   2.551   2.028   5.008
 7361SOL     OW22981   4.557   6.273   2.164
 7361SOL    HW122982   4.582   6.278   2.067
 7361SOL    HW222983   4.574   6.181   2.198
 7362SOL     OW22984   0.435   6.726   4.759
 7362SOL    HW122985   0.375   6.669   4.815
 7362SOL    HW222986   0.387   6.810   4.733
 7363SOL     OW22987   4.796   2.020   0.355
 7363SOL    HW122988   4.723   1.960   0.388
 7363SOL    HW222989   4.880   1.968   0.341
 7364SOL     OW22990   4.090   6.897   1.563
 7364SOL    HW122991   4.153   6.846   1.504
 7364SOL    HW222992   4.099   6.995   1.545
 7365SOL     OW22993   1.868   5.971   2.290
 7365SOL    HW122994   1.836   6.057   2.251
 7365SOL    HW222995   1.911   5.988   2.379
 7366SOL     OW22996   1.045   5.526   0.207
 7366SOL    HW122997   1.022   5.450   0.268
 7366SOL    HW222998   1.120   5.578   0.248
 7367SOL     OW22999   4.602   3.776   1.113
 7367SOL    HW123000   4.637   3.778   1.206
 7367SOL    HW223001   4.578   3.682   1.088
 7368SOL     OW23002   3.230   3.008   4.017
 7368SOL    HW123003   3.194   3.019   3.924
 7368SOL    HW223004   3.154   3.000   4.081
 7369SOL     OW23005   4.829   3.408   0.697
 7369SOL    HW123006   4.802   3.384   0.603
 7369SOL    HW223007   4.927   3.426   0.699
 7370SOL     OW23008   2.353   0.380   6.381
 7370SOL    HW123009   2.445   0.365   6.346
 7370SOL    HW223010   2.311   0.458   6.334
 7371SOL     OW23011   3.039   5.736   4.426
 7371SOL    HW123012   3.060   5.810   4.490
 7371SOL    HW223013   3.124   5.699   4.389
 7372SOL     OW23014   3.201   0.632   5.349
 7372SOL    HW123015   3.243   0.723   5.350
 7372SOL    HW223016   3.174   0.606   5.441
 7373SOL     OW23017   4.604   1.685   3.748
 7373SOL    HW123018   4.569   1.599   3.712
 7373SOL    HW223019   4.580   1.760   3.686
 7374SOL     OW23020   2.609   2.467   5.414
 7374SOL    HW123021   2.633   2.552   5.368
 7374SOL    HW223022   2.681   2.399   5.399
 7375SOL     OW23023   1.425   2.322   3.781
 7375SOL    HW123024   1.470   2.353   3.697
 7375SOL    HW223025   1.491   2.320   3.856
 7376SOL     OW23026   3.539   2.436   0.193
 7376SOL    HW123027   3.472   2.464   0.262
 7376SOL    HW223028   3.511   2.468   0.103
 7377SOL     OW23029   4.591   6.001   1.961
 7377SOL    HW123030   4.598   6.091   1.919
 7377SOL    HW223031   4.682   5.971   1.992
 7378SOL     OW23032   0.051   2.032   4.235
 7378SOL    HW123033   0.013   2.032   4.328
 7378SOL    HW223034   0.096   2.120   4.218
 7379SOL     OW23035   4.153   1.814   3.016
 7379SOL    HW123036   4.162   1.785   3.112
 7379SOL    HW223037   4.179   1.910   3.008
 7380SOL     OW23038   7.019   3.046   5.482
 7380SOL    HW123039   0.027   3.083   5.397
 7380SOL    HW223040   0.035   3.089   5.560
 7381SOL     OW23041   4.922   2.985   2.364
 7381SOL    HW123042   4.982   3.003   2.442
 7381SOL    HW223043   4.941   3.050   2.291
 7382SOL     OW23044   6.996   5.602   5.060
 7382SOL    HW123045   6.983   5.536   5.134
 7382SOL    HW223046   6.951   5.569   4.978
 7383SOL     OW23047   0.052   6.793   2.884
 7383SOL    HW123048   7.010   6.794   2.813
 7383SOL    HW223049   0.125   6.856   2.859
 7384SOL     OW23050   5.098   0.864   2.219
 7384SOL    HW123051   5.036   0.843   2.294
 7384SOL    HW223052   5.048   0.864   2.133
 7385SOL     OW23053   3.919   6.551   2.460
 7385SOL    HW123054   3.989   6.566   2.530
 7385SOL    HW223055   3.930   6.460   2.421
 7386SOL     OW23056   0.372   2.698   5.459
 7386SOL    HW123057   0.391   2.600   5.454
 7386SOL    HW223058   0.339   2.730   5.370
 7387SOL     OW23059   4.437   6.641   4.931
 7387SOL    HW123060   4.427   6.583   4.851
 7387SOL    HW223061   4.364   6.709   4.933
 7388SOL     OW23062   6.883   6.104   4.055
 7388SOL    HW123063   6.880   6.154   3.968
 7388SOL    HW223064   6.809   6.136   4.114
 7389SOL     OW23065   1.022   4.739   6.668
 7389SOL    HW123066   1.068   4.755   6.755
 7389SOL    HW223067   1.000   4.641   6.660
 7390SOL     OW23068   1.667   1.742   6.583
 7390SOL    HW123069   1.733   1.794   6.637
 7390SOL    HW223070   1.599   1.804   6.544
 7391SOL     OW23071   4.638   4.291   5.238
 7391SOL    HW123072   4.650   4.232   5.158
 7391SOL    HW223073   4.728   4.314   5.275
 7392SOL     OW23074   2.836   6.366   6.566
 7392SOL    HW123075   2.818   6.275   6.528
 7392SOL    HW223076   2.930   6.393   6.546
 7393SOL     OW23077   6.063   5.561   1.426
 7393SOL    HW123078   6.123   5.621   1.478
 7393SOL    HW223079   6.046   5.601   1.336
 7394SOL     OW23080   3.052   2.649   6.097
 7394SOL    HW123081   2.988   2.580   6.130
 7394SOL    HW223082   3.006   2.709   6.031
 7395SOL     OW23083   1.170   0.923   0.057
 7395SOL    HW123084   1.139   0.846   0.113
 7395SOL    HW223085   1.179   1.005   0.114
 7396SOL     OW23086   1.225   0.974   6.826
 7396SOL    HW123087   1.287   1.052   6.817
 7396SOL    HW223088   1.213   0.951   6.923
 7397SOL     OW23089   5.491   5.157   4.485
 7397SOL    HW123090   5.526   5.089   4.548
 7397SOL    HW223091   5.392   5.166   4.497
 7398SOL     OW23092   3.263   4.896   4.246
 7398SOL    HW123093   3.189   4.836   4.276
 7398SOL    HW223094   3.251   4.918   4.149
 7399SOL     OW23095   0.389   3.627   5.388
 7399SOL    HW123096   0.471   3.573   5.368
 7399SOL    HW223097   0.319   3.568   5.428
 7400SOL     OW23098   3.382   4.006   0.031
 7400SOL    HW123099   3.426   4.092   0.054
 7400SOL    HW223100   3.445   3.950   7.005
 7401SOL     OW23101   0.772   1.399   3.369
 7401SOL    HW123102   0.694   1.336   3.375
 7401SOL    HW223103   0.806   1.401   3.275
 7402SOL     OW23104   1.887   6.232   4.340
 7402SOL    HW123105   1.853   6.283   4.419
 7402SOL    HW223106   1.882   6.291   4.258
 7403SOL     OW23107   1.841   3.293   2.988
 7403SOL    HW123108   1.932   3.251   2.995
 7403SOL    HW223109   1.791   3.250   2.913
 7404SOL     OW23110   2.081   5.935   1.666
 7404SOL    HW123111   2.066   5.945   1.764
 7404SOL    HW223112   2.160   5.990   1.639
 7405SOL     OW23113   1.429   5.201   4.564
 7405SOL    HW123114   1.475   5.288   4.551
 7405SOL    HW223115   1.402   5.192   4.660
 7406SOL     OW23116   1.657   3.964   2.297
 7406SOL    HW123117   1.580   3.977   2.358
 7406SOL    HW223118   1.738   4.011   2.334
 7407SOL     OW23119   0.360   6.322   4.834
 7407SOL    HW123120   0.326   6.237   4.793
 7407SOL    HW223121   0.385   6.305   4.929
 7408SOL     OW23122   0.968   4.350   5.294
 7408SOL    HW123123   0.958   4.305   5.205
 7408SOL    HW223124   1.010   4.440   5.281
 7409SOL     OW23125   0.212   0.735   4.336
 7409SOL    HW123126   0.131   0.697   4.382
 7409SOL    HW223127   0.184   0.807   4.273
 7410SOL     OW23128   6.755   4.972   0.798
 7410SOL    HW123129   6.788   4.962   0.892
 7410SOL    HW223130   6.826   4.941   0.735
 7411SOL     OW23131   3.093   6.581   4.470
 7411SOL    HW123132   3.162   6.597   4.541
 7411SOL    HW223133   3.126   6.618   4.383
 7412SOL     OW23134   4.076   1.348   1.384
 7412SOL    HW123135   4.092   1.444   1.406
 7412SOL    HW223136   4.140   1.319   1.312
 7413SOL     OW23137   0.160   4.811   3.988
 7413SOL    HW123138   0.084   4.757   3.952
 7413SOL    HW223139   0.173   4.892   3.932
 7414SOL     OW23140   0.289   0.466   3.018
 7414SOL    HW123141   0.302   0.367   3.027
 7414SOL    HW223142   0.287   0.491   2.921
 7415SOL     OW23143   0.750   3.781   3.025
 7415SOL    HW123144   0.672   3.816   3.077
 7415SOL    HW223145   0.751   3.681   3.030
 7416SOL     OW23146   3.243   0.438   4.050
 7416SOL    HW123147   3.173   0.507   4.070
 7416SOL    HW223148   3.203   0.347   4.062
 7417SOL     OW23149   1.276   0.080   6.715
 7417SOL    HW123150   1.203   0.087   6.647
 7417SOL    HW223151   1.263   7.025   6.769
 7418SOL     OW23152   4.242   4.944   1.243
 7418SOL    HW123153   4.200   4.933   1.333
 7418SOL    HW223154   4.226   4.861   1.189
 7419SOL     OW23155   6.496   2.515   4.832
 7419SOL    HW123156   6.588   2.499   4.865
 7419SOL    HW223157   6.442   2.561   4.902
 7420SOL     OW23158   6.478   6.162   2.457
 7420SOL    HW123159   6.521   6.106   2.528
 7420SOL    HW223160   6.514   6.255   2.462
 7421SOL     OW23161   3.176   3.055   2.522
 7421SOL    HW123162   3.144   3.143   2.486
 7421SOL    HW223163   3.179   2.988   2.448
 7422SOL     OW23164   0.275   3.526   2.513
 7422SOL    HW123165   0.178   3.504   2.524
 7422SOL    HW223166   0.284   3.621   2.486
 7423SOL     OW23167   6.651   3.488   6.361
 7423SOL    HW123168   6.592   3.566   6.383
 7423SOL    HW223169   6.746   3.513   6.377
 7424SOL     OW23170   6.208   1.068   4.115
 7424SOL    HW123171   6.189   1.165   4.130
 7424SOL    HW223172   6.143   1.032   4.047
 7425SOL     OW23173   4.508   4.990   6.414
 7425SOL    HW123174   4.578   5.023   6.478
 7425SOL    HW223175   4.434   4.948   6.465
 7426SOL     OW23176   1.288   1.981   0.136
 7426SOL    HW123177   1.247   1.895   0.167
 7426SOL    HW223178   1.349   1.963   0.059
 7427SOL     OW23179   2.778   5.991   4.671
 7427SOL    HW123180   2.727   6.022   4.751
 7427SOL    HW223181   2.754   5.896   4.650
 7428SOL     OW23182   3.340   1.430   5.363
 7428SOL    HW123183   3.431   1.420   5.404
 7428SOL    HW223184   3.349   1.469   5.272
 7429SOL     OW23185   5.541   0.663   3.607
 7429SOL    HW123186   5.569   0.680   3.512
 7429SOL    HW223187   5.489   0.741   3.640
 7430SOL     OW23188   6.967   4.643   6.232
 7430SOL    HW123189   0.028   4.600   6.245
 7430SOL    HW223190   6.920   4.601   6.155
 7431SOL     OW23191   0.324   3.784   1.967
 7431SOL    HW123192   0.263   3.721   1.920
 7431SOL    HW223193   0.405   3.735   1.999
 7432SOL     OW23194   0.239   7.000   3.177
 7432SOL    HW123195   0.212   7.005   3.273
 7432SOL    HW223196   0.213   6.911   3.139
 7433SOL     OW23197   6.842   5.549   0.701
 7433SOL    HW123198   6.797   5.460   0.695
 7433SOL    HW223199   6.935   5.543   0.663
 7434SOL     OW23200   4.294   1.260   6.371
 7434SOL    HW123201   4.252   1.285   6.284
 7434SOL    HW223202   4.299   1.341   6.430
 7435SOL     OW23203   3.722   6.444   6.638
 7435SOL    HW123204   3.766   6.532   6.652
 7435SOL    HW223205   3.694   6.406   6.726
 7436SOL     OW23206   5.806   3.237   6.599
 7436SOL    HW123207   5.863   3.203   6.673
 7436SOL    HW223208   5.830   3.189   6.514
 7437SOL     OW23209   6.932   6.208   6.610
 7437SOL    HW123210   6.990   6.254   6.543
 7437SOL    HW223211   6.989   6.179   6.688
 7438SOL     OW23212   1.015   5.031   0.527
 7438SOL    HW123213   1.088   5.070   0.583
 7438SOL    HW223214   0.962   5.104   0.484
 7439SOL     OW23215   1.760   6.383   4.551
 7439SOL    HW123216   1.853   6.420   4.552
 7439SOL    HW223217   1.721   6.390   4.643
 7440SOL     OW23218   0.621   2.951   4.719
 7440SOL    HW123219   0.713   2.920   4.693
 7440SOL    HW223220   0.601   2.922   4.812
 7441SOL     OW23221   5.538   6.395   4.562
 7441SOL    HW123222   5.545   6.399   4.462
 7441SOL    HW223223   5.460   6.450   4.592
 7442SOL     OW23224   1.355   1.055   6.159
 7442SOL    HW123225   1.261   1.037   6.186
 7442SOL    HW223226   1.382   1.146   6.190
 7443SOL     OW23227   0.313   1.381   1.342
 7443SOL    HW123228   0.277   1.354   1.431
 7443SOL    HW223229   0.331   1.300   1.287
 7444SOL     OW23230   6.794   3.454   4.971
 7444SOL    HW123231   6.700   3.475   4.942
 7444SOL    HW223232   6.835   3.390   4.907
 7445SOL     OW23233   3.769   0.726   1.497
 7445SOL    HW123234   3.861   0.687   1.512
 7445SOL    HW223235   3.769   0.822   1.525
 7446SOL     OW23236   5.606   4.304   0.315
 7446SOL    HW123237   5.703   4.324   0.306
 7446SOL    HW223238   5.589   4.261   0.404
 7447SOL     OW23239   1.890   3.235   6.084
 7447SOL    HW123240   1.814   3.177   6.055
 7447SOL    HW223241   1.866   3.283   6.169
 7448SOL     OW23242   5.162   6.610   5.505
 7448SOL    HW123243   5.239   6.546   5.513
 7448SOL    HW223244   5.087   6.580   5.564
 7449SOL     OW23245   5.364   3.005   2.147
 7449SOL    HW123246   5.321   2.987   2.059
 7449SOL    HW223247   5.374   2.920   2.198
 7450SOL     OW23248   4.747   1.982   4.472
 7450SOL    HW123249   4.771   1.906   4.413
 7450SOL    HW223250   4.682   2.042   4.425
 7451SOL     OW23251   1.890   0.217   3.304
 7451SOL    HW123252   1.814   0.195   3.243
 7451SOL    HW223253   1.954   0.140   3.306
 7452SOL     OW23254   0.767   6.801   4.760
 7452SOL    HW123255   0.731   6.784   4.851
 7452SOL    HW223256   0.754   6.720   4.703
 7453SOL     OW23257   5.232   5.863   5.746
 7453SOL    HW123258   5.152   5.859   5.685
 7453SOL    HW223259   5.310   5.819   5.702
 7454SOL     OW23260   0.964   2.977   2.115
 7454SOL    HW123261   1.026   2.899   2.122
 7454SOL    HW223262   1.012   3.061   2.139
 7455SOL     OW23263   6.854   1.108   1.870
 7455SOL    HW123264   6.936   1.133   1.820
 7455SOL    HW223265   6.773   1.133   1.817
 7456SOL     OW23266   0.592   1.933   4.427
 7456SOL    HW123267   0.543   1.871   4.365
 7456SOL    HW223268   0.672   1.886   4.464
 7457SOL     OW23269   3.987   0.602   6.160
 7457SOL    HW123270   4.021   0.695   6.173
 7457SOL    HW223271   4.002   0.574   6.064
 7458SOL     OW23272   1.412   0.373   6.460
 7458SOL    HW123273   1.506   0.344   6.482
 7458SOL    HW223274   1.360   0.294   6.427
 7459SOL     OW23275   4.774   0.116   0.389
 7459SOL    HW123276   4.683   0.114   0.347
 7459SOL    HW223277   4.801   0.023   0.413
 7460SOL     OW23278   1.682   4.168   0.858
 7460SOL    HW123279   1.625   4.097   0.816
 7460SOL    HW223280   1.703   4.239   0.791
 7461SOL     OW23281   5.284   1.214   6.001
 7461SOL    HW123282   5.221   1.230   5.925
 7461SOL    HW223283   5.368   1.268   5.987
 7462SOL     OW23284   2.145   3.120   2.322
 7462SOL    HW123285   2.162   3.177   2.241
 7462SOL    HW223286   2.167   3.025   2.301
 7463SOL     OW23287   3.519   4.096   1.220
 7463SOL    HW123288   3.522   3.997   1.226
 7463SOL    HW223289   3.571   4.136   1.295
 7464SOL     OW23290   3.374   6.955   6.371
 7464SOL    HW123291   3.336   7.002   6.450
 7464SOL    HW223292   3.442   7.013   6.327
 7465SOL     OW23293   1.788   0.539   0.559
 7465SOL    HW123294   1.807   0.584   0.646
 7465SOL    HW223295   1.719   0.468   0.573
 7466SOL     OW23296   0.750   0.122   0.067
 7466SOL    HW123297   0.715   0.138   7.003
 7466SOL    HW223298   0.780   0.209   0.106
 7467SOL     OW23299   6.704   1.512   0.825
 7467SOL    HW123300   6.670   1.561   0.745
 7467SOL    HW223301   6.769   1.442   0.796
 7468SOL     OW23302   5.421   2.800   2.521
 7468SOL    HW123303   5.425   2.701   2.540
 7468SOL    HW223304   5.511   2.831   2.490
 7469SOL     OW23305   0.783   0.103   0.473
 7469SOL    HW123306   0.684   0.091   0.483
 7469SOL    HW223307   0.831   0.047   0.540
 7470SOL     OW23308   0.036   3.222   3.623
 7470SOL    HW123309   0.023   3.266   3.534
 7470SOL    HW223310   7.019   3.133   3.624
 7471SOL     OW23311   5.816   6.913   5.077
 7471SOL    HW123312   5.873   6.936   4.998
 7471SOL    HW223313   5.726   6.956   5.067
 7472SOL     OW23314   5.799   6.647   4.417
 7472SOL    HW123315   5.873   6.621   4.478
 7472SOL    HW223316   5.834   6.710   4.347
 7473SOL     OW23317   0.696   4.166   2.985
 7473SOL    HW123318   0.717   4.071   2.960
 7473SOL    HW223319   0.763   4.197   3.053
 7474SOL     OW23320   1.999   1.145   4.803
 7474SOL    HW123321   1.933   1.085   4.848
 7474SOL    HW223322   1.996   1.236   4.845
 7475SOL     OW23323   3.621   1.723   2.536
 7475SOL    HW123324   3.708   1.696   2.495
 7475SOL    HW223325   3.570   1.779   2.470
 7476SOL     OW23326   3.303   6.021   4.161
 7476SOL    HW123327   3.377   6.021   4.229
 7476SOL    HW223328   3.297   6.112   4.120
 7477SOL     OW23329   5.773   1.604   4.054
 7477SOL    HW123330   5.749   1.571   4.146
 7477SOL    HW223331   5.739   1.540   3.986
 7478SOL     OW23332   3.965   4.757   6.408
 7478SOL    HW123333   3.974   4.794   6.501
 7478SOL    HW223334   3.957   4.833   6.343
 7479SOL     OW23335   4.274   2.482   0.709
 7479SOL    HW123336   4.185   2.492   0.752
 7479SOL    HW223337   4.262   2.472   0.610
 7480SOL     OW23338   6.224   4.502   1.706
 7480SOL    HW123339   6.257   4.409   1.723
 7480SOL    HW223340   6.281   4.567   1.757
 7481SOL     OW23341   5.955   5.307   1.766
 7481SOL    HW123342   5.968   5.375   1.839
 7481SOL    HW223343   5.993   5.219   1.796
 7482SOL     OW23344   4.811   1.399   2.616
 7482SOL    HW123345   4.891   1.450   2.584
 7482SOL    HW223346   4.836   1.345   2.696
 7483SOL     OW23347   4.500   2.254   5.115
 7483SOL    HW123348   4.559   2.203   5.177
 7483SOL    HW223349   4.556   2.296   5.044
 7484SOL     OW23350   0.156   0.251   2.700
 7484SOL    HW123351   0.093   0.192   2.650
 7484SOL    HW223352   0.105   0.303   2.768
 7485SOL     OW23353   3.252   5.897   5.124
 7485SOL    HW123354   3.323   5.958   5.088
 7485SOL    HW223355   3.162   5.929   5.093
 7486SOL     OW23356   2.613   0.544   6.419
 7486SOL    HW123357   2.586   0.513   6.510
 7486SOL    HW223358   2.631   0.465   6.361
 7487SOL     OW23359   2.209   6.146   2.153
 7487SOL    HW123360   2.157   6.215   2.204
 7487SOL    HW223361   2.188   6.154   2.056
 7488SOL     OW23362   1.990   6.758   4.985
 7488SOL    HW123363   1.997   6.820   4.907
 7488SOL    HW223364   1.924   6.793   5.050
 7489SOL     OW23365   5.831   2.181   5.040
 7489SOL    HW123366   5.749   2.233   5.014
 7489SOL    HW223367   5.818   2.141   5.131
 7490SOL     OW23368   0.813   1.519   1.157
 7490SOL    HW123369   0.727   1.532   1.107
 7490SOL    HW223370   0.821   1.590   1.228
 7491SOL     OW23371   6.817   4.129   6.788
 7491SOL    HW123372   6.860   4.127   6.697
 7491SOL    HW223373   6.863   4.197   6.845
 7492SOL     OW23374   3.047   1.440   4.801
 7492SOL    HW123375   2.967   1.381   4.815
 7492SOL    HW223376   3.096   1.410   4.719
 7493SOL     OW23377   0.107   4.425   6.622
 7493SOL    HW123378   0.168   4.503   6.612
 7493SOL    HW223379   0.013   4.457   6.633
 7494SOL     OW23380   6.104   1.224   2.155
 7494SOL    HW123381   6.091   1.191   2.062
 7494SOL    HW223382   6.071   1.155   2.220
 7495SOL     OW23383   2.513   1.156   0.931
 7495SOL    HW123384   2.487   1.061   0.918
 7495SOL    HW223385   2.467   1.213   0.862
 7496SOL     OW23386   0.704   3.325   6.440
 7496SOL    HW123387   0.770   3.400   6.429
 7496SOL    HW223388   0.745   3.254   6.497
 7497SOL     OW23389   2.665   4.981   0.799
 7497SOL    HW123390   2.686   4.886   0.823
 7497SOL    HW223391   2.575   5.006   0.837
 7498SOL     OW23392   1.654   1.185   4.654
 7498SOL    HW123393   1.616   1.122   4.587
 7498SOL    HW223394   1.615   1.166   4.744
 7499SOL     OW23395   5.862   1.066   3.250
 7499SOL    HW123396   5.772   1.109   3.263
 7499SOL    HW223397   5.900   1.095   3.162
 7500SOL     OW23398   3.940   6.101   3.692
 7500SOL    HW123399   3.991   6.028   3.737
 7500SOL    HW223400   3.927   6.177   3.755
 7501SOL     OW23401   6.579   4.329   4.190
 7501SOL    HW123402   6.612   4.381   4.111
 7501SOL    HW223403   6.618   4.367   4.274
 7502SOL     OW23404   1.113   0.817   5.235
 7502SOL    HW123405   1.143   0.911   5.249
 7502SOL    HW223406   1.013   0.812   5.241
 7503SOL     OW23407   1.781   1.355   0.219
 7503SOL    HW123408   1.815   1.422   0.154
 7503SOL    HW223409   1.692   1.320   0.188
 7504SOL     OW23410   2.809   0.494   3.838
 7504SOL    HW123411   2.753   0.417   3.808
 7504SOL    HW223412   2.753   0.577   3.842
 7505SOL     OW23413   2.178   0.873   5.569
 7505SOL    HW123414   2.104   0.850   5.507
 7505SOL    HW223415   2.165   0.965   5.606
 7506SOL     OW23416   4.279   6.941   3.264
 7506SOL    HW123417   4.196   6.998   3.269
 7506SOL    HW223418   4.352   6.984   3.317
 7507SOL     OW23419   0.727   0.640   0.978
 7507SOL    HW123420   0.739   0.544   0.955
 7507SOL    HW223421   0.812   0.677   1.016
 7508SOL     OW23422   6.462   6.984   1.881
 7508SOL    HW123423   6.422   0.045   1.862
 7508SOL    HW223424   6.524   6.959   1.807
 7509SOL     OW23425   5.588   4.017   1.095
 7509SOL    HW123426   5.590   3.931   1.144
 7509SOL    HW223427   5.494   4.045   1.078
 7510SOL     OW23428   2.795   4.450   5.420
 7510SOL    HW123429   2.850   4.450   5.336
 7510SOL    HW223430   2.822   4.373   5.477
 7511SOL     OW23431   1.419   6.932   3.378
 7511SOL    HW123432   1.468   7.018   3.387
 7511SOL    HW223433   1.373   6.910   3.464
 7512SOL     OW23434   3.765   4.308   0.961
 7512SOL    HW123435   3.803   4.396   0.989
 7512SOL    HW223436   3.784   4.292   0.864
 7513SOL     OW23437   1.789   1.709   1.436
 7513SOL    HW123438   1.799   1.611   1.450
 7513SOL    HW223439   1.767   1.754   1.523
 7514SOL     OW23440   2.684   5.320   2.205
 7514SOL    HW123441   2.642   5.264   2.133
 7514SOL    HW223442   2.627   5.401   2.221
 7515SOL     OW23443   1.305   5.989   2.393
 7515SOL    HW123444   1.234   6.043   2.348
 7515SOL    HW223445   1.330   5.912   2.334
 7516SOL     OW23446   6.871   6.329   4.358
 7516SOL    HW123447   6.899   6.407   4.414
 7516SOL    HW223448   6.952   6.276   4.333
 7517SOL     OW23449   6.925   3.239   1.102
 7517SOL    HW123450   6.877   3.227   1.189
 7517SOL    HW223451   7.018   3.203   1.110
 7518SOL     OW23452   4.059   5.465   3.745
 7518SOL    HW123453   4.011   5.422   3.669
 7518SOL    HW223454   3.993   5.486   3.818
 7519SOL     OW23455   0.424   6.633   3.684
 7519SOL    HW123456   0.330   6.608   3.665
 7519SOL    HW223457   0.483   6.603   3.608
 7520SOL     OW23458   3.582   6.986   2.172
 7520SOL    HW123459   3.634   0.011   2.238
 7520SOL    HW223460   3.625   6.992   2.082
 7521SOL     OW23461   4.654   4.681   6.115
 7521SOL    HW123462   4.558   4.690   6.090
 7521SOL    HW223463   4.686   4.589   6.092
 7522SOL     OW23464   2.583   0.062   6.761
 7522SOL    HW123465   2.603   0.104   6.673
 7522SOL    HW223466   2.590   0.130   6.833
 7523SOL     OW23467   5.377   0.476   6.110
 7523SOL    HW123468   5.359   0.544   6.039
 7523SOL    HW223469   5.309   0.402   6.104
 7524SOL     OW23470   1.488   1.944   6.621
 7524SOL    HW123471   1.423   1.907   6.687
 7524SOL    HW223472   1.536   2.022   6.661
 7525SOL     OW23473   2.704   0.129   0.218
 7525SOL    HW123474   2.730   0.034   0.197
 7525SOL    HW223475   2.662   0.170   0.137
 7526SOL     OW23476   3.752   2.898   2.423
 7526SOL    HW123477   3.845   2.935   2.423
 7526SOL    HW223478   3.736   2.851   2.336
 7527SOL     OW23479   4.138   5.687   3.242
 7527SOL    HW123480   4.098   5.714   3.330
 7527SOL    HW223481   4.073   5.707   3.169
 7528SOL     OW23482   3.834   1.896   6.690
 7528SOL    HW123483   3.808   1.801   6.678
 7528SOL    HW223484   3.759   1.946   6.734
 7529SOL     OW23485   5.883   0.687   4.447
 7529SOL    HW123486   5.913   0.783   4.441
 7529SOL    HW223487   5.784   0.684   4.459
 7530SOL     OW23488   6.268   4.151   2.403
 7530SOL    HW123489   6.359   4.118   2.430
 7530SOL    HW223490   6.246   4.116   2.312
 7531SOL     OW23491   4.351   2.460   4.238
 7531SOL    HW123492   4.311   2.536   4.187
 7531SOL    HW223493   4.351   2.378   4.180
 7532SOL     OW23494   5.638   5.451   1.629
 7532SOL    HW123495   5.654   5.355   1.653
 7532SOL    HW223496   5.584   5.456   1.545
 7533SOL     OW23497   2.745   0.794   3.076
 7533SOL    HW123498   2.806   0.855   3.125
 7533SOL    HW223499   2.654   0.836   3.068
 7534SOL     OW23500   3.503   6.634   5.809
 7534SOL    HW123501   3.567   6.709   5.829
 7534SOL    HW223502   3.413   6.656   5.847
 7535SOL     OW23503   2.762   0.890   5.563
 7535SOL    HW123504   2.780   0.977   5.609
 7535SOL    HW223505   2.664   0.877   5.552
 7536SOL     OW23506   5.472   5.145   5.041
 7536SOL    HW123507   5.529   5.083   4.987
 7536SOL    HW223508   5.443   5.222   4.984
 7537SOL     OW23509   2.757   5.736   4.451
 7537SOL    HW123510   2.856   5.726   4.456
 7537SOL    HW223511   2.718   5.731   4.544
 7538SOL     OW23512   3.424   2.952   1.959
 7538SOL    HW123513   3.380   2.999   1.883
 7538SOL    HW223514   3.386   2.986   2.045
 7539SOL     OW23515   2.245   2.415   4.133
 7539SOL    HW123516   2.263   2.439   4.038
 7539SOL    HW223517   2.307   2.341   4.161
 7540SOL     OW23518   2.518   0.507   5.474
 7540SOL    HW123519   2.531   0.581   5.409
 7540SOL    HW223520   2.606   0.479   5.511
 7541SOL     OW23521   0.041   3.682   4.432
 7541SOL    HW123522   0.037   3.624   4.513
 7541SOL    HW223523   7.015   3.765   4.448
 7542SOL     OW23524   0.727   5.765   6.846
 7542SOL    HW123525   0.764   5.857   6.841
 7542SOL    HW223526   0.747   5.716   6.760
 7543SOL     OW23527   4.234   2.195   1.073
 7543SOL    HW123528   4.182   2.111   1.086
 7543SOL    HW223529   4.172   2.274   1.070
 7544SOL     OW23530   0.357   2.386   3.571
 7544SOL    HW123531   0.275   2.410   3.623
 7544SOL    HW223532   0.359   2.437   3.485
 7545SOL     OW23533   5.523   6.083   2.690
 7545SOL    HW123534   5.617   6.080   2.655
 7545SOL    HW223535   5.490   5.990   2.706
 7546SOL     OW23536   4.164   0.799   1.770
 7546SOL    HW123537   4.068   0.800   1.800
 7546SOL    HW223538   4.202   0.891   1.778
 7547SOL     OW23539   4.604   0.251   0.738
 7547SOL    HW123540   4.624   0.187   0.813
 7547SOL    HW223541   4.686   0.264   0.682
 7548SOL     OW23542   3.292   2.195   0.482
 7548SOL    HW123543   3.342   2.158   0.404
 7548SOL    HW223544   3.198   2.160   0.481
 7549SOL     OW23545   5.552   1.408   1.447
 7549SOL    HW123546   5.529   1.485   1.387
 7549SOL    HW223547   5.498   1.328   1.421
 7550SOL     OW23548   2.328   4.635   1.863
 7550SOL    HW123549   2.231   4.612   1.869
 7550SOL    HW223550   2.379   4.588   1.935
 7551SOL     OW23551   4.689   4.001   6.819
 7551SOL    HW123552   4.763   3.934   6.821
 7551SOL    HW223553   4.640   3.994   6.733
 7552SOL     OW23554   1.905   5.777   3.870
 7552SOL    HW123555   2.004   5.763   3.881
 7552SOL    HW223556   1.859   5.748   3.954
 7553SOL     OW23557   4.384   5.092   5.857
 7553SOL    HW123558   4.356   5.168   5.916
 7553SOL    HW223559   4.447   5.127   5.787
 7554SOL     OW23560   5.154   0.434   0.801
 7554SOL    HW123561   5.212   0.503   0.759
 7554SOL    HW223562   5.078   0.478   0.847
 7555SOL     OW23563   1.773   5.194   4.977
 7555SOL    HW123564   1.721   5.243   5.047
 7555SOL    HW223565   1.861   5.166   5.016
 7556SOL     OW23566   0.547   2.409   5.810
 7556SOL    HW123567   0.606   2.447   5.738
 7556SOL    HW223568   0.486   2.341   5.769
 7557SOL     OW23569   5.094   2.810   6.220
 7557SOL    HW123570   5.043   2.894   6.236
 7557SOL    HW223571   5.034   2.731   6.235
 7558SOL     OW23572   2.061   2.546   3.430
 7558SOL    HW123573   2.043   2.561   3.527
 7558SOL    HW223574   2.071   2.634   3.383
 7559SOL     OW23575   6.024   5.317   0.103
 7559SOL    HW123576   6.065   5.276   0.185
 7559SOL    HW223577   5.948   5.376   0.130
 7560SOL     OW23578   5.155   6.065   0.424
 7560SOL    HW123579   5.087   6.125   0.465
 7560SOL    HW223580   5.240   6.116   0.408
 7561SOL     OW23581   0.601   2.947   0.434
 7561SOL    HW123582   0.596   3.006   0.353
 7561SOL    HW223583   0.687   2.965   0.483
 7562SOL     OW23584   5.664   6.396   4.830
 7562SOL    HW123585   5.629   6.382   4.738
 7562SOL    HW223586   5.684   6.307   4.872
 7563SOL     OW23587   2.561   6.348   0.928
 7563SOL    HW123588   2.593   6.265   0.972
 7563SOL    HW223589   2.509   6.403   0.995
 7564SOL     OW23590   5.805   1.337   2.758
 7564SOL    HW123591   5.734   1.326   2.828
 7564SOL    HW223592   5.781   1.413   2.698
 7565SOL     OW23593   5.312   4.649   0.111
 7565SOL    HW123594   5.303   4.550   0.100
 7565SOL    HW223595   5.349   4.669   0.202
 7566SOL     OW23596   0.550   5.337   3.253
 7566SOL    HW123597   0.499   5.365   3.172
 7566SOL    HW223598   0.552   5.237   3.258
 7567SOL     OW23599   1.803   2.582   5.018
 7567SOL    HW123600   1.875   2.649   5.035
 7567SOL    HW223601   1.813   2.545   4.926
 7568SOL     OW23602   5.665   6.220   3.102
 7568SOL    HW123603   5.687   6.245   3.007
 7568SOL    HW223604   5.596   6.282   3.137
 7569SOL     OW23605   4.256   4.884   6.824
 7569SOL    HW123606   4.245   4.950   6.898
 7569SOL    HW223607   4.332   4.822   6.844
 7570SOL     OW23608   5.491   4.555   5.216
 7570SOL    HW123609   5.520   4.508   5.300
 7570SOL    HW223610   5.418   4.503   5.173
 7571SOL     OW23611   5.210   4.896   2.528
 7571SOL    HW123612   5.288   4.905   2.589
 7571SOL    HW223613   5.130   4.941   2.569
 7572SOL     OW23614   4.887   0.821   3.168
 7572SOL    HW123615   4.926   0.737   3.130
 7572SOL    HW223616   4.819   0.857   3.104
 7573SOL     OW23617   6.268   6.577   4.597
 7573SOL    HW123618   6.286   6.554   4.693
 7573SOL    HW223619   6.353   6.568   4.545
 7574SOL     OW23620   6.675   1.011   4.578
 7574SOL    HW123621   6.709   0.939   4.517
 7574SOL    HW223622   6.719   1.001   4.668
 7575SOL     OW23623   4.136   7.008   5.791
 7575SOL    HW123624   4.196   6.993   5.869
 7575SOL    HW223625   4.153   0.070   5.752
 7576SOL     OW23626   6.295   5.649   6.763
 7576SOL    HW123627   6.226   5.588   6.804
 7576SOL    HW223628   6.386   5.622   6.793
 7577SOL     OW23629   6.822   6.951   5.952
 7577SOL    HW123630   6.775   6.893   5.885
 7577SOL    HW223631   6.768   6.955   6.036
 7578SOL     OW23632   2.641   5.950   3.013
 7578SOL    HW123633   2.584   6.000   2.947
 7578SOL    HW223634   2.591   5.940   3.099
 7579SOL     OW23635   5.130   2.252   2.174
 7579SOL    HW123636   5.101   2.258   2.078
 7579SOL    HW223637   5.218   2.206   2.180
 7580SOL     OW23638   1.041   4.132   4.063
 7580SOL    HW123639   1.105   4.101   3.993
 7580SOL    HW223640   1.060   4.085   4.149
 7581SOL     OW23641   5.551   6.832   1.320
 7581SOL    HW123642   5.524   6.884   1.239
 7581SOL    HW223643   5.566   6.736   1.294
 7582SOL     OW23644   3.289   1.459   0.504
 7582SOL    HW123645   3.356   1.510   0.558
 7582SOL    HW223646   3.231   1.523   0.454
 7583SOL     OW23647   6.141   2.768   1.793
 7583SOL    HW123648   6.058   2.719   1.769
 7583SOL    HW223649   6.161   2.756   1.890
 7584SOL     OW23650   2.751   6.554   0.531
 7584SOL    HW123651   2.735   6.483   0.600
 7584SOL    HW223652   2.720   6.642   0.566
 7585SOL     OW23653   1.719   3.435   6.395
 7585SOL    HW123654   1.655   3.435   6.318
 7585SOL    HW223655   1.809   3.463   6.363
 7586SOL     OW23656   3.979   0.746   3.671
 7586SOL    HW123657   3.999   0.650   3.692
 7586SOL    HW223658   3.880   0.758   3.665
 7587SOL     OW23659   3.333   1.405   6.681
 7587SOL    HW123660   3.362   1.339   6.612
 7587SOL    HW223661   3.284   1.481   6.637
 7588SOL     OW23662   1.375   3.174   2.414
 7588SOL    HW123663   1.384   3.268   2.382
 7588SOL    HW223664   1.331   3.119   2.343
 7589SOL     OW23665   6.612   6.889   0.997
 7589SOL    HW123666   6.629   6.822   1.069
 7589SOL    HW223667   6.573   6.844   0.917
 7590SOL     OW23668   3.322   2.005   6.694
 7590SOL    HW123669   3.348   2.077   6.759
 7590SOL    HW223670   3.281   2.047   6.613
 7591SOL     OW23671   0.074   4.509   0.728
 7591SOL    HW123672   7.023   4.480   0.782
 7591SOL    HW223673   0.079   4.608   0.728
 7592SOL     OW23674   6.887   4.112   6.192
 7592SOL    HW123675   6.895   4.177   6.267
 7592SOL    HW223676   6.906   4.158   6.106
 7593SOL     OW23677   5.606   2.480   0.962
 7593SOL    HW123678   5.609   2.580   0.968
 7593SOL    HW223679   5.574   2.442   1.048
 7594SOL     OW23680   6.867   4.674   2.483
 7594SOL    HW123681   6.774   4.675   2.519
 7594SOL    HW223682   6.907   4.765   2.491
 7595SOL     OW23683   6.817   2.377   5.845
 7595SOL    HW123684   6.873   2.424   5.913
 7595SOL    HW223685   6.743   2.328   5.891
 7596SOL     OW23686   4.038   5.758   2.987
 7596SOL    HW123687   4.094   5.822   2.934
 7596SOL    HW223688   4.046   5.666   2.948
 7597SOL     OW23689   2.701   5.973   2.203
 7597SOL    HW123690   2.629   5.941   2.264
 7597SOL    HW223691   2.709   6.072   2.209
 7598SOL     OW23692   0.081   1.508   3.105
 7598SOL    HW123693   0.113   1.511   3.010
 7598SOL    HW223694   0.079   1.600   3.143
 7599SOL     OW23695   5.834   1.496   3.118
 7599SOL    HW123696   5.862   1.521   3.211
 7599SOL    HW223697   5.906   1.523   3.053
 7600SOL     OW23698   1.772   1.387   2.134
 7600SOL    HW123699   1.678   1.419   2.144
 7600SOL    HW223700   1.783   1.345   2.043
 7601SOL     OW23701   1.862   5.771   2.625
 7601SOL    HW123702   1.877   5.674   2.647
 7601SOL    HW223703   1.794   5.778   2.553
 7602SOL     OW23704   1.295   4.024   6.562
 7602SOL    HW123705   1.372   4.067   6.515
 7602SOL    HW223706   1.211   4.038   6.509
 7603SOL     OW23707   1.445   5.004   6.268
 7603SOL    HW123708   1.489   5.004   6.178
 7603SOL    HW223709   1.472   5.086   6.319
 7604SOL     OW23710   1.747   4.030   4.350
 7604SOL    HW123711   1.829   4.017   4.406
 7604SOL    HW223712   1.764   3.996   4.258
 7605SOL     OW23713   0.622   6.807   0.485
 7605SOL    HW123714   0.628   6.785   0.388
 7605SOL    HW223715   0.698   6.766   0.534
 7606SOL     OW23716   6.720   3.063   3.830
 7606SOL    HW123717   6.661   2.985   3.853
 7606SOL    HW223718   6.786   3.034   3.760
 7607SOL     OW23719   4.702   5.558   0.554
 7607SOL    HW123720   4.675   5.479   0.608
 7607SOL    HW223721   4.677   5.544   0.458
 7608SOL     OW23722   3.205   4.029   3.100
 7608SOL    HW123723   3.271   3.954   3.113
 7608SOL    HW223724   3.230   4.105   3.160
 7609SOL     OW23725   0.216   4.177   3.786
 7609SOL    HW123726   0.306   4.212   3.812
 7609SOL    HW223727   0.182   4.115   3.857
 7610SOL     OW23728   6.097   0.080   6.780
 7610SOL    HW123729   6.145   0.083   6.868
 7610SOL    HW223730   6.165   0.077   6.706
 7611SOL     OW23731   0.557   1.688   0.247
 7611SOL    HW123732   0.533   1.774   0.291
 7611SOL    HW223733   0.492   1.669   0.173
 7612SOL     OW23734   4.817   3.180   4.696
 7612SOL    HW123735   4.840   3.237   4.617
 7612SOL    HW223736   4.755   3.230   4.757
 7613SOL     OW23737   5.926   3.417   1.358
 7613SOL    HW123738   6.016   3.401   1.400
 7613SOL    HW223739   5.856   3.417   1.429
 7614SOL     OW23740   5.287   3.603   1.276
 7614SOL    HW123741   5.328   3.605   1.367
 7614SOL    HW223742   5.273   3.507   1.248
 7615SOL     OW23743   4.887   4.001   6.258
 7615SOL    HW123744   4.972   4.033   6.301
 7615SOL    HW223745   4.901   3.910   6.220
 7616SOL     OW23746   0.162   4.520   4.609
 7616SOL    HW123747   0.105   4.474   4.678
 7616SOL    HW223748   0.178   4.457   4.533
 7617SOL     OW23749   3.326   5.466   2.866
 7617SOL    HW123750   3.279   5.429   2.946
 7617SOL    HW223751   3.261   5.517   2.809
 7618SOL     OW23752   0.567   1.992   6.387
 7618SOL    HW123753   0.613   1.904   6.398
 7618SOL    HW223754   0.613   2.061   6.443
 7619SOL     OW23755   5.536   3.611   5.259
 7619SOL    HW123756   5.458   3.577   5.310
 7619SOL    HW223757   5.535   3.572   5.167
 7620SOL     OW23758   3.894   5.327   0.202
 7620SOL    HW123759   3.987   5.316   0.236
 7620SOL    HW223760   3.895   5.382   0.119
 7621SOL     OW23761   0.463   1.928   0.377
 7621SOL    HW123762   0.375   1.965   0.347
 7621SOL    HW223763   0.457   1.901   0.473
 7622SOL     OW23764   5.090   5.705   1.866
 7622SOL    HW123765   5.169   5.762   1.891
 7622SOL    HW223766   5.101   5.672   1.772
 7623SOL     OW23767   4.918   4.533   6.832
 7623SOL    HW123768   4.928   4.619   6.783
 7623SOL    HW223769   4.821   4.507   6.834
 7624SOL     OW23770   6.860   2.760   4.857
 7624SOL    HW123771   6.912   2.814   4.792
 7624SOL    HW223772   6.858   2.807   4.946
 7625SOL     OW23773   4.576   0.604   1.114
 7625SOL    HW123774   4.651   0.665   1.089
 7625SOL    HW223775   4.547   0.552   1.033
 7626SOL     OW23776   6.555   6.623   4.177
 7626SOL    HW123777   6.612   6.600   4.098
 7626SOL    HW223778   6.480   6.682   4.148
 7627SOL     OW23779   5.252   3.085   6.704
 7627SOL    HW123780   5.165   3.039   6.722
 7627SOL    HW223781   5.328   3.030   6.739
 7628SOL     OW23782   3.533   0.510   2.475
 7628SOL    HW123783   3.613   0.472   2.523
 7628SOL    HW223784   3.542   0.609   2.467
 7629SOL     OW23785   7.004   0.127   3.124
 7629SOL    HW123786   6.993   0.172   3.035
 7629SOL    HW223787   0.070   0.093   3.132
 7630SOL     OW23788   6.319   6.948   1.270
 7630SOL    HW123789   6.220   6.962   1.270
 7630SOL    HW223790   6.339   6.850   1.278
 7631SOL     OW23791   0.546   0.941   5.762
 7631SOL    HW123792   0.571   1.002   5.686
 7631SOL    HW223793   0.582   0.850   5.744
 7632SOL     OW23794   3.681   2.881   1.853
 7632SOL    HW123795   3.589   2.867   1.889
 7632SOL    HW223796   3.718   2.794   1.820
 7633SOL     OW23797   4.570   2.323   0.767
 7633SOL    HW123798   4.563   2.268   0.851
 7633SOL    HW223799   4.567   2.420   0.791
 7634SOL     OW23800   0.762   1.807   2.440
 7634SOL    HW123801   0.775   1.810   2.341
 7634SOL    HW223802   0.667   1.829   2.462
 7635SOL     OW23803   2.865   5.931   5.431
 7635SOL    HW123804   2.841   6.007   5.370
 7635SOL    HW223805   2.782   5.885   5.460
 7636SOL     OW23806   1.567   2.386   3.495
 7636SOL    HW123807   1.503   2.402   3.420
 7636SOL    HW223808   1.591   2.473   3.538
 7637SOL     OW23809   2.726   6.373   3.124
 7637SOL    HW123810   2.745   6.374   3.026
 7637SOL    HW223811   2.627   6.362   3.139
 7638SOL     OW23812   3.911   6.061   1.467
 7638SOL    HW123813   3.900   5.973   1.421
 7638SOL    HW223814   3.999   6.101   1.439
 7639SOL     OW23815   1.650   2.042   0.607
 7639SOL    HW123816   1.554   2.025   0.582
 7639SOL    HW223817   1.684   1.964   0.660
 7640SOL     OW23818   3.306   1.906   0.183
 7640SOL    HW123819   3.357   1.821   0.172
 7640SOL    HW223820   3.276   1.915   0.278
 7641SOL     OW23821   0.758   4.037   1.618
 7641SOL    HW123822   0.673   4.046   1.565
 7641SOL    HW223823   0.815   4.118   1.603
 7642SOL     OW23824   2.884   0.938   1.959
 7642SOL    HW123825   2.887   1.038   1.952
 7642SOL    HW223826   2.973   0.901   1.932
 7643SOL     OW23827   4.701   2.761   4.326
 7643SOL    HW123828   4.731   2.854   4.346
 7643SOL    HW223829   4.766   2.717   4.263
 7644SOL     OW23830   5.791   2.407   2.051
 7644SOL    HW123831   5.782   2.501   2.085
 7644SOL    HW223832   5.752   2.343   2.118
 7645SOL     OW23833   4.349   3.814   5.593
 7645SOL    HW123834   4.410   3.766   5.656
 7645SOL    HW223835   4.402   3.863   5.525
 7646SOL     OW23836   2.139   2.696   2.409
 7646SOL    HW123837   2.170   2.761   2.339
 7646SOL    HW223838   2.160   2.603   2.379
 7647SOL     OW23839   6.773   3.634   2.251
 7647SOL    HW123840   6.840   3.598   2.187
 7647SOL    HW223841   6.702   3.685   2.201
 7648SOL     OW23842   3.384   1.648   3.685
 7648SOL    HW123843   3.338   1.636   3.773
 7648SOL    HW223844   3.482   1.663   3.701
 7649SOL     OW23845   0.772   1.122   2.911
 7649SOL    HW123846   0.864   1.109   2.949
 7649SOL    HW223847   0.765   1.070   2.826
 7650SOL     OW23848   5.072   2.753   1.453
 7650SOL    HW123849   5.062   2.825   1.522
 7650SOL    HW223850   5.167   2.721   1.453
 7651SOL     OW23851   2.154   6.737   5.267
 7651SOL    HW123852   2.248   6.756   5.236
 7651SOL    HW223853   2.090   6.762   5.195
 7652SOL     OW23854   6.798   4.241   4.684
 7652SOL    HW123855   6.773   4.194   4.599
 7652SOL    HW223856   6.721   4.298   4.714
 7653SOL     OW23857   3.097   1.581   0.334
 7653SOL    HW123858   3.011   1.548   0.373
 7653SOL    HW223859   3.078   1.632   0.250
 7654SOL     OW23860   5.344   3.359   4.220
 7654SOL    HW123861   5.391   3.325   4.138
 7654SOL    HW223862   5.249   3.330   4.218
 7655SOL     OW23863   3.539   0.306   3.368
 7655SOL    HW123864   3.474   0.373   3.332
 7655SOL    HW223865   3.631   0.327   3.333
 7656SOL     OW23866   1.955   4.671   6.527
 7656SOL    HW123867   1.921   4.675   6.621
 7656SOL    HW223868   1.885   4.707   6.465
 7657SOL     OW23869   2.477   2.578   3.625
 7657SOL    HW123870   2.467   2.621   3.535
 7657SOL    HW223871   2.557   2.617   3.672
 7658SOL     OW23872   3.436   0.310   5.902
 7658SOL    HW123873   3.389   0.306   5.990
 7658SOL    HW223874   3.476   0.401   5.890
 7659SOL     OW23875   6.009   5.660   0.015
 7659SOL    HW123876   6.040   5.754   0.030
 7659SOL    HW223877   5.954   5.630   0.094
 7660SOL     OW23878   0.227   6.569   4.062
 7660SOL    HW123879   0.282   6.489   4.039
 7660SOL    HW223880   0.231   6.634   3.987
 7661SOL     OW23881   5.698   2.466   4.942
 7661SOL    HW123882   5.649   2.457   4.855
 7661SOL    HW223883   5.655   2.407   5.011
 7662SOL     OW23884   0.790   2.234   2.297
 7662SOL    HW123885   0.731   2.298   2.248
 7662SOL    HW223886   0.867   2.284   2.337
 7663SOL     OW23887   0.725   6.602   5.782
 7663SOL    HW123888   0.807   6.552   5.751
 7663SOL    HW223889   0.751   6.695   5.808
 7664SOL     OW23890   3.957   0.211   2.560
 7664SOL    HW123891   3.920   0.171   2.644
 7664SOL    HW223892   4.047   0.173   2.542
 7665SOL     OW23893   4.756   0.085   5.356
 7665SOL    HW123894   4.783   0.019   5.426
 7665SOL    HW223895   4.834   0.102   5.295
 7666SOL     OW23896   0.927   6.460   1.800
 7666SOL    HW123897   0.829   6.472   1.786
 7666SOL    HW223898   0.978   6.515   1.733
 7667SOL     OW23899   4.099   6.323   2.245
 7667SOL    HW123900   4.038   6.293   2.318
 7667SOL    HW223901   4.194   6.305   2.272
 7668SOL     OW23902   3.470   4.220   0.966
 7668SOL    HW123903   3.465   4.196   1.064
 7668SOL    HW223904   3.565   4.225   0.937
 7669SOL     OW23905   5.719   1.777   6.098
 7669SOL    HW123906   5.733   1.832   6.016
 7669SOL    HW223907   5.622   1.775   6.121
 7670SOL     OW23908   0.568   4.622   6.750
 7670SOL    HW123909   0.640   4.635   6.682
 7670SOL    HW223910   0.484   4.668   6.719
 7671SOL     OW23911   3.975   0.537   4.074
 7671SOL    HW123912   4.023   0.458   4.112
 7671SOL    HW223913   3.934   0.590   4.149
 7672SOL     OW23914   5.963   6.725   3.286
 7672SOL    HW123915   6.023   6.753   3.212
 7672SOL    HW223916   5.899   6.798   3.307
 7673SOL     OW23917   1.901   5.323   6.826
 7673SOL    HW123918   1.803   5.304   6.832
 7673SOL    HW223919   1.947   5.286   6.906
 7674SOL     OW23920   6.036   1.990   4.001
 7674SOL    HW123921   5.973   2.001   3.924
 7674SOL    HW223922   5.999   1.923   4.066
 7675SOL     OW23923   5.239   6.807   2.541
 7675SOL    HW123924   5.226   6.765   2.630
 7675SOL    HW223925   5.157   6.859   2.515
 7676SOL     OW23926   2.004   1.794   0.181
 7676SOL    HW123927   2.089   1.846   0.181
 7676SOL    HW223928   1.926   1.855   0.166
 7677SOL     OW23929   0.249   4.010   2.165
 7677SOL    HW123930   0.340   3.973   2.151
 7677SOL    HW223931   0.236   4.091   2.107
 7678SOL     OW23932   2.294   1.437   4.721
 7678SOL    HW123933   2.359   1.421   4.646
 7678SOL    HW223934   2.328   1.512   4.778
 7679SOL     OW23935   2.824   5.841   6.411
 7679SOL    HW123936   2.876   5.765   6.449
 7679SOL    HW223937   2.726   5.819   6.411
 7680SOL     OW23938   1.705   1.632   0.276
 7680SOL    HW123939   1.730   1.538   0.298
 7680SOL    HW223940   1.785   1.691   0.282
 7681SOL     OW23941   2.848   6.641   0.281
 7681SOL    HW123942   2.875   6.557   0.234
 7681SOL    HW223943   2.823   6.620   0.375
 7682SOL     OW23944   3.171   0.292   1.838
 7682SOL    HW123945   3.073   0.275   1.832
 7682SOL    HW223946   3.216   0.211   1.876
 7683SOL     OW23947   6.484   1.865   3.711
 7683SOL    HW123948   6.577   1.897   3.728
 7683SOL    HW223949   6.444   1.916   3.635
 7684SOL     OW23950   4.272   2.208   1.514
 7684SOL    HW123951   4.197   2.178   1.456
 7684SOL    HW223952   4.236   2.243   1.600
 7685SOL     OW23953   3.157   3.522   6.800
 7685SOL    HW123954   3.140   3.505   6.703
 7685SOL    HW223955   3.081   3.575   6.838
 7686SOL     OW23956   5.862   6.963   3.071
 7686SOL    HW123957   5.820   6.973   3.161
 7686SOL    HW223958   5.820   7.028   3.007
 7687SOL     OW23959   5.870   5.451   5.013
 7687SOL    HW123960   5.967   5.437   4.994
 7687SOL    HW223961   5.816   5.417   4.937
 7688SOL     OW23962   0.405   6.667   5.378
 7688SOL    HW123963   0.383   6.762   5.353
 7688SOL    HW223964   0.482   6.666   5.441
 7689SOL     OW23965   4.846   6.578   2.827
 7689SOL    HW123966   4.874   6.667   2.864
 7689SOL    HW223967   4.922   6.513   2.835
 7690SOL     OW23968   6.484   4.908   1.257
 7690SOL    HW123969   6.436   4.961   1.186
 7690SOL    HW223970   6.422   4.892   1.334
 7691SOL     OW23971   5.113   2.901   4.079
 7691SOL    HW123972   5.172   2.950   4.142
 7691SOL    HW223973   5.113   2.947   3.990
 7692SOL     OW23974   1.176   6.376   2.177
 7692SOL    HW123975   1.089   6.335   2.151
 7692SOL    HW223976   1.162   6.471   2.205
 7693SOL     OW23977   3.205   0.129   1.583
 7693SOL    HW123978   3.262   0.050   1.608
 7693SOL    HW223979   3.198   0.190   1.662
 7694SOL     OW23980   0.386   4.513   4.137
 7694SOL    HW123981   0.288   4.494   4.141
 7694SOL    HW223982   0.435   4.427   4.123
 7695SOL     OW23983   4.245   6.281   0.524
 7695SOL    HW123984   4.168   6.230   0.563
 7695SOL    HW223985   4.252   6.370   0.569
 7696SOL     OW23986   6.885   1.324   4.507
 7696SOL    HW123987   6.928   1.234   4.519
 7696SOL    HW223988   6.843   1.353   4.593
 7697SOL     OW23989   2.874   6.848   1.646
 7697SOL    HW123990   2.954   6.792   1.668
 7697SOL    HW223991   2.879   6.876   1.550
 7698SOL     OW23992   6.574   2.002   4.060
 7698SOL    HW123993   6.478   1.997   4.034
 7698SOL    HW223994   6.581   2.030   4.156
 7699SOL     OW23995   3.376   5.983   0.724
 7699SOL    HW123996   3.369   5.939   0.635
 7699SOL    HW223997   3.289   5.974   0.772
 7700SOL     OW23998   4.600   6.380   4.758
 7700SOL    HW123999   4.650   6.363   4.843
 7700SOL    HW224000   4.663   6.417   4.689
 7701SOL     OW24001   0.094   1.536   6.931
 7701SOL    HW124002   0.104   1.475   6.852
 7701SOL    HW224003   0.129   1.491   7.013
 7702SOL     OW24004   2.888   6.630   6.166
 7702SOL    HW124005   2.855   6.650   6.074
 7702SOL    HW224006   2.811   6.629   6.229
 7703SOL     OW24007   6.403   0.961   5.271
 7703SOL    HW124008   6.383   1.042   5.326
 7703SOL    HW224009   6.318   0.916   5.246
 7704SOL     OW24010   5.524   4.715   5.553
 7704SOL    HW124011   5.468   4.761   5.484
 7704SOL    HW224012   5.472   4.706   5.637
 7705SOL     OW24013   3.863   4.968   5.740
 7705SOL    HW124014   3.843   4.966   5.642
 7705SOL    HW224015   3.940   5.028   5.758
 7706SOL     OW24016   4.508   2.483   4.699
 7706SOL    HW124017   4.425   2.429   4.706
 7706SOL    HW224018   4.535   2.492   4.603
 7707SOL     OW24019   0.989   5.413   6.100
 7707SOL    HW124020   1.010   5.359   6.019
 7707SOL    HW224021   0.908   5.469   6.083
 7708SOL     OW24022   5.834   6.747   5.710
 7708SOL    HW124023   5.892   6.666   5.726
 7708SOL    HW224024   5.739   6.724   5.728
 7709SOL     OW24025   5.866   4.426   1.309
 7709SOL    HW124026   5.791   4.362   1.291
 7709SOL    HW224027   5.868   4.447   1.407
 7710SOL     OW24028   3.631   0.795   0.734
 7710SOL    HW124029   3.718   0.841   0.747
 7710SOL    HW224030   3.563   0.831   0.798
 7711SOL     OW24031   5.778   6.558   5.015
 7711SOL    HW124032   5.744   6.521   4.928
 7711SOL    HW224033   5.877   6.572   5.008
 7712SOL     OW24034   5.501   5.399   2.245
 7712SOL    HW124035   5.588   5.447   2.259
 7712SOL    HW224036   5.500   5.315   2.301
 7713SOL     OW24037   1.415   5.246   0.734
 7713SOL    HW124038   1.331   5.192   0.732
 7713SOL    HW224039   1.456   5.248   0.642
 7714SOL     OW24040   6.474   4.370   5.639
 7714SOL    HW124041   6.383   4.399   5.667
 7714SOL    HW224042   6.516   4.316   5.713
 7715SOL     OW24043   4.717   1.881   0.003
 7715SOL    HW124044   4.626   1.895   6.992
 7715SOL    HW224045   4.729   1.942   0.081
 7716SOL     OW24046   6.677   4.475   3.983
 7716SOL    HW124047   6.665   4.569   4.016
 7716SOL    HW224048   6.643   4.468   3.889
 7717SOL     OW24049   1.381   1.211   4.733
 7717SOL    HW124050   1.288   1.233   4.704
 7717SOL    HW224051   1.426   1.156   4.662
 7718SOL     OW24052   1.817   1.823   2.985
 7718SOL    HW124053   1.842   1.731   3.015
 7718SOL    HW224054   1.802   1.881   3.064
 7719SOL     OW24055   6.767   3.645   4.234
 7719SOL    HW124056   6.781   3.553   4.272
 7719SOL    HW224057   6.670   3.660   4.217
 7720SOL     OW24058   0.427   0.278   7.027
 7720SOL    HW124059   0.523   0.300   7.009
 7720SOL    HW224060   0.372   0.298   6.947
 7721SOL     OW24061   0.417   4.792   2.486
 7721SOL    HW124062   0.483   4.719   2.501
 7721SOL    HW224063   0.330   4.768   2.529
 7722SOL     OW24064   0.144   5.853   3.122
 7722SOL    HW124065   0.048   5.833   3.141
 7722SOL    HW224066   0.168   5.941   3.162
 7723SOL     OW24067   6.455   3.731   6.867
 7723SOL    HW124068   6.432   3.753   6.772
 7723SOL    HW224069   6.382   3.677   6.908
 7724SOL     OW24070   2.480   4.338   1.831
 7724SOL    HW124071   2.475   4.409   1.901
 7724SOL    HW224072   2.559   4.356   1.771
 7725SOL     OW24073   5.554   3.056   3.669
 7725SOL    HW124074   5.581   3.152   3.666
 7725SOL    HW224075   5.505   3.037   3.754
 7726SOL     OW24076   1.510   6.131   4.910
 7726SOL    HW124077   1.474   6.043   4.879
 7726SOL    HW224078   1.476   6.151   5.001
 7727SOL     OW24079   0.396   0.844   2.932
 7727SOL    HW124080   0.451   0.917   2.973
 7727SOL    HW224081   0.303   0.850   2.967
 7728SOL     OW24082   0.905   5.333   3.211
 7728SOL    HW124083   0.873   5.283   3.291
 7728SOL    HW224084   0.988   5.383   3.234
 7729SOL     OW24085   5.787   3.112   0.780
 7729SOL    HW124086   5.714   3.072   0.724
 7729SOL    HW224087   5.783   3.212   0.772
 7730SOL     OW24088   5.930   6.065   1.484
 7730SOL    HW124089   5.842   6.071   1.438
 7730SOL    HW224090   5.923   6.004   1.563
 7731SOL     OW24091   6.159   0.776   0.749
 7731SOL    HW124092   6.117   0.851   0.800
 7731SOL    HW224093   6.180   0.700   0.810
 7732SOL     OW24094   4.500   6.428   0.405
 7732SOL    HW124095   4.449   6.347   0.434
 7732SOL    HW224096   4.436   6.498   0.374
 7733SOL     OW24097   4.502   7.016   2.513
 7733SOL    HW124098   4.593   0.028   2.520
 7733SOL    HW224099   4.489   6.981   2.420
 7734SOL     OW24100   2.332   5.359   3.654
 7734SOL    HW124101   2.389   5.287   3.695
 7734SOL    HW224102   2.340   5.355   3.555
 7735SOL     OW24103   4.589   6.109   6.036
 7735SOL    HW124104   4.588   6.181   5.966
 7735SOL    HW224105   4.520   6.130   6.106
 7736SOL     OW24106   3.813   3.871   6.981
 7736SOL    HW124107   3.742   3.808   6.949
 7736SOL    HW224108   3.771   3.944   0.006
 7737SOL     OW24109   3.966   0.875   2.340
 7737SOL    HW124110   3.967   0.793   2.398
 7737SOL    HW224111   4.002   0.953   2.392
 7738SOL     OW24112   2.498   5.557   6.819
 7738SOL    HW124113   2.409   5.551   6.774
 7738SOL    HW224114   2.543   5.642   6.794
 7739SOL     OW24115   1.028   2.255   1.810
 7739SOL    HW124116   0.984   2.185   1.866
 7739SOL    HW224117   0.983   2.343   1.825
 7740SOL     OW24118   1.943   0.950   3.108
 7740SOL    HW124119   1.963   1.013   3.033
 7740SOL    HW224120   1.965   0.857   3.080
 7741SOL     OW24121   1.042   5.179   4.775
 7741SOL    HW124122   0.943   5.190   4.768
 7741SOL    HW224123   1.083   5.183   4.684
 7742SOL     OW24124   5.709   2.650   3.674
 7742SOL    HW124125   5.772   2.604   3.611
 7742SOL    HW224126   5.760   2.708   3.737
 7743SOL     OW24127   4.887   1.664   6.941
 7743SOL    HW124128   4.981   1.699   6.938
 7743SOL    HW224129   4.825   1.738   6.966
 7744SOL     OW24130   1.260   6.121   3.585
 7744SOL    HW124131   1.310   6.037   3.607
 7744SOL    HW224132   1.202   6.105   3.506
 7745SOL     OW24133   2.909   1.217   5.435
 7745SOL    HW124134   2.999   1.189   5.401
 7745SOL    HW224135   2.898   1.188   5.530
 7746SOL     OW24136   2.750   6.224   0.078
 7746SOL    HW124137   2.794   6.275   0.152
 7746SOL    HW224138   2.750   6.126   0.100
 7747SOL     OW24139   4.790   5.791   1.738
 7747SOL    HW124140   4.736   5.860   1.690
 7747SOL    HW224141   4.852   5.836   1.802
 7748SOL     OW24142   3.637   3.062   5.375
 7748SOL    HW124143   3.725   3.047   5.420
 7748SOL    HW224144   3.564   3.022   5.430
 7749SOL     OW24145   2.688   2.762   5.336
 7749SOL    HW124146   2.679   2.833   5.405
 7749SOL    HW224147   2.705   2.804   5.247
 7750SOL     OW24148   6.832   6.500   1.542
 7750SOL    HW124149   6.812   6.460   1.632
 7750SOL    HW224150   6.882   6.433   1.487
 7751SOL     OW24151   1.141   2.036   2.555
 7751SOL    HW124152   1.138   1.992   2.645
 7751SOL    HW224153   1.050   2.033   2.514
 7752SOL     OW24154   5.041   0.003   5.693
 7752SOL    HW124155   5.047   6.974   5.612
 7752SOL    HW224156   5.016   6.976   5.772
 7753SOL     OW24157   2.508   0.938   4.383
 7753SOL    HW124158   2.500   0.871   4.457
 7753SOL    HW224159   2.471   1.026   4.414
 7754SOL     OW24160   3.592   6.399   1.198
 7754SOL    HW124161   3.641   6.482   1.174
 7754SOL    HW224162   3.523   6.379   1.128
 7755SOL     OW24163   1.469   2.237   6.246
 7755SOL    HW124164   1.479   2.334   6.269
 7755SOL    HW224165   1.550   2.188   6.276
 7756SOL     OW24166   3.072   6.678   1.722
 7756SOL    HW124167   3.141   6.694   1.792
 7756SOL    HW224168   3.103   6.607   1.660
 7757SOL     OW24169   6.192   4.825   1.428
 7757SOL    HW124170   6.245   4.741   1.441
 7757SOL    HW224171   6.146   4.822   1.339
 7758SOL     OW24172   1.852   6.901   5.888
 7758SOL    HW124173   1.848   6.826   5.954
 7758SOL    HW224174   1.947   6.925   5.869
 7759SOL     OW24175   2.592   1.492   5.495
 7759SOL    HW124176   2.577   1.394   5.502
 7759SOL    HW224177   2.543   1.527   5.414
 7760SOL     OW24178   5.205   2.389   2.402
 7760SOL    HW124179   5.286   2.426   2.356
 7760SOL    HW224180   5.153   2.332   2.338
 7761SOL     OW24181   6.795   6.058   4.956
 7761SOL    HW124182   6.886   6.090   4.929
 7761SOL    HW224183   6.734   6.136   4.969
 7762SOL     OW24184   2.651   0.300   3.659
 7762SOL    HW124185   2.678   0.365   3.587
 7762SOL    HW224186   2.652   0.207   3.623
 7763SOL     OW24187   2.788   6.896   0.224
 7763SOL    HW124188   2.702   6.884   0.174
 7763SOL    HW224189   2.830   6.806   0.239
 7764SOL     OW24190   3.418   3.865   5.838
 7764SOL    HW124191   3.488   3.800   5.867
 7764SOL    HW224192   3.461   3.945   5.797
 7765SOL     OW24193   6.118   2.989   5.279
 7765SOL    HW124194   6.198   3.022   5.229
 7765SOL    HW224195   6.103   3.046   5.360
 7766SOL     OW24196   6.939   3.781   1.246
 7766SOL    HW124197   6.850   3.753   1.210
 7766SOL    HW224198   7.000   3.702   1.247
 7767SOL     OW24199   4.458   6.487   2.491
 7767SOL    HW124200   4.394   6.557   2.524
 7767SOL    HW224201   4.545   6.497   2.539
 7768SOL     OW24202   4.629   5.217   3.860
 7768SOL    HW124203   4.667   5.304   3.829
 7768SOL    HW224204   4.680   5.142   3.818
 7769SOL     OW24205   4.372   1.600   5.267
 7769SOL    HW124206   4.278   1.633   5.259
 7769SOL    HW224207   4.390   1.531   5.197
 7770SOL     OW24208   0.135   3.389   4.332
 7770SOL    HW124209   0.036   3.389   4.342
 7770SOL    HW224210   0.170   3.482   4.348
 7771SOL     OW24211   2.833   1.408   5.717
 7771SOL    HW124212   2.811   1.476   5.787
 7771SOL    HW224213   2.839   1.452   5.628
 7772SOL     OW24214   5.478   6.816   0.823
 7772SOL    HW124215   5.471   6.747   0.751
 7772SOL    HW224216   5.571   6.854   0.823
 7773SOL     OW24217   1.863   5.690   5.937
 7773SOL    HW124218   1.803   5.694   5.857
 7773SOL    HW224219   1.915   5.605   5.935
 7774SOL     OW24220   4.827   2.550   4.673
 7774SOL    HW124221   4.808   2.464   4.626
 7774SOL    HW224222   4.882   2.532   4.755
 7775SOL     OW24223   4.296   6.565   0.209
 7775SOL    HW124224   4.287   6.489   0.144
 7775SOL    HW224225   4.210   6.616   0.213
 7776SOL     OW24226   0.728   6.169   6.767
 7776SOL    HW124227   0.774   6.094   6.816
 7776SOL    HW224228   0.740   6.254   6.818
 7777SOL     OW24229   6.119   5.593   4.821
 7777SOL    HW124230   6.197   5.593   4.758
 7777SOL    HW224231   6.037   5.563   4.772
 7778SOL     OW24232   5.787   3.852   2.161
 7778SOL    HW124233   5.758   3.762   2.194
 7778SOL    HW224234   5.731   3.877   2.081
 7779SOL     OW24235   2.602   1.150   2.470
 7779SOL    HW124236   2.534   1.092   2.425
 7779SOL    HW224237   2.636   1.217   2.404
 7780SOL     OW24238   1.274   5.146   5.445
 7780SOL    HW124239   1.370   5.119   5.444
 7780SOL    HW224240   1.226   5.096   5.517
 7781SOL     OW24241   0.793   3.752   1.231
 7781SOL    HW124242   0.886   3.775   1.200
 7781SOL    HW224243   0.781   3.784   1.325
 7782SOL     OW24244   5.205   5.487   3.744
 7782SOL    HW124245   5.206   5.583   3.771
 7782SOL    HW224246   5.202   5.429   3.825
 7783SOL     OW24247   0.436   0.304   5.605
 7783SOL    HW124248   0.502   0.248   5.554
 7783SOL    HW224249   0.378   0.245   5.661
 7784SOL     OW24250   3.183   2.359   1.725
 7784SOL    HW124251   3.106   2.409   1.764
 7784SOL    HW224252   3.262   2.420   1.720
 7785SOL     OW24253   2.229   6.634   3.816
 7785SOL    HW124254   2.300   6.639   3.885
 7785SOL    HW224255   2.245   6.554   3.758
 7786SOL     OW24256   4.504   0.657   6.555
 7786SOL    HW124257   4.409   0.669   6.585
 7786SOL    HW224258   4.555   0.609   6.627
 7787SOL     OW24259   1.757   3.001   0.232
 7787SOL    HW124260   1.764   2.910   0.192
 7787SOL    HW224261   1.662   3.033   0.225
 7788SOL     OW24262   0.826   5.394   2.076
 7788SOL    HW124263   0.869   5.484   2.065
 7788SOL    HW224264   0.891   5.331   2.117
 7789SOL     OW24265   3.324   0.151   6.534
 7789SOL    HW124266   3.298   0.145   6.630
 7789SOL    HW224267   3.242   0.152   6.477
 7790SOL     OW24268   5.639   4.908   2.667
 7790SOL    HW124269   5.544   4.891   2.643
 7790SOL    HW224270   5.681   4.824   2.703
 7791SOL     OW24271   2.067   5.304   2.233
 7791SOL    HW124272   2.020   5.273   2.151
 7791SOL    HW224273   2.109   5.226   2.279
 7792SOL     OW24274   1.465   6.653   3.647
 7792SOL    HW124275   1.393   6.605   3.698
 7792SOL    HW224276   1.428   6.738   3.610
 7793SOL     OW24277   4.682   1.107   0.298
 7793SOL    HW124278   4.650   1.157   0.218
 7793SOL    HW224279   4.771   1.067   0.280
 7794SOL     OW24280   0.143   4.267   2.100
 7794SOL    HW124281   0.060   4.322   2.104
 7794SOL    HW224282   0.222   4.326   2.084
 7795SOL     OW24283   3.298   5.425   5.103
 7795SOL    HW124284   3.354   5.342   5.108
 7795SOL    HW224285   3.218   5.408   5.045
 7796SOL     OW24286   3.466   2.555   5.916
 7796SOL    HW124287   3.561   2.576   5.937
 7796SOL    HW224288   3.462   2.504   5.830
 7797SOL     OW24289   0.699   5.724   1.136
 7797SOL    HW124290   0.789   5.745   1.097
 7797SOL    HW224291   0.709   5.702   1.233
 7798SOL     OW24292   1.737   1.587   2.442
 7798SOL    HW124293   1.834   1.599   2.466
 7798SOL    HW224294   1.682   1.656   2.488
 7799SOL     OW24295   2.198   5.773   3.008
 7799SOL    HW124296   2.105   5.781   2.974
 7799SOL    HW224297   2.256   5.731   2.938
 7800SOL     OW24298   0.537   6.335   3.313
 7800SOL    HW124299   0.473   6.263   3.340
 7800SOL    HW224300   0.611   6.296   3.258
 7801SOL     OW24301   1.491   1.484   3.012
 7801SOL    HW124302   1.425   1.517   2.944
 7801SOL    HW224303   1.517   1.560   3.072
 7802SOL     OW24304   7.011   3.343   0.148
 7802SOL    HW124305   0.034   3.427   0.164
 7802SOL    HW224306   6.927   3.365   0.098
 7803SOL     OW24307   4.804   1.447   6.818
 7803SOL    HW124308   4.834   1.529   6.865
 7803SOL    HW224309   4.881   1.408   6.766
 7804SOL     OW24310   4.131   2.188   5.176
 7804SOL    HW124311   4.154   2.245   5.097
 7804SOL    HW224312   4.105   2.247   5.253
 7805SOL     OW24313   4.909   3.784   2.569
 7805SOL    HW124314   4.994   3.834   2.589
 7805SOL    HW224315   4.924   3.686   2.586
 7806SOL     OW24316   6.068   1.252   6.604
 7806SOL    HW124317   6.008   1.228   6.680
 7806SOL    HW224318   6.106   1.343   6.620
 7807SOL     OW24319   0.862   4.248   5.054
 7807SOL    HW124320   0.782   4.192   5.033
 7807SOL    HW224321   0.941   4.215   5.003
 7808SOL     OW24322   5.368   3.393   3.015
 7808SOL    HW124323   5.303   3.460   2.978
 7808SOL    HW224324   5.458   3.435   3.024
 7809SOL     OW24325   5.126   5.237   4.608
 7809SOL    HW124326   5.170   5.309   4.554
 7809SOL    HW224327   5.051   5.276   4.660
 7810SOL     OW24328   2.917   6.428   5.513
 7810SOL    HW124329   2.916   6.374   5.598
 7810SOL    HW224330   3.006   6.419   5.469
 7811SOL     OW24331   1.189   5.468   2.186
 7811SOL    HW124332   1.145   5.379   2.178
 7811SOL    HW224333   1.249   5.469   2.266
 7812SOL     OW24334   2.212   2.806   5.104
 7812SOL    HW124335   2.283   2.776   5.168
 7812SOL    HW224336   2.223   2.904   5.087
 7813SOL     OW24337   4.433   2.337   1.265
 7813SOL    HW124338   4.369   2.318   1.190
 7813SOL    HW224339   4.406   2.284   1.345
 7814SOL     OW24340   0.153   3.697   2.948
 7814SOL    HW124341   0.064   3.679   2.907
 7814SOL    HW224342   0.225   3.674   2.882
 7815SOL     OW24343   5.620   1.998   4.695
 7815SOL    HW124344   5.689   1.934   4.729
 7815SOL    HW224345   5.560   2.025   4.771
 7816SOL     OW24346   0.281   2.535   6.263
 7816SOL    HW124347   0.370   2.497   6.287
 7816SOL    HW224348   0.292   2.605   6.192
 7817SOL     OW24349   4.466   3.972   5.390
 7817SOL    HW124350   4.408   4.024   5.327
 7817SOL    HW224351   4.532   4.033   5.433
 7818SOL     OW24352   4.502   1.050   3.133
 7818SOL    HW124353   4.459   1.132   3.096
 7818SOL    HW224354   4.474   1.037   3.228
 7819SOL     OW24355   0.396   3.592   4.137
 7819SOL    HW124356   0.409   3.536   4.055
 7819SOL    HW224357   0.468   3.571   4.204
 7820SOL     OW24358   2.099   1.188   5.670
 7820SOL    HW124359   2.019   1.162   5.724
 7820SOL    HW224360   2.085   1.162   5.574
 7821SOL     OW24361   5.642   5.742   0.742
 7821SOL    HW124362   5.715   5.732   0.811
 7821SOL    HW224363   5.620   5.839   0.732
 7822SOL     OW24364   1.663   1.663   6.012
 7822SOL    HW124365   1.631   1.663   5.917
 7822SOL    HW224366   1.761   1.647   6.014
 7823SOL     OW24367   2.167   4.039   6.299
 7823SOL    HW124368   2.198   4.132   6.281
 7823SOL    HW224369   2.208   3.976   6.232
 7824SOL     OW24370   5.906   0.322   4.724
 7824SOL    HW124371   5.969   0.399   4.715
 7824SOL    HW224372   5.934   0.249   4.662
 7825SOL     OW24373   1.926   3.315   1.372
 7825SOL    HW124374   1.957   3.230   1.328
 7825SOL    HW224375   2.004   3.374   1.388
 7826SOL     OW24376   4.947   1.784   6.072
 7826SOL    HW124377   4.952   1.883   6.065
 7826SOL    HW224378   4.965   1.756   6.166
 7827SOL     OW24379   3.147   4.520   1.087
 7827SOL    HW124380   3.067   4.522   1.028
 7827SOL    HW224381   3.225   4.562   1.040
 7828SOL     OW24382   7.026   5.279   0.444
 7828SOL    HW124383   7.013   5.290   0.345
 7828SOL    HW224384   0.040   5.191   0.462
 7829SOL     OW24385   1.987   2.930   0.859
 7829SOL    HW124386   2.072   2.976   0.833
 7829SOL    HW224387   1.990   2.835   0.827
 7830SOL     OW24388   5.525   3.982   6.189
 7830SOL    HW124389   5.479   3.961   6.275
 7830SOL    HW224390   5.566   3.898   6.152
 7831SOL     OW24391   1.419   5.382   0.312
 7831SOL    HW124392   1.491   5.352   0.374
 7831SOL    HW224393   1.368   5.457   0.353
 7832SOL     OW24394   3.588   1.385   4.146
 7832SOL    HW124395   3.602   1.435   4.061
 7832SOL    HW224396   3.659   1.316   4.157
 7833SOL     OW24397   0.397   0.647   0.265
 7833SOL    HW124398   0.494   0.644   0.239
 7833SOL    HW224399   0.365   0.554   0.285
 7834SOL     OW24400   0.801   1.552   2.608
 7834SOL    HW124401   0.756   1.624   2.555
 7834SOL    HW224402   0.884   1.588   2.649
 7835SOL     OW24403   2.028   2.312   5.043
 7835SOL    HW124404   2.059   2.405   5.065
 7835SOL    HW224405   1.937   2.297   5.082
 7836SOL     OW24406   3.366   1.776   6.313
 7836SOL    HW124407   3.428   1.809   6.384
 7836SOL    HW224408   3.395   1.814   6.225
 7837SOL     OW24409   6.773   6.470   1.196
 7837SOL    HW124410   6.708   6.414   1.249
 7837SOL    HW224411   6.864   6.431   1.204
 7838SOL     OW24412   4.338   6.583   6.277
 7838SOL    HW124413   4.397   6.545   6.349
 7838SOL    HW224414   4.260   6.630   6.319
 7839SOL     OW24415   6.461   4.554   5.420
 7839SOL    HW124416   6.413   4.636   5.451
 7839SOL    HW224417   6.484   4.497   5.498
 7840SOL     OW24418   5.203   3.622   3.564
 7840SOL    HW124419   5.180   3.709   3.521
 7840SOL    HW224420   5.299   3.600   3.545
 7841SOL     OW24421   5.519   1.445   6.727
 7841SOL    HW124422   5.492   1.533   6.764
 7841SOL    HW224423   5.608   1.419   6.765
 7842SOL     OW24424   1.718   0.874   3.251
 7842SOL    HW124425   1.699   0.939   3.324
 7842SOL    HW224426   1.788   0.911   3.190
 7843SOL     OW24427   5.762   4.610   1.968
 7843SOL    HW124428   5.693   4.549   1.927
 7843SOL    HW224429   5.722   4.656   2.047
 7844SOL     OW24430   4.669   0.166   3.570
 7844SOL    HW124431   4.627   0.193   3.657
 7844SOL    HW224432   4.759   0.126   3.587
 7845SOL     OW24433   0.646   0.944   4.044
 7845SOL    HW124434   0.604   0.927   3.955
 7845SOL    HW224435   0.576   0.938   4.115
 7846SOL     OW24436   1.830   0.468   1.856
 7846SOL    HW124437   1.733   0.470   1.879
 7846SOL    HW224438   1.868   0.378   1.880
 7847SOL     OW24439   6.839   1.726   1.546
 7847SOL    HW124440   6.838   1.825   1.559
 7847SOL    HW224441   6.909   1.685   1.605
 7848SOL     OW24442   3.150   4.145   0.966
 7848SOL    HW124443   3.237   4.189   0.943
 7848SOL    HW224444   3.082   4.216   0.986
 7849SOL     OW24445   5.191   3.984   3.996
 7849SOL    HW124446   5.179   4.082   4.010
 7849SOL    HW224447   5.254   3.970   3.919
 7850SOL     OW24448   0.670   1.265   3.771
 7850SOL    HW124449   0.576   1.261   3.737
 7850SOL    HW224450   0.731   1.297   3.699
 7851SOL     OW24451   6.840   0.240   0.770
 7851SOL    HW124452   6.752   0.286   0.774
 7851SOL    HW224453   6.832   0.148   0.808
 7852SOL     OW24454   2.746   0.104   6.072
 7852SOL    HW124455   2.703   0.025   6.115
 7852SOL    HW224456   2.799   0.074   5.993
 7853SOL     OW24457   3.884   1.922   1.870
 7853SOL    HW124458   3.888   1.992   1.799
 7853SOL    HW224459   3.953   1.853   1.853
 7854SOL     OW24460   3.562   4.936   0.647
 7854SOL    HW124461   3.492   4.995   0.607
 7854SOL    HW224462   3.590   4.973   0.736
 7855SOL     OW24463   3.855   5.748   5.873
 7855SOL    HW124464   3.936   5.707   5.914
 7855SOL    HW224465   3.832   5.832   5.923
 7856SOL     OW24466   5.983   4.758   3.819
 7856SOL    HW124467   5.942   4.742   3.909
 7856SOL    HW224468   5.963   4.680   3.759
 7857SOL     OW24469   6.493   2.710   5.733
 7857SOL    HW124470   6.528   2.666   5.815
 7857SOL    HW224471   6.561   2.704   5.660
 7858SOL     OW24472   5.220   5.191   3.635
 7858SOL    HW124473   5.263   5.113   3.681
 7858SOL    HW224474   5.193   5.259   3.702
 7859SOL     OW24475   6.938   4.355   5.740
 7859SOL    HW124476   6.988   4.331   5.657
 7859SOL    HW224477   6.918   4.453   5.740
 7860SOL     OW24478   4.085   6.311   2.669
 7860SOL    HW124479   4.144   6.260   2.607
 7860SOL    HW224480   4.079   6.264   2.757
 7861SOL     OW24481   4.208   5.426   2.425
 7861SOL    HW124482   4.221   5.331   2.395
 7861SOL    HW224483   4.115   5.437   2.461
 7862SOL     OW24484   3.061   4.570   1.658
 7862SOL    HW124485   2.999   4.562   1.736
 7862SOL    HW224486   3.105   4.482   1.641
 7863SOL     OW24487   6.781   6.426   3.759
 7863SOL    HW124488   6.738   6.426   3.849
 7863SOL    HW224489   6.876   6.396   3.768
 7864SOL     OW24490   6.592   6.447   5.920
 7864SOL    HW124491   6.504   6.433   5.965
 7864SOL    HW224492   6.631   6.358   5.894
 7865SOL     OW24493   4.835   6.913   4.213
 7865SOL    HW124494   4.759   6.975   4.231
 7865SOL    HW224495   4.834   6.838   4.279
 7866SOL     OW24496   2.413   2.011   0.800
 7866SOL    HW124497   2.361   2.049   0.875
 7866SOL    HW224498   2.510   2.032   0.813
 7867SOL     OW24499   5.355   5.259   2.668
 7867SOL    HW124500   5.433   5.229   2.613
 7867SOL    HW224501   5.270   5.244   2.618
 7868SOL     OW24502   5.711   6.814   2.691
 7868SOL    HW124503   5.714   6.762   2.606
 7868SOL    HW224504   5.801   6.810   2.736
 7869SOL     OW24505   6.480   3.425   0.095
 7869SOL    HW124506   6.444   3.517   0.108
 7869SOL    HW224507   6.433   3.380   0.020
 7870SOL     OW24508   5.254   5.744   3.761
 7870SOL    HW124509   5.235   5.837   3.791
 7870SOL    HW224510   5.332   5.745   3.698
 7871SOL     OW24511   5.921   3.810   2.702
 7871SOL    HW124512   6.017   3.801   2.676
 7871SOL    HW224513   5.863   3.766   2.634
 7872SOL     OW24514   1.340   4.666   2.458
 7872SOL    HW124515   1.331   4.659   2.557
 7872SOL    HW224516   1.422   4.718   2.435
 7873SOL     OW24517   5.125   0.020   5.031
 7873SOL    HW124518   5.213   7.002   5.040
 7873SOL    HW224519   5.124   0.103   5.086
 7874SOL     OW24520   5.811   1.447   0.307
 7874SOL    HW124521   5.805   1.542   0.276
 7874SOL    HW224522   5.840   1.389   0.231
 7875SOL     OW24523   3.982   3.385   0.159
 7875SOL    HW124524   4.050   3.363   0.089
 7875SOL    HW224525   3.918   3.308   0.169
 7876SOL     OW24526   0.231   0.026   4.926
 7876SOL    HW124527   0.262   0.047   4.833
 7876SOL    HW224528   0.240   6.956   4.943
 7877SOL     OW24529   0.336   3.261   2.569
 7877SOL    HW124530   0.313   3.263   2.666
 7877SOL    HW224531   0.334   3.354   2.532
 7878SOL     OW24532   4.794   4.981   3.866
 7878SOL    HW124533   4.877   4.943   3.824
 7878SOL    HW224534   4.820   5.038   3.944
 7879SOL     OW24535   4.458   6.150   3.494
 7879SOL    HW124536   4.545   6.143   3.445
 7879SOL    HW224537   4.414   6.060   3.495
 7880SOL     OW24538   0.410   5.497   1.303
 7880SOL    HW124539   0.347   5.457   1.236
 7880SOL    HW224540   0.413   5.438   1.384
 7881SOL     OW24541   6.446   3.400   4.444
 7881SOL    HW124542   6.465   3.398   4.345
 7881SOL    HW224543   6.506   3.467   4.488
 7882SOL     OW24544   2.021   2.776   3.281
 7882SOL    HW124545   2.079   2.726   3.217
 7882SOL    HW224546   1.986   2.859   3.237
 7883SOL     OW24547   2.112   0.000   1.067
 7883SOL    HW124548   2.137   6.980   1.151
 7883SOL    HW224549   2.013   7.022   1.053
 7884SOL     OW24550   1.880   4.121   3.701
 7884SOL    HW124551   1.920   4.194   3.755
 7884SOL    HW224552   1.799   4.155   3.653
 7885SOL     OW24553   6.054   6.394   2.462
 7885SOL    HW124554   5.955   6.390   2.472
 7885SOL    HW224555   6.091   6.469   2.518
 7886SOL     OW24556   4.556   3.680   1.475
 7886SOL    HW124557   4.607   3.742   1.414
 7886SOL    HW224558   4.618   3.609   1.509
 7887SOL     OW24559   3.559   2.638   5.320
 7887SOL    HW124560   3.460   2.622   5.314
 7887SOL    HW224561   3.586   2.702   5.248
 7888SOL     OW24562   0.030   0.229   4.924
 7888SOL    HW124563   0.049   0.309   4.980
 7888SOL    HW224564   0.087   0.152   4.955
 7889SOL     OW24565   0.467   5.275   6.563
 7889SOL    HW124566   0.420   5.288   6.650
 7889SOL    HW224567   0.422   5.330   6.492
 7890SOL     OW24568   0.546   3.418   3.833
 7890SOL    HW124569   0.592   3.391   3.748
 7890SOL    HW224570   0.614   3.447   3.900
 7891SOL     OW24571   1.139   3.924   4.231
 7891SOL    HW124572   1.224   3.976   4.245
 7891SOL    HW224573   1.146   3.836   4.277
 7892SOL     OW24574   0.820   2.346   4.152
 7892SOL    HW124575   0.798   2.436   4.115
 7892SOL    HW224576   0.807   2.277   4.081
 7893SOL     OW24577   5.767   6.479   2.098
 7893SOL    HW124578   5.773   6.568   2.141
 7893SOL    HW224579   5.836   6.472   2.025
 7894SOL     OW24580   2.991   0.912   1.092
 7894SOL    HW124581   2.996   0.997   1.038
 7894SOL    HW224582   2.903   0.869   1.078
 7895SOL     OW24583   4.179   6.555   5.052
 7895SOL    HW124584   4.242   6.490   5.009
 7895SOL    HW224585   4.087   6.541   5.016
 7896SOL     OW24586   5.838   3.752   1.230
 7896SOL    HW124587   5.874   3.692   1.302
 7896SOL    HW224588   5.891   3.837   1.229
 7897SOL     OW24589   3.247   3.231   0.609
 7897SOL    HW124590   3.277   3.220   0.704
 7897SOL    HW224591   3.196   3.149   0.581
 7898SOL     OW24592   4.160   0.046   4.325
 7898SOL    HW124593   4.140   0.021   4.230
 7898SOL    HW224594   4.249   0.009   4.351
 7899SOL     OW24595   5.971   6.759   1.817
 7899SOL    HW124596   5.878   6.795   1.812
 7899SOL    HW224597   6.036   6.835   1.821
 7900SOL     OW24598   0.766   4.207   1.109
 7900SOL    HW124599   0.735   4.114   1.089
 7900SOL    HW224600   0.834   4.205   1.182
 7901SOL     OW24601   5.000   0.927   6.197
 7901SOL    HW124602   4.997   1.022   6.165
 7901SOL    HW224603   4.933   0.873   6.146
 7902SOL     OW24604   6.634   5.915   3.270
 7902SOL    HW124605   6.570   5.867   3.210
 7902SOL    HW224606   6.651   5.859   3.352
 7903SOL     OW24607   4.503   1.761   3.147
 7903SOL    HW124608   4.506   1.679   3.204
 7903SOL    HW224609   4.441   1.828   3.188
 7904SOL     OW24610   5.630   0.759   3.344
 7904SOL    HW124611   5.681   0.833   3.388
 7904SOL    HW224612   5.686   0.721   3.270
 7905SOL     OW24613   6.224   1.594   0.704
 7905SOL    HW124614   6.308   1.544   0.723
 7905SOL    HW224615   6.145   1.535   0.721
 7906SOL     OW24616   1.012   5.804   0.111
 7906SOL    HW124617   1.079   5.878   0.117
 7906SOL    HW224618   1.057   5.722   0.075
 7907SOL     OW24619   6.670   1.288   3.188
 7907SOL    HW124620   6.743   1.230   3.151
 7907SOL    HW224621   6.685   1.383   3.160
 7908SOL     OW24622   1.416   1.474   5.874
 7908SOL    HW124623   1.504   1.446   5.837
 7908SOL    HW224624   1.393   1.565   5.841
 7909SOL     OW24625   4.695   4.211   3.712
 7909SOL    HW124626   4.628   4.169   3.774
 7909SOL    HW224627   4.692   4.310   3.722
 7910SOL     OW24628   1.351   3.453   0.957
 7910SOL    HW124629   1.367   3.356   0.942
 7910SOL    HW224630   1.436   3.504   0.946
 7911SOL     OW24631   0.767   3.792   1.518
 7911SOL    HW124632   0.749   3.882   1.559
 7911SOL    HW224633   0.724   3.721   1.575
 7912SOL     OW24634   5.429   4.071   0.693
 7912SOL    HW124635   5.404   3.990   0.746
 7912SOL    HW224636   5.401   4.058   0.598
 7913SOL     OW24637   0.914   4.286   1.321
 7913SOL    HW124638   0.921   4.367   1.264
 7913SOL    HW224639   0.917   4.313   1.417
 7914SOL     OW24640   0.439   4.576   1.195
 7914SOL    HW124641   0.345   4.571   1.228
 7914SOL    HW224642   0.478   4.484   1.192
 7915SOL     OW24643   4.608   2.017   2.878
 7915SOL    HW124644   4.681   2.078   2.907
 7915SOL    HW224645   4.627   1.924   2.909
 7916SOL     OW24646   0.604   6.559   5.186
 7916SOL    HW124647   0.526   6.504   5.215
 7916SOL    HW224648   0.660   6.582   5.265
 7917SOL     OW24649   4.310   3.032   5.393
 7917SOL    HW124650   4.315   3.098   5.319
 7917SOL    HW224651   4.223   2.983   5.388
 7918SOL     OW24652   6.842   0.979   4.787
 7918SOL    HW124653   6.809   1.038   4.860
 7918SOL    HW224654   6.888   0.900   4.827
 7919SOL     OW24655   0.850   4.304   2.111
 7919SOL    HW124656   0.817   4.375   2.050
 7919SOL    HW224657   0.943   4.277   2.085
 7920SOL     OW24658   5.462   0.097   1.594
 7920SOL    HW124659   5.430   0.143   1.511
 7920SOL    HW224660   5.393   0.104   1.666
 7921SOL     OW24661   5.329   0.050   2.250
 7921SOL    HW124662   5.265   0.069   2.325
 7921SOL    HW224663   5.421   0.038   2.288
 7922SOL     OW24664   0.873   6.004   6.945
 7922SOL    HW124665   0.878   5.974   0.011
 7922SOL    HW224666   0.962   6.038   6.916
 7923SOL     OW24667   3.394   1.903   5.745
 7923SOL    HW124668   3.318   1.852   5.786
 7923SOL    HW224669   3.416   1.982   5.802
 7924SOL     OW24670   4.501   0.425   0.937
 7924SOL    HW124671   4.468   0.362   1.008
 7924SOL    HW224672   4.543   0.372   0.863
 7925SOL     OW24673   0.924   0.264   1.126
 7925SOL    HW124674   0.991   0.336   1.109
 7925SOL    HW224675   0.908   0.256   1.224
 7926SOL     OW24676   5.005   1.828   6.742
 7926SOL    HW124677   5.060   1.862   6.818
 7926SOL    HW224678   4.998   1.898   6.671
 7927SOL     OW24679   4.977   6.830   1.996
 7927SOL    HW124680   5.068   6.836   2.038
 7927SOL    HW224681   4.909   6.815   2.068
 7928SOL     OW24682   6.855   1.902   4.160
 7928SOL    HW124683   6.944   1.912   4.204
 7928SOL    HW224684   6.793   1.973   4.195
 7929SOL     OW24685   3.765   3.951   5.873
 7929SOL    HW124686   3.690   3.886   5.885
 7929SOL    HW224687   3.774   4.007   5.956
 7930SOL     OW24688   3.916   5.272   6.519
 7930SOL    HW124689   3.866   5.251   6.603
 7930SOL    HW224690   4.004   5.224   6.520
 7931SOL     OW24691   4.078   2.780   0.648
 7931SOL    HW124692   4.161   2.835   0.639
 7931SOL    HW224693   4.096   2.701   0.706
 7932SOL     OW24694   1.245   5.238   6.853
 7932SOL    HW124695   1.275   5.145   6.833
 7932SOL    HW224696   1.305   5.304   6.807
 7933SOL     OW24697   6.538   0.440   5.799
 7933SOL    HW124698   6.609   0.505   5.828
 7933SOL    HW224699   6.580   0.370   5.741
 7934SOL     OW24700   1.632   5.281   6.868
 7934SOL    HW124701   1.570   5.325   6.804
 7934SOL    HW224702   1.599   5.294   6.961
 7935SOL     OW24703   5.382   6.161   1.728
 7935SOL    HW124704   5.337   6.096   1.667
 7935SOL    HW224705   5.314   6.227   1.761
 7936SOL     OW24706   3.088   5.404   3.482
 7936SOL    HW124707   2.989   5.418   3.486
 7936SOL    HW224708   3.131   5.482   3.436
 7937SOL     OW24709   1.315   5.989   3.970
 7937SOL    HW124710   1.291   6.085   3.952
 7937SOL    HW224711   1.304   5.936   3.886
 7938SOL     OW24712   5.664   5.928   5.415
 7938SOL    HW124713   5.710   6.016   5.405
 7938SOL    HW224714   5.705   5.862   5.352
 7939SOL     OW24715   1.215   1.977   5.701
 7939SOL    HW124716   1.306   2.012   5.676
 7939SOL    HW224717   1.153   2.053   5.716
 7940SOL     OW24718   2.908   2.314   2.849
 7940SOL    HW124719   2.889   2.311   2.751
 7940SOL    HW224720   2.899   2.408   2.883
 7941SOL     OW24721   5.301   6.617   2.805
 7941SOL    HW124722   5.228   6.568   2.758
 7941SOL    HW224723   5.386   6.610   2.752
 7942SOL     OW24724   1.077   3.126   3.063
 7942SOL    HW124725   1.074   3.051   3.130
 7942SOL    HW224726   1.105   3.090   2.974
 7943SOL     OW24727   0.678   4.279   5.665
 7943SOL    HW124728   0.749   4.278   5.736
 7943SOL    HW224729   0.712   4.330   5.585
 7944SOL     OW24730   0.734   2.840   1.494
 7944SOL    HW124731   0.679   2.826   1.576
 7944SOL    HW224732   0.717   2.931   1.457
 7945SOL     OW24733   6.341   5.848   2.486
 7945SOL    HW124734   6.268   5.798   2.440
 7945SOL    HW224735   6.353   5.937   2.442
 7946SOL     OW24736   3.491   0.573   5.958
 7946SOL    HW124737   3.446   0.543   6.042
 7946SOL    HW224738   3.567   0.633   5.981
 7947SOL     OW24739   2.645   1.808   5.265
 7947SOL    HW124740   2.600   1.896   5.250
 7947SOL    HW224741   2.744   1.819   5.256
 7948SOL     OW24742   0.598   5.541   0.841
 7948SOL    HW124743   0.617   5.527   0.937
 7948SOL    HW224744   0.662   5.488   0.785
 7949SOL     OW24745   4.466   4.378   6.329
 7949SOL    HW124746   4.495   4.454   6.388
 7949SOL    HW224747   4.536   4.362   6.259
 7950SOL     OW24748   4.482   5.993   4.481
 7950SOL    HW124749   4.396   5.994   4.430
 7950SOL    HW224750   4.497   5.903   4.520
 7951SOL     OW24751   1.926   5.144   2.060
 7951SOL    HW124752   1.840   5.176   2.098
 7951SOL    HW224753   1.908   5.091   1.977
 7952SOL     OW24754   0.136   3.279   0.475
 7952SOL    HW124755   0.176   3.368   0.454
 7952SOL    HW224756   0.177   3.209   0.417
 7953SOL     OW24757   4.830   2.254   1.859
 7953SOL    HW124758   4.771   2.304   1.795
 7953SOL    HW224759   4.827   2.298   1.949
 7954SOL     OW24760   3.718   4.415   6.253
 7954SOL    HW124761   3.659   4.418   6.333
 7954SOL    HW224762   3.805   4.460   6.274
 7955SOL     OW24763   2.430   1.301   6.566
 7955SOL    HW124764   2.507   1.293   6.504
 7955SOL    HW224765   2.347   1.320   6.514
 7956SOL     OW24766   4.863   0.830   1.686
 7956SOL    HW124767   4.852   0.862   1.780
 7956SOL    HW224768   4.834   0.901   1.622
 7957SOL     OW24769   1.674   1.095   0.385
 7957SOL    HW124770   1.640   1.104   0.478
 7957SOL    HW224771   1.620   1.153   0.324
 7958SOL     OW24772   5.116   4.302   6.085
 7958SOL    HW124773   5.120   4.302   6.185
 7958SOL    HW224774   5.022   4.284   6.055
 7959SOL     OW24775   5.327   6.980   6.969
 7959SOL    HW124776   5.307   6.885   6.993
 7959SOL    HW224777   5.245   0.007   6.986
 7960SOL     OW24778   1.576   0.882   6.124
 7960SOL    HW124779   1.503   0.948   6.142
 7960SOL    HW224780   1.615   0.900   6.033
 7961SOL     OW24781   6.527   0.323   1.180
 7961SOL    HW124782   6.625   0.345   1.187
 7961SOL    HW224783   6.515   0.223   1.184
 7962SOL     OW24784   0.535   1.366   5.692
 7962SOL    HW124785   0.447   1.319   5.700
 7962SOL    HW224786   0.537   1.445   5.754
 7963SOL     OW24787   6.411   5.756   4.352
 7963SOL    HW124788   6.415   5.780   4.449
 7963SOL    HW224789   6.463   5.672   4.336
 7964SOL     OW24790   6.037   3.482   2.836
 7964SOL    HW124791   6.069   3.387   2.845
 7964SOL    HW224792   5.950   3.493   2.883
 7965SOL     OW24793   3.924   2.124   6.576
 7965SOL    HW124794   3.880   2.044   6.617
 7965SOL    HW224795   3.880   2.146   6.489
 7966SOL     OW24796   3.095   3.148   6.158
 7966SOL    HW124797   3.104   3.121   6.062
 7966SOL    HW224798   3.035   3.084   6.206
 7967SOL     OW24799   2.493   5.635   1.841
 7967SOL    HW124800   2.512   5.703   1.771
 7967SOL    HW224801   2.532   5.665   1.928
 7968SOL     OW24802   6.412   2.063   4.859
 7968SOL    HW124803   6.453   2.105   4.940
 7968SOL    HW224804   6.320   2.030   4.881
 7969SOL     OW24805   6.033   6.058   1.012
 7969SOL    HW124806   5.982   6.115   1.076
 7969SOL    HW224807   6.119   6.103   0.988
 7970SOL     OW24808   6.570   3.892   2.146
 7970SOL    HW124809   6.660   3.926   2.173
 7970SOL    HW224810   6.580   3.824   2.074
 7971SOL     OW24811   3.387   1.619   1.199
 7971SOL    HW124812   3.461   1.629   1.133
 7971SOL    HW224813   3.317   1.689   1.183
 7972SOL     OW24814   3.181   3.568   1.346
 7972SOL    HW124815   3.222   3.604   1.430
 7972SOL    HW224816   3.112   3.500   1.369
 7973SOL     OW24817   4.857   4.945   4.400
 7973SOL    HW124818   4.856   4.903   4.309
 7973SOL    HW224819   4.948   4.933   4.441
 7974SOL     OW24820   6.188   0.771   6.048
 7974SOL    HW124821   6.151   0.692   6.096
 7974SOL    HW224822   6.150   0.855   6.088
 7975SOL     OW24823   5.567   0.210   0.833
 7975SOL    HW124824   5.614   0.285   0.787
 7975SOL    HW224825   5.632   0.161   0.891
 7976SOL     OW24826   0.857   0.442   5.922
 7976SOL    HW124827   0.928   0.505   5.953
 7976SOL    HW224828   0.768   0.473   5.954
 7977SOL     OW24829   4.053   5.976   2.815
 7977SOL    HW124830   3.963   5.967   2.772
 7977SOL    HW224831   4.063   6.068   2.852
 7978SOL     OW24832   0.020   2.475   6.280
 7978SOL    HW124833   7.011   2.497   6.370
 7978SOL    HW224834   0.116   2.505   6.276
 7979SOL     OW24835   2.641   5.021   5.617
 7979SOL    HW124836   2.659   5.117   5.638
 7979SOL    HW224837   2.650   5.007   5.518
 7980SOL     OW24838   3.329   5.555   6.655
 7980SOL    HW124839   3.241   5.601   6.645
 7980SOL    HW224840   3.337   5.483   6.586
 7981SOL     OW24841   0.771   4.499   1.926
 7981SOL    HW124842   0.739   4.537   1.840
 7981SOL    HW224843   0.751   4.562   2.001
 7982SOL     OW24844   1.662   1.830   6.228
 7982SOL    HW124845   1.648   1.783   6.141
 7982SOL    HW224846   1.686   1.763   6.298
 7983SOL     OW24847   6.536   2.388   0.622
 7983SOL    HW124848   6.546   2.295   0.585
 7983SOL    HW224849   6.457   2.391   0.683
 7984SOL     OW24850   0.330   1.175   0.481
 7984SOL    HW124851   0.426   1.186   0.507
 7984SOL    HW224852   0.272   1.225   0.545
 7985SOL     OW24853   2.635   1.638   4.638
 7985SOL    HW124854   2.704   1.677   4.577
 7985SOL    HW224855   2.669   1.639   4.732
 7986SOL     OW24856   2.891   0.689   6.303
 7986SOL    HW124857   2.879   0.687   6.402
 7986SOL    HW224858   2.813   0.736   6.261
 7987SOL     OW24859   2.049   2.314   0.204
 7987SOL    HW124860   2.071   2.366   0.287
 7987SOL    HW224861   1.952   2.324   0.183
 7988SOL     OW24862   1.365   0.962   2.563
 7988SOL    HW124863   1.388   1.046   2.515
 7988SOL    HW224864   1.449   0.917   2.593
 7989SOL     OW24865   2.594   3.204   0.170
 7989SOL    HW124866   2.621   3.130   0.231
 7989SOL    HW224867   2.607   3.176   0.075
 7990SOL     OW24868   2.381   4.908   4.617
 7990SOL    HW124869   2.375   4.944   4.524
 7990SOL    HW224870   2.461   4.849   4.625
 7991SOL     OW24871   5.966   1.679   3.863
 7991SOL    HW124872   5.963   1.779   3.862
 7991SOL    HW224873   5.901   1.645   3.932
 7992SOL     OW24874   1.390   0.553   0.574
 7992SOL    HW124875   1.439   0.621   0.629
 7992SOL    HW224876   1.344   0.489   0.636
 7993SOL     OW24877   0.347   0.085   1.292
 7993SOL    HW124878   0.364   0.107   1.388
 7993SOL    HW224879   0.277   0.146   1.255
 7994SOL     OW24880   4.239   0.151   3.480
 7994SOL    HW124881   4.219   0.218   3.409
 7994SOL    HW224882   4.335   0.125   3.475
 7995SOL     OW24883   5.959   5.520   3.140
 7995SOL    HW124884   5.932   5.576   3.062
 7995SOL    HW224885   6.008   5.439   3.108
 7996SOL     OW24886   3.857   6.073   4.378
 7996SOL    HW124887   3.840   6.113   4.288
 7996SOL    HW224888   3.797   6.116   4.445
 7997SOL     OW24889   6.893   1.406   0.023
 7997SOL    HW124890   6.989   1.378   0.014
 7997SOL    HW224891   6.841   1.373   6.973
 7998SOL     OW24892   3.534   0.413   0.050
 7998SOL    HW124893   3.574   0.480   7.016
 7998SOL    HW224894   3.436   0.432   0.061
 7999SOL     OW24895   1.050   1.171   6.014
 7999SOL    HW124896   1.068   1.120   5.930
 7999SOL    HW224897   1.056   1.109   6.093
 8000SOL     OW24898   5.392   6.300   6.603
 8000SOL    HW124899   5.327   6.321   6.676
 8000SOL    HW224900   5.378   6.362   6.527
 8001SOL     OW24901   4.033   6.287   1.997
 8001SOL    HW124902   4.029   6.374   1.949
 8001SOL    HW224903   4.050   6.303   2.095
 8002SOL     OW24904   1.059   0.394   6.310
 8002SOL    HW124905   1.079   0.370   6.406
 8002SOL    HW224906   1.060   0.493   6.300
 8003SOL     OW24907   2.255   5.438   1.784
 8003SOL    HW124908   2.323   5.445   1.857
 8003SOL    HW224909   2.224   5.530   1.759
 8004SOL     OW24910   1.517   3.824   3.388
 8004SOL    HW124911   1.434   3.771   3.407
 8004SOL    HW224912   1.523   3.841   3.290
 8005SOL     OW24913   2.707   0.505   3.464
 8005SOL    HW124914   2.780   0.492   3.397
 8005SOL    HW224915   2.721   0.592   3.513
 8006SOL     OW24916   2.051   5.752   5.478
 8006SOL    HW124917   2.073   5.840   5.436
 8006SOL    HW224918   2.135   5.708   5.509
 8007SOL     OW24919   5.903   1.865   6.441
 8007SOL    HW124920   5.939   1.856   6.534
 8007SOL    HW224921   5.935   1.788   6.386
 8008SOL     OW24922   4.068   6.147   6.608
 8008SOL    HW124923   4.088   6.236   6.565
 8008SOL    HW224924   3.969   6.137   6.619
 8009SOL     OW24925   4.863   0.757   0.509
 8009SOL    HW124926   4.961   0.777   0.522
 8009SOL    HW224927   4.851   0.701   0.427
 8010SOL     OW24928   2.267   2.209   4.877
 8010SOL    HW124929   2.337   2.138   4.881
 8010SOL    HW224930   2.218   2.212   4.964
 8011SOL     OW24931   3.459   2.175   1.296
 8011SOL    HW124932   3.435   2.079   1.280
 8011SOL    HW224933   3.392   2.234   1.250
 8012SOL     OW24934   1.541   3.024   7.002
 8012SOL    HW124935   1.542   3.115   6.959
 8012SOL    HW224936   1.504   3.033   0.066
 8013SOL     OW24937   1.099   4.826   3.370
 8013SOL    HW124938   1.100   4.926   3.365
 8013SOL    HW224939   1.101   4.797   3.465
 8014SOL     OW24940   1.711   0.152   4.569
 8014SOL    HW124941   1.733   0.224   4.503
 8014SOL    HW224942   1.664   0.077   4.522
 8015SOL     OW24943   1.898   0.215   6.376
 8015SOL    HW124944   1.990   0.253   6.367
 8015SOL    HW224945   1.872   0.169   6.292
 8016SOL     OW24946   4.127   0.997   5.424
 8016SOL    HW124947   4.093   0.991   5.518
 8016SOL    HW224948   4.205   1.059   5.421
 8017SOL     OW24949   6.520   0.163   6.643
 8017SOL    HW124950   6.577   0.103   6.699
 8017SOL    HW224951   6.508   0.250   6.690
 8018SOL     OW24952   3.382   2.719   0.641
 8018SOL    HW124953   3.482   2.725   0.646
 8018SOL    HW224954   3.357   2.638   0.587
 8019SOL     OW24955   2.047   4.737   0.938
 8019SOL    HW124956   1.963   4.771   0.978
 8019SOL    HW224957   2.033   4.644   0.903
 8020SOL     OW24958   6.516   6.996   6.189
 8020SOL    HW124959   6.589   6.929   6.175
 8020SOL    HW224960   6.459   7.000   6.107
 8021SOL     OW24961   1.518   3.236   1.429
 8021SOL    HW124962   1.488   3.269   1.340
 8021SOL    HW224963   1.611   3.267   1.447
 8022SOL     OW24964   6.004   0.429   1.591
 8022SOL    HW124965   5.982   0.505   1.653
 8022SOL    HW224966   6.101   0.406   1.600
 8023SOL     OW24967   5.771   4.627   2.436
 8023SOL    HW124968   5.822   4.701   2.393
 8023SOL    HW224969   5.834   4.556   2.466
 8024SOL     OW24970   1.076   5.386   6.393
 8024SOL    HW124971   1.012   5.385   6.316
 8024SOL    HW224972   1.024   5.398   6.478
 8025SOL     OW24973   1.967   5.616   0.590
 8025SOL    HW124974   2.032   5.607   0.666
 8025SOL    HW224975   2.012   5.662   0.513
 8026SOL     OW24976   7.006   3.999   1.064
 8026SOL    HW124977   6.990   3.912   1.112
 8026SOL    HW224978   0.032   4.059   1.121
 8027SOL     OW24979   3.303   0.237   5.635
 8027SOL    HW124980   3.261   0.287   5.559
 8027SOL    HW224981   3.356   0.300   5.691
 8028SOL     OW24982   3.558   4.932   5.051
 8028SOL    HW124983   3.474   4.913   5.001
 8028SOL    HW224984   3.550   4.896   5.144
 8029SOL     OW24985   5.342   2.884   1.886
 8029SOL    HW124986   5.331   2.784   1.881
 8029SOL    HW224987   5.324   2.924   1.796
 8030SOL     OW24988   5.704   5.620   0.434
 8030SOL    HW124989   5.622   5.648   0.484
 8030SOL    HW224990   5.753   5.701   0.402
 8031SOL     OW24991   0.068   6.275   2.805
 8031SOL    HW124992   0.023   6.196   2.848
 8031SOL    HW224993   0.165   6.273   2.827
 8032SOL     OW24994   5.637   3.959   1.970
 8032SOL    HW124995   5.542   3.966   2.001
 8032SOL    HW224996   5.659   4.038   1.912
 8033SOL     OW24997   4.522   3.135   6.976
 8033SOL    HW124998   4.619   3.115   6.992
 8033SOL    HW224999   4.483   3.064   6.917
 8034SOL     OW25000   4.746   0.064   6.229
 8034SOL    HW125001   4.701   0.137   6.178
 8034SOL    HW225002   4.774   0.098   6.319
 8035SOL     OW25003   5.195   1.940   1.969
 8035SOL    HW125004   5.157   2.032   1.960
 8035SOL    HW225005   5.157   1.897   2.051
 8036SOL     OW25006   6.507   3.847   3.635
 8036SOL    HW125007   6.419   3.801   3.646
 8036SOL    HW225008   6.503   3.936   3.681
 8037SOL     OW25009   2.161   3.044   6.868
 8037SOL    HW125010   2.143   3.140   6.848
 8037SOL    HW225011   2.224   3.037   6.945
 8038SOL     OW25012   4.414   0.194   2.782
 8038SOL    HW125013   4.468   0.276   2.799
 8038SOL    HW225014   4.475   0.121   2.749
 8039SOL     OW25015   6.764   1.551   4.809
 8039SOL    HW125016   6.832   1.608   4.764
 8039SOL    HW225017   6.748   1.469   4.754
 8040SOL     OW25018   1.328   5.931   6.635
 8040SOL    HW125019   1.352   6.028   6.638
 8040SOL    HW225020   1.267   5.909   6.711
 8041SOL     OW25021   3.059   0.930   2.973
 8041SOL    HW125022   3.022   1.023   2.964
 8041SOL    HW225023   3.040   0.878   2.889
 8042SOL     OW25024   4.202   3.582   5.561
 8042SOL    HW125025   4.108   3.616   5.553
 8042SOL    HW225026   4.265   3.658   5.549
 8043SOL     OW25027   3.357   5.255   0.640
 8043SOL    HW125028   3.279   5.270   0.701
 8043SOL    HW225029   3.339   5.296   0.551
 8044SOL     OW25030   4.154   3.600   0.865
 8044SOL    HW125031   4.083   3.671   0.867
 8044SOL    HW225032   4.121   3.521   0.814
 8045SOL     OW25033   5.695   2.189   2.211
 8045SOL    HW125034   5.657   2.102   2.244
 8045SOL    HW225035   5.794   2.184   2.210
 8046SOL     OW25036   0.708   4.090   2.479
 8046SOL    HW125037   0.699   3.991   2.466
 8046SOL    HW225038   0.797   4.121   2.446
 8047SOL     OW25039   3.466   6.201   6.502
 8047SOL    HW125040   3.516   6.135   6.558
 8047SOL    HW225041   3.504   6.202   6.409
 8048SOL     OW25042   3.618   1.908   0.251
 8048SOL    HW125043   3.546   1.850   0.212
 8048SOL    HW225044   3.625   1.993   0.199
 8049SOL     OW25045   1.106   0.182   0.562
 8049SOL    HW125046   1.068   0.102   0.608
 8049SOL    HW225047   1.146   0.155   0.475
 8050SOL     OW25048   1.729   3.121   3.774
 8050SOL    HW125049   1.744   3.073   3.860
 8050SOL    HW225050   1.734   3.219   3.788
 8051SOL     OW25051   4.829   6.194   4.816
 8051SOL    HW125052   4.921   6.183   4.855
 8051SOL    HW225053   4.827   6.157   4.723
 8052SOL     OW25054   2.886   1.724   1.384
 8052SOL    HW125055   2.925   1.672   1.460
 8052SOL    HW225056   2.817   1.787   1.418
 8053SOL     OW25057   3.502   2.839   4.879
 8053SOL    HW125058   3.496   2.854   4.978
 8053SOL    HW225059   3.473   2.746   4.857
 8054SOL     OW25060   6.803   4.125   5.109
 8054SOL    HW125061   6.711   4.162   5.122
 8054SOL    HW225062   6.811   4.087   5.016
 8055SOL     OW25063   6.460   0.985   5.736
 8055SOL    HW125064   6.433   0.889   5.720
 8055SOL    HW225065   6.506   1.020   5.654
 8056SOL     OW25066   2.865   1.041   4.692
 8056SOL    HW125067   2.784   1.002   4.736
 8056SOL    HW225068   2.878   0.997   4.602
 8057SOL     OW25069   2.767   2.148   3.020
 8057SOL    HW125070   2.832   2.128   3.093
 8057SOL    HW225071   2.793   2.232   2.974
 8058SOL     OW25072   3.662   6.807   3.250
 8058SOL    HW125073   3.642   6.773   3.158
 8058SOL    HW225074   3.630   6.902   3.258
 8059SOL     OW25075   2.237   1.009   4.883
 8059SOL    HW125076   2.274   1.048   4.968
 8059SOL    HW225077   2.174   1.075   4.841
 8060SOL     OW25078   0.318   2.256   6.311
 8060SOL    HW125079   0.297   2.281   6.405
 8060SOL    HW225080   0.400   2.304   6.281
 8061SOL     OW25081   0.597   0.178   2.272
 8061SOL    HW125082   0.646   0.226   2.345
 8061SOL    HW225083   0.522   0.125   2.312
 8062SOL     OW25084   3.917   5.123   3.980
 8062SOL    HW125085   4.003   5.168   4.003
 8062SOL    HW225086   3.934   5.050   3.914
 8063SOL     OW25087   2.455   1.092   3.215
 8063SOL    HW125088   2.448   1.187   3.246
 8063SOL    HW225089   2.409   1.033   3.281
 8064SOL     OW25090   5.937   2.441   0.560
 8064SOL    HW125091   6.025   2.479   0.589
 8064SOL    HW225092   5.933   2.344   0.583
 8065SOL     OW25093   2.839   6.272   4.306
 8065SOL    HW125094   2.865   6.343   4.240
 8065SOL    HW225095   2.904   6.196   4.300
 8066SOL     OW25096   6.810   0.324   5.467
 8066SOL    HW125097   6.855   0.405   5.504
 8066SOL    HW225098   6.716   0.347   5.440
 8067SOL     OW25099   5.091   2.773   2.707
 8067SOL    HW125100   5.103   2.848   2.642
 8067SOL    HW225101   5.164   2.707   2.696
 8068SOL     OW25102   6.917   4.529   1.577
 8068SOL    HW125103   6.872   4.442   1.555
 8068SOL    HW225104   7.012   4.526   1.547
 8069SOL     OW25105   1.847   4.808   1.119
 8069SOL    HW125106   1.829   4.906   1.125
 8069SOL    HW225107   1.760   4.759   1.120
 8070SOL     OW25108   4.194   3.143   0.524
 8070SOL    HW125109   4.218   3.180   0.434
 8070SOL    HW225110   4.142   3.211   0.575
 8071SOL     OW25111   2.907   6.897   5.311
 8071SOL    HW125112   2.893   6.798   5.323
 8071SOL    HW225113   2.934   6.916   5.217
 8072SOL     OW25114   3.533   1.905   1.004
 8072SOL    HW125115   3.631   1.899   1.027
 8072SOL    HW225116   3.505   1.821   0.957
 8073SOL     OW25117   3.917   6.275   5.060
 8073SOL    HW125118   3.926   6.356   5.002
 8073SOL    HW225119   3.917   6.302   5.156
 8074SOL     OW25120   2.867   2.274   0.559
 8074SOL    HW125121   2.927   2.195   0.548
 8074SOL    HW225122   2.907   2.353   0.513
 8075SOL     OW25123   6.536   6.841   0.761
 8075SOL    HW125124   6.524   6.933   0.722
 8075SOL    HW225125   6.472   6.777   0.718
 8076SOL     OW25126   6.136   0.124   5.310
 8076SOL    HW125127   6.090   0.173   5.236
 8076SOL    HW225128   6.103   0.158   5.398
 8077SOL     OW25129   3.567   5.888   2.815
 8077SOL    HW125130   3.518   5.892   2.901
 8077SOL    HW225131   3.648   5.830   2.825
 8078SOL     OW25132   0.883   1.971   1.380
 8078SOL    HW125133   0.896   2.057   1.428
 8078SOL    HW225134   0.920   1.979   1.287
 8079SOL     OW25135   6.597   1.654   3.069
 8079SOL    HW125136   6.547   1.641   2.984
 8079SOL    HW225137   6.544   1.616   3.145
 8080SOL     OW25138   1.006   1.623   2.753
 8080SOL    HW125139   0.967   1.570   2.828
 8080SOL    HW225140   1.000   1.721   2.774
 8081SOL     OW25141   6.179   5.478   6.335
 8081SOL    HW125142   6.264   5.431   6.360
 8081SOL    HW225143   6.151   5.449   6.243
 8082SOL     OW25144   3.675   0.867   2.747
 8082SOL    HW125145   3.755   0.927   2.751
 8082SOL    HW225146   3.596   0.919   2.716
 8083SOL     OW25147   5.069   2.516   3.518
 8083SOL    HW125148   4.973   2.494   3.501
 8083SOL    HW225149   5.091   2.494   3.613
 8084SOL     OW25150   3.553   0.338   6.715
 8084SOL    HW125151   3.455   0.323   6.725
 8084SOL    HW225152   3.574   0.435   6.728
 8085SOL     OW25153   5.832   5.565   2.135
 8085SOL    HW125154   5.791   5.647   2.095
 8085SOL    HW225155   5.844   5.578   2.233
 8086SOL     OW25156   6.577   0.696   2.123
 8086SOL    HW125157   6.653   0.736   2.071
 8086SOL    HW225158   6.541   0.617   2.073
 8087SOL     OW25159   1.731   0.063   0.221
 8087SOL    HW125160   1.677   0.136   0.178
 8087SOL    HW225161   1.700   7.003   0.187
 8088SOL     OW25162   5.890   0.753   1.064
 8088SOL    HW125163   5.857   0.713   0.978
 8088SOL    HW225164   5.817   0.808   1.105
 8089SOL     OW25165   5.265   2.519   0.098
 8089SOL    HW125166   5.237   2.561   0.185
 8089SOL    HW225167   5.353   2.474   0.110
 8090SOL     OW25168   3.794   0.983   6.226
 8090SOL    HW125169   3.844   0.944   6.303
 8090SOL    HW225170   3.812   1.081   6.220
 8091SOL     OW25171   1.455   4.074   4.961
 8091SOL    HW125172   1.464   4.042   5.056
 8091SOL    HW225173   1.528   4.033   4.906
 8092SOL     OW25174   5.344   1.771   5.149
 8092SOL    HW125175   5.257   1.724   5.164
 8092SOL    HW225176   5.385   1.738   5.063
 8093SOL     OW25177   2.812   5.428   3.546
 8093SOL    HW125178   2.819   5.377   3.632
 8093SOL    HW225179   2.729   5.399   3.497
 8094SOL     OW25180   0.061   3.153   4.589
 8094SOL    HW125181   0.003   3.176   4.511
 8094SOL    HW225182   0.156   3.172   4.567
 8095SOL     OW25183   0.904   4.507   4.951
 8095SOL    HW125184   0.872   4.416   4.978
 8095SOL    HW225185   0.843   4.577   4.990
 8096SOL     OW25186   2.490   0.526   2.452
 8096SOL    HW125187   2.494   0.426   2.448
 8096SOL    HW225188   2.427   0.553   2.525
 8097SOL     OW25189   4.368   0.071   4.993
 8097SOL    HW125190   4.377   0.167   4.966
 8097SOL    HW225191   4.429   0.052   5.070
 8098SOL     OW25192   1.881   6.565   3.363
 8098SOL    HW125193   1.920   6.474   3.374
 8098SOL    HW225194   1.781   6.559   3.366
 8099SOL     OW25195   4.200   6.513   4.209
 8099SOL    HW125196   4.112   6.558   4.193
 8099SOL    HW225197   4.247   6.500   4.122
 8100SOL     OW25198   0.158   0.541   6.848
 8100SOL    HW125199   0.118   0.542   6.940
 8100SOL    HW225200   0.198   0.451   6.830
 8101SOL     OW25201   1.658   5.694   1.331
 8101SOL    HW125202   1.657   5.738   1.421
 8101SOL    HW225203   1.667   5.595   1.342
 8102SOL     OW25204   0.349   3.482   3.404
 8102SOL    HW125205   0.278   3.458   3.339
 8102SOL    HW225206   0.414   3.546   3.361
 8103SOL     OW25207   2.890   6.887   1.382
 8103SOL    HW125208   2.958   6.958   1.364
 8103SOL    HW225209   2.877   6.832   1.299
 8104SOL     OW25210   1.753   0.707   6.454
 8104SOL    HW125211   1.683   0.650   6.411
 8104SOL    HW225212   1.741   0.705   6.554
 8105SOL     OW25213   7.000   3.400   2.896
 8105SOL    HW125214   6.994   3.357   2.986
 8105SOL    HW225215   6.964   3.493   2.901
 8106SOL     OW25216   3.298   5.654   3.788
 8106SOL    HW125217   3.344   5.626   3.871
 8106SOL    HW225218   3.360   5.646   3.710
 8107SOL     OW25219   0.836   5.464   3.788
 8107SOL    HW125220   0.750   5.488   3.743
 8107SOL    HW225221   0.911   5.516   3.747
 8108SOL     OW25222   6.798   2.892   6.678
 8108SOL    HW125223   6.749   2.937   6.604
 8108SOL    HW225224   6.881   2.849   6.642
 8109SOL     OW25225   6.716   3.764   6.100
 8109SOL    HW125226   6.676   3.839   6.153
 8109SOL    HW225227   6.808   3.745   6.134
 8110SOL     OW25228   3.786   5.491   2.298
 8110SOL    HW125229   3.810   5.411   2.354
 8110SOL    HW225230   3.761   5.567   2.358
 8111SOL     OW25231   4.921   0.916   4.687
 8111SOL    HW125232   4.880   0.888   4.774
 8111SOL    HW225233   4.970   1.003   4.699
 8112SOL     OW25234   2.490   2.632   4.306
 8112SOL    HW125235   2.446   2.658   4.392
 8112SOL    HW225236   2.437   2.668   4.229
 8113SOL     OW25237   1.094   4.043   0.913
 8113SOL    HW125238   1.135   4.133   0.907
 8113SOL    HW225239   1.094   3.999   0.823
 8114SOL     OW25240   1.440   4.035   2.470
 8114SOL    HW125241   1.437   4.133   2.487
 8114SOL    HW225242   1.382   3.988   2.537
 8115SOL     OW25243   3.593   6.900   6.601
 8115SOL    HW125244   3.525   6.877   6.671
 8115SOL    HW225245   3.593   6.999   6.587
 8116SOL     OW25246   4.240   4.686   0.605
 8116SOL    HW125247   4.293   4.755   0.556
 8116SOL    HW225248   4.293   4.601   0.609
 8117SOL     OW25249   1.741   6.979   3.542
 8117SOL    HW125250   1.675   0.026   3.544
 8117SOL    HW225251   1.808   6.997   3.470
 8118SOL     OW25252   5.119   4.345   6.390
 8118SOL    HW125253   5.090   4.379   6.479
 8118SOL    HW225254   5.144   4.249   6.397
 8119SOL     OW25255   5.219   5.329   6.254
 8119SOL    HW125256   5.151   5.402   6.243
 8119SOL    HW225257   5.257   5.334   6.347
 8120SOL     OW25258   3.533   4.627   0.895
 8120SOL    HW125259   3.511   4.537   0.856
 8120SOL    HW225260   3.448   4.678   0.910
 8121SOL     OW25261   0.262   4.866   1.668
 8121SOL    HW125262   0.285   4.863   1.765
 8121SOL    HW225263   0.231   4.957   1.643
 8122SOL     OW25264   0.098   4.333   3.228
 8122SOL    HW125265   0.144   4.263   3.173
 8122SOL    HW225266   0.090   4.417   3.174
 8123SOL     OW25267   6.843   1.905   6.299
 8123SOL    HW125268   6.787   1.874   6.376
 8123SOL    HW225269   6.855   2.005   6.305
 8124SOL     OW25270   4.856   6.210   2.044
 8124SOL    HW125271   4.918   6.289   2.039
 8124SOL    HW225272   4.845   6.183   2.139
 8125SOL     OW25273   1.560   1.682   3.202
 8125SOL    HW125274   1.650   1.640   3.209
 8125SOL    HW225275   1.570   1.779   3.177
 8126SOL     OW25276   5.291   4.417   3.138
 8126SOL    HW125277   5.289   4.517   3.144
 8126SOL    HW225278   5.198   4.382   3.126
 8127SOL     OW25279   2.873   3.630   6.019
 8127SOL    HW125280   2.907   3.537   6.008
 8127SOL    HW225281   2.790   3.642   5.966
 8128SOL     OW25282   3.017   2.197   2.240
 8128SOL    HW125283   2.996   2.283   2.193
 8128SOL    HW225284   2.995   2.120   2.180
 8129SOL     OW25285   3.951   1.618   5.861
 8129SOL    HW125286   3.937   1.665   5.948
 8129SOL    HW225287   3.935   1.682   5.786
 8130SOL     OW25288   0.437   4.082   6.763
 8130SOL    HW125289   0.455   4.112   6.857
 8130SOL    HW225290   0.339   4.077   6.748
 8131SOL     OW25291   2.264   2.136   1.780
 8131SOL    HW125292   2.317   2.221   1.771
 8131SOL    HW225293   2.251   2.116   1.877
 8132SOL     OW25294   5.536   6.646   5.381
 8132SOL    HW125295   5.562   6.666   5.286
 8132SOL    HW225296   5.556   6.725   5.439
 8133SOL     OW25297   3.328   5.224   2.553
 8133SOL    HW125298   3.314   5.133   2.514
 8133SOL    HW225299   3.250   5.283   2.529
 8134SOL     OW25300   6.869   2.183   6.329
 8134SOL    HW125301   6.952   2.188   6.384
 8134SOL    HW225302   6.809   2.259   6.352
 8135SOL     OW25303   2.849   6.748   1.172
 8135SOL    HW125304   2.807   6.737   1.082
 8135SOL    HW225305   2.855   6.658   1.216
 8136SOL     OW25306   4.383   5.798   3.220
 8136SOL    HW125307   4.292   5.759   3.235
 8136SOL    HW225308   4.430   5.807   3.307
 8137SOL     OW25309   3.336   1.721   5.373
 8137SOL    HW125310   3.296   1.657   5.439
 8137SOL    HW225311   3.353   1.673   5.286
 8138SOL     OW25312   5.367   0.977   0.735
 8138SOL    HW125313   5.297   1.046   0.714
 8138SOL    HW225314   5.322   0.892   0.764
 8139SOL     OW25315   0.250   0.635   1.869
 8139SOL    HW125316   0.325   0.684   1.826
 8139SOL    HW225317   0.269   0.623   1.967
 8140SOL     OW25318   5.698   0.311   6.353
 8140SOL    HW125319   5.641   0.261   6.418
 8140SOL    HW225320   5.645   0.331   6.271
 8141SOL     OW25321   4.207   5.240   4.681
 8141SOL    HW125322   4.143   5.302   4.725
 8141SOL    HW225323   4.285   5.225   4.741
 8142SOL     OW25324   0.134   5.538   6.867
 8142SOL    HW125325   0.178   5.566   6.952
 8142SOL    HW225326   0.154   5.442   6.848
 8143SOL     OW25327   5.999   3.879   0.701
 8143SOL    HW125328   5.953   3.823   0.631
 8143SOL    HW225329   5.967   3.974   0.694
 8144SOL     OW25330   5.830   6.035   6.603
 8144SOL    HW125331   5.812   5.938   6.591
 8144SOL    HW225332   5.750   6.088   6.574
 8145SOL     OW25333   5.478   5.896   1.240
 8145SOL    HW125334   5.517   5.893   1.332
 8145SOL    HW225335   5.445   5.989   1.222
 8146SOL     OW25336   3.564   0.715   4.638
 8146SOL    HW125337   3.569   0.677   4.546
 8146SOL    HW225338   3.472   0.702   4.675
 8147SOL     OW25339   6.118   1.953   1.425
 8147SOL    HW125340   6.199   1.894   1.430
 8147SOL    HW225341   6.065   1.943   1.509
 8148SOL     OW25342   5.049   4.857   0.997
 8148SOL    HW125343   5.126   4.796   0.979
 8148SOL    HW225344   5.014   4.841   1.089
 8149SOL     OW25345   2.462   6.204   1.831
 8149SOL    HW125346   2.451   6.119   1.883
 8149SOL    HW225347   2.438   6.282   1.888
 8150SOL     OW25348   0.662   4.520   0.355
 8150SOL    HW125349   0.606   4.461   0.412
 8150SOL    HW225350   0.751   4.536   0.399
 8151SOL     OW25351   6.638   2.084   1.317
 8151SOL    HW125352   6.720   2.054   1.269
 8151SOL    HW225353   6.622   2.181   1.298
 8152SOL     OW25354   0.262   1.297   2.560
 8152SOL    HW125355   0.199   1.323   2.487
 8152SOL    HW225356   0.289   1.378   2.612
 8153SOL     OW25357   3.549   0.024   3.336
 8153SOL    HW125358   3.451   0.033   3.347
 8153SOL    HW225359   3.592   0.115   3.336
 8154SOL     OW25360   3.091   5.817   3.721
 8154SOL    HW125361   3.172   5.760   3.735
 8154SOL    HW225362   3.017   5.762   3.682
 8155SOL     OW25363   2.247   4.006   1.737
 8155SOL    HW125364   2.346   4.010   1.724
 8155SOL    HW225365   2.202   4.005   1.648
 8156SOL     OW25366   5.251   6.708   6.932
 8156SOL    HW125367   5.326   6.651   6.899
 8156SOL    HW225368   5.164   6.669   6.901
 8157SOL     OW25369   6.383   5.170   6.615
 8157SOL    HW125370   6.455   5.149   6.681
 8157SOL    HW225371   6.373   5.094   6.551
 8158SOL     OW25372   6.692   5.322   1.381
 8158SOL    HW125373   6.598   5.291   1.368
 8158SOL    HW225374   6.743   5.308   1.296
 8159SOL     OW25375   2.670   6.087   2.559
 8159SOL    HW125376   2.758   6.087   2.512
 8159SOL    HW225377   2.602   6.041   2.503
 8160SOL     OW25378   4.850   1.181   2.392
 8160SOL    HW125379   4.859   1.280   2.399
 8160SOL    HW225380   4.766   1.151   2.436
 8161SOL     OW25381   5.161   1.463   6.876
 8161SOL    HW125382   5.247   1.502   6.910
 8161SOL    HW225383   5.117   1.411   6.948
 8162SOL     OW25384   5.966   6.526   5.791
 8162SOL    HW125385   5.935   6.431   5.778
 8162SOL    HW225386   6.057   6.536   5.753
 8163SOL     OW25387   2.771   3.648   5.366
 8163SOL    HW125388   2.785   3.740   5.330
 8163SOL    HW225389   2.737   3.588   5.294
 8164SOL     OW25390   5.908   3.131   0.468
 8164SOL    HW125391   5.817   3.166   0.446
 8164SOL    HW225392   5.954   3.193   0.531
 8165SOL     OW25393   0.967   5.015   6.677
 8165SOL    HW125394   0.978   4.916   6.673
 8165SOL    HW225395   0.876   5.037   6.712
 8166SOL     OW25396   2.542   0.555   2.183
 8166SOL    HW125397   2.544   0.560   2.282
 8166SOL    HW225398   2.550   0.459   2.154
 8167SOL     OW25399   5.957   0.940   4.379
 8167SOL    HW125400   5.984   0.887   4.298
 8167SOL    HW225401   6.030   1.003   4.404
 8168SOL     OW25402   3.063   1.584   3.861
 8168SOL    HW125403   3.090   1.548   3.771
 8168SOL    HW225404   2.966   1.606   3.860
 8169SOL     OW25405   5.188   3.083   1.205
 8169SOL    HW125406   5.089   3.097   1.206
 8169SOL    HW225407   5.208   2.984   1.205
 8170SOL     OW25408   1.531   6.047   2.782
 8170SOL    HW125409   1.454   6.104   2.754
 8170SOL    HW225410   1.573   6.005   2.702
 8171SOL     OW25411   1.162   1.418   0.236
 8171SOL    HW125412   1.118   1.415   0.147
 8171SOL    HW225413   1.095   1.440   0.306
 8172SOL     OW25414   1.029   1.149   1.945
 8172SOL    HW125415   1.127   1.140   1.930
 8172SOL    HW225416   1.008   1.241   1.976
 8173SOL     OW25417   3.941   1.930   0.611
 8173SOL    HW125418   3.996   1.869   0.668
 8173SOL    HW225419   3.981   2.022   0.612
 8174SOL     OW25420   5.057   2.359   0.843
 8174SOL    HW125421   5.136   2.322   0.891
 8174SOL    HW225422   5.078   2.371   0.746
 8175SOL     OW25423   0.155   2.994   5.965
 8175SOL    HW125424   0.084   2.932   5.934
 8175SOL    HW225425   0.160   3.073   5.904
 8176SOL     OW25426   2.472   5.209   2.448
 8176SOL    HW125427   2.378   5.178   2.430
 8176SOL    HW225428   2.531   5.183   2.372
 8177SOL     OW25429   2.333   6.316   4.209
 8177SOL    HW125430   2.392   6.365   4.145
 8177SOL    HW225431   2.390   6.271   4.278
 8178SOL     OW25432   2.295   6.732   6.784
 8178SOL    HW125433   2.209   6.781   6.797
 8178SOL    HW225434   2.309   6.669   6.861
 8179SOL     OW25435   3.980   2.593   6.605
 8179SOL    HW125436   3.889   2.570   6.570
 8179SOL    HW225437   4.034   2.635   6.532
 8180SOL     OW25438   6.919   0.139   4.555
 8180SOL    HW125439   6.867   0.179   4.630
 8180SOL    HW225440   6.861   0.074   4.505
 8181SOL     OW25441   2.330   1.793   2.096
 8181SOL    HW125442   2.251   1.811   2.037
 8181SOL    HW225443   2.312   1.713   2.152
 8182SOL     OW25444   3.734   1.716   0.035
 8182SOL    HW125445   3.805   1.690   0.101
 8182SOL    HW225446   3.666   1.643   0.029
 8183SOL     OW25447   0.763   2.450   4.608
 8183SOL    HW125448   0.691   2.474   4.673
 8183SOL    HW225449   0.738   2.483   4.517
 8184SOL     OW25450   5.036   1.482   5.722
 8184SOL    HW125451   5.026   1.479   5.822
 8184SOL    HW225452   5.025   1.576   5.690
 8185SOL     OW25453   3.198   0.067   0.340
 8185SOL    HW125454   3.114   0.061   0.286
 8185SOL    HW225455   3.277   0.056   0.279
 8186SOL     OW25456   3.500   6.154   6.237
 8186SOL    HW125457   3.410   6.120   6.267
 8186SOL    HW225458   3.534   6.096   6.163
 8187SOL     OW25459   1.569   2.183   5.193
 8187SOL    HW125460   1.589   2.176   5.095
 8187SOL    HW225461   1.481   2.228   5.206
 8188SOL     OW25462   5.240   2.025   2.742
 8188SOL    HW125463   5.267   2.097   2.806
 8188SOL    HW225464   5.269   2.049   2.650
 8189SOL     OW25465   5.226   4.695   2.376
 8189SOL    HW125466   5.210   4.779   2.428
 8189SOL    HW225467   5.243   4.619   2.440
 8190SOL     OW25468   5.041   5.445   4.248
 8190SOL    HW125469   5.111   5.445   4.320
 8190SOL    HW225470   5.043   5.358   4.199
 8191SOL     OW25471   2.969   5.245   3.865
 8191SOL    HW125472   3.035   5.226   3.793
 8191SOL    HW225473   3.013   5.238   3.955
 8192SOL     OW25474   3.356   6.135   0.265
 8192SOL    HW125475   3.400   6.075   0.332
 8192SOL    HW225476   3.309   6.210   0.313
 8193SOL     OW25477   6.824   0.135   3.910
 8193SOL    HW125478   6.881   0.201   3.861
 8193SOL    HW225479   6.871   0.105   3.992
 8194SOL     OW25480   6.217   2.545   0.603
 8194SOL    HW125481   6.266   2.534   0.689
 8194SOL    HW225482   6.283   2.553   0.528
 8195SOL     OW25483   0.933   0.562   0.751
 8195SOL    HW125484   0.834   0.557   0.737
 8195SOL    HW225485   0.979   0.512   0.678
 8196SOL     OW25486   3.326   0.380   5.362
 8196SOL    HW125487   3.394   0.350   5.295
 8196SOL    HW225488   3.294   0.472   5.338
 8197SOL     OW25489   4.693   1.194   5.878
 8197SOL    HW125490   4.748   1.152   5.806
 8197SOL    HW225491   4.680   1.291   5.859
 8198SOL     OW25492   2.908   6.672   2.915
 8198SOL    HW125493   2.886   6.769   2.901
 8198SOL    HW225494   2.963   6.662   2.998
 8199SOL     OW25495   6.927   3.924   0.745
 8199SOL    HW125496   6.876   3.865   0.808
 8199SOL    HW225497   6.991   3.868   0.692
 8200SOL     OW25498   4.665   4.189   1.348
 8200SOL    HW125499   4.619   4.215   1.433
 8200SOL    HW225500   4.755   4.151   1.369
 8201SOL     OW25501   5.083   0.599   4.459
 8201SOL    HW125502   5.168   0.548   4.445
 8201SOL    HW225503   5.082   0.679   4.399
 8202SOL     OW25504   1.073   5.644   4.058
 8202SOL    HW125505   1.080   5.699   4.142
 8202SOL    HW225506   1.089   5.703   3.979
 8203SOL     OW25507   4.717   3.329   0.449
 8203SOL    HW125508   4.658   3.379   0.384
 8203SOL    HW225509   4.671   3.245   0.477
 8204SOL     OW25510   3.440   5.326   1.270
 8204SOL    HW125511   3.534   5.301   1.250
 8204SOL    HW225512   3.436   5.421   1.302
 8205SOL     OW25513   6.600   4.922   2.005
 8205SOL    HW125514   6.633   4.894   1.915
 8205SOL    HW225515   6.625   4.853   2.073
 8206SOL     OW25516   2.901   2.190   5.565
 8206SOL    HW125517   2.892   2.229   5.657
 8206SOL    HW225518   2.817   2.208   5.514
 8207SOL     OW25519   3.535   4.431   5.346
 8207SOL    HW125520   3.603   4.370   5.306
 8207SOL    HW225521   3.573   4.523   5.354
 8208SOL     OW25522   2.642   6.340   1.296
 8208SOL    HW125523   2.718   6.400   1.317
 8208SOL    HW225524   2.672   6.245   1.299
 8209SOL     OW25525   0.836   1.779   5.320
 8209SOL    HW125526   0.885   1.710   5.268
 8209SOL    HW225527   0.872   1.783   5.413
 8210SOL     OW25528   3.371   0.374   0.361
 8210SOL    HW125529   3.297   0.417   0.310
 8210SOL    HW225530   3.336   0.297   0.414
 8211SOL     OW25531   3.308   4.158   4.015
 8211SOL    HW125532   3.288   4.247   4.055
 8211SOL    HW225533   3.407   4.149   4.002
 8212SOL     OW25534   3.186   0.550   0.876
 8212SOL    HW125535   3.258   0.602   0.921
 8212SOL    HW225536   3.114   0.612   0.844
 8213SOL     OW25537   5.037   4.913   3.466
 8213SOL    HW125538   4.955   4.960   3.432
 8213SOL    HW225539   5.115   4.975   3.462
 8214SOL     OW25540   2.071   6.375   3.942
 8214SOL    HW125541   2.083   6.294   3.885
 8214SOL    HW225542   2.160   6.409   3.971
 8215SOL     OW25543   4.254   5.245   0.696
 8215SOL    HW125544   4.177   5.183   0.684
 8215SOL    HW225545   4.221   5.340   0.695
 8216SOL     OW25546   5.168   7.006   2.820
 8216SOL    HW125547   5.260   6.967   2.835
 8216SOL    HW225548   5.140   0.028   2.902
 8217SOL     OW25549   2.236   4.246   1.894
 8217SOL    HW125550   2.224   4.162   1.841
 8217SOL    HW225551   2.320   4.291   1.866
 8218SOL     OW25552   1.360   0.215   4.644
 8218SOL    HW125553   1.353   0.157   4.563
 8218SOL    HW225554   1.411   0.167   4.715
 8219SOL     OW25555   2.903   4.274   1.002
 8219SOL    HW125556   2.839   4.315   1.067
 8219SOL    HW225557   2.873   4.181   0.981
 8220SOL     OW25558   3.376   4.076   5.349
 8220SOL    HW125559   3.342   4.170   5.344
 8220SOL    HW225560   3.472   4.077   5.374
 8221SOL     OW25561   6.450   4.218   3.150
 8221SOL    HW125562   6.488   4.272   3.074
 8221SOL    HW225563   6.352   4.233   3.155
 8222SOL     OW25564   5.672   1.853   0.733
 8222SOL    HW125565   5.717   1.814   0.652
 8222SOL    HW225566   5.581   1.813   0.743
 8223SOL     OW25567   0.301   5.130   5.874
 8223SOL    HW125568   0.349   5.200   5.820
 8223SOL    HW225569   0.230   5.089   5.818
 8224SOL     OW25570   4.680   1.976   1.320
 8224SOL    HW125571   4.630   2.042   1.375
 8224SOL    HW225572   4.752   1.933   1.375
 8225SOL     OW25573   3.867   0.425   1.213
 8225SOL    HW125574   3.886   0.327   1.213
 8225SOL    HW225575   3.780   0.442   1.259
 8226SOL     OW25576   3.517   0.406   0.655
 8226SOL    HW125577   3.456   0.340   0.611
 8226SOL    HW225578   3.481   0.498   0.643
 8227SOL     OW25579   6.690   1.492   2.304
 8227SOL    HW125580   6.633   1.572   2.321
 8227SOL    HW225581   6.779   1.521   2.268
 8228SOL     OW25582   6.988   1.329   5.706
 8228SOL    HW125583   6.987   1.255   5.774
 8228SOL    HW225584   0.043   1.322   5.651
 8229SOL     OW25585   4.502   4.364   1.216
 8229SOL    HW125586   4.497   4.345   1.118
 8229SOL    HW225587   4.562   4.296   1.259
 8230SOL     OW25588   3.525   7.006   5.938
 8230SOL    HW125589   3.437   7.007   5.891
 8230SOL    HW225590   3.580   6.930   5.903
 8231SOL     OW25591   3.304   2.008   2.624
 8231SOL    HW125592   3.300   1.937   2.694
 8231SOL    HW225593   3.327   2.095   2.667
 8232SOL     OW25594   5.006   1.558   2.535
 8232SOL    HW125595   5.103   1.571   2.554
 8232SOL    HW225596   4.965   1.644   2.505
 8233SOL     OW25597   1.254   0.686   5.672
 8233SOL    HW125598   1.175   0.747   5.663
 8233SOL    HW225599   1.289   0.663   5.581
 8234SOL     OW25600   3.439   2.928   0.331
 8234SOL    HW125601   3.479   2.842   0.299
 8234SOL    HW225602   3.512   2.992   0.353
 8235SOL     OW25603   0.421   4.407   0.205
 8235SOL    HW125604   0.517   4.410   0.236
 8235SOL    HW225605   0.410   4.335   0.137
 8236SOL     OW25606   0.145   5.830   5.657
 8236SOL    HW125607   0.074   5.899   5.670
 8236SOL    HW225608   0.135   5.789   5.566
 8237SOL     OW25609   4.119   5.560   6.037
 8237SOL    HW125610   4.176   5.497   5.985
 8237SOL    HW225611   4.178   5.624   6.087
 8238SOL     OW25612   0.901   5.417   6.902
 8238SOL    HW125613   0.845   5.477   6.959
 8238SOL    HW225614   0.936   5.342   6.958
 8239SOL     OW25615   0.487   1.318   4.924
 8239SOL    HW125616   0.466   1.369   4.840
 8239SOL    HW225617   0.442   1.363   5.002
 8240SOL     OW25618   2.990   3.918   2.976
 8240SOL    HW125619   2.934   3.989   2.932
 8240SOL    HW225620   3.061   3.961   3.032
 8241SOL     OW25621   1.677   3.798   0.023
 8241SOL    HW125622   1.697   3.830   6.960
 8241SOL    HW225623   1.579   3.783   0.033
 8242SOL     OW25624   1.374   3.624   4.570
 8242SOL    HW125625   1.310   3.618   4.646
 8242SOL    HW225626   1.467   3.629   4.605
 8243SOL     OW25627   0.573   3.897   6.603
 8243SOL    HW125628   0.525   3.957   6.668
 8243SOL    HW225629   0.629   3.832   6.653
 8244SOL     OW25630   0.951   0.401   3.712
 8244SOL    HW125631   0.900   0.315   3.703
 8244SOL    HW225632   0.976   0.434   3.620
 8245SOL     OW25633   4.233   2.009   3.461
 8245SOL    HW125634   4.220   2.068   3.541
 8245SOL    HW225635   4.145   1.974   3.431
 8246SOL     OW25636   1.032   4.367   6.189
 8246SOL    HW125637   1.092   4.424   6.245
 8246SOL    HW225638   1.038   4.397   6.093
 8247SOL     OW25639   2.870   5.725   3.591
 8247SOL    HW125640   2.911   5.761   3.507
 8247SOL    HW225641   2.829   5.635   3.572
 8248SOL     OW25642   1.064   6.044   4.463
 8248SOL    HW125643   1.163   6.049   4.478
 8248SOL    HW225644   1.040   6.096   4.381
 8249SOL     OW25645   2.553   1.497   5.024
 8249SOL    HW125646   2.553   1.397   5.020
 8249SOL    HW225647   2.621   1.532   4.960
 8250SOL     OW25648   3.216   1.848   0.702
 8250SOL    HW125649   3.118   1.863   0.689
 8250SOL    HW225650   3.242   1.873   0.795
 8251SOL     OW25651   5.952   1.851   4.479
 8251SOL    HW125652   6.000   1.764   4.470
 8251SOL    HW225653   5.876   1.841   4.543
 8252SOL     OW25654   2.988   2.180   6.943
 8252SOL    HW125655   2.993   2.226   6.855
 8252SOL    HW225656   2.902   2.204   6.988
 8253SOL     OW25657   4.195   5.732   6.608
 8253SOL    HW125658   4.173   5.829   6.620
 8253SOL    HW225659   4.112   5.681   6.587
 8254SOL     OW25660   5.961   4.931   6.301
 8254SOL    HW125661   5.953   4.833   6.285
 8254SOL    HW225662   5.914   4.955   6.386
 8255SOL     OW25663   0.782   6.855   5.863
 8255SOL    HW125664   0.778   6.797   5.944
 8255SOL    HW225665   0.711   6.926   5.869
 8256SOL     OW25666   6.903   0.045   3.393
 8256SOL    HW125667   6.922   0.055   3.295
 8256SOL    HW225668   6.960   7.001   3.431
 8257SOL     OW25669   5.554   3.994   3.911
 8257SOL    HW125670   5.529   3.898   3.924
 8257SOL    HW225671   5.653   4.003   3.910
 8258SOL     OW25672   5.670   2.550   1.266
 8258SOL    HW125673   5.588   2.493   1.269
 8258SOL    HW225674   5.721   2.531   1.182
 8259SOL     OW25675   3.962   1.765   5.057
 8259SOL    HW125676   3.919   1.697   5.116
 8259SOL    HW225677   3.994   1.842   5.113
 8260SOL     OW25678   2.054   6.574   1.041
 8260SOL    HW125679   2.142   6.619   1.056
 8260SOL    HW225680   2.067   6.476   1.031
 8261SOL     OW25681   5.424   6.647   3.065
 8261SOL    HW125682   5.405   6.672   2.970
 8261SOL    HW225683   5.382   6.713   3.126
 8262SOL     OW25684   0.611   4.728   0.519
 8262SOL    HW125685   0.523   4.762   0.487
 8262SOL    HW225686   0.645   4.658   0.456
 8263SOL     OW25687   0.050   2.795   6.665
 8263SOL    HW125688   0.086   2.776   6.757
 8263SOL    HW225689   0.085   2.883   6.634
 8264SOL     OW25690   1.371   6.692   1.307
 8264SOL    HW125691   1.438   6.647   1.248
 8264SOL    HW225692   1.416   6.764   1.360
 8265SOL     OW25693   4.405   0.407   1.534
 8265SOL    HW125694   4.320   0.400   1.586
 8265SOL    HW225695   4.420   0.502   1.506
 8266SOL     OW25696   2.697   0.295   4.593
 8266SOL    HW125697   2.630   0.249   4.535
 8266SOL    HW225698   2.736   0.228   4.657
 8267SOL     OW25699   1.431   5.055   2.129
 8267SOL    HW125700   1.476   4.974   2.091
 8267SOL    HW225701   1.406   5.037   2.224
 8268SOL     OW25702   2.467   4.023   6.572
 8268SOL    HW125703   2.464   3.928   6.541
 8268SOL    HW225704   2.425   4.030   6.663
 8269SOL     OW25705   4.676   2.705   2.834
 8269SOL    HW125706   4.662   2.734   2.739
 8269SOL    HW225707   4.774   2.697   2.852
 8270SOL     OW25708   2.515   6.236   5.732
 8270SOL    HW125709   2.551   6.143   5.739
 8270SOL    HW225710   2.570   6.289   5.667
 8271SOL     OW25711   6.316   0.035   4.105
 8271SOL    HW125712   6.408   0.062   4.133
 8271SOL    HW225713   6.321   7.015   4.017
 8272SOL     OW25714   0.692   0.601   2.380
 8272SOL    HW125715   0.644   0.608   2.292
 8272SOL    HW225716   0.754   0.679   2.390
 8273SOL     OW25717   3.416   0.151   0.167
 8273SOL    HW125718   3.478   0.120   0.239
 8273SOL    HW225719   3.457   0.228   0.119
 8274SOL     OW25720   3.620   4.609   6.776
 8274SOL    HW125721   3.654   4.696   6.813
 8274SOL    HW225722   3.600   4.620   6.679
 8275SOL     OW25723   5.595   6.976   4.629
 8275SOL    HW125724   5.633   0.034   4.661
 8275SOL    HW225725   5.495   6.980   4.634
 8276SOL     OW25726   6.686   2.645   5.945
 8276SOL    HW125727   6.758   2.628   6.012
 8276SOL    HW225728   6.609   2.583   5.963
 8277SOL     OW25729   2.524   5.574   4.999
 8277SOL    HW125730   2.493   5.664   5.030
 8277SOL    HW225731   2.618   5.558   5.031
 8278SOL     OW25732   3.031   1.438   6.383
 8278SOL    HW125733   2.981   1.491   6.314
 8278SOL    HW225734   3.078   1.362   6.339
 8279SOL     OW25735   5.368   5.067   6.900
 8279SOL    HW125736   5.428   5.021   6.965
 8279SOL    HW225737   5.418   5.142   6.857
 8280SOL     OW25738   4.963   2.618   0.049
 8280SOL    HW125739   4.887   2.648   7.020
 8280SOL    HW225740   4.989   2.525   0.024
 8281SOL     OW25741   1.821   4.486   0.623
 8281SOL    HW125742   1.857   4.570   0.584
 8281SOL    HW225743   1.841   4.409   0.562
 8282SOL     OW25744   2.853   2.504   1.245
 8282SOL    HW125745   2.797   2.514   1.327
 8282SOL    HW225746   2.830   2.577   1.180
 8283SOL     OW25747   0.261   5.223   3.487
 8283SOL    HW125748   0.263   5.131   3.448
 8283SOL    HW225749   0.167   5.254   3.495
 8284SOL     OW25750   1.837   2.974   2.603
 8284SOL    HW125751   1.917   3.031   2.585
 8284SOL    HW225752   1.755   3.022   2.570
 8285SOL     OW25753   3.198   3.843   6.336
 8285SOL    HW125754   3.218   3.832   6.238
 8285SOL    HW225755   3.132   3.918   6.347
 8286SOL     OW25756   5.542   1.279   4.921
 8286SOL    HW125757   5.465   1.237   4.971
 8286SOL    HW225758   5.565   1.222   4.842
 8287SOL     OW25759   1.532   6.966   4.535
 8287SOL    HW125760   1.461   6.898   4.553
 8287SOL    HW225761   1.541   6.979   4.436
 8288SOL     OW25762   1.849   2.432   2.554
 8288SOL    HW125763   1.857   2.523   2.513
 8288SOL    HW225764   1.939   2.405   2.591
 8289SOL     OW25765   6.368   0.472   6.167
 8289SOL    HW125766   6.390   0.566   6.192
 8289SOL    HW225767   6.269   0.464   6.153
 8290SOL     OW25768   3.931   3.298   1.700
 8290SOL    HW125769   3.836   3.325   1.711
 8290SOL    HW225770   3.975   3.358   1.633
 8291SOL     OW25771   5.673   6.558   6.463
 8291SOL    HW125772   5.756   6.508   6.487
 8291SOL    HW225773   5.668   6.643   6.515
 8292SOL     OW25774   2.406   5.243   6.132
 8292SOL    HW125775   2.308   5.235   6.117
 8292SOL    HW225776   2.437   5.172   6.196
 8293SOL     OW25777   2.000   4.872   1.349
 8293SOL    HW125778   2.034   4.783   1.381
 8293SOL    HW225779   1.960   4.862   1.258
 8294SOL     OW25780   6.051   3.730   5.267
 8294SOL    HW125781   6.143   3.770   5.271
 8294SOL    HW225782   6.040   3.678   5.183
 8295SOL     OW25783   4.788   4.033   2.538
 8295SOL    HW125784   4.781   4.051   2.440
 8295SOL    HW225785   4.834   3.945   2.552
 8296SOL     OW25786   4.246   5.623   6.927
 8296SOL    HW125787   4.300   5.546   6.893
 8296SOL    HW225788   4.295   5.708   6.912
 8297SOL     OW25789   6.188   4.131   2.116
 8297SOL    HW125790   6.134   4.067   2.061
 8297SOL    HW225791   6.285   4.114   2.099
 8298SOL     OW25792   0.852   0.861   6.495
 8298SOL    HW125793   0.896   0.876   6.584
 8298SOL    HW225794   0.760   0.901   6.496
 8299SOL     OW25795   0.078   3.544   1.226
 8299SOL    HW125796   0.048   3.451   1.205
 8299SOL    HW225797   0.177   3.550   1.217
 8300SOL     OW25798   6.355   6.525   4.883
 8300SOL    HW125799   6.420   6.590   4.843
 8300SOL    HW225800   6.403   6.464   4.946
 8301SOL     OW25801   4.427   0.382   6.627
 8301SOL    HW125802   4.429   0.360   6.529
 8301SOL    HW225803   4.345   0.436   6.647
 8302SOL     OW25804   3.325   6.850   5.036
 8302SOL    HW125805   3.230   6.878   5.053
 8302SOL    HW225806   3.384   6.887   5.107
 8303SOL     OW25807   6.923   0.271   2.915
 8303SOL    HW125808   6.977   0.353   2.898
 8303SOL    HW225809   6.830   0.284   2.882
 8304SOL     OW25810   6.059   4.150   2.574
 8304SOL    HW125811   6.135   4.160   2.510
 8304SOL    HW225812   6.089   4.178   2.666
 8305SOL     OW25813   4.514   5.575   3.893
 8305SOL    HW125814   4.473   5.492   3.856
 8305SOL    HW225815   4.457   5.610   3.968
 8306SOL     OW25816   6.703   1.272   2.531
 8306SOL    HW125817   6.747   1.319   2.454
 8306SOL    HW225818   6.766   1.206   2.570
 8307SOL     OW25819   1.918   5.195   1.234
 8307SOL    HW125820   1.937   5.293   1.231
 8307SOL    HW225821   1.819   5.180   1.240
 8308SOL     OW25822   1.453   4.634   0.081
 8308SOL    HW125823   1.369   4.672   0.121
 8308SOL    HW225824   1.459   4.536   0.103
 8309SOL     OW25825   6.324   5.107   4.433
 8309SOL    HW125826   6.338   5.013   4.465
 8309SOL    HW225827   6.278   5.160   4.503
 8310SOL     OW25828   0.989   6.081   0.849
 8310SOL    HW125829   0.986   6.149   0.922
 8310SOL    HW225830   0.994   5.990   0.888
 8311SOL     OW25831   5.058   0.037   4.277
 8311SOL    HW125832   4.979   7.008   4.257
 8311SOL    HW225833   5.060   0.114   4.213
 8312SOL     OW25834   5.664   0.422   0.644
 8312SOL    HW125835   5.704   0.506   0.679
 8312SOL    HW225836   5.584   0.443   0.587
 8313SOL     OW25837   4.108   6.965   5.509
 8313SOL    HW125838   4.133   6.981   5.605
 8313SOL    HW225839   4.180   7.001   5.450
 8314SOL     OW25840   5.777   6.380   6.791
 8314SOL    HW125841   5.765   6.281   6.802
 8314SOL    HW225842   5.823   6.398   6.704
 8315SOL     OW25843   3.652   3.674   3.522
 8315SOL    HW125844   3.685   3.650   3.431
 8315SOL    HW225845   3.638   3.590   3.575
 8316SOL     OW25846   0.989   3.317   6.582
 8316SOL    HW125847   1.049   3.287   6.507
 8316SOL    HW225848   0.950   3.406   6.559
 8317SOL     OW25849   2.067   2.039   4.479
 8317SOL    HW125850   2.130   2.080   4.413
 8317SOL    HW225851   2.050   1.944   4.455
 8318SOL     OW25852   4.526   1.147   6.102
 8318SOL    HW125853   4.437   1.193   6.096
 8318SOL    HW225854   4.580   1.171   6.021
 8319SOL     OW25855   1.603   7.026   5.882
 8319SOL    HW125856   1.549   7.002   5.963
 8319SOL    HW225857   1.691   6.979   5.886
 8320SOL     OW25858   3.452   3.895   3.794
 8320SOL    HW125859   3.385   3.933   3.857
 8320SOL    HW225860   3.408   3.832   3.731
 8321SOL     OW25861   0.235   0.187   6.149
 8321SOL    HW125862   0.240   0.286   6.138
 8321SOL    HW225863   0.145   0.155   6.122
 8322SOL     OW25864   0.154   0.959   0.588
 8322SOL    HW125865   0.191   1.007   0.509
 8322SOL    HW225866   0.212   0.881   0.610
 8323SOL     OW25867   4.586   4.644   1.162
 8323SOL    HW125868   4.544   4.559   1.192
 8323SOL    HW225869   4.685   4.639   1.176
 8324SOL     OW25870   5.947   0.400   7.013
 8324SOL    HW125871   5.914   0.494   7.006
 8324SOL    HW225872   5.883   0.339   6.967
 8325SOL     OW25873   1.520   4.913   5.288
 8325SOL    HW125874   1.563   4.946   5.373
 8325SOL    HW225875   1.500   4.815   5.297
 8326SOL     OW25876   3.791   3.829   0.238
 8326SOL    HW125877   3.872   3.803   0.185
 8326SOL    HW225878   3.756   3.917   0.203
 8327SOL     OW25879   0.340   0.570   5.702
 8327SOL    HW125880   0.301   0.657   5.671
 8327SOL    HW225881   0.340   0.505   5.626
 8328SOL     OW25882   1.240   6.784   5.535
 8328SOL    HW125883   1.232   6.686   5.554
 8328SOL    HW225884   1.218   6.836   5.618
 8329SOL     OW25885   0.583   2.857   5.318
 8329SOL    HW125886   0.522   2.822   5.388
 8329SOL    HW225887   0.669   2.887   5.361
 8330SOL     OW25888   3.959   0.871   6.395
 8330SOL    HW125889   3.998   0.946   6.447
 8330SOL    HW225890   3.988   0.784   6.434
 8331SOL     OW25891   2.846   2.060   0.278
 8331SOL    HW125892   2.854   1.972   0.231
 8331SOL    HW225893   2.756   2.099   0.260
 8332SOL     OW25894   5.531   5.686   1.924
 8332SOL    HW125895   5.519   5.701   2.022
 8332SOL    HW225896   5.543   5.588   1.906
 8333SOL     OW25897   1.827   5.116   0.617
 8333SOL    HW125898   1.866   5.050   0.552
 8333SOL    HW225899   1.901   5.164   0.664
 8334SOL     OW25900   3.037   1.876   6.445
 8334SOL    HW125901   3.072   1.799   6.498
 8334SOL    HW225902   3.065   1.962   6.488
 8335SOL     OW25903   4.451   2.944   6.784
 8335SOL    HW125904   4.425   2.864   6.837
 8335SOL    HW225905   4.550   2.941   6.765
 8336SOL     OW25906   1.362   3.965   2.759
 8336SOL    HW125907   1.379   3.873   2.796
 8336SOL    HW225908   1.273   3.998   2.790
 8337SOL     OW25909   0.994   0.151   4.806
 8337SOL    HW125910   1.088   0.177   4.827
 8337SOL    HW225911   0.984   0.052   4.813
 8338SOL     OW25912   3.895   4.952   2.344
 8338SOL    HW125913   3.835   4.968   2.266
 8338SOL    HW225914   3.980   4.911   2.312
 8339SOL     OW25915   6.468   0.837   0.745
 8339SOL    HW125916   6.558   0.880   0.745
 8339SOL    HW225917   6.465   0.767   0.673
 8340SOL     OW25918   4.890   3.926   0.123
 8340SOL    HW125919   4.978   3.929   0.075
 8340SOL    HW225920   4.893   3.987   0.202
 8341SOL     OW25921   3.328   0.692   6.514
 8341SOL    HW125922   3.289   0.754   6.582
 8341SOL    HW225923   3.314   0.597   6.543
 8342SOL     OW25924   3.353   6.248   0.638
 8342SOL    HW125925   3.306   6.310   0.701
 8342SOL    HW225926   3.360   6.157   0.680
 8343SOL     OW25927   6.593   5.547   4.330
 8343SOL    HW125928   6.525   5.474   4.325
 8343SOL    HW225929   6.670   5.525   4.269
 8344SOL     OW25930   0.415   4.696   4.422
 8344SOL    HW125931   0.404   4.734   4.330
 8344SOL    HW225932   0.364   4.751   4.487
 8345SOL     OW25933   5.075   1.661   3.608
 8345SOL    HW125934   5.062   1.760   3.615
 8345SOL    HW225935   5.042   1.629   3.520
 8346SOL     OW25936   4.066   3.384   6.292
 8346SOL    HW125937   4.004   3.367   6.369
 8346SOL    HW225938   4.013   3.389   6.207
 8347SOL     OW25939   2.695   6.583   6.362
 8347SOL    HW125940   2.600   6.569   6.391
 8347SOL    HW225941   2.754   6.517   6.409
 8348SOL     OW25942   2.783   6.580   1.400
 8348SOL    HW125943   2.707   6.645   1.400
 8348SOL    HW225944   2.785   6.531   1.486
 8349SOL     OW25945   0.987   6.412   1.497
 8349SOL    HW125946   1.014   6.484   1.560
 8349SOL    HW225947   0.915   6.446   1.437
 8350SOL     OW25948   2.761   6.798   6.527
 8350SOL    HW125949   2.725   6.741   6.453
 8350SOL    HW225950   2.801   6.740   6.598
 8351SOL     OW25951   5.505   5.695   3.981
 8351SOL    HW125952   5.492   5.783   3.935
 8351SOL    HW225953   5.505   5.622   3.913
 8352SOL     OW25954   2.480   6.362   2.520
 8352SOL    HW125955   2.498   6.297   2.446
 8352SOL    HW225956   2.488   6.316   2.608
 8353SOL     OW25957   2.070   4.265   1.288
 8353SOL    HW125958   2.047   4.189   1.227
 8353SOL    HW225959   2.162   4.298   1.269
 8354SOL     OW25960   3.513   6.388   4.116
 8354SOL    HW125961   3.570   6.442   4.053
 8354SOL    HW225962   3.447   6.448   4.161
 8355SOL     OW25963   1.998   0.687   6.287
 8355SOL    HW125964   1.945   0.678   6.372
 8355SOL    HW225965   2.075   0.749   6.302
 8356SOL     OW25966   1.049   5.170   1.792
 8356SOL    HW125967   1.082   5.138   1.881
 8356SOL    HW225968   1.126   5.204   1.738
 8357SOL     OW25969   3.647   5.496   5.923
 8357SOL    HW125970   3.638   5.568   5.855
 8357SOL    HW225971   3.692   5.417   5.882
 8358SOL     OW25972   0.781   3.283   5.620
 8358SOL    HW125973   0.759   3.333   5.537
 8358SOL    HW225974   0.726   3.200   5.624
 8359SOL     OW25975   2.364   1.123   4.549
 8359SOL    HW125976   2.265   1.108   4.541
 8359SOL    HW225977   2.382   1.222   4.547
 8360SOL     OW25978   4.850   6.743   0.720
 8360SOL    HW125979   4.866   6.742   0.818
 8360SOL    HW225980   4.774   6.804   0.699
 8361SOL     OW25981   2.992   0.037   6.694
 8361SOL    HW125982   2.928   0.001   6.626
 8361SOL    HW225983   2.984   7.013   6.778
 8362SOL     OW25984   6.577   1.904   0.768
 8362SOL    HW125985   6.644   1.978   0.761
 8362SOL    HW225986   6.485   1.943   0.769
 8363SOL     OW25987   4.778   1.878   0.678
 8363SOL    HW125988   4.807   1.811   0.746
 8363SOL    HW225989   4.792   1.970   0.713
 8364SOL     OW25990   0.789   2.937   3.718
 8364SOL    HW125991   0.879   2.942   3.760
 8364SOL    HW225992   0.786   2.995   3.637
 8365SOL     OW25993   1.746   2.184   2.889
 8365SOL    HW125994   1.662   2.139   2.919
 8365SOL    HW225995   1.819   2.166   2.955
 8366SOL     OW25996   3.839   5.167   1.009
 8366SOL    HW125997   3.897   5.225   0.952
 8366SOL    HW225998   3.893   5.133   1.087
 8367SOL     OW25999   3.168   4.879   5.348
 8367SOL    HW126000   3.158   4.973   5.379
 8367SOL    HW226001   3.122   4.817   5.412
 8368SOL     OW26002   1.386   6.207   6.687
 8368SOL    HW126003   1.353   6.292   6.646
 8368SOL    HW226004   1.428   6.227   6.776
 8369SOL     OW26005   0.881   1.188   0.958
 8369SOL    HW126006   0.812   1.127   0.919
 8369SOL    HW226007   0.947   1.213   0.887
 8370SOL     OW26008   2.532   1.264   6.197
 8370SOL    HW126009   2.533   1.198   6.273
 8370SOL    HW226010   2.453   1.325   6.209
 8371SOL     OW26011   1.568   3.474   6.184
 8371SOL    HW126012   1.622   3.513   6.109
 8371SOL    HW226013   1.506   3.543   6.220
 8372SOL     OW26014   2.203   5.801   1.995
 8372SOL    HW126015   2.118   5.824   1.949
 8372SOL    HW226016   2.195   5.710   2.037
 8373SOL     OW26017   1.416   1.381   4.471
 8373SOL    HW126018   1.485   1.316   4.503
 8373SOL    HW226019   1.455   1.474   4.472
 8374SOL     OW26020   0.973   0.659   4.482
 8374SOL    HW126021   1.041   0.587   4.495
 8374SOL    HW226022   0.883   0.625   4.508
 8375SOL     OW26023   3.112   0.400   5.870
 8375SOL    HW126024   3.036   0.409   5.934
 8375SOL    HW226025   3.188   0.353   5.914
 8376SOL     OW26026   1.809   1.126   4.044
 8376SOL    HW126027   1.818   1.102   4.141
 8376SOL    HW226028   1.832   1.222   4.031
 8377SOL     OW26029   5.755   5.376   0.582
 8377SOL    HW126030   5.708   5.455   0.543
 8377SOL    HW226031   5.690   5.301   0.594
 8378SOL     OW26032   5.277   5.066   3.353
 8378SOL    HW126033   5.235   5.156   3.370
 8378SOL    HW226034   5.313   5.030   3.439
 8379SOL     OW26035   5.065   2.525   1.667
 8379SOL    HW126036   4.999   2.596   1.640
 8379SOL    HW226037   5.064   2.452   1.599
 8380SOL     OW26038   0.524   6.708   6.372
 8380SOL    HW126039   0.550   6.747   6.460
 8380SOL    HW226040   0.515   6.782   6.305
 8381SOL     OW26041   0.010   2.239   3.378
 8381SOL    HW126042   0.002   2.169   3.449
 8381SOL    HW226043   6.956   2.241   3.323
 8382SOL     OW26044   2.539   0.350   1.037
 8382SOL    HW126045   2.484   0.358   1.120
 8382SOL    HW226046   2.498   0.406   0.965
 8383SOL     OW26047   2.567   0.664   5.271
 8383SOL    HW126048   2.490   0.669   5.208
 8383SOL    HW226049   2.622   0.747   5.263
 8384SOL     OW26050   6.874   1.328   0.730
 8384SOL    HW126051   6.901   1.265   0.802
 8384SOL    HW226052   6.878   1.281   0.642
 8385SOL     OW26053   4.775   2.589   0.541
 8385SOL    HW126054   4.875   2.589   0.538
 8385SOL    HW226055   4.740   2.549   0.456
 8386SOL     OW26056   1.737   5.441   1.361
 8386SOL    HW126057   1.664   5.423   1.296
 8386SOL    HW226058   1.750   5.362   1.420
 8387SOL     OW26059   1.721   1.454   1.522
 8387SOL    HW126060   1.655   1.458   1.597
 8387SOL    HW226061   1.677   1.415   1.441
 8388SOL     OW26062   1.441   0.427   1.058
 8388SOL    HW126063   1.525   0.465   1.097
 8388SOL    HW226064   1.406   0.354   1.117
 8389SOL     OW26065   0.825   3.146   4.084
 8389SOL    HW126066   0.750   3.207   4.111
 8389SOL    HW226067   0.790   3.053   4.072
 8390SOL     OW26068   3.696   0.168   6.548
 8390SOL    HW126069   3.762   0.142   6.618
 8390SOL    HW226070   3.625   0.225   6.589
 8391SOL     OW26071   5.032   5.360   1.003
 8391SOL    HW126072   5.116   5.307   1.002
 8391SOL    HW226073   5.042   5.437   1.067
 8392SOL     OW26074   6.827   5.588   5.636
 8392SOL    HW126075   6.917   5.558   5.666
 8392SOL    HW226076   6.779   5.631   5.712
 8393SOL     OW26077   6.972   0.495   3.811
 8393SOL    HW126078   6.940   0.414   3.764
 8393SOL    HW226079   6.894   0.550   3.841
 8394SOL     OW26080   0.303   2.182   1.998
 8394SOL    HW126081   0.336   2.157   1.907
 8394SOL    HW226082   0.241   2.111   2.032
 8395SOL     OW26083   1.470   6.889   4.260
 8395SOL    HW126084   1.437   6.857   4.171
 8395SOL    HW226085   1.432   6.832   4.332
 8396SOL     OW26086   4.582   4.399   2.196
 8396SOL    HW126087   4.537   4.488   2.191
 8396SOL    HW226088   4.564   4.348   2.112
 8397SOL     OW26089   2.588   0.402   3.129
 8397SOL    HW126090   2.683   0.424   3.153
 8397SOL    HW226091   2.532   0.403   3.212
 8398SOL     OW26092   3.576   1.872   6.918
 8398SOL    HW126093   3.627   1.809   6.976
 8398SOL    HW226094   3.497   1.825   6.880
 8399SOL     OW26095   6.912   6.797   6.713
 8399SOL    HW126096   6.861   6.854   6.777
 8399SOL    HW226097   6.848   6.747   6.654
 8400SOL     OW26098   1.150   0.653   3.284
 8400SOL    HW126099   1.145   0.650   3.184
 8400SOL    HW226100   1.246   0.646   3.312
 8401SOL     OW26101   3.917   2.772   6.262
 8401SOL    HW126102   4.007   2.753   6.299
 8401SOL    HW226103   3.909   2.870   6.242
 8402SOL     OW26104   3.148   1.777   6.004
 8402SOL    HW126105   3.172   1.704   6.067
 8402SOL    HW226106   3.089   1.741   5.931
 8403SOL     OW26107   0.416   1.846   3.417
 8403SOL    HW126108   0.445   1.755   3.388
 8403SOL    HW226109   0.396   1.844   3.515
 8404SOL     OW26110   5.808   5.992   6.959
 8404SOL    HW126111   5.823   5.916   6.897
 8404SOL    HW226112   5.710   6.002   6.977
 8405SOL     OW26113   1.947   1.391   6.875
 8405SOL    HW126114   1.925   1.488   6.884
 8405SOL    HW226115   1.890   1.338   6.938
 8406SOL     OW26116   3.693   0.743   1.223
 8406SOL    HW126117   3.733   0.743   1.315
 8406SOL    HW226118   3.763   0.769   1.157
 8407SOL     OW26119   5.403   5.907   4.282
 8407SOL    HW126120   5.492   5.943   4.254
 8407SOL    HW226121   5.341   5.982   4.303
 8408SOL     OW26122   4.747   1.704   3.449
 8408SOL    HW126123   4.773   1.728   3.542
 8408SOL    HW226124   4.732   1.787   3.396
 8409SOL     OW26125   6.265   2.385   3.841
 8409SOL    HW126126   6.238   2.293   3.812
 8409SOL    HW226127   6.226   2.403   3.932
 8410SOL     OW26128   4.483   0.643   1.998
 8410SOL    HW126129   4.393   0.638   2.043
 8410SOL    HW226130   4.525   0.732   2.018
 8411SOL     OW26131   1.761   5.610   4.056
 8411SOL    HW126132   1.671   5.569   4.070
 8411SOL    HW226133   1.820   5.589   4.134
 8412SOL     OW26134   4.252   1.856   1.525
 8412SOL    HW126135   4.216   1.946   1.501
 8412SOL    HW226136   4.336   1.838   1.474
 8413SOL     OW26137   4.939   4.723   0.286
 8413SOL    HW126138   4.883   4.649   0.322
 8413SOL    HW226139   4.982   4.694   0.200
 8414SOL     OW26140   4.541   6.799   2.739
 8414SOL    HW126141   4.529   6.726   2.672
 8414SOL    HW226142   4.581   6.879   2.695
 8415SOL     OW26143   7.009   5.283   3.969
 8415SOL    HW126144   7.006   5.207   4.034
 8415SOL    HW226145   0.075   5.301   3.943
 8416SOL     OW26146   5.118   4.641   3.423
 8416SOL    HW126147   5.049   4.582   3.381
 8416SOL    HW226148   5.073   4.719   3.467
 8417SOL     OW26149   1.367   5.331   5.737
 8417SOL    HW126150   1.344   5.407   5.677
 8417SOL    HW226151   1.462   5.340   5.768
 8418SOL     OW26152   6.254   5.348   1.618
 8418SOL    HW126153   6.221   5.289   1.691
 8418SOL    HW226154   6.334   5.399   1.650
 8419SOL     OW26155   4.567   1.117   2.255
 8419SOL    HW126156   4.497   1.134   2.325
 8419SOL    HW226157   4.596   1.204   2.215
 8420SOL     OW26158   3.560   6.936   1.019
 8420SOL    HW126159   3.543   6.987   0.935
 8420SOL    HW226160   3.563   6.839   0.999
 8421SOL     OW26161   2.788   6.416   0.757
 8421SOL    HW126162   2.865   6.409   0.820
 8421SOL    HW226163   2.703   6.398   0.807
 8422SOL     OW26164   4.850   6.324   1.758
 8422SOL    HW126165   4.941   6.293   1.730
 8422SOL    HW226166   4.857   6.376   1.843
 8423SOL     OW26167   4.083   3.645   5.913
 8423SOL    HW126168   4.174   3.620   5.945
 8423SOL    HW226169   4.032   3.687   5.988
 8424SOL     OW26170   2.367   2.632   3.000
 8424SOL    HW126171   2.356   2.695   3.078
 8424SOL    HW226172   2.465   2.619   2.982
 8425SOL     OW26173   6.497   5.347   0.822
 8425SOL    HW126174   6.530   5.437   0.796
 8425SOL    HW226175   6.533   5.278   0.759
 8426SOL     OW26176   3.845   2.952   4.432
 8426SOL    HW126177   3.892   3.041   4.433
 8426SOL    HW226178   3.894   2.888   4.490
 8427SOL     OW26179   1.890   4.152   6.205
 8427SOL    HW126180   1.926   4.162   6.298
 8427SOL    HW226181   1.965   4.128   6.143
 8428SOL     OW26182   6.354   4.700   1.844
 8428SOL    HW126183   6.452   4.694   1.860
 8428SOL    HW226184   6.332   4.787   1.801
 8429SOL     OW26185   2.116   4.425   4.085
 8429SOL    HW126186   2.198   4.373   4.108
 8429SOL    HW226187   2.082   4.472   4.166
 8430SOL     OW26188   4.344   5.494   3.295
 8430SOL    HW126189   4.409   5.507   3.220
 8430SOL    HW226190   4.267   5.557   3.284
 8431SOL     OW26191   2.129   5.128   1.065
 8431SOL    HW126192   2.097   5.146   0.972
 8431SOL    HW226193   2.069   5.176   1.130
 8432SOL     OW26194   4.667   6.074   5.391
 8432SOL    HW126195   4.680   6.006   5.320
 8432SOL    HW226196   4.569   6.092   5.402
 8433SOL     OW26197   6.748   2.766   6.388
 8433SOL    HW126198   6.669   2.807   6.434
 8433SOL    HW226199   6.767   2.816   6.303
 8434SOL     OW26200   2.716   0.123   4.841
 8434SOL    HW126201   2.643   0.077   4.891
 8434SOL    HW226202   2.744   0.205   4.892
 8435SOL     OW26203   4.850   1.209   0.922
 8435SOL    HW126204   4.827   1.209   0.825
 8435SOL    HW226205   4.803   1.133   0.967
 8436SOL     OW26206   2.876   6.451   4.511
 8436SOL    HW126207   2.878   6.371   4.451
 8436SOL    HW226208   2.960   6.503   4.501
 8437SOL     OW26209   2.297   0.551   2.706
 8437SOL    HW126210   2.374   0.530   2.766
 8437SOL    HW226211   2.228   0.603   2.757
 8438SOL     OW26212   3.232   4.957   2.018
 8438SOL    HW126213   3.142   4.915   2.017
 8438SOL    HW226214   3.223   5.057   2.016
 8439SOL     OW26215   6.788   5.933   0.944
 8439SOL    HW126216   6.781   6.005   1.013
 8439SOL    HW226217   6.753   5.848   0.983
 8440SOL     OW26218   0.423   1.382   3.183
 8440SOL    HW126219   0.448   1.340   3.270
 8440SOL    HW226220   0.371   1.466   3.200
 8441SOL     OW26221   6.756   6.519   0.171
 8441SOL    HW126222   6.734   6.437   0.118
 8441SOL    HW226223   6.686   6.533   0.242
 8442SOL     OW26224   3.542   3.223   6.105
 8442SOL    HW126225   3.453   3.177   6.105
 8442SOL    HW226226   3.555   3.270   6.019
 8443SOL     OW26227   1.172   0.020   3.133
 8443SOL    HW126228   1.163   6.980   3.205
 8443SOL    HW226229   1.268   0.025   3.104
 8444SOL     OW26230   3.433   5.916   3.849
 8444SOL    HW126231   3.383   5.856   3.911
 8444SOL    HW226232   3.370   5.955   3.782
 8445SOL     OW26233   3.494   5.253   2.029
 8445SOL    HW126234   3.454   5.343   2.015
 8445SOL    HW226235   3.583   5.248   1.985
 8446SOL     OW26236   5.611   5.638   1.264
 8446SOL    HW126237   5.595   5.721   1.211
 8446SOL    HW226238   5.632   5.562   1.201
 8447SOL     OW26239   5.860   2.011   1.922
 8447SOL    HW126240   5.769   2.026   1.884
 8447SOL    HW226241   5.923   2.079   1.885
 8448SOL     OW26242   6.298   3.852   5.275
 8448SOL    HW126243   6.380   3.798   5.261
 8448SOL    HW226244   6.312   3.914   5.352
 8449SOL     OW26245   6.997   2.912   4.671
 8449SOL    HW126246   7.011   2.850   4.593
 8449SOL    HW226247   0.012   3.000   4.652
 8450SOL     OW26248   1.331   6.055   1.897
 8450SOL    HW126249   1.329   6.066   1.798
 8450SOL    HW226250   1.409   6.104   1.935
 8451SOL     OW26251   4.681   2.835   0.469
 8451SOL    HW126252   4.704   2.845   0.372
 8451SOL    HW226253   4.718   2.749   0.504
 8452SOL     OW26254   6.908   0.252   1.389
 8452SOL    HW126255   6.863   0.307   1.459
 8452SOL    HW226256   6.991   0.210   1.426
 8453SOL     OW26257   6.654   4.477   6.213
 8453SOL    HW126258   6.750   4.447   6.208
 8453SOL    HW226259   6.609   4.432   6.290
 8454SOL     OW26260   1.096   5.572   1.176
 8454SOL    HW126261   1.120   5.526   1.261
 8454SOL    HW226262   1.084   5.505   1.103
 8455SOL     OW26263   4.694   2.346   1.146
 8455SOL    HW126264   4.599   2.327   1.171
 8455SOL    HW226265   4.725   2.278   1.079
 8456SOL     OW26266   5.283   4.668   3.201
 8456SOL    HW126267   5.234   4.676   3.289
 8456SOL    HW226268   5.319   4.758   3.175
 8457SOL     OW26269   6.217   6.605   5.710
 8457SOL    HW126270   6.220   6.661   5.627
 8457SOL    HW226271   6.252   6.658   5.787
 8458SOL     OW26272   2.353   1.183   6.790
 8458SOL    HW126273   2.378   1.229   6.704
 8458SOL    HW226274   2.436   1.162   6.841
 8459SOL     OW26275   3.052   6.928   1.027
 8459SOL    HW126276   2.998   6.859   1.075
 8459SOL    HW226277   3.068   7.006   1.087
 8460SOL     OW26278   4.318   2.487   5.860
 8460SOL    HW126279   4.325   2.571   5.914
 8460SOL    HW226280   4.406   2.439   5.862
 8461SOL     OW26281   0.890   3.975   1.873
 8461SOL    HW126282   0.840   4.019   1.798
 8461SOL    HW226283   0.825   3.945   1.943
 8462SOL     OW26284   3.267   2.638   0.137
 8462SOL    HW126285   3.222   2.691   0.209
 8462SOL    HW226286   3.345   2.691   0.101
 8463SOL     OW26287   6.988   1.156   0.526
 8463SOL    HW126288   0.033   1.117   0.581
 8463SOL    HW226289   7.024   1.182   0.436
 8464SOL     OW26290   0.207   4.425   5.149
 8464SOL    HW126291   0.112   4.394   5.163
 8464SOL    HW226292   0.209   4.525   5.147
 8465SOL     OW26293   3.453   2.289   0.722
 8465SOL    HW126294   3.401   2.238   0.653
 8465SOL    HW226295   3.396   2.306   0.802
 8466SOL     OW26296   5.573   6.730   5.114
 8466SOL    HW126297   5.670   6.706   5.114
 8466SOL    HW226298   5.530   6.696   5.031
 8467SOL     OW26299   3.929   0.800   1.102
 8467SOL    HW126300   3.998   0.846   1.047
 8467SOL    HW226301   3.971   0.726   1.154
 8468SOL     OW26302   4.815   2.877   0.200
 8468SOL    HW126303   4.876   2.835   0.134
 8468SOL    HW226304   4.861   2.953   0.246
 8469SOL     OW26305   2.684   1.646   5.717
 8469SOL    HW126306   2.722   1.732   5.682
 8469SOL    HW226307   2.641   1.596   5.642
 8470SOL     OW26308   0.909   4.873   7.012
 8470SOL    HW126309   0.823   4.869   6.962
 8470SOL    HW226310   0.981   4.909   6.952
 8471SOL     OW26311   4.059   0.561   5.915
 8471SOL    HW126312   4.004   0.489   5.874
 8471SOL    HW226313   4.112   0.607   5.843
 8472SOL     OW26314   6.009   0.603   5.286
 8472SOL    HW126315   5.965   0.520   5.252
 8472SOL    HW226316   5.947   0.680   5.274
 8473SOL     OW26317   6.145   5.400   0.904
 8473SOL    HW126318   6.085   5.392   0.983
 8473SOL    HW226319   6.168   5.308   0.871
 8474SOL     OW26320   3.552   3.264   1.889
 8474SOL    HW126321   3.558   3.177   1.939
 8474SOL    HW226322   3.456   3.291   1.880
 8475SOL     OW26323   7.027   2.584   3.011
 8475SOL    HW126324   0.054   2.512   3.050
 8475SOL    HW226325   6.930   2.562   3.024
 8476SOL     OW26326   0.034   1.766   1.074
 8476SOL    HW126327   7.021   1.696   1.016
 8476SOL    HW226328   0.107   1.726   1.130
 8477SOL     OW26329   4.417   6.460   2.802
 8477SOL    HW126330   4.336   6.518   2.802
 8477SOL    HW226331   4.393   6.369   2.837
 8478SOL     OW26332   1.048   0.834   5.681
 8478SOL    HW126333   0.965   0.829   5.625
 8478SOL    HW226334   1.075   0.930   5.693
 8479SOL     OW26335   1.524   3.830   1.076
 8479SOL    HW126336   1.545   3.753   1.137
 8479SOL    HW226337   1.454   3.887   1.118
 8480SOL     OW26338   5.219   3.403   0.073
 8480SOL    HW126339   5.208   3.502   0.078
 8480SOL    HW226340   5.227   3.376   7.005
 8481SOL     OW26341   4.664   2.309   4.891
 8481SOL    HW126342   4.762   2.328   4.890
 8481SOL    HW226343   4.615   2.383   4.845
 8482SOL     OW26344   5.108   0.561   2.341
 8482SOL    HW126345   5.206   0.547   2.355
 8482SOL    HW226346   5.070   0.482   2.293
 8483SOL     OW26347   3.121   5.602   3.301
 8483SOL    HW126348   3.086   5.692   3.277
 8483SOL    HW226349   3.097   5.536   3.230
 8484SOL     OW26350   6.404   6.289   4.070
 8484SOL    HW126351   6.493   6.281   4.116
 8484SOL    HW226352   6.333   6.245   4.126
 8485SOL     OW26353   3.775   2.638   0.095
 8485SOL    HW126354   3.854   2.623   0.155
 8485SOL    HW226355   3.738   2.550   0.065
 8486SOL     OW26356   2.397   1.305   2.745
 8486SOL    HW126357   2.378   1.393   2.788
 8486SOL    HW226358   2.495   1.293   2.734
 8487SOL     OW26359   5.965   2.510   6.084
 8487SOL    HW126360   5.981   2.504   6.183
 8487SOL    HW226361   5.873   2.546   6.067
 8488SOL     OW26362   5.597   6.269   2.073
 8488SOL    HW126363   5.622   6.193   2.015
 8488SOL    HW226364   5.671   6.336   2.076
 8489SOL     OW26365   6.186   1.239   1.743
 8489SOL    HW126366   6.277   1.213   1.712
 8489SOL    HW226367   6.120   1.223   1.669
 8490SOL     OW26368   3.111   6.879   5.640
 8490SOL    HW126369   3.103   6.780   5.652
 8490SOL    HW226370   3.161   6.898   5.555
 8491SOL     OW26371   1.797   6.241   2.441
 8491SOL    HW126372   1.853   6.179   2.496
 8491SOL    HW226373   1.771   6.320   2.497
 8492SOL     OW26374   5.811   4.336   4.838
 8492SOL    HW126375   5.781   4.376   4.925
 8492SOL    HW226376   5.895   4.283   4.853
 8493SOL     OW26377   1.859   2.520   6.294
 8493SOL    HW126378   1.769   2.551   6.324
 8493SOL    HW226379   1.928   2.545   6.362
 8494SOL     OW26380   4.330   5.704   1.830
 8494SOL    HW126381   4.325   5.731   1.733
 8494SOL    HW226382   4.304   5.782   1.887
 8495SOL     OW26383   0.154   4.957   1.207
 8495SOL    HW126384   0.068   5.000   1.235
 8495SOL    HW226385   0.135   4.880   1.147
 8496SOL     OW26386   0.156   1.111   2.730
 8496SOL    HW126387   0.186   1.133   2.823
 8496SOL    HW226388   0.213   1.161   2.665
 8497SOL     OW26389   0.161   1.589   3.428
 8497SOL    HW126390   0.069   1.550   3.419
 8497SOL    HW226391   0.153   1.687   3.449
 8498SOL     OW26392   6.711   6.890   2.880
 8498SOL    HW126393   6.615   6.914   2.898
 8498SOL    HW226394   6.768   6.971   2.890
 8499SOL     OW26395   1.309   3.663   0.219
 8499SOL    HW126396   1.313   3.673   0.120
 8499SOL    HW226397   1.214   3.675   0.249
 8500SOL     OW26398   1.933   6.218   5.947
 8500SOL    HW126399   2.031   6.205   5.964
 8500SOL    HW226400   1.889   6.128   5.941
 8501SOL     OW26401   0.279   2.719   6.058
 8501SOL    HW126402   0.243   2.656   5.989
 8501SOL    HW226403   0.306   2.805   6.014
 8502SOL     OW26404   0.411   2.903   1.594
 8502SOL    HW126405   0.369   2.958   1.666
 8502SOL    HW226406   0.410   2.955   1.508
 8503SOL     OW26407   0.619   5.674   4.957
 8503SOL    HW126408   0.567   5.627   5.029
 8503SOL    HW226409   0.635   5.769   4.984
 8504SOL     OW26410   2.048   5.562   2.115
 8504SOL    HW126411   2.062   5.465   2.133
 8504SOL    HW226412   1.994   5.573   2.032
 8505SOL     OW26413   6.570   3.269   2.874
 8505SOL    HW126414   6.505   3.211   2.826
 8505SOL    HW226415   6.661   3.257   2.835
 8506SOL     OW26416   1.471   1.250   6.996
 8506SOL    HW126417   1.379   1.242   6.959
 8506SOL    HW226418   1.498   1.346   6.997
 8507SOL     OW26419   3.660   6.857   5.348
 8507SOL    HW126420   3.702   6.771   5.375
 8507SOL    HW226421   3.635   6.853   5.251
 8508SOL     OW26422   4.562   1.963   5.418
 8508SOL    HW126423   4.476   1.982   5.371
 8508SOL    HW226424   4.589   1.868   5.401
 8509SOL     OW26425   5.405   0.584   3.187
 8509SOL    HW126426   5.349   0.662   3.214
 8509SOL    HW226427   5.467   0.611   3.114
 8510SOL     OW26428   5.795   4.095   2.618
 8510SOL    HW126429   5.875   4.106   2.560
 8510SOL    HW226430   5.783   3.999   2.641
 8511SOL     OW26431   6.164   3.572   2.597
 8511SOL    HW126432   6.204   3.664   2.606
 8511SOL    HW226433   6.111   3.551   2.679
 8512SOL     OW26434   3.088   0.719   2.766
 8512SOL    HW126435   3.061   0.704   2.671
 8512SOL    HW226436   3.188   0.709   2.773
 8513SOL     OW26437   0.090   5.346   0.805
 8513SOL    HW126438   0.052   5.386   0.721
 8513SOL    HW226439   0.148   5.414   0.851
 8514SOL     OW26440   2.486   0.547   4.086
 8514SOL    HW126441   2.545   0.615   4.043
 8514SOL    HW226442   2.400   0.542   4.035
 8515SOL     OW26443   5.051   2.566   1.223
 8515SOL    HW126444   5.038   2.625   1.303
 8515SOL    HW226445   4.970   2.508   1.211
 8516SOL     OW26446   0.355   1.728   2.241
 8516SOL    HW126447   0.424   1.657   2.225
 8516SOL    HW226448   0.398   1.809   2.280
 8517SOL     OW26449   0.631   3.037   5.587
 8517SOL    HW126450   0.533   3.028   5.567
 8517SOL    HW226451   0.684   3.008   5.508
 8518SOL     OW26452   4.710   4.259   6.556
 8518SOL    HW126453   4.712   4.328   6.484
 8518SOL    HW226454   4.648   4.185   6.530
 8519SOL     OW26455   1.719   5.426   1.958
 8519SOL    HW126456   1.812   5.458   1.940
 8519SOL    HW226457   1.670   5.415   1.872
 8520SOL     OW26458   3.823   0.891   0.497
 8520SOL    HW126459   3.868   0.898   0.408
 8520SOL    HW226460   3.734   0.847   0.485
 8521SOL     OW26461   1.656   5.487   6.149
 8521SOL    HW126462   1.671   5.576   6.192
 8521SOL    HW226463   1.736   5.429   6.165
 8522SOL     OW26464   1.005   5.635   2.020
 8522SOL    HW126465   1.079   5.595   2.074
 8522SOL    HW226466   1.042   5.681   1.940
 8523SOL     OW26467   3.230   6.330   6.942
 8523SOL    HW126468   3.229   6.322   6.842
 8523SOL    HW226469   3.176   6.410   6.970
 8524SOL     OW26470   1.235   3.051   4.518
 8524SOL    HW126471   1.237   3.100   4.605
 8524SOL    HW226472   1.173   2.973   4.526
 8525SOL     OW26473   6.076   4.223   3.718
 8525SOL    HW126474   5.989   4.251   3.677
 8525SOL    HW226475   6.136   4.302   3.728
 8526SOL     OW26476   2.847   3.948   0.858
 8526SOL    HW126477   2.821   3.993   0.944
 8526SOL    HW226478   2.819   3.852   0.861
 8527SOL     OW26479   3.456   0.304   5.155
 8527SOL    HW126480   3.552   0.330   5.163
 8527SOL    HW226481   3.427   0.311   5.059
 8528SOL     OW26482   5.129   3.091   6.112
 8528SOL    HW126483   5.080   3.019   6.063
 8528SOL    HW226484   5.064   3.160   6.143
 8529SOL     OW26485   1.251   6.903   6.901
 8529SOL    HW126486   1.155   6.876   6.888
 8529SOL    HW226487   1.281   6.878   6.993
 8530SOL     OW26488   1.248   4.866   6.394
 8530SOL    HW126489   1.331   4.920   6.381
 8530SOL    HW226490   1.176   4.923   6.431
 8531SOL     OW26491   5.820   4.341   2.750
 8531SOL    HW126492   5.803   4.261   2.693
 8531SOL    HW226493   5.878   4.406   2.699
 8532SOL     OW26494   4.337   4.924   5.106
 8532SOL    HW126495   4.332   5.021   5.086
 8532SOL    HW226496   4.251   4.880   5.081
 8533SOL     OW26497   1.921   0.799   5.489
 8533SOL    HW126498   1.903   0.746   5.572
 8533SOL    HW226499   1.848   0.866   5.476
 8534SOL     OW26500   0.142   4.017   3.340
 8534SOL    HW126501   0.188   4.005   3.428
 8534SOL    HW226502   0.047   4.045   3.356
 8535SOL     OW26503   0.617   2.073   4.667
 8535SOL    HW126504   0.572   2.030   4.589
 8535SOL    HW226505   0.713   2.087   4.647
 8536SOL     OW26506   6.161   1.961   4.892
 8536SOL    HW126507   6.117   2.037   4.845
 8536SOL    HW226508   6.091   1.899   4.928
 8537SOL     OW26509   6.415   1.440   0.853
 8537SOL    HW126510   6.506   1.451   0.814
 8537SOL    HW226511   6.418   1.456   0.952
 8538SOL     OW26512   0.291   0.695   4.965
 8538SOL    HW126513   0.361   0.761   4.941
 8538SOL    HW226514   0.308   0.658   5.056
 8539SOL     OW26515   5.990   2.146   2.218
 8539SOL    HW126516   5.981   2.097   2.132
 8539SOL    HW226517   6.058   2.101   2.275
 8540SOL     OW26518   3.654   1.572   0.662
 8540SOL    HW126519   3.726   1.587   0.730
 8540SOL    HW226520   3.608   1.659   0.643
 8541SOL     OW26521   2.510   1.915   4.776
 8541SOL    HW126522   2.434   1.954   4.724
 8541SOL    HW226523   2.489   1.820   4.800
 8542SOL     OW26524   2.960   4.536   6.843
 8542SOL    HW126525   2.950   4.451   6.791
 8542SOL    HW226526   2.897   4.535   6.921
 8543SOL     OW26527   2.900   1.747   5.438
 8543SOL    HW126528   2.823   1.784   5.489
 8543SOL    HW226529   2.906   1.648   5.454
 8544SOL     OW26530   5.542   3.120   4.899
 8544SOL    HW126531   5.505   3.090   4.986
 8544SOL    HW226532   5.511   3.213   4.880
 8545SOL     OW26533   3.301   6.515   4.722
 8545SOL    HW126534   3.335   6.435   4.672
 8545SOL    HW226535   3.214   6.493   4.765
 8546SOL     OW26536   6.085   0.377   1.084
 8546SOL    HW126537   6.037   0.433   1.152
 8546SOL    HW226538   6.055   0.282   1.091
 8547SOL     OW26539   0.190   0.540   5.382
 8547SOL    HW126540   0.179   0.466   5.448
 8547SOL    HW226541   0.101   0.564   5.344
 8548SOL     OW26542   0.362   3.063   5.259
 8548SOL    HW126543   0.351   3.136   5.192
 8548SOL    HW226544   0.438   3.004   5.233
 8549SOL     OW26545   0.573   2.631   4.127
 8549SOL    HW126546   0.514   2.705   4.092
 8549SOL    HW226547   0.563   2.551   4.068
 8550SOL     OW26548   0.954   3.338   6.057
 8550SOL    HW126549   1.039   3.390   6.048
 8550SOL    HW226550   0.974   3.241   6.047
 8551SOL     OW26551   3.237   2.844   6.794
 8551SOL    HW126552   3.295   2.780   6.745
 8551SOL    HW226553   3.228   2.928   6.741
 8552SOL     OW26554   2.809   0.336   2.061
 8552SOL    HW126555   2.724   0.287   2.083
 8552SOL    HW226556   2.884   0.300   2.117
 8553SOL     OW26557   4.222   4.410   0.163
 8553SOL    HW126558   4.246   4.452   0.075
 8553SOL    HW226559   4.148   4.462   0.206
 8554SOL     OW26560   0.970   5.979   1.781
 8554SOL    HW126561   0.914   5.987   1.863
 8554SOL    HW226562   0.956   6.059   1.722
 8555SOL     OW26563   4.140   1.714   3.257
 8555SOL    HW126564   4.200   1.691   3.334
 8555SOL    HW226565   4.061   1.765   3.290
 8556SOL     OW26566   1.625   6.090   5.694
 8556SOL    HW126567   1.605   6.187   5.705
 8556SOL    HW226568   1.715   6.069   5.733
 8557SOL     OW26569   6.508   0.981   1.125
 8557SOL    HW126570   6.542   1.058   1.071
 8557SOL    HW226571   6.545   0.987   1.218
 8558SOL     OW26572   2.141   5.402   3.191
 8558SOL    HW126573   2.066   5.336   3.191
 8558SOL    HW226574   2.136   5.458   3.109
 8559SOL     OW26575   1.599   6.410   2.683
 8559SOL    HW126576   1.660   6.376   2.755
 8559SOL    HW226577   1.612   6.509   2.673
 8560SOL     OW26578   0.781   5.719   1.416
 8560SOL    HW126579   0.851   5.790   1.417
 8560SOL    HW226580   0.813   5.641   1.470
 8561SOL     OW26581   3.937   6.822   3.796
 8561SOL    HW126582   3.965   6.876   3.716
 8561SOL    HW226583   4.015   6.767   3.828
 8562SOL     OW26584   4.045   6.993   0.067
 8562SOL    HW126585   4.107   0.029   0.111
 8562SOL    HW226586   3.955   0.007   0.054
 8563SOL     OW26587   0.771   4.776   2.387
 8563SOL    HW126588   0.739   4.682   2.388
 8563SOL    HW226589   0.871   4.777   2.400
 8564SOL     OW26590   3.564   6.263   5.838
 8564SOL    HW126591   3.554   6.319   5.756
 8564SOL    HW226592   3.547   6.319   5.919
 8565SOL     OW26593   3.748   5.384   1.793
 8565SOL    HW126594   3.779   5.386   1.888
 8565SOL    HW226595   3.828   5.373   1.733
 8566SOL     OW26596   2.066   0.557   2.019
 8566SOL    HW126597   2.147   0.538   2.073
 8566SOL    HW226598   2.078   0.643   1.970
 8567SOL     OW26599   1.457   2.092   1.809
 8567SOL    HW126600   1.402   2.167   1.847
 8567SOL    HW226601   1.519   2.058   1.880
 8568SOL     OW26602   6.081   1.359   0.722
 8568SOL    HW126603   6.123   1.289   0.780
 8568SOL    HW226604   6.085   1.329   0.627
 8569SOL     OW26605   5.025   1.521   6.000
 8569SOL    HW126606   4.984   1.605   6.037
 8569SOL    HW226607   5.057   1.464   6.075
 8570SOL     OW26608   1.381   1.835   4.388
 8570SOL    HW126609   1.374   1.846   4.487
 8570SOL    HW226610   1.364   1.923   4.343
 8571SOL     OW26611   0.801   0.289   4.567
 8571SOL    HW126612   0.849   0.207   4.598
 8571SOL    HW226613   0.850   0.371   4.598
 8572SOL     OW26614   1.876   4.090   5.159
 8572SOL    HW126615   1.828   4.102   5.246
 8572SOL    HW226616   1.857   4.168   5.099
 8573SOL     OW26617   3.002   6.053   6.237
 8573SOL    HW126618   2.985   6.149   6.216
 8573SOL    HW226619   2.916   6.002   6.229
 8574SOL     OW26620   6.023   6.360   6.017
 8574SOL    HW126621   5.979   6.282   5.972
 8574SOL    HW226622   6.002   6.443   5.967
 8575SOL     OW26623   3.269   1.465   3.404
 8575SOL    HW126624   3.367   1.484   3.410
 8575SOL    HW226625   3.231   1.514   3.325
 8576SOL     OW26626   2.027   4.784   3.867
 8576SOL    HW126627   1.940   4.773   3.915
 8576SOL    HW226628   2.023   4.735   3.780
 8577SOL     OW26629   1.593   0.263   6.176
 8577SOL    HW126630   1.680   0.312   6.169
 8577SOL    HW226631   1.517   0.326   6.158
 8578SOL     OW26632   6.761   5.320   5.663
 8578SOL    HW126633   6.804   5.332   5.752
 8578SOL    HW226634   6.749   5.409   5.619
 8579SOL     OW26635   1.190   5.899   2.085
 8579SOL    HW126636   1.238   5.947   2.012
 8579SOL    HW226637   1.233   5.810   2.101
 8580SOL     OW26638   2.015   5.734   1.130
 8580SOL    HW126639   2.010   5.664   1.201
 8580SOL    HW226640   1.946   5.804   1.147
 8581SOL     OW26641   4.047   4.685   1.808
 8581SOL    HW126642   4.145   4.665   1.806
 8581SOL    HW226643   4.002   4.642   1.729
 8582SOL     OW26644   4.563   4.556   5.629
 8582SOL    HW126645   4.604   4.592   5.546
 8582SOL    HW226646   4.508   4.627   5.673
 8583SOL     OW26647   3.158   6.839   2.986
 8583SOL    HW126648   3.205   6.750   2.983
 8583SOL    HW226649   3.116   6.857   2.897
 8584SOL     OW26650   0.403   0.168   5.222
 8584SOL    HW126651   0.481   0.162   5.283
 8584SOL    HW226652   0.432   0.148   5.128
 8585SOL     OW26653   6.213   1.224   0.901
 8585SOL    HW126654   6.191   1.238   0.998
 8585SOL    HW226655   6.295   1.276   0.877
 8586SOL     OW26656   4.274   6.930   1.795
 8586SOL    HW126657   4.186   6.929   1.747
 8586SOL    HW226658   4.312   7.023   1.793
 8587SOL     OW26659   0.950   1.231   4.973
 8587SOL    HW126660   0.956   1.327   4.944
 8587SOL    HW226661   0.855   1.209   4.995
 8588SOL     OW26662   4.902   0.950   0.224
 8588SOL    HW126663   4.869   0.913   0.137
 8588SOL    HW226664   4.959   0.881   0.270
 8589SOL     OW26665   6.638   2.648   5.491
 8589SOL    HW126666   6.672   2.567   5.538
 8589SOL    HW226667   6.539   2.641   5.478
 8590SOL     OW26668   0.767   0.951   2.690
 8590SOL    HW126669   0.677   0.913   2.666
 8590SOL    HW226670   0.829   0.877   2.716
 8591SOL     OW26671   0.190   4.185   0.443
 8591SOL    HW126672   0.125   4.109   0.437
 8591SOL    HW226673   0.283   4.150   0.442
 8592SOL     OW26674   0.327   2.613   6.868
 8592SOL    HW126675   0.248   2.657   6.911
 8592SOL    HW226676   0.403   2.609   6.933
 8593SOL     OW26677   3.185   1.007   6.988
 8593SOL    HW126678   3.261   0.956   6.947
 8593SOL    HW226679   3.208   1.104   6.993
 8594SOL     OW26680   6.212   2.592   5.875
 8594SOL    HW126681   6.163   2.658   5.931
 8594SOL    HW226682   6.281   2.545   5.931
 8595SOL     OW26683   6.237   1.109   3.482
 8595SOL    HW126684   6.281   1.066   3.560
 8595SOL    HW226685   6.241   1.209   3.491
 8596SOL     OW26686   1.633   4.456   3.176
 8596SOL    HW126687   1.574   4.457   3.256
 8596SOL    HW226688   1.728   4.438   3.205
 8597SOL     OW26689   5.723   1.835   1.146
 8597SOL    HW126690   5.744   1.775   1.069
 8597SOL    HW226691   5.757   1.793   1.231
 8598SOL     OW26692   5.416   7.007   5.691
 8598SOL    HW126693   5.410   6.935   5.760
 8598SOL    HW226694   5.365   0.059   5.723
 8599SOL     OW26695   1.288   2.562   4.298
 8599SOL    HW126696   1.269   2.525   4.389
 8599SOL    HW226697   1.336   2.650   4.307
 8600SOL     OW26698   5.121   3.643   0.165
 8600SOL    HW126699   5.218   3.665   0.164
 8600SOL    HW226700   5.076   3.694   0.239
 8601SOL     OW26701   0.346   1.831   3.693
 8601SOL    HW126702   0.379   1.893   3.765
 8601SOL    HW226703   0.248   1.819   3.702
 8602SOL     OW26704   2.494   6.277   2.221
 8602SOL    HW126705   2.457   6.370   2.226
 8602SOL    HW226706   2.419   6.212   2.225
 8603SOL     OW26707   5.590   0.080   7.005
 8603SOL    HW126708   5.623   0.078   0.071
 8603SOL    HW226709   5.511   0.019   6.996
 8604SOL     OW26710   1.115   2.765   6.118
 8604SOL    HW126711   1.071   2.713   6.044
 8604SOL    HW226712   1.214   2.765   6.104
 8605SOL     OW26713   1.245   5.259   3.669
 8605SOL    HW126714   1.199   5.305   3.593
 8605SOL    HW226715   1.177   5.229   3.736
 8606SOL     OW26716   2.176   1.947   6.952
 8606SOL    HW126717   2.167   1.870   6.889
 8606SOL    HW226718   2.178   2.032   6.901
 8607SOL     OW26719   2.544   4.297   6.667
 8607SOL    HW126720   2.465   4.302   6.727
 8607SOL    HW226721   2.525   4.235   6.591
 8608SOL     OW26722   2.131   4.549   2.210
 8608SOL    HW126723   2.078   4.530   2.292
 8608SOL    HW226724   2.176   4.638   2.219
 8609SOL     OW26725   5.355   0.375   3.821
 8609SOL    HW126726   5.312   0.285   3.827
 8609SOL    HW226727   5.455   0.364   3.817
 8610SOL     OW26728   6.596   0.878   3.303
 8610SOL    HW126729   6.545   0.963   3.315
 8610SOL    HW226730   6.644   0.880   3.215
 8611SOL     OW26731   3.172   1.045   4.318
 8611SOL    HW126732   3.209   1.085   4.402
 8611SOL    HW226733   3.236   1.060   4.243
 8612SOL     OW26734   2.546   3.584   1.412
 8612SOL    HW126735   2.574   3.577   1.508
 8612SOL    HW226736   2.617   3.545   1.354
 8613SOL     OW26737   3.234   1.999   1.551
 8613SOL    HW126738   3.170   2.075   1.539
 8613SOL    HW226739   3.292   1.992   1.470
 8614SOL     OW26740   1.622   2.678   3.256
 8614SOL    HW126741   1.639   2.595   3.203
 8614SOL    HW226742   1.683   2.679   3.335
 8615SOL     OW26743   4.715   2.144   5.238
 8615SOL    HW126744   4.703   2.056   5.283
 8615SOL    HW226745   4.790   2.194   5.281
 8616SOL     OW26746   2.603   4.784   1.854
 8616SOL    HW126747   2.508   4.755   1.844
 8616SOL    HW226748   2.659   4.707   1.884
 8617SOL     OW26749   5.893   1.373   3.608
 8617SOL    HW126750   5.871   1.467   3.636
 8617SOL    HW226751   5.876   1.310   3.683
 8618SOL     OW26752   6.413   4.352   0.946
 8618SOL    HW126753   6.394   4.297   0.865
 8618SOL    HW226754   6.330   4.360   1.001
 8619SOL     OW26755   3.743   5.135   3.329
 8619SOL    HW126756   3.762   5.233   3.331
 8619SOL    HW226757   3.829   5.084   3.321
 8620SOL     OW26758   2.049   6.405   4.557
 8620SOL    HW126759   2.111   6.428   4.632
 8620SOL    HW226760   2.093   6.427   4.470
 8621SOL     OW26761   4.761   2.830   2.191
 8621SOL    HW126762   4.770   2.895   2.266
 8621SOL    HW226763   4.742   2.879   2.106
 8622SOL     OW26764   5.325   4.570   1.828
 8622SOL    HW126765   5.237   4.591   1.784
 8622SOL    HW226766   5.319   4.590   1.926
 8623SOL     OW26767   0.626   4.146   4.992
 8623SOL    HW126768   0.598   4.140   4.896
 8623SOL    HW226769   0.577   4.221   5.036
 8624SOL     OW26770   3.184   3.848   6.057
 8624SOL    HW126771   3.245   3.872   5.981
 8624SOL    HW226772   3.090   3.874   6.032
 8625SOL     OW26773   4.590   0.304   5.326
 8625SOL    HW126774   4.505   0.287   5.375
 8625SOL    HW226775   4.659   0.236   5.354
 8626SOL     OW26776   3.864   3.083   6.842
 8626SOL    HW126777   3.899   3.006   6.788
 8626SOL    HW226778   3.770   3.103   6.815
 8627SOL     OW26779   2.643   1.962   2.029
 8627SOL    HW126780   2.645   1.891   2.099
 8627SOL    HW226781   2.569   1.943   1.964
 8628SOL     OW26782   6.505   6.734   6.617
 8628SOL    HW126783   6.487   6.794   6.695
 8628SOL    HW226784   6.572   6.665   6.642
 8629SOL     OW26785   1.553   6.520   5.312
 8629SOL    HW126786   1.600   6.511   5.224
 8629SOL    HW226787   1.531   6.617   5.327
 8630SOL     OW26788   5.054   3.563   4.002
 8630SOL    HW126789   5.012   3.652   4.019
 8630SOL    HW226790   5.004   3.516   3.929
 8631SOL     OW26791   1.157   5.796   6.028
 8631SOL    HW126792   1.103   5.798   6.113
 8631SOL    HW226793   1.234   5.860   6.036
 8632SOL     OW26794   3.911   4.354   5.429
 8632SOL    HW126795   3.932   4.342   5.526
 8632SOL    HW226796   3.972   4.298   5.374
 8633SOL     OW26797   5.587   2.990   5.751
 8633SOL    HW126798   5.501   3.011   5.704
 8633SOL    HW226799   5.616   3.070   5.804
 8634SOL     OW26800   5.062   4.074   6.818
 8634SOL    HW126801   4.984   4.121   6.859
 8634SOL    HW226802   5.119   4.034   6.890
 8635SOL     OW26803   5.489   2.947   6.763
 8635SOL    HW126804   5.546   2.934   6.844
 8635SOL    HW226805   5.511   2.876   6.695
 8636SOL     OW26806   5.182   6.212   1.079
 8636SOL    HW126807   5.111   6.225   1.148
 8636SOL    HW226808   5.169   6.125   1.033
 8637SOL     OW26809   1.971   1.469   6.617
 8637SOL    HW126810   1.893   1.421   6.576
 8637SOL    HW226811   1.991   1.430   6.707
 8638SOL     OW26812   4.147   2.371   5.381
 8638SOL    HW126813   4.146   2.443   5.311
 8638SOL    HW226814   4.144   2.413   5.472
 8639SOL     OW26815   4.380   3.446   6.701
 8639SOL    HW126816   4.303   3.405   6.652
 8639SOL    HW226817   4.465   3.399   6.676
 8640SOL     OW26818   4.222   3.505   1.100
 8640SOL    HW126819   4.199   3.552   1.015
 8640SOL    HW226820   4.255   3.571   1.168
 8641SOL     OW26821   3.864   4.974   4.354
 8641SOL    HW126822   3.801   4.946   4.282
 8641SOL    HW226823   3.849   5.070   4.377
 8642SOL     OW26824   0.878   7.010   3.377
 8642SOL    HW126825   0.781   7.018   3.356
 8642SOL    HW226826   0.901   0.044   3.452
 8643SOL     OW26827   1.949   0.374   0.078
 8643SOL    HW126828   1.933   0.354   0.174
 8643SOL    HW226829   1.937   0.472   0.061
 8644SOL     OW26830   5.475   2.638   6.256
 8644SOL    HW126831   5.501   2.697   6.180
 8644SOL    HW226832   5.414   2.688   6.318
 8645SOL     OW26833   4.407   5.088   1.542
 8645SOL    HW126834   4.393   5.150   1.465
 8645SOL    HW226835   4.349   5.007   1.531
 8646SOL     OW26836   0.716   1.818   6.945
 8646SOL    HW126837   0.763   1.730   6.938
 8646SOL    HW226838   0.724   1.867   6.858
 8647SOL     OW26839   2.097   5.479   0.359
 8647SOL    HW126840   2.164   5.485   0.285
 8647SOL    HW226841   2.033   5.555   0.352
 8648SOL     OW26842   6.354   0.024   0.489
 8648SOL    HW126843   6.382   6.981   0.424
 8648SOL    HW226844   6.435   0.068   0.527
 8649SOL     OW26845   5.906   5.969   0.580
 8649SOL    HW126846   5.854   6.050   0.552
 8649SOL    HW226847   6.000   5.996   0.601
 8650SOL     OW26848   1.704   6.545   5.094
 8650SOL    HW126849   1.770   6.601   5.143
 8650SOL    HW226850   1.663   6.598   5.020
 8651SOL     OW26851   4.134   1.722   1.140
 8651SOL    HW126852   4.124   1.709   1.239
 8651SOL    HW226853   4.098   1.641   1.093
 8652SOL     OW26854   0.835   5.159   3.440
 8652SOL    HW126855   0.775   5.209   3.503
 8652SOL    HW226856   0.804   5.065   3.433
 8653SOL     OW26857   6.772   1.210   6.075
 8653SOL    HW126858   6.672   1.206   6.080
 8653SOL    HW226859   6.801   1.306   6.081
 8654SOL     OW26860   0.376   5.044   1.371
 8654SOL    HW126861   0.432   4.962   1.379
 8654SOL    HW226862   0.295   5.024   1.317
 8655SOL     OW26863   5.642   0.355   4.219
 8655SOL    HW126864   5.716   0.384   4.159
 8655SOL    HW226865   5.588   0.284   4.174
 8656SOL     OW26866   6.099   1.467   1.942
 8656SOL    HW126867   6.153   1.402   1.995
 8656SOL    HW226868   6.159   1.519   1.882
 8657SOL     OW26869   5.609   6.108   0.330
 8657SOL    HW126870   5.639   6.125   0.424
 8657SOL    HW226871   5.650   6.023   0.297
 8658SOL     OW26872   6.416   5.687   0.002
 8658SOL    HW126873   6.401   5.709   0.099
 8658SOL    HW226874   6.361   5.747   6.974
 8659SOL     OW26875   4.865   2.129   2.944
 8659SOL    HW126876   4.956   2.145   2.982
 8659SOL    HW226877   4.820   2.217   2.928
 8660SOL     OW26878   0.159   3.032   2.502
 8660SOL    HW126879   0.233   2.976   2.466
 8660SOL    HW226880   0.188   3.127   2.508
 8661SOL     OW26881   6.269   4.019   1.708
 8661SOL    HW126882   6.315   3.954   1.768
 8661SOL    HW226883   6.296   4.112   1.733
 8662SOL     OW26884   4.071   5.991   2.329
 8662SOL    HW126885   3.996   6.045   2.292
 8662SOL    HW226886   4.121   6.045   2.397
 8663SOL     OW26887   2.922   5.429   2.300
 8663SOL    HW126888   2.957   5.505   2.244
 8663SOL    HW226889   2.837   5.396   2.261
 8664SOL     OW26890   2.579   5.182   1.990
 8664SOL    HW126891   2.491   5.139   1.970
 8664SOL    HW226892   2.653   5.119   1.966
 8665SOL     OW26893   6.262   5.574   4.590
 8665SOL    HW126894   6.337   5.525   4.634
 8665SOL    HW226895   6.219   5.514   4.522
 8666SOL     OW26896   5.316   0.446   4.394
 8666SOL    HW126897   5.414   0.434   4.412
 8666SOL    HW226898   5.269   0.358   4.404
 8667SOL     OW26899   4.824   1.760   4.289
 8667SOL    HW126900   4.760   1.691   4.324
 8667SOL    HW226901   4.905   1.714   4.253
 8668SOL     OW26902   5.469   3.338   4.775
 8668SOL    HW126903   5.385   3.370   4.731
 8668SOL    HW226904   5.528   3.294   4.707
 8669SOL     OW26905   0.702   6.024   6.271
 8669SOL    HW126906   0.688   5.935   6.314
 8669SOL    HW226907   0.703   6.095   6.341
 8670SOL     OW26908   4.597   5.196   6.214
 8670SOL    HW126909   4.578   5.295   6.211
 8670SOL    HW226910   4.589   5.164   6.309
 8671SOL     OW26911   0.454   1.495   2.136
 8671SOL    HW126912   0.367   1.468   2.177
 8671SOL    HW226913   0.447   1.491   2.036
 8672SOL     OW26914   0.606   6.975   3.394
 8672SOL    HW126915   0.557   7.024   3.467
 8672SOL    HW226916   0.596   6.876   3.408
 8673SOL     OW26917   6.527   1.631   0.095
 8673SOL    HW126918   6.461   1.565   0.059
 8673SOL    HW226919   6.537   1.705   0.029
 8674SOL     OW26920   6.284   5.084   2.694
 8674SOL    HW126921   6.354   5.048   2.633
 8674SOL    HW226922   6.325   5.150   2.758
 8675SOL     OW26923   4.442   1.051   5.321
 8675SOL    HW126924   4.366   1.095   5.272
 8675SOL    HW226925   4.415   1.034   5.416
 8676SOL     OW26926   4.830   6.989   1.847
 8676SOL    HW126927   4.876   0.017   1.778
 8676SOL    HW226928   4.897   6.931   1.893
 8677SOL     OW26929   1.525   5.767   5.516
 8677SOL    HW126930   1.451   5.829   5.545
 8677SOL    HW226931   1.486   5.677   5.496
 8678SOL     OW26932   1.042   0.503   0.991
 8678SOL    HW126933   1.107   0.571   1.027
 8678SOL    HW226934   1.007   0.534   0.903
 8679SOL     OW26935   1.734   1.121   3.414
 8679SOL    HW126936   1.728   1.219   3.435
 8679SOL    HW226937   1.647   1.077   3.435
 8680SOL     OW26938   6.528   2.673   6.610
 8680SOL    HW126939   6.600   2.741   6.619
 8680SOL    HW226940   6.449   2.714   6.564
 8681SOL     OW26941   4.759   5.609   1.387
 8681SOL    HW126942   4.684   5.597   1.452
 8681SOL    HW226943   4.820   5.530   1.391
 8682SOL     OW26944   0.060   0.724   1.516
 8682SOL    HW126945   0.057   0.635   1.563
 8682SOL    HW226946   6.999   0.744   1.476
 8683SOL     OW26947   1.586   2.545   5.390
 8683SOL    HW126948   1.624   2.596   5.312
 8683SOL    HW226949   1.496   2.582   5.414
 8684SOL     OW26950   6.634   2.804   4.645
 8684SOL    HW126951   6.616   2.754   4.730
 8684SOL    HW226952   6.716   2.766   4.601
 8685SOL     OW26953   5.486   3.073   6.505
 8685SOL    HW126954   5.581   3.043   6.514
 8685SOL    HW226955   5.434   3.045   6.585
 8686SOL     OW26956   6.275   0.347   1.620
 8686SOL    HW126957   6.343   0.340   1.547
 8686SOL    HW226958   6.319   0.327   1.707
 8687SOL     OW26959   5.780   5.161   3.086
 8687SOL    HW126960   5.746   5.070   3.105
 8687SOL    HW226961   5.873   5.171   3.121
 8688SOL     OW26962   1.429   3.875   6.738
 8688SOL    HW126963   1.356   3.931   6.698
 8688SOL    HW226964   1.455   3.803   6.673
 8689SOL     OW26965   4.270   3.123   0.045
 8689SOL    HW126966   4.204   3.141   7.000
 8689SOL    HW226967   4.362   3.141   0.012
 8690SOL     OW26968   0.867   3.262   2.871
 8690SOL    HW126969   0.883   3.264   2.970
 8690SOL    HW226970   0.890   3.171   2.836
 8691SOL     OW26971   3.433   2.189   5.464
 8691SOL    HW126972   3.471   2.110   5.512
 8691SOL    HW226973   3.337   2.200   5.487
 8692SOL     OW26974   3.722   1.000   5.042
 8692SOL    HW126975   3.797   1.066   5.039
 8692SOL    HW226976   3.637   1.045   5.017
 8693SOL     OW26977   6.624   0.579   6.601
 8693SOL    HW126978   6.710   0.550   6.559
 8693SOL    HW226979   6.548   0.559   6.538
 8694SOL     OW26980   5.842   1.830   4.769
 8694SOL    HW126981   5.876   1.742   4.737
 8694SOL    HW226982   5.872   1.844   4.864
 8695SOL     OW26983   3.685   3.076   6.284
 8695SOL    HW126984   3.657   3.134   6.360
 8695SOL    HW226985   3.637   3.104   6.201
 8696SOL     OW26986   3.130   5.834   5.509
 8696SOL    HW126987   3.145   5.806   5.604
 8696SOL    HW226988   3.034   5.857   5.497
 8697SOL     OW26989   0.507   4.038   6.185
 8697SOL    HW126990   0.527   3.979   6.106
 8697SOL    HW226991   0.418   4.081   6.172
 8698SOL     OW26992   4.745   6.590   5.258
 8698SOL    HW126993   4.741   6.547   5.168
 8698SOL    HW226994   4.820   6.657   5.260
 8699SOL     OW26995   1.717   3.215   5.507
 8699SOL    HW126996   1.771   3.205   5.590
 8699SOL    HW226997   1.765   3.171   5.431
 8700SOL     OW26998   1.005   0.774   4.966
 8700SOL    HW126999   0.911   0.745   4.983
 8700SOL    HW227000   1.052   0.788   5.053
 8701SOL     OW27001   1.533   1.283   0.259
 8701SOL    HW127002   1.478   1.249   0.182
 8701SOL    HW227003   1.483   1.355   0.306
 8702SOL     OW27004   5.296   5.001   1.885
 8702SOL    HW127005   5.374   5.060   1.904
 8702SOL    HW227006   5.272   5.006   1.788
 8703SOL     OW27007   2.980   4.809   0.008
 8703SOL    HW127008   2.930   4.723   0.022
 8703SOL    HW227009   2.929   4.868   6.975
 8704SOL     OW27010   6.508   4.277   3.403
 8704SOL    HW127011   6.534   4.192   3.449
 8704SOL    HW227012   6.470   4.256   3.313
 8705SOL     OW27013   4.152   1.794   6.207
 8705SOL    HW127014   4.080   1.734   6.172
 8705SOL    HW227015   4.241   1.763   6.172
 8706SOL     OW27016   5.327   1.897   0.184
 8706SOL    HW127017   5.275   1.834   0.241
 8706SOL    HW227018   5.382   1.957   0.242
 8707SOL     OW27019   1.225   2.757   4.047
 8707SOL    HW127020   1.301   2.773   4.110
 8707SOL    HW227021   1.220   2.660   4.024
 8708SOL     OW27022   4.041   1.541   3.838
 8708SOL    HW127023   4.008   1.622   3.887
 8708SOL    HW227024   4.131   1.516   3.873
 8709SOL     OW27025   0.016   6.746   6.393
 8709SOL    HW127026   6.989   6.812   6.342
 8709SOL    HW227027   6.998   6.721   6.478
 8710SOL     OW27028   2.349   2.691   3.372
 8710SOL    HW127029   2.397   2.614   3.329
 8710SOL    HW227030   2.332   2.762   3.303
 8711SOL     OW27031   1.414   6.974   2.799
 8711SOL    HW127032   1.380   0.036   2.776
 8711SOL    HW227033   1.339   6.919   2.838
 8712SOL     OW27034   3.281   1.670   4.319
 8712SOL    HW127035   3.291   1.644   4.415
 8712SOL    HW227036   3.352   1.626   4.265
 8713SOL     OW27037   6.773   4.308   1.539
 8713SOL    HW127038   6.749   4.267   1.627
 8713SOL    HW227039   6.829   4.243   1.487
 8714SOL     OW27040   1.161   0.063   6.125
 8714SOL    HW127041   1.207   0.090   6.040
 8714SOL    HW227042   1.069   0.102   6.126
 8715SOL     OW27043   4.375   1.603   0.638
 8715SOL    HW127044   4.372   1.665   0.559
 8715SOL    HW227045   4.287   1.605   0.686
 8716SOL     OW27046   0.629   6.655   0.864
 8716SOL    HW127047   0.688   6.594   0.915
 8716SOL    HW227048   0.582   6.604   0.792
 8717SOL     OW27049   2.591   3.336   5.608
 8717SOL    HW127050   2.691   3.327   5.603
 8717SOL    HW227051   2.549   3.292   5.529
 8718SOL     OW27052   1.862   2.860   5.801
 8718SOL    HW127053   1.859   2.959   5.810
 8718SOL    HW227054   1.832   2.833   5.710
 8719SOL     OW27055   3.783   0.639   0.314
 8719SOL    HW127056   3.873   0.609   0.284
 8719SOL    HW227057   3.768   0.610   0.409
 8720SOL     OW27058   0.567   6.565   6.010
 8720SOL    HW127059   0.641   6.564   5.942
 8720SOL    HW227060   0.593   6.508   6.088
 8721SOL     OW27061   6.239   0.607   0.328
 8721SOL    HW127062   6.287   0.597   0.241
 8721SOL    HW227063   6.155   0.553   0.325
 8722SOL     OW27064   3.837   1.272   0.257
 8722SOL    HW127065   3.913   1.223   0.213
 8722SOL    HW227066   3.807   1.222   0.338
 8723SOL     OW27067   5.693   0.088   2.714
 8723SOL    HW127068   5.649   0.002   2.690
 8723SOL    HW227069   5.635   0.165   2.685
 8724SOL     OW27070   5.989   0.382   3.941
 8724SOL    HW127071   5.989   0.368   4.040
 8724SOL    HW227072   5.906   0.431   3.914
 8725SOL     OW27073   0.592   6.198   5.332
 8725SOL    HW127074   0.580   6.250   5.417
 8725SOL    HW227075   0.686   6.166   5.326
 8726SOL     OW27076   6.668   0.771   1.027
 8726SOL    HW127077   6.643   0.816   0.941
 8726SOL    HW227078   6.625   0.818   1.103
 8727SOL     OW27079   5.844   6.645   0.309
 8727SOL    HW127080   5.900   6.659   0.227
 8727SOL    HW227081   5.901   6.655   0.391
 8728SOL     OW27082   5.141   1.296   1.994
 8728SOL    HW127083   5.197   1.372   2.028
 8728SOL    HW227084   5.045   1.323   1.991
 8729SOL     OW27085   3.129   5.090   5.509
 8729SOL    HW127086   3.124   5.116   5.606
 8729SOL    HW227087   3.096   5.165   5.453
 8730SOL     OW27088   4.959   4.394   3.409
 8730SOL    HW127089   5.027   4.382   3.481
 8730SOL    HW227090   5.000   4.374   3.320
 8731SOL     OW27091   0.927   3.305   3.276
 8731SOL    HW127092   0.924   3.397   3.238
 8731SOL    HW227093   1.016   3.264   3.257
 8732SOL     OW27094   5.704   4.249   2.265
 8732SOL    HW127095   5.802   4.234   2.262
 8732SOL    HW227096   5.675   4.301   2.184
 8733SOL     OW27097   1.190   5.873   6.887
 8733SOL    HW127098   1.191   5.783   6.930
 8733SOL    HW227099   1.203   5.943   6.957
 8734SOL     OW27100   6.848   3.149   2.818
 8734SOL    HW127101   6.913   3.226   2.825
 8734SOL    HW227102   6.853   3.109   2.727
 8735SOL     OW27103   1.175   3.213   5.030
 8735SOL    HW127104   1.212   3.245   5.118
 8735SOL    HW227105   1.141   3.120   5.040
 8736SOL     OW27106   6.978   5.428   2.259
 8736SOL    HW127107   6.919   5.397   2.333
 8736SOL    HW227108   0.042   5.391   2.273
 8737SOL     OW27109   2.843   6.467   6.961
 8737SOL    HW127110   2.769   6.522   6.923
 8737SOL    HW227111   2.813   6.371   6.968
 8738SOL     OW27112   2.359   6.057   3.903
 8738SOL    HW127113   2.446   6.058   3.852
 8738SOL    HW227114   2.376   6.027   3.997
 8739SOL     OW27115   5.494   4.974   5.830
 8739SOL    HW127116   5.570   5.032   5.860
 8739SOL    HW227117   5.453   4.929   5.910
 8740SOL     OW27118   3.661   2.097   2.852
 8740SOL    HW127119   3.703   2.022   2.801
 8740SOL    HW227120   3.651   2.176   2.792
 8741SOL     OW27121   2.471   0.528   2.901
 8741SOL    HW127122   2.499   0.477   2.982
 8741SOL    HW227123   2.541   0.596   2.879
 8742SOL     OW27124   4.582   0.319   1.713
 8742SOL    HW127125   4.673   0.354   1.692
 8742SOL    HW227126   4.518   0.349   1.642
 8743SOL     OW27127   2.230   0.790   1.102
 8743SOL    HW127128   2.209   0.767   1.007
 8743SOL    HW227129   2.227   0.706   1.157
 8744SOL     OW27130   4.301   2.920   0.639
 8744SOL    HW127131   4.356   2.949   0.717
 8744SOL    HW227132   4.272   3.001   0.587
 8745SOL     OW27133   6.587   2.281   6.142
 8745SOL    HW127134   6.646   2.350   6.185
 8745SOL    HW227135   6.536   2.232   6.212
 8746SOL     OW27136   4.734   5.823   4.578
 8746SOL    HW127137   4.765   5.820   4.673
 8746SOL    HW227138   4.682   5.740   4.557
 8747SOL     OW27139   0.439   1.043   2.481
 8747SOL    HW127140   0.482   1.088   2.559
 8747SOL    HW227141   0.423   0.947   2.503
 8748SOL     OW27142   0.923   2.145   4.333
 8748SOL    HW127143   0.881   2.219   4.281
 8748SOL    HW227144   0.936   2.066   4.274
 8749SOL     OW27145   1.725   0.995   5.439
 8749SOL    HW127146   1.778   1.075   5.411
 8749SOL    HW227147   1.661   1.020   5.511
 8750SOL     OW27148   3.855   3.588   5.771
 8750SOL    HW127149   3.822   3.499   5.803
 8750SOL    HW227150   3.940   3.610   5.818
 8751SOL     OW27151   7.006   1.208   1.559
 8751SOL    HW127152   6.915   1.247   1.543
 8751SOL    HW227153   0.013   1.170   1.474
 8752SOL     OW27154   3.975   2.902   6.627
 8752SOL    HW127155   3.895   2.853   6.592
 8752SOL    HW227156   4.016   2.956   6.554
 8753SOL     OW27157   2.566   2.825   6.353
 8753SOL    HW127158   2.567   2.880   6.270
 8753SOL    HW227159   2.657   2.788   6.370
 8754SOL     OW27160   2.797   4.238   5.595
 8754SOL    HW127161   2.813   4.192   5.508
 8754SOL    HW227162   2.850   4.194   5.667
 8755SOL     OW27163   2.626   0.692   1.572
 8755SOL    HW127164   2.705   0.666   1.517
 8755SOL    HW227165   2.647   0.773   1.626
 8756SOL     OW27166   1.068   2.926   3.271
 8756SOL    HW127167   1.067   3.014   3.319
 8756SOL    HW227168   1.117   2.858   3.327
 8757SOL     OW27169   5.001   5.797   6.560
 8757SOL    HW127170   5.099   5.810   6.545
 8757SOL    HW227171   4.956   5.786   6.471
 8758SOL     OW27172   4.648   6.113   3.286
 8758SOL    HW127173   4.708   6.041   3.322
 8758SOL    HW227174   4.697   6.200   3.285
 8759SOL     OW27175   6.514   2.402   6.661
 8759SOL    HW127176   6.479   2.424   6.752
 8759SOL    HW227177   6.524   2.486   6.608
 8760SOL     OW27178   2.857   1.344   4.469
 8760SOL    HW127179   2.817   1.336   4.561
 8760SOL    HW227180   2.784   1.363   4.403
 8761SOL     OW27181   6.142   1.638   1.522
 8761SOL    HW127182   6.192   1.723   1.533
 8761SOL    HW227183   6.203   1.561   1.538
 8762SOL     OW27184   1.296   5.812   4.410
 8762SOL    HW127185   1.254   5.766   4.332
 8762SOL    HW227186   1.350   5.890   4.377
 8763SOL     OW27187   5.898   0.362   5.195
 8763SOL    HW127188   5.812   0.347   5.243
 8763SOL    HW227189   5.897   0.314   5.108
 8764SOL     OW27190   4.173   6.051   5.847
 8764SOL    HW127191   4.127   6.031   5.934
 8764SOL    HW227192   4.135   5.991   5.776
 8765SOL     OW27193   5.430   1.539   4.547
 8765SOL    HW127194   5.460   1.612   4.485
 8765SOL    HW227195   5.441   1.451   4.502
 8766SOL     OW27196   4.100   4.209   5.289
 8766SOL    HW127197   4.167   4.281   5.269
 8766SOL    HW227198   4.051   4.185   5.205
 8767SOL     OW27199   4.488   6.471   3.276
 8767SOL    HW127200   4.530   6.536   3.339
 8767SOL    HW227201   4.542   6.465   3.192
 8768SOL     OW27202   1.451   2.402   1.465
 8768SOL    HW127203   1.362   2.413   1.509
 8768SOL    HW227204   1.456   2.313   1.420
 8769SOL     OW27205   0.179   1.313   1.888
 8769SOL    HW127206   0.093   1.364   1.880
 8769SOL    HW227207   0.253   1.366   1.848
 8770SOL     OW27208   5.306   4.554   2.578
 8770SOL    HW127209   5.395   4.546   2.622
 8770SOL    HW227210   5.235   4.518   2.639
 8771SOL     OW27211   0.624   2.824   6.542
 8771SOL    HW127212   0.539   2.872   6.521
 8771SOL    HW227213   0.611   2.726   6.526
 8772SOL     OW27214   4.888   0.694   5.783
 8772SOL    HW127215   4.871   0.687   5.684
 8772SOL    HW227216   4.984   0.671   5.801
 8773SOL     OW27217   5.460   2.883   2.786
 8773SOL    HW127218   5.460   2.863   2.688
 8773SOL    HW227219   5.423   2.804   2.835
 8774SOL     OW27220   0.687   0.598   0.217
 8774SOL    HW127221   0.734   0.514   0.243
 8774SOL    HW227222   0.726   0.675   0.268
 8775SOL     OW27223   5.012   1.025   5.453
 8775SOL    HW127224   4.916   1.052   5.440
 8775SOL    HW227225   5.066   1.106   5.475
 8776SOL     OW27226   4.900   3.218   1.540
 8776SOL    HW127227   4.876   3.270   1.458
 8776SOL    HW227228   4.834   3.239   1.613
 8777SOL     OW27229   6.954   3.591   3.750
 8777SOL    HW127230   6.985   3.602   3.845
 8777SOL    HW227231   7.021   3.633   3.689
 8778SOL     OW27232   5.170   3.575   5.289
 8778SOL    HW127233   5.205   3.642   5.354
 8778SOL    HW227234   5.070   3.581   5.285
 8779SOL     OW27235   2.473   5.483   2.489
 8779SOL    HW127236   2.467   5.529   2.401
 8779SOL    HW227237   2.474   5.384   2.476
 8780SOL     OW27238   0.450   6.703   3.336
 8780SOL    HW127239   0.396   6.640   3.279
 8780SOL    HW227240   0.460   6.790   3.288
 8781SOL     OW27241   4.885   0.035   3.687
 8781SOL    HW127242   4.818   6.990   3.681
 8781SOL    HW227243   4.961   0.017   3.625
 8782SOL     OW27244   5.843   1.420   1.981
 8782SOL    HW127245   5.938   1.440   1.954
 8782SOL    HW227246   5.793   1.385   1.901
 8783SOL     OW27247   6.733   4.082   4.490
 8783SOL    HW127248   6.718   4.083   4.391
 8783SOL    HW227249   6.656   4.036   4.535
 8784SOL     OW27250   6.600   6.251   6.833
 8784SOL    HW127251   6.694   6.285   6.829
 8784SOL    HW227252   6.542   6.307   6.775
 8785SOL     OW27253   6.415   5.383   6.114
 8785SOL    HW127254   6.465   5.354   6.196
 8785SOL    HW227255   6.418   5.482   6.106
 8786SOL     OW27256   3.488   1.147   1.879
 8786SOL    HW127257   3.439   1.194   1.953
 8786SOL    HW227258   3.580   1.185   1.870
 8787SOL     OW27259   2.915   0.459   2.492
 8787SOL    HW127260   2.883   0.538   2.439
 8787SOL    HW227261   3.010   0.440   2.469
 8788SOL     OW27262   6.323   1.220   5.377
 8788SOL    HW127263   6.413   1.236   5.335
 8788SOL    HW227264   6.327   1.242   5.474
 8789SOL     OW27265   6.879   4.537   5.371
 8789SOL    HW127266   6.968   4.581   5.374
 8789SOL    HW227267   6.829   4.557   5.455
 8790SOL     OW27268   6.770   1.354   6.820
 8790SOL    HW127269   6.675   1.384   6.818
 8790SOL    HW227270   6.799   1.329   6.727
 8791SOL     OW27271   4.682   6.473   5.020
 8791SOL    HW127272   4.759   6.508   4.967
 8791SOL    HW227273   4.600   6.527   5.000
 8792SOL     OW27274   3.310   4.932   2.526
 8792SOL    HW127275   3.252   4.900   2.451
 8792SOL    HW227276   3.405   4.936   2.496
 8793SOL     OW27277   0.826   5.141   3.799
 8793SOL    HW127278   0.778   5.057   3.775
 8793SOL    HW227279   0.771   5.194   3.864
 8794SOL     OW27280   5.657   1.184   3.366
 8794SOL    HW127281   5.636   1.111   3.431
 8794SOL    HW227282   5.686   1.266   3.417
 8795SOL     OW27283   1.408   5.139   4.843
 8795SOL    HW127284   1.460   5.125   4.927
 8795SOL    HW227285   1.353   5.222   4.851
 8796SOL     OW27286   5.853   2.858   3.093
 8796SOL    HW127287   5.838   2.887   3.188
 8796SOL    HW227288   5.946   2.883   3.065
 8797SOL     OW27289   6.966   6.925   4.968
 8797SOL    HW127290   7.003   6.951   4.879
 8797SOL    HW227291   6.879   6.972   4.983
 8798SOL     OW27292   4.160   5.847   6.284
 8798SOL    HW127293   4.219   5.788   6.227
 8798SOL    HW227294   4.098   5.790   6.337
 8799SOL     OW27295   3.126   4.849   2.347
 8799SOL    HW127296   3.055   4.906   2.304
 8799SOL    HW227297   3.159   4.782   2.281
 8800SOL     OW27298   5.694   5.094   5.633
 8800SOL    HW127299   5.697   5.027   5.559
 8800SOL    HW227300   5.626   5.164   5.611
 8801SOL     OW27301   6.483   1.815   4.432
 8801SOL    HW127302   6.422   1.841   4.358
 8801SOL    HW227303   6.440   1.833   4.520
 8802SOL     OW27304   1.620   5.409   5.821
 8802SOL    HW127305   1.587   5.431   5.913
 8802SOL    HW227306   1.642   5.493   5.772
 8803SOL     OW27307   6.915   0.055   7.028
 8803SOL    HW127308   6.982   0.032   0.069
 8803SOL    HW227309   6.825   0.023   0.028
 8804SOL     OW27310   2.014   6.145   1.296
 8804SOL    HW127311   2.088   6.163   1.232
 8804SOL    HW227312   1.971   6.232   1.322
 8805SOL     OW27313   3.667   5.244   3.652
 8805SOL    HW127314   3.643   5.153   3.620
 8805SOL    HW227315   3.659   5.249   3.751
 8806SOL     OW27316   1.806   4.480   0.904
 8806SOL    HW127317   1.733   4.416   0.926
 8806SOL    HW227318   1.814   4.489   0.805
 8807SOL     OW27319   4.089   1.476   7.019
 8807SOL    HW127320   4.002   1.432   6.997
 8807SOL    HW227321   4.094   1.491   0.089
 8808SOL     OW27322   0.307   1.937   6.468
 8808SOL    HW127323   0.393   1.967   6.427
 8808SOL    HW227324   0.240   2.011   6.463
 8809SOL     OW27325   2.426   4.403   3.330
 8809SOL    HW127326   2.411   4.327   3.392
 8809SOL    HW227327   2.401   4.376   3.237
 8810SOL     OW27328   5.594   1.304   5.336
 8810SOL    HW127329   5.637   1.367   5.272
 8810SOL    HW227330   5.583   1.349   5.425
 8811SOL     OW27331   3.392   0.666   2.738
 8811SOL    HW127332   3.460   0.738   2.752
 8811SOL    HW227333   3.396   0.635   2.643
 8812SOL     OW27334   2.944   0.423   0.531
 8812SOL    HW127335   2.995   0.397   0.613
 8812SOL    HW227336   2.975   0.512   0.499
 8813SOL     OW27337   1.945   5.225   3.121
 8813SOL    HW127338   1.860   5.231   3.070
 8813SOL    HW227339   1.989   5.137   3.104
 8814SOL     OW27340   5.979   6.688   0.524
 8814SOL    HW127341   6.013   6.778   0.552
 8814SOL    HW227342   6.055   6.624   0.515
 8815SOL     OW27343   5.861   6.840   1.235
 8815SOL    HW127344   5.790   6.891   1.284
 8815SOL    HW227345   5.820   6.792   1.158
 8816SOL     OW27346   0.994   0.065   6.631
 8816SOL    HW127347   0.984   0.043   6.728
 8816SOL    HW227348   0.905   0.059   6.586
 8817SOL     OW27349   0.187   3.785   4.190
 8817SOL    HW127350   0.276   3.740   4.199
 8817SOL    HW227351   0.138   3.781   4.277
 8818SOL     OW27352   1.236   6.481   3.718
 8818SOL    HW127353   1.180   6.557   3.685
 8818SOL    HW227354   1.301   6.455   3.647
 8819SOL     OW27355   6.050   4.597   5.596
 8819SOL    HW127356   5.971   4.586   5.536
 8819SOL    HW227357   6.116   4.660   5.555
 8820SOL     OW27358   2.883   1.634   4.391
 8820SOL    HW127359   2.904   1.557   4.452
 8820SOL    HW227360   2.897   1.607   4.296
 8821SOL     OW27361   0.801   6.295   0.470
 8821SOL    HW127362   0.765   6.387   0.481
 8821SOL    HW227363   0.733   6.237   0.426
 8822SOL     OW27364   0.634   0.311   3.504
 8822SOL    HW127365   0.543   0.304   3.463
 8822SOL    HW227366   0.701   0.332   3.433
 8823SOL     OW27367   2.507   0.925   3.026
 8823SOL    HW127368   2.456   0.953   2.944
 8823SOL    HW227369   2.486   0.988   3.101
 8824SOL     OW27370   1.409   0.823   1.135
 8824SOL    HW127371   1.469   0.895   1.100
 8824SOL    HW227372   1.452   0.779   1.214
 8825SOL     OW27373   0.674   0.873   1.913
 8825SOL    HW127374   0.590   0.913   1.951
 8825SOL    HW227375   0.726   0.943   1.865
 8826SOL     OW27376   1.175   3.229   0.833
 8826SOL    HW127377   1.088   3.205   0.790
 8826SOL    HW227378   1.163   3.233   0.932
 8827SOL     OW27379   4.054   6.991   3.468
 8827SOL    HW127380   4.135   0.013   3.499
 8827SOL    HW227381   4.014   0.008   3.389
 8828SOL     OW27382   3.894   5.165   6.999
 8828SOL    HW127383   3.875   5.181   0.067
 8828SOL    HW227384   3.989   5.188   6.979
 8829SOL     OW27385   5.949   1.459   1.434
 8829SOL    HW127386   5.925   1.399   1.511
 8829SOL    HW227387   6.026   1.518   1.459
 8830SOL     OW27388   2.001   1.576   2.935
 8830SOL    HW127389   2.075   1.528   2.984
 8830SOL    HW227390   1.955   1.512   2.874
 8831SOL     OW27391   5.876   2.892   2.667
 8831SOL    HW127392   5.848   2.981   2.704
 8831SOL    HW227393   5.972   2.896   2.641
 8832SOL     OW27394   0.386   6.535   4.534
 8832SOL    HW127395   0.435   6.572   4.455
 8832SOL    HW227396   0.388   6.601   4.608
 8833SOL     OW27397   4.088   3.775   6.895
 8833SOL    HW127398   4.004   3.830   6.903
 8833SOL    HW227399   4.095   3.713   6.974
 8834SOL     OW27400   5.687   4.023   4.584
 8834SOL    HW127401   5.640   4.106   4.613
 8834SOL    HW227402   5.777   4.046   4.547
 8835SOL     OW27403   5.388   1.208   6.452
 8835SOL    HW127404   5.472   1.156   6.466
 8835SOL    HW227405   5.409   1.305   6.445
 8836SOL     OW27406   5.134   2.417   0.577
 8836SOL    HW127407   5.207   2.412   0.508
 8836SOL    HW227408   5.097   2.510   0.578
 8837SOL     OW27409   6.987   0.221   1.683
 8837SOL    HW127410   7.024   0.311   1.707
 8837SOL    HW227411   6.895   0.212   1.721
 8838SOL     OW27412   1.479   4.921   2.686
 8838SOL    HW127413   1.385   4.941   2.656
 8838SOL    HW227414   1.476   4.875   2.775
 8839SOL     OW27415   3.914   6.284   2.462
 8839SOL    HW127416   3.851   6.212   2.491
 8839SOL    HW227417   3.971   6.311   2.540
 8840SOL     OW27418   6.475   0.020   2.174
 8840SOL    HW127419   6.462   7.011   2.083
 8840SOL    HW227420   6.401   7.017   2.234
 8841SOL     OW27421   6.167   1.456   2.682
 8841SOL    HW127422   6.156   1.387   2.753
 8841SOL    HW227423   6.134   1.420   2.594
 8842SOL     OW27424   3.426   3.839   3.507
 8842SOL    HW127425   3.489   3.766   3.483
 8842SOL    HW227426   3.468   3.927   3.487
 8843SOL     OW27427   1.584   3.699   4.040
 8843SOL    HW127428   1.648   3.649   4.098
 8843SOL    HW227429   1.491   3.671   4.062
 8844SOL     OW27430   6.928   1.651   4.614
 8844SOL    HW127431   7.024   1.624   4.607
 8844SOL    HW227432   6.914   1.736   4.563
 8845SOL     OW27433   2.149   4.011   0.470
 8845SOL    HW127434   2.063   3.972   0.503
 8845SOL    HW227435   2.159   4.104   0.505
 8846SOL     OW27436   4.910   4.501   4.296
 8846SOL    HW127437   4.839   4.474   4.231
 8846SOL    HW227438   4.900   4.448   4.380
 8847SOL     OW27439   2.016   1.449   3.430
 8847SOL    HW127440   2.070   1.496   3.500
 8847SOL    HW227441   2.075   1.383   3.383
 8848SOL     OW27442   3.396   1.874   2.405
 8848SOL    HW127443   3.362   1.932   2.479
 8848SOL    HW227444   3.321   1.850   2.343
 8849SOL     OW27445   3.095   4.949   3.447
 8849SOL    HW127446   3.155   4.980   3.374
 8849SOL    HW227447   3.112   5.004   3.529
 8850SOL     OW27448   3.395   1.677   0.865
 8850SOL    HW127449   3.341   1.709   0.787
 8850SOL    HW227450   3.380   1.579   0.878
 8851SOL     OW27451   1.072   4.837   2.392
 8851SOL    HW127452   1.135   4.759   2.394
 8851SOL    HW227453   1.029   4.848   2.481
 8852SOL     OW27454   4.745   3.124   5.725
 8852SOL    HW127455   4.694   3.210   5.718
 8852SOL    HW227456   4.685   3.048   5.703
 8853SOL     OW27457   2.704   0.655   4.410
 8853SOL    HW127458   2.642   0.650   4.332
 8853SOL    HW227459   2.652   0.655   4.495
 8854SOL     OW27460   2.569   0.489   6.680
 8854SOL    HW127461   2.599   0.508   6.774
 8854SOL    HW227462   2.603   0.400   6.651
 8855SOL     OW27463   0.443   6.337   0.324
 8855SOL    HW127464   0.390   6.302   0.400
 8855SOL    HW227465   0.393   6.323   0.238
 8856SOL     OW27466   5.639   0.130   5.814
 8856SOL    HW127467   5.594   0.116   5.726
 8856SOL    HW227468   5.605   0.214   5.856
 8857SOL     OW27469   6.160   2.095   3.732
 8857SOL    HW127470   6.104   2.024   3.774
 8857SOL    HW227471   6.102   2.171   3.702
 8858SOL     OW27472   2.140   3.039   5.635
 8858SOL    HW127473   2.165   2.948   5.601
 8858SOL    HW227474   2.160   3.107   5.564
 8859SOL     OW27475   0.545   0.070   4.994
 8859SOL    HW127476   0.530   0.016   4.911
 8859SOL    HW227477   0.614   0.141   4.975
 8860SOL     OW27478   2.005   4.612   2.958
 8860SOL    HW127479   2.079   4.672   2.988
 8860SOL    HW227480   1.981   4.633   2.864
 8861SOL     OW27481   3.615   2.216   5.912
 8861SOL    HW127482   3.659   2.140   5.865
 8861SOL    HW227483   3.517   2.199   5.920
 8862SOL     OW27484   6.499   1.395   3.485
 8862SOL    HW127485   6.556   1.315   3.467
 8862SOL    HW227486   6.553   1.465   3.530
 8863SOL     OW27487   1.631   5.733   4.577
 8863SOL    HW127488   1.706   5.690   4.527
 8863SOL    HW227489   1.559   5.759   4.512
 8864SOL     OW27490   2.639   3.482   6.290
 8864SOL    HW127491   2.728   3.496   6.332
 8864SOL    HW227492   2.597   3.570   6.271
 8865SOL     OW27493   3.143   1.902   5.459
 8865SOL    HW127494   3.052   1.864   5.440
 8865SOL    HW227495   3.213   1.843   5.419
 8866SOL     OW27496   5.362   6.861   4.017
 8866SOL    HW127497   5.287   6.825   4.073
 8866SOL    HW227498   5.383   6.954   4.046
 8867SOL     OW27499   5.339   3.122   2.992
 8867SOL    HW127500   5.366   3.218   2.992
 8867SOL    HW227501   5.419   3.064   2.977
 8868SOL     OW27502   5.965   3.458   0.561
 8868SOL    HW127503   5.952   3.446   0.659
 8868SOL    HW227504   6.061   3.440   0.537
 8869SOL     OW27505   4.296   5.939   3.572
 8869SOL    HW127506   4.366   5.887   3.622
 8869SOL    HW227507   4.226   5.876   3.538
 8870SOL     OW27508   4.329   6.910   0.209
 8870SOL    HW127509   4.284   6.835   0.257
 8870SOL    HW227510   4.269   6.947   0.138
 8871SOL     OW27511   3.011   0.658   3.835
 8871SOL    HW127512   3.054   0.680   3.923
 8871SOL    HW227513   2.955   0.576   3.845
 8872SOL     OW27514   1.716   4.352   4.683
 8872SOL    HW127515   1.638   4.328   4.625
 8872SOL    HW227516   1.715   4.450   4.702
 8873SOL     OW27517   6.921   5.800   1.729
 8873SOL    HW127518   6.843   5.739   1.718
 8873SOL    HW227519   6.956   5.794   1.822
 8874SOL     OW27520   2.252   6.110   1.147
 8874SOL    HW127521   2.316   6.187   1.149
 8874SOL    HW227522   2.280   6.041   1.214
 8875SOL     OW27523   0.376   3.266   5.093
 8875SOL    HW127524   0.304   3.317   5.141
 8875SOL    HW227525   0.384   3.301   5.000
 8876SOL     OW27526   1.307   0.250   4.326
 8876SOL    HW127527   1.312   0.341   4.285
 8876SOL    HW227528   1.212   0.219   4.327
 8877SOL     OW27529   2.624   1.370   4.262
 8877SOL    HW127530   2.699   1.316   4.225
 8877SOL    HW227531   2.614   1.455   4.211
 8878SOL     OW27532   0.160   5.750   0.378
 8878SOL    HW127533   0.156   5.826   0.442
 8878SOL    HW227534   0.151   5.785   0.284
 8879SOL     OW27535   5.467   5.133   1.582
 8879SOL    HW127536   5.516   5.167   1.662
 8879SOL    HW227537   5.406   5.204   1.547
 8880SOL     OW27538   0.033   5.812   4.345
 8880SOL    HW127539   0.002   5.840   4.254
 8880SOL    HW227540   6.983   5.789   4.402
 8881SOL     OW27541   5.937   0.220   4.414
 8881SOL    HW127542   5.861   0.155   4.410
 8881SOL    HW227543   6.007   0.186   4.477
 8882SOL     OW27544   5.411   1.773   0.756
 8882SOL    HW127545   5.331   1.831   0.738
 8882SOL    HW227546   5.403   1.688   0.705
 8883SOL     OW27547   0.870   0.583   5.392
 8883SOL    HW127548   0.792   0.522   5.402
 8883SOL    HW227549   0.852   0.668   5.441
 8884SOL     OW27550   5.503   5.531   6.491
 8884SOL    HW127551   5.448   5.612   6.471
 8884SOL    HW227552   5.449   5.448   6.473
 8885SOL     OW27553   6.977   3.455   0.861
 8885SOL    HW127554   6.952   3.386   0.928
 8885SOL    HW227555   6.973   3.416   0.769
 8886SOL     OW27556   3.177   0.010   5.429
 8886SOL    HW127557   3.232   0.089   5.457
 8886SOL    HW227558   3.189   7.024   5.330
 8887SOL     OW27559   3.353   1.201   1.127
 8887SOL    HW127560   3.405   1.280   1.095
 8887SOL    HW227561   3.411   1.119   1.120
 8888SOL     OW27562   1.598   1.704   1.239
 8888SOL    HW127563   1.511   1.744   1.267
 8888SOL    HW227564   1.660   1.700   1.317
 8889SOL     OW27565   5.334   6.361   5.519
 8889SOL    HW127566   5.353   6.396   5.427
 8889SOL    HW227567   5.391   6.281   5.537
 8890SOL     OW27568   6.258   5.488   4.129
 8890SOL    HW127569   6.219   5.575   4.101
 8890SOL    HW227570   6.293   5.439   4.049
 8891SOL     OW27571   5.786   3.547   5.868
 8891SOL    HW127572   5.777   3.464   5.813
 8891SOL    HW227573   5.865   3.539   5.928
 8892SOL     OW27574   3.583   5.607   3.352
 8892SOL    HW127575   3.549   5.639   3.441
 8892SOL    HW227576   3.508   5.608   3.286
 8893SOL     OW27577   1.304   0.535   1.994
 8893SOL    HW127578   1.285   0.547   2.091
 8893SOL    HW227579   1.265   0.449   1.962
 8894SOL     OW27580   4.182   2.871   5.772
 8894SOL    HW127581   4.114   2.846   5.840
 8894SOL    HW227582   4.180   2.805   5.696
 8895SOL     OW27583   6.388   1.291   1.376
 8895SOL    HW127584   6.480   1.279   1.338
 8895SOL    HW227585   6.392   1.354   1.454
 8896SOL     OW27586   2.070   3.434   4.719
 8896SOL    HW127587   2.075   3.534   4.719
 8896SOL    HW227588   1.991   3.404   4.774
 8897SOL     OW27589   2.486   2.274   2.887
 8897SOL    HW127590   2.529   2.208   2.825
 8897SOL    HW227591   2.399   2.305   2.847
 8898SOL     OW27592   6.346   3.779   4.564
 8898SOL    HW127593   6.265   3.811   4.515
 8898SOL    HW227594   6.321   3.751   4.657
 8899SOL     OW27595   1.568   5.212   0.504
 8899SOL    HW127596   1.518   5.127   0.487
 8899SOL    HW227597   1.646   5.194   0.564
 8900SOL     OW27598   5.630   3.266   2.945
 8900SOL    HW127599   5.678   3.301   2.864
 8900SOL    HW227600   5.629   3.167   2.943
 8901SOL     OW27601   2.664   0.990   4.147
 8901SOL    HW127602   2.613   0.948   4.222
 8901SOL    HW227603   2.737   1.047   4.185
 8902SOL     OW27604   3.537   6.552   6.999
 8902SOL    HW127605   3.603   6.588   0.037
 8902SOL    HW227606   3.460   6.511   0.020
 8903SOL     OW27607   1.116   1.240   4.674
 8903SOL    HW127608   1.100   1.229   4.576
 8903SOL    HW227609   1.064   1.172   4.725
 8904SOL     OW27610   6.478   5.626   3.756
 8904SOL    HW127611   6.562   5.634   3.810
 8904SOL    HW227612   6.434   5.715   3.749
 8905SOL     OW27613   2.177   4.086   4.872
 8905SOL    HW127614   2.084   4.052   4.864
 8905SOL    HW227615   2.223   4.040   4.949
 8906SOL     OW27616   0.399   6.697   6.713
 8906SOL    HW127617   0.390   6.669   6.809
 8906SOL    HW227618   0.341   6.776   6.696
 8907SOL     OW27619   3.228   2.055   4.892
 8907SOL    HW127620   3.322   2.040   4.923
 8907SOL    HW227621   3.194   2.141   4.930
 8908SOL     OW27622   1.410   3.104   6.521
 8908SOL    HW127623   1.508   3.123   6.508
 8908SOL    HW227624   1.397   3.059   6.610
 8909SOL     OW27625   1.386   0.898   5.071
 8909SOL    HW127626   1.304   0.853   5.107
 8909SOL    HW227627   1.462   0.882   5.134
 8910SOL     OW27628   1.694   2.637   5.631
 8910SOL    HW127629   1.725   2.565   5.693
 8910SOL    HW227630   1.679   2.599   5.540
 8911SOL     OW27631   4.196   2.221   4.805
 8911SOL    HW127632   4.197   2.293   4.875
 8911SOL    HW227633   4.127   2.242   4.736
 8912SOL     OW27634   4.634   1.821   0.431
 8912SOL    HW127635   4.677   1.811   0.521
 8912SOL    HW227636   4.548   1.771   0.429
 8913SOL     OW27637   4.402   4.896   0.527
 8913SOL    HW127638   4.426   4.947   0.445
 8913SOL    HW227639   4.428   4.949   0.608
 8914SOL     OW27640   4.323   0.639   4.327
 8914SOL    HW127641   4.407   0.679   4.364
 8914SOL    HW227642   4.266   0.604   4.401
 8915SOL     OW27643   0.903   2.590   3.928
 8915SOL    HW127644   0.831   2.560   3.865
 8915SOL    HW227645   0.873   2.672   3.976
 8916SOL     OW27646   0.545   3.262   1.917
 8916SOL    HW127647   0.578   3.219   1.833
 8916SOL    HW227648   0.467   3.210   1.953
 8917SOL     OW27649   6.056   4.146   6.045
 8917SOL    HW127650   6.123   4.137   5.971
 8917SOL    HW227651   6.077   4.228   6.099
 8918SOL     OW27652   6.861   4.878   1.481
 8918SOL    HW127653   6.903   4.966   1.501
 8918SOL    HW227654   6.919   4.828   1.416
 8919SOL     OW27655   4.349   4.107   0.469
 8919SOL    HW127656   4.267   4.153   0.503
 8919SOL    HW227657   4.351   4.114   0.369
 8920SOL     OW27658   1.084   6.838   6.089
 8920SOL    HW127659   1.118   6.929   6.116
 8920SOL    HW227660   1.103   6.824   5.991
 8921SOL     OW27661   1.992   2.048   2.853
 8921SOL    HW127662   1.999   2.082   2.947
 8921SOL    HW227663   1.936   1.966   2.851
 8922SOL     OW27664   3.500   5.103   1.672
 8922SOL    HW127665   3.480   5.168   1.746
 8922SOL    HW227666   3.440   5.122   1.595
 8923SOL     OW27667   1.290   4.107   5.842
 8923SOL    HW127668   1.193   4.084   5.852
 8923SOL    HW227669   1.303   4.204   5.863
 8924SOL     OW27670   3.512   5.691   5.474
 8924SOL    HW127671   3.417   5.717   5.490
 8924SOL    HW227672   3.516   5.595   5.448
 8925SOL     OW27673   1.139   0.527   2.404
 8925SOL    HW127674   1.225   0.577   2.408
 8925SOL    HW227675   1.107   0.508   2.497
 8926SOL     OW27676   6.059   3.434   6.742
 8926SOL    HW127677   5.965   3.411   6.766
 8926SOL    HW227678   6.097   3.360   6.686
 8927SOL     OW27679   1.554   2.021   4.646
 8927SOL    HW127680   1.493   1.942   4.647
 8927SOL    HW227681   1.638   1.999   4.696
 8928SOL     OW27682   6.562   0.749   5.231
 8928SOL    HW127683   6.551   0.705   5.142
 8928SOL    HW227684   6.501   0.828   5.238
 8929SOL     OW27685   0.372   3.303   4.000
 8929SOL    HW127686   0.290   3.295   3.943
 8929SOL    HW227687   0.448   3.335   3.944
 8930SOL     OW27688   2.330   4.301   4.230
 8930SOL    HW127689   2.389   4.223   4.207
 8930SOL    HW227690   2.271   4.276   4.307
 8931SOL     OW27691   3.130   2.528   0.642
 8931SOL    HW127692   3.156   2.456   0.707
 8931SOL    HW227693   3.151   2.618   0.682
 8932SOL     OW27694   5.342   0.512   0.184
 8932SOL    HW127695   5.286   0.430   0.202
 8932SOL    HW227696   5.439   0.487   0.186
 8933SOL     OW27697   1.073   2.217   5.549
 8933SOL    HW127698   0.986   2.208   5.500
 8933SOL    HW227699   1.055   2.228   5.646
 8934SOL     OW27700   2.746   5.380   3.824
 8934SOL    HW127701   2.740   5.466   3.875
 8934SOL    HW227702   2.833   5.335   3.845
 8935SOL     OW27703   5.377   4.307   1.880
 8935SOL    HW127704   5.331   4.289   1.967
 8935SOL    HW227705   5.346   4.395   1.843
 8936SOL     OW27706   1.055   3.247   1.082
 8936SOL    HW127707   1.008   3.335   1.089
 8936SOL    HW227708   1.144   3.254   1.128
 8937SOL     OW27709   0.434   0.645   4.210
 8937SOL    HW127710   0.401   0.657   4.117
 8937SOL    HW227711   0.359   0.659   4.275
 8938SOL     OW27712   0.119   1.197   0.304
 8938SOL    HW127713   0.088   1.126   0.240
 8938SOL    HW227714   0.211   1.176   0.336
 8939SOL     OW27715   6.274   3.535   4.130
 8939SOL    HW127716   6.199   3.486   4.175
 8939SOL    HW227717   6.258   3.633   4.135
 8940SOL     OW27718   5.506   1.590   1.248
 8940SOL    HW127719   5.535   1.598   1.153
 8940SOL    HW227720   5.484   1.680   1.284
 8941SOL     OW27721   5.430   2.484   2.245
 8941SOL    HW127722   5.457   2.518   2.155
 8941SOL    HW227723   5.490   2.523   2.315
 8942SOL     OW27724   1.162   5.537   4.453
 8942SOL    HW127725   1.244   5.544   4.397
 8942SOL    HW227726   1.171   5.598   4.533
 8943SOL     OW27727   4.393   5.024   0.787
 8943SOL    HW127728   4.392   5.019   0.886
 8943SOL    HW227729   4.367   5.116   0.758
 8944SOL     OW27730   4.965   5.323   3.988
 8944SOL    HW127731   4.927   5.245   4.037
 8944SOL    HW227732   4.894   5.367   3.933
 8945SOL     OW27733   6.854   2.232   4.697
 8945SOL    HW127734   6.793   2.275   4.631
 8945SOL    HW227735   6.852   2.284   4.783
 8946SOL     OW27736   3.542   0.744   4.191
 8946SOL    HW127737   3.590   0.678   4.134
 8946SOL    HW227738   3.456   0.705   4.222
 8947SOL     OW27739   2.067   3.776   6.034
 8947SOL    HW127740   2.157   3.808   6.065
 8947SOL    HW227741   1.996   3.823   6.086
 8948SOL     OW27742   6.015   5.906   2.992
 8948SOL    HW127743   6.073   5.875   2.916
 8948SOL    HW227744   6.072   5.951   3.061
 8949SOL     OW27745   4.154   5.798   0.605
 8949SOL    HW127746   4.201   5.792   0.517
 8949SOL    HW227747   4.056   5.810   0.589
 8950SOL     OW27748   4.592   3.238   1.416
 8950SOL    HW127749   4.656   3.312   1.433
 8950SOL    HW227750   4.498   3.272   1.422
 8951SOL     OW27751   1.882   1.118   4.320
 8951SOL    HW127752   1.899   1.195   4.381
 8951SOL    HW227753   1.875   1.034   4.374
 8952SOL     OW27754   1.038   5.408   2.997
 8952SOL    HW127755   0.985   5.439   2.917
 8952SOL    HW227756   0.975   5.372   3.066
 8953SOL     OW27757   1.537   4.289   1.064
 8953SOL    HW127758   1.545   4.251   1.157
 8953SOL    HW227759   1.587   4.231   1.000
 8954SOL     OW27760   0.106   6.906   3.899
 8954SOL    HW127761   0.179   6.842   3.874
 8954SOL    HW227762   0.125   6.996   3.859
 8955SOL     OW27763   0.008   3.460   2.621
 8955SOL    HW127764   7.026   3.413   2.708
 8955SOL    HW227765   6.947   3.486   2.585
 8956SOL     OW27766   0.881   0.772   5.922
 8956SOL    HW127767   0.830   0.805   5.843
 8956SOL    HW227768   0.961   0.721   5.892
 8957SOL     OW27769   2.237   4.883   1.120
 8957SOL    HW127770   2.218   4.980   1.102
 8957SOL    HW227771   2.165   4.827   1.077
 8958SOL     OW27772   1.340   2.340   5.233
 8958SOL    HW127773   1.263   2.333   5.169
 8958SOL    HW227774   1.337   2.430   5.278
 8959SOL     OW27775   1.745   3.506   2.579
 8959SOL    HW127776   1.683   3.560   2.635
 8959SOL    HW227777   1.696   3.472   2.498
 8960SOL     OW27778   6.077   5.797   3.336
 8960SOL    HW127779   6.082   5.714   3.281
 8960SOL    HW227780   6.059   5.773   3.431
 8961SOL     OW27781   4.267   1.766   3.976
 8961SOL    HW127782   4.326   1.724   4.045
 8961SOL    HW227783   4.191   1.812   4.021
 8962SOL     OW27784   0.223   6.185   1.430
 8962SOL    HW127785   0.168   6.109   1.393
 8962SOL    HW227786   0.293   6.148   1.491
 8963SOL     OW27787   3.255   6.590   5.038
 8963SOL    HW127788   3.193   6.573   4.962
 8963SOL    HW227789   3.323   6.658   5.011
 8964SOL     OW27790   5.392   3.738   2.812
 8964SOL    HW127791   5.350   3.743   2.722
 8964SOL    HW227792   5.335   3.684   2.873
 8965SOL     OW27793   3.633   5.307   0.677
 8965SOL    HW127794   3.533   5.305   0.678
 8965SOL    HW227795   3.669   5.228   0.726
 8966SOL     OW27796   6.935   4.930   6.644
 8966SOL    HW127797   6.943   4.834   6.617
 8966SOL    HW227798   6.876   4.978   6.578
 8967SOL     OW27799   4.556   1.561   3.318
 8967SOL    HW127800   4.464   1.561   3.358
 8967SOL    HW227801   4.623   1.587   3.388
 8968SOL     OW27802   3.259   5.629   2.303
 8968SOL    HW127803   3.171   5.622   2.256
 8968SOL    HW227804   3.248   5.677   2.390
 8969SOL     OW27805   0.132   0.712   3.755
 8969SOL    HW127806   0.156   0.698   3.659
 8969SOL    HW227807   0.071   0.639   3.785
 8970SOL     OW27808   1.420   2.304   0.591
 8970SOL    HW127809   1.407   2.207   0.571
 8970SOL    HW227810   1.449   2.351   0.508
 8971SOL     OW27811   5.379   6.826   1.893
 8971SOL    HW127812   5.376   6.911   1.839
 8971SOL    HW227813   5.463   6.776   1.870
 8972SOL     OW27814   5.205   4.080   0.362
 8972SOL    HW127815   5.128   4.139   0.337
 8972SOL    HW227816   5.172   4.004   0.419
 8973SOL     OW27817   0.281   2.860   2.264
 8973SOL    HW127818   0.198   2.812   2.293
 8973SOL    HW227819   0.337   2.881   2.344
 8974SOL     OW27820   1.905   3.944   3.897
 8974SOL    HW127821   1.993   3.898   3.882
 8974SOL    HW227822   1.893   4.016   3.828
 8975SOL     OW27823   0.992   6.769   6.827
 8975SOL    HW127824   1.014   6.748   6.732
 8975SOL    HW227825   0.898   6.741   6.847
 8976SOL     OW27826   0.139   6.515   0.586
 8976SOL    HW127827   0.109   6.583   0.520
 8976SOL    HW227828   0.087   6.526   0.671
 8977SOL     OW27829   6.853   4.069   6.470
 8977SOL    HW127830   6.825   4.158   6.435
 8977SOL    HW227831   6.922   4.029   6.409
 8978SOL     OW27832   4.892   6.586   4.847
 8978SOL    HW127833   4.925   6.569   4.755
 8978SOL    HW227834   4.969   6.588   4.911
 8979SOL     OW27835   1.257   5.494   6.123
 8979SOL    HW127836   1.161   5.466   6.129
 8979SOL    HW227837   1.262   5.590   6.093
 8980SOL     OW27838   5.468   2.148   5.848
 8980SOL    HW127839   5.411   2.165   5.768
 8980SOL    HW227840   5.449   2.056   5.883
 8981SOL     OW27841   4.953   1.884   5.808
 8981SOL    HW127842   4.874   1.928   5.766
 8981SOL    HW227843   4.923   1.829   5.885
 8982SOL     OW27844   7.017   2.153   1.366
 8982SOL    HW127845   6.945   2.189   1.425
 8982SOL    HW227846   7.019   2.205   1.281
 8983SOL     OW27847   1.026   5.353   1.410
 8983SOL    HW127848   1.126   5.359   1.405
 8983SOL    HW227849   0.997   5.260   1.390
 8984SOL     OW27850   6.143   0.135   4.647
 8984SOL    HW127851   6.175   0.040   4.648
 8984SOL    HW227852   6.220   0.197   4.636
 8985SOL     OW27853   3.321   2.378   1.157
 8985SOL    HW127854   3.242   2.419   1.203
 8985SOL    HW227855   3.339   2.428   1.072
 8986SOL     OW27856   5.561   4.456   2.713
 8986SOL    HW127857   5.657   4.482   2.726
 8986SOL    HW227858   5.514   4.459   2.801
 8987SOL     OW27859   3.000   0.618   1.085
 8987SOL    HW127860   2.983   0.716   1.079
 8987SOL    HW227861   3.069   0.601   1.156
 8988SOL     OW27862   1.959   5.662   0.151
 8988SOL    HW127863   1.901   5.626   0.078
 8988SOL    HW227864   1.933   5.756   0.172
 8989SOL     OW27865   4.924   3.289   2.706
 8989SOL    HW127866   4.880   3.240   2.781
 8989SOL    HW227867   4.952   3.224   2.635
 8990SOL     OW27868   1.919   5.893   1.909
 8990SOL    HW127869   1.881   5.985   1.897
 8990SOL    HW227870   1.859   5.841   1.970
 8991SOL     OW27871   2.701   1.967   1.463
 8991SOL    HW127872   2.649   1.950   1.380
 8991SOL    HW227873   2.760   2.047   1.449
 8992SOL     OW27874   0.374   2.642   0.435
 8992SOL    HW127875   0.466   2.638   0.397
 8992SOL    HW227876   0.378   2.647   0.535
 8993SOL     OW27877   5.128   2.460   2.882
 8993SOL    HW127878   5.071   2.542   2.893
 8993SOL    HW227879   5.134   2.435   2.786
 8994SOL     OW27880   1.689   5.349   3.765
 8994SOL    HW127881   1.732   5.313   3.682
 8994SOL    HW227882   1.746   5.421   3.804
 8995SOL     OW27883   1.100   2.655   4.988
 8995SOL    HW127884   1.044   2.639   5.070
 8995SOL    HW227885   1.130   2.567   4.952
 8996SOL     OW27886   0.692   3.884   2.048
 8996SOL    HW127887   0.691   3.785   2.038
 8996SOL    HW227888   0.700   3.908   2.145
 8997SOL     OW27889   4.921   0.750   6.677
 8997SOL    HW127890   4.970   0.736   6.763
 8997SOL    HW227891   4.903   0.662   6.633
 8998SOL     OW27892   0.202   1.860   4.794
 8998SOL    HW127893   0.192   1.765   4.763
 8998SOL    HW227894   0.198   1.921   4.715
 8999SOL     OW27895   4.830   0.860   6.988
 8999SOL    HW127896   4.919   0.854   6.943
 8999SOL    HW227897   4.795   0.767   7.004
 9000SOL     OW27898   2.679   4.210   6.283
 9000SOL    HW127899   2.637   4.194   6.193
 9000SOL    HW227900   2.693   4.122   6.328
 9001SOL     OW27901   1.257   5.053   3.027
 9001SOL    HW127902   1.277   4.963   3.065
 9001SOL    HW227903   1.342   5.105   3.017
 9002SOL     OW27904   0.425   5.387   5.815
 9002SOL    HW127905   0.446   5.446   5.738
 9002SOL    HW227906   0.400   5.443   5.894
 9003SOL     OW27907   5.986   2.349   1.189
 9003SOL    HW127908   5.898   2.301   1.182
 9003SOL    HW227909   5.969   2.447   1.202
 9004SOL     OW27910   4.602   6.278   1.895
 9004SOL    HW127911   4.542   6.346   1.852
 9004SOL    HW227912   4.697   6.306   1.884
 9005SOL     OW27913   5.537   2.178   3.634
 9005SOL    HW127914   5.543   2.273   3.603
 9005SOL    HW227915   5.487   2.124   3.566
 9006SOL     OW27916   1.271   5.834   0.786
 9006SOL    HW127917   1.322   5.863   0.867
 9006SOL    HW227918   1.220   5.911   0.748
 9007SOL     OW27919   3.651   5.564   3.805
 9007SOL    HW127920   3.667   5.493   3.873
 9007SOL    HW227921   3.730   5.625   3.801
 9008SOL     OW27922   6.165   5.361   2.980
 9008SOL    HW127923   6.257   5.352   2.941
 9008SOL    HW227924   6.097   5.337   2.911
 9009SOL     OW27925   3.386   6.844   0.481
 9009SOL    HW127926   3.363   6.746   0.479
 9009SOL    HW227927   3.352   6.885   0.566
 9010SOL     OW27928   0.641   6.752   5.002
 9010SOL    HW127929   0.572   6.753   4.930
 9010SOL    HW227930   0.619   6.680   5.068
 9011SOL     OW27931   3.691   2.616   1.267
 9011SOL    HW127932   3.779   2.573   1.248
 9011SOL    HW227933   3.665   2.674   1.190
 9012SOL     OW27934   2.506   5.211   0.630
 9012SOL    HW127935   2.494   5.134   0.568
 9012SOL    HW227936   2.499   5.179   0.724
 9013SOL     OW27937   6.062   6.104   5.009
 9013SOL    HW127938   6.035   6.187   4.959
 9013SOL    HW227939   6.091   6.034   4.944
 9014SOL     OW27940   1.344   1.755   0.652
 9014SOL    HW127941   1.320   1.691   0.725
 9014SOL    HW227942   1.274   1.751   0.580
 9015SOL     OW27943   6.083   0.863   6.796
 9015SOL    HW127944   6.161   0.829   6.849
 9015SOL    HW227945   6.038   0.937   6.845
 9016SOL     OW27946   5.928   6.120   5.929
 9016SOL    HW127947   5.996   6.047   5.930
 9016SOL    HW227948   5.864   6.108   6.005
 9017SOL     OW27949   5.695   1.907   3.223
 9017SOL    HW127950   5.788   1.869   3.220
 9017SOL    HW227951   5.701   2.006   3.237
 9018SOL     OW27952   3.935   1.514   5.519
 9018SOL    HW127953   3.955   1.599   5.567
 9018SOL    HW227954   3.893   1.449   5.583
 9019SOL     OW27955   1.745   6.666   0.669
 9019SOL    HW127956   1.683   6.741   0.694
 9019SOL    HW227957   1.831   6.704   0.636
 9020SOL     OW27958   1.679   3.725   2.094
 9020SOL    HW127959   1.736   3.643   2.085
 9020SOL    HW227960   1.723   3.788   2.159
 9021SOL     OW27961   6.574   0.172   3.982
 9021SOL    HW127962   6.671   0.196   3.977
 9021SOL    HW227963   6.534   0.171   3.891
 9022SOL     OW27964   2.687   0.634   0.728
 9022SOL    HW127965   2.727   0.563   0.786
 9022SOL    HW227966   2.749   0.654   0.652
 9023SOL     OW27967   3.867   3.283   3.241
 9023SOL    HW127968   3.828   3.303   3.151
 9023SOL    HW227969   3.898   3.368   3.284
 9024SOL     OW27970   1.990   5.796   6.234
 9024SOL    HW127971   2.020   5.717   6.180
 9024SOL    HW227972   1.901   5.776   6.274
 9025SOL     OW27973   6.428   6.025   0.865
 9025SOL    HW127974   6.390   6.082   0.937
 9025SOL    HW227975   6.414   5.929   0.888
 9026SOL     OW27976   3.588   3.419   3.672
 9026SOL    HW127977   3.584   3.361   3.753
 9026SOL    HW227978   3.629   3.368   3.597
 9027SOL     OW27979   2.833   1.984   3.842
 9027SOL    HW127980   2.864   1.890   3.859
 9027SOL    HW227981   2.758   2.005   3.905
 9028SOL     OW27982   2.540   4.566   6.500
 9028SOL    HW127983   2.541   4.473   6.537
 9028SOL    HW227984   2.548   4.562   6.401
 9029SOL     OW27985   3.710   5.257   4.577
 9029SOL    HW127986   3.752   5.260   4.486
 9029SOL    HW227987   3.745   5.178   4.628
 9030SOL     OW27988   2.046   1.115   2.673
 9030SOL    HW127989   1.947   1.116   2.660
 9030SOL    HW227990   2.083   1.029   2.638
 9031SOL     OW27991   3.391   5.372   5.622
 9031SOL    HW127992   3.484   5.406   5.604
 9031SOL    HW227993   3.324   5.439   5.591
 9032SOL     OW27994   3.994   2.516   0.788
 9032SOL    HW127995   3.917   2.577   0.810
 9032SOL    HW227996   3.987   2.487   0.693
 9033SOL     OW27997   1.399   3.430   3.851
 9033SOL    HW127998   1.340   3.506   3.877
 9033SOL    HW227999   1.370   3.347   3.899
 9034SOL     OW28000   2.668   6.280   5.064
 9034SOL    HW128001   2.594   6.321   5.010
 9034SOL    HW228002   2.638   6.269   5.159
 9035SOL     OW28003   0.255   6.559   4.906
 9035SOL    HW128004   0.255   6.565   5.006
 9035SOL    HW228005   0.305   6.478   4.877
 9036SOL     OW28006   1.833   2.038   4.791
 9036SOL    HW128007   1.883   2.115   4.752
 9036SOL    HW228008   1.857   2.028   4.888
 9037SOL     OW28009   1.603   3.419   6.628
 9037SOL    HW128010   1.650   3.423   6.540
 9037SOL    HW228011   1.669   3.432   6.702
 9038SOL     OW28012   5.249   0.191   5.699
 9038SOL    HW128013   5.198   0.272   5.728
 9038SOL    HW228014   5.186   0.114   5.687
 9039SOL     OW28015   1.911   4.541   5.045
 9039SOL    HW128016   1.974   4.571   4.973
 9039SOL    HW228017   1.835   4.606   5.052
 9040SOL     OW28018   3.085   1.454   3.614
 9040SOL    HW128019   3.097   1.361   3.650
 9040SOL    HW228020   3.157   1.473   3.548
 9041SOL     OW28021   0.887   1.991   1.911
 9041SOL    HW128022   0.905   1.900   1.873
 9041SOL    HW228023   0.919   1.995   2.005
 9042SOL     OW28024   2.836   6.389   3.715
 9042SOL    HW128025   2.808   6.374   3.810
 9042SOL    HW228026   2.772   6.342   3.654
 9043SOL     OW28027   2.289   1.575   5.526
 9043SOL    HW128028   2.338   1.662   5.527
 9043SOL    HW228029   2.270   1.549   5.431
 9044SOL     OW28030   6.114   1.222   1.302
 9044SOL    HW128031   6.095   1.127   1.328
 9044SOL    HW228032   6.208   1.245   1.330
 9045SOL     OW28033   3.239   1.565   2.095
 9045SOL    HW128034   3.201   1.641   2.041
 9045SOL    HW228035   3.182   1.551   2.176
 9046SOL     OW28036   3.434   4.150   4.738
 9046SOL    HW128037   3.503   4.158   4.810
 9046SOL    HW228038   3.345   4.175   4.775
 9047SOL     OW28039   1.758   4.118   5.456
 9047SOL    HW128040   1.698   4.119   5.535
 9047SOL    HW228041   1.750   4.031   5.408
 9048SOL     OW28042   0.402   3.207   6.098
 9048SOL    HW128043   0.358   3.119   6.116
 9048SOL    HW228044   0.439   3.243   6.184
 9049SOL     OW28045   5.016   6.565   6.875
 9049SOL    HW128046   5.012   6.508   6.793
 9049SOL    HW228047   4.926   6.602   6.895
 9050SOL     OW28048   1.511   5.450   6.410
 9050SOL    HW128049   1.420   5.486   6.431
 9050SOL    HW228050   1.536   5.475   6.317
 9051SOL     OW28051   4.476   6.449   0.855
 9051SOL    HW128052   4.407   6.377   0.848
 9051SOL    HW228053   4.531   6.450   0.771
 9052SOL     OW28054   2.172   4.204   4.432
 9052SOL    HW128055   2.224   4.197   4.517
 9052SOL    HW228056   2.077   4.224   4.452
 9053SOL     OW28057   2.395   1.511   3.642
 9053SOL    HW128058   2.360   1.560   3.563
 9053SOL    HW228059   2.333   1.524   3.720
 9054SOL     OW28060   1.621   0.747   2.003
 9054SOL    HW128061   1.671   0.799   1.934
 9054SOL    HW228062   1.600   0.656   1.968
 9055SOL     OW28063   0.269   3.993   3.586
 9055SOL    HW128064   0.362   3.989   3.549
 9055SOL    HW228065   0.268   4.048   3.669
 9056SOL     OW28066   5.106   0.293   1.997
 9056SOL    HW128067   5.053   0.270   1.916
 9056SOL    HW228068   5.046   0.293   2.077
 9057SOL     OW28069   6.720   4.734   5.855
 9057SOL    HW128070   6.635   4.712   5.808
 9057SOL    HW228071   6.700   4.759   5.949
 9058SOL     OW28072   2.538   1.648   3.910
 9058SOL    HW128073   2.511   1.732   3.863
 9058SOL    HW228074   2.461   1.584   3.909
 9059SOL     OW28075   0.090   0.610   3.149
 9059SOL    HW128076   0.150   0.553   3.092
 9059SOL    HW228077   0.114   0.597   3.245
 9060SOL     OW28078   6.670   4.152   2.408
 9060SOL    HW128079   6.643   4.205   2.489
 9060SOL    HW228080   6.765   4.173   2.384
 9061SOL     OW28081   4.424   5.672   2.626
 9061SOL    HW128082   4.504   5.705   2.675
 9061SOL    HW228083   4.342   5.716   2.663
 9062SOL     OW28084   0.980   4.807   2.651
 9062SOL    HW128085   1.001   4.709   2.647
 9062SOL    HW228086   0.891   4.820   2.695
 9063SOL     OW28087   3.119   0.683   2.130
 9063SOL    HW128088   3.028   0.667   2.092
 9063SOL    HW228089   3.120   0.771   2.177
 9064SOL     OW28090   6.325   4.473   4.205
 9064SOL    HW128091   6.384   4.392   4.205
 9064SOL    HW228092   6.288   4.487   4.113
 9065SOL     OW28093   2.909   6.066   6.583
 9065SOL    HW128094   2.873   5.997   6.521
 9065SOL    HW228095   3.009   6.064   6.580
 9066SOL     OW28096   5.952   0.316   6.284
 9066SOL    HW128097   5.871   0.309   6.342
 9066SOL    HW228098   6.034   0.317   6.341
 9067SOL     OW28099   5.851   6.115   4.624
 9067SOL    HW128100   5.879   6.166   4.705
 9067SOL    HW228101   5.752   6.115   4.617
 9068SOL     OW28102   3.066   0.448   5.153
 9068SOL    HW128103   3.051   0.506   5.073
 9068SOL    HW228104   3.131   0.493   5.215
 9069SOL     OW28105   3.850   2.148   2.242
 9069SOL    HW128106   3.834   2.199   2.158
 9069SOL    HW228107   3.763   2.131   2.287
 9070SOL     OW28108   1.067   3.017   6.235
 9070SOL    HW128109   0.986   3.043   6.183
 9070SOL    HW228110   1.109   2.936   6.194
 9071SOL     OW28111   5.074   0.026   7.011
 9071SOL    HW128112   5.024   0.008   0.067
 9071SOL    HW228113   5.018   7.026   6.933
 9072SOL     OW28114   4.971   6.979   1.555
 9072SOL    HW128115   5.051   6.936   1.513
 9072SOL    HW228116   4.889   6.953   1.504
 9073SOL     OW28117   3.511   6.924   1.348
 9073SOL    HW128118   3.444   6.955   1.280
 9073SOL    HW228119   3.499   6.826   1.364
 9074SOL     OW28120   1.804   0.699   1.389
 9074SOL    HW128121   1.756   0.659   1.467
 9074SOL    HW228122   1.895   0.658   1.381
 9075SOL     OW28123   0.537   0.444   1.921
 9075SOL    HW128124   0.529   0.363   1.978
 9075SOL    HW228125   0.560   0.523   1.978
 9076SOL     OW28126   4.969   1.734   4.636
 9076SOL    HW128127   4.932   1.826   4.648
 9076SOL    HW228128   5.068   1.739   4.618
 9077SOL     OW28129   5.192   1.332   6.649
 9077SOL    HW128130   5.278   1.290   6.620
 9077SOL    HW228131   5.202   1.367   6.742
 9078SOL     OW28132   4.853   4.190   6.942
 9078SOL    HW128133   4.800   4.119   6.895
 9078SOL    HW228134   4.827   4.280   6.906
 9079SOL     OW28135   1.663   6.936   5.063
 9079SOL    HW128136   1.669   6.901   5.157
 9079SOL    HW228137   1.659   0.008   5.065
 9080SOL     OW28138   6.210   2.755   6.983
 9080SOL    HW128139   6.212   2.684   0.024
 9080SOL    HW228140   6.262   2.725   6.903
 9081SOL     OW28141   3.396   0.892   2.247
 9081SOL    HW128142   3.427   0.838   2.168
 9081SOL    HW228143   3.351   0.975   2.215
 9082SOL     OW28144   2.050   6.170   5.523
 9082SOL    HW128145   2.123   6.215   5.575
 9082SOL    HW228146   2.007   6.237   5.462
 9083SOL     OW28147   3.753   4.301   6.006
 9083SOL    HW128148   3.678   4.238   5.987
 9083SOL    HW228149   3.743   4.338   6.099
 9084SOL     OW28150   1.791   2.271   6.519
 9084SOL    HW128151   1.749   2.360   6.499
 9084SOL    HW228152   1.767   2.207   6.446
 9085SOL     OW28153   2.002   5.479   1.261
 9085SOL    HW128154   2.064   5.441   1.330
 9085SOL    HW228155   1.912   5.495   1.301
 9086SOL     OW28156   6.061   4.097   1.532
 9086SOL    HW128157   6.120   4.056   1.603
 9086SOL    HW228158   5.987   4.147   1.575
 9087SOL     OW28159   5.148   3.112   1.940
 9087SOL    HW128160   5.159   3.026   1.890
 9087SOL    HW228161   5.083   3.098   2.015
 9088SOL     OW28162   6.700   6.630   0.548
 9088SOL    HW128163   6.751   6.555   0.589
 9088SOL    HW228164   6.765   6.697   0.510
 9089SOL     OW28165   3.693   6.018   5.811
 9089SOL    HW128166   3.771   6.021   5.748
 9089SOL    HW228167   3.647   6.107   5.810
 9090SOL     OW28168   5.330   6.998   3.590
 9090SOL    HW128169   5.306   0.065   3.600
 9090SOL    HW228170   5.430   6.988   3.595
 9091SOL     OW28171   2.717   3.256   0.538
 9091SOL    HW128172   2.705   3.312   0.456
 9091SOL    HW228173   2.789   3.296   0.595
 9092SOL     OW28174   0.461   1.683   6.976
 9092SOL    HW128175   0.427   1.608   6.920
 9092SOL    HW228176   0.548   1.716   6.939
 9093SOL     OW28177   1.278   6.129   6.328
 9093SOL    HW128178   1.366   6.101   6.368
 9093SOL    HW228179   1.291   6.210   6.272
 9094SOL     OW28180   0.560   5.477   2.702
 9094SOL    HW128181   0.587   5.495   2.607
 9094SOL    HW228182   0.622   5.524   2.764
 9095SOL     OW28183   3.887   3.703   6.102
 9095SOL    HW128184   3.957   3.704   6.174
 9095SOL    HW228185   3.824   3.780   6.117
 9096SOL     OW28186   5.580   4.005   2.299
 9096SOL    HW128187   5.620   4.096   2.303
 9096SOL    HW228188   5.647   3.940   2.264
 9097SOL     OW28189   0.732   2.898   6.776
 9097SOL    HW128190   0.751   2.993   6.799
 9097SOL    HW228191   0.682   2.893   6.689
 9098SOL     OW28192   3.545   2.987   6.684
 9098SOL    HW128193   3.486   2.949   6.612
 9098SOL    HW228194   3.585   2.913   6.737
 9099SOL     OW28195   3.992   4.103   0.827
 9099SOL    HW128196   3.908   4.154   0.840
 9099SOL    HW228197   3.980   4.037   0.752
 9100SOL     OW28198   1.226   3.322   3.151
 9100SOL    HW128199   1.175   3.249   3.107
 9100SOL    HW228200   1.204   3.410   3.108
 9101SOL     OW28201   2.298   2.877   3.167
 9101SOL    HW128202   2.284   2.876   3.068
 9101SOL    HW228203   2.312   2.971   3.198
 9102SOL     OW28204   3.533   6.682   2.137
 9102SOL    HW128205   3.462   6.643   2.195
 9102SOL    HW228206   3.547   6.778   2.161
 9103SOL     OW28207   6.578   4.134   7.015
 9103SOL    HW128208   6.581   4.158   6.918
 9103SOL    HW228209   6.532   4.046   7.026
 9104SOL     OW28210   4.865   6.805   3.130
 9104SOL    HW128211   4.767   6.821   3.143
 9104SOL    HW228212   4.888   6.817   3.033
 9105SOL     OW28213   1.599   1.028   0.647
 9105SOL    HW128214   1.563   1.105   0.699
 9105SOL    HW228215   1.525   0.986   0.594
 9106SOL     OW28216   6.605   4.428   0.337
 9106SOL    HW128217   6.612   4.471   0.427
 9106SOL    HW228218   6.686   4.372   0.320
 9107SOL     OW28219   2.938   0.434   6.061
 9107SOL    HW128220   2.892   0.523   6.063
 9107SOL    HW228221   3.000   0.427   6.139
 9108SOL     OW28222   5.073   3.918   5.956
 9108SOL    HW128223   5.011   3.990   5.987
 9108SOL    HW228224   5.113   3.871   6.034
 9109SOL     OW28225   0.757   2.856   2.915
 9109SOL    HW128226   0.826   2.919   2.878
 9109SOL    HW228227   0.795   2.804   2.990
 9110SOL     OW28228   1.859   4.226   4.225
 9110SOL    HW128229   1.918   4.165   4.173
 9110SOL    HW228230   1.794   4.173   4.279
 9111SOL     OW28231   4.268   2.847   0.101
 9111SOL    HW128232   4.258   2.944   0.077
 9111SOL    HW228233   4.364   2.828   0.121
 9112SOL     OW28234   0.902   4.974   5.257
 9112SOL    HW128235   0.989   4.938   5.291
 9112SOL    HW228236   0.863   5.037   5.325
 9113SOL     OW28237   4.602   0.047   1.603
 9113SOL    HW128238   4.605   0.121   1.670
 9113SOL    HW228239   4.637   6.992   1.645
 9114SOL     OW28240   1.385   4.855   1.761
 9114SOL    HW128241   1.441   4.891   1.687
 9114SOL    HW228242   1.364   4.759   1.744
 9115SOL     OW28243   1.162   4.871   5.315
 9115SOL    HW128244   1.195   4.892   5.223
 9115SOL    HW228245   1.236   4.884   5.381
 9116SOL     OW28246   6.450   1.195   6.959
 9116SOL    HW128247   6.470   1.172   6.863
 9116SOL    HW228248   6.458   1.113   7.016
 9117SOL     OW28249   5.896   2.789   0.330
 9117SOL    HW128250   5.798   2.788   0.351
 9117SOL    HW228251   5.930   2.883   0.335
 9118SOL     OW28252   6.635   5.144   0.307
 9118SOL    HW128253   6.641   5.063   0.249
 9118SOL    HW228254   6.725   5.167   0.342
 9119SOL     OW28255   4.919   0.349   1.721
 9119SOL    HW128256   4.869   0.424   1.679
 9119SOL    HW228257   4.883   0.332   1.813
 9120SOL     OW28258   6.009   2.053   5.767
 9120SOL    HW128259   6.034   2.129   5.827
 9120SOL    HW228260   6.074   1.978   5.779
 9121SOL     OW28261   2.428   2.340   5.566
 9121SOL    HW128262   2.498   2.386   5.511
 9121SOL    HW228263   2.338   2.361   5.529
 9122SOL     OW28264   1.876   4.272   2.152
 9122SOL    HW128265   1.906   4.190   2.200
 9122SOL    HW228266   1.842   4.339   2.219
 9123SOL     OW28267   3.144   0.363   4.487
 9123SOL    HW128268   3.232   0.330   4.453
 9123SOL    HW228269   3.106   0.427   4.421
 9124SOL     OW28270   5.661   6.752   6.988
 9124SOL    HW128271   5.578   6.740   6.933
 9124SOL    HW228272   5.640   6.803   0.042
 9125SOL     OW28273   5.163   4.328   1.531
 9125SOL    HW128274   5.174   4.384   1.613
 9125SOL    HW228275   5.077   4.353   1.485
 9126SOL     OW28276   5.876   2.694   1.717
 9126SOL    HW128277   5.823   2.614   1.745
 9126SOL    HW228278   5.850   2.719   1.623
 9127SOL     OW28279   6.358   1.432   6.073
 9127SOL    HW128280   6.347   1.502   6.144
 9127SOL    HW228281   6.268   1.393   6.051
 9128SOL     OW28282   5.079   1.485   5.422
 9128SOL    HW128283   5.093   1.549   5.347
 9128SOL    HW228284   5.086   1.533   5.509
 9129SOL     OW28285   0.351   2.697   1.019
 9129SOL    HW128286   0.348   2.606   0.979
 9129SOL    HW228287   0.351   2.689   1.119
 9130SOL     OW28288   0.146   3.157   0.722
 9130SOL    HW128289   0.154   3.219   0.644
 9130SOL    HW228290   0.183   3.067   0.698
 9131SOL     OW28291   6.040   3.146   5.495
 9131SOL    HW128292   6.051   3.234   5.448
 9131SOL    HW228293   5.944   3.118   5.491
 9132SOL     OW28294   1.190   5.211   4.439
 9132SOL    HW128295   1.196   5.295   4.386
 9132SOL    HW228296   1.283   5.176   4.455
 9133SOL     OW28297   3.983   5.732   2.480
 9133SOL    HW128298   3.986   5.807   2.414
 9133SOL    HW228299   3.888   5.709   2.499
 9134SOL     OW28300   5.037   5.424   0.634
 9134SOL    HW128301   4.951   5.448   0.678
 9134SOL    HW228302   5.074   5.342   0.677
 9135SOL     OW28303   6.670   6.705   1.470
 9135SOL    HW128304   6.684   6.768   1.547
 9135SOL    HW228305   6.702   6.614   1.495
 9136SOL     OW28306   5.858   5.396   6.136
 9136SOL    HW128307   5.887   5.300   6.142
 9136SOL    HW228308   5.770   5.402   6.090
 9137SOL     OW28309   4.751   1.613   1.508
 9137SOL    HW128310   4.785   1.685   1.446
 9137SOL    HW228311   4.817   1.538   1.511
 9138SOL     OW28312   0.392   5.555   6.058
 9138SOL    HW128313   0.450   5.595   6.129
 9138SOL    HW228314   0.331   5.626   6.021
 9139SOL     OW28315   2.492   1.413   4.552
 9139SOL    HW128316   2.528   1.396   4.460
 9139SOL    HW228317   2.546   1.485   4.596
 9140SOL     OW28318   6.487   3.522   2.960
 9140SOL    HW128319   6.449   3.518   3.053
 9140SOL    HW228320   6.515   3.430   2.932
 9141SOL     OW28321   6.218   0.373   6.931
 9141SOL    HW128322   6.269   0.288   6.948
 9141SOL    HW228323   6.121   0.358   6.951
 9142SOL     OW28324   0.135   2.767   1.456
 9142SOL    HW128325   0.128   2.674   1.491
 9142SOL    HW228326   0.165   2.828   1.529
 9143SOL     OW28327   6.381   3.227   0.283
 9143SOL    HW128328   6.449   3.197   0.350
 9143SOL    HW228329   6.415   3.308   0.235
 9144SOL     OW28330   2.213   5.349   5.308
 9144SOL    HW128331   2.239   5.377   5.400
 9144SOL    HW228332   2.267   5.400   5.241
 9145SOL     OW28333   0.139   5.785   0.096
 9145SOL    HW128334   0.207   5.840   0.047
 9145SOL    HW228335   0.048   5.803   0.059
 9146SOL     OW28336   5.626   2.987   2.978
 9146SOL    HW128337   5.592   2.921   2.911
 9146SOL    HW228338   5.703   2.947   3.028
 9147SOL     OW28339   5.965   0.615   4.724
 9147SOL    HW128340   5.946   0.619   4.625
 9147SOL    HW228341   6.000   0.703   4.754
 9148SOL     OW28342   5.069   5.985   1.020
 9148SOL    HW128343   5.057   5.949   1.113
 9148SOL    HW228344   5.042   5.915   0.954
 9149SOL     OW28345   6.081   3.459   3.316
 9149SOL    HW128346   6.047   3.371   3.282
 9149SOL    HW228347   6.153   3.492   3.255
 9150SOL     OW28348   3.088   5.214   1.490
 9150SOL    HW128349   3.057   5.139   1.550
 9150SOL    HW228350   3.077   5.186   1.395
 9151SOL     OW28351   2.078   4.478   3.335
 9151SOL    HW128352   2.131   4.404   3.295
 9151SOL    HW228353   2.139   4.540   3.384
 9152SOL     OW28354   2.026   4.487   4.605
 9152SOL    HW128355   1.933   4.453   4.618
 9152SOL    HW228356   2.051   4.546   4.682
 9153SOL     OW28357   1.461   3.288   6.919
 9153SOL    HW128358   1.447   3.383   6.947
 9153SOL    HW228359   1.449   3.279   6.820
 9154SOL     OW28360   4.006   4.642   6.839
 9154SOL    HW128361   4.087   4.649   6.898
 9154SOL    HW228362   3.934   4.592   6.887
 9155SOL     OW28363   1.365   4.036   2.087
 9155SOL    HW128364   1.333   4.084   2.169
 9155SOL    HW228365   1.463   4.052   2.076
 9156SOL     OW28366   1.357   2.265   0.860
 9156SOL    HW128367   1.388   2.172   0.877
 9156SOL    HW228368   1.380   2.292   0.766
 9157SOL     OW28369   0.122   4.345   6.023
 9157SOL    HW128370   0.141   4.414   6.092
 9157SOL    HW228371   0.040   4.371   5.972
 9158SOL     OW28372   5.665   3.247   4.482
 9158SOL    HW128373   5.686   3.345   4.484
 9158SOL    HW228374   5.712   3.201   4.557
 9159SOL     OW28375   1.938   0.730   2.418
 9159SOL    HW128376   2.020   0.786   2.409
 9159SOL    HW228377   1.906   0.701   2.328
 9160SOL     OW28378   5.596   6.888   5.480
 9160SOL    HW128379   5.673   6.937   5.440
 9160SOL    HW228380   5.557   6.943   5.554
 9161SOL     OW28381   4.784   4.002   4.529
 9161SOL    HW128382   4.711   4.054   4.573
 9161SOL    HW228383   4.821   4.055   4.452
 9162SOL     OW28384   4.660   1.165   4.089
 9162SOL    HW128385   4.672   1.087   4.150
 9162SOL    HW228386   4.563   1.179   4.071
 9163SOL     OW28387   1.486   2.471   4.949
 9163SOL    HW128388   1.461   2.542   5.014
 9163SOL    HW228389   1.541   2.511   4.875
 9164SOL     OW28390   2.209   7.008   0.027
 9164SOL    HW128391   2.233   0.062   0.077
 9164SOL    HW228392   2.110   6.991   0.035
 9165SOL     OW28393   5.986   1.558   5.954
 9165SOL    HW128394   6.047   1.621   5.906
 9165SOL    HW228395   5.928   1.610   6.018
 9166SOL     OW28396   3.818   6.196   1.852
 9166SOL    HW128397   3.827   6.101   1.822
 9166SOL    HW228398   3.903   6.226   1.895
 9167SOL     OW28399   1.962   2.855   6.087
 9167SOL    HW128400   2.019   2.881   6.010
 9167SOL    HW228401   2.017   2.851   6.170
 9168SOL     OW28402   6.913   6.964   6.276
 9168SOL    HW128403   6.936   0.002   6.206
 9168SOL    HW228404   6.917   7.008   6.366
 9169SOL     OW28405   5.790   7.024   5.347
 9169SOL    HW128406   5.810   6.980   5.260
 9169SOL    HW228407   5.828   0.088   5.347
 9170SOL     OW28408   1.512   6.194   6.925
 9170SOL    HW128409   1.454   6.199   7.006
 9170SOL    HW228410   1.552   6.103   6.917
 9171SOL     OW28411   4.113   4.884   0.769
 9171SOL    HW128412   4.147   4.809   0.713
 9171SOL    HW228413   4.189   4.937   0.804
 9172SOL     OW28414   4.262   1.191   2.197
 9172SOL    HW128415   4.219   1.115   2.149
 9172SOL    HW228416   4.285   1.163   2.290
 9173SOL     OW28417   6.291   3.463   6.150
 9173SOL    HW128418   6.279   3.376   6.102
 9173SOL    HW228419   6.371   3.511   6.113
 9174SOL     OW28420   6.142   4.314   1.048
 9174SOL    HW128421   6.115   4.300   1.144
 9174SOL    HW228422   6.139   4.226   1.000
 9175SOL     OW28423   0.489   7.001   5.650
 9175SOL    HW128424   0.539   7.021   5.734
 9175SOL    HW228425   0.395   0.006   5.658
 9176SOL     OW28426   2.481   1.074   3.954
 9176SOL    HW128427   2.410   1.011   3.986
 9176SOL    HW228428   2.564   1.061   4.008
 9177SOL     OW28429   0.786   4.757   4.684
 9177SOL    HW128430   0.754   4.711   4.766
 9177SOL    HW228431   0.886   4.749   4.678
 9178SOL     OW28432   1.673   5.556   0.423
 9178SOL    HW128433   1.699   5.643   0.465
 9178SOL    HW228434   1.693   5.481   0.486
 9179SOL     OW28435   2.274   4.204   3.505
 9179SOL    HW128436   2.238   4.116   3.534
 9179SOL    HW228437   2.272   4.268   3.582
 9180SOL     OW28438   6.789   2.365   3.321
 9180SOL    HW128439   6.808   2.324   3.231
 9180SOL    HW228440   6.698   2.336   3.351
 9181SOL     OW28441   5.729   2.700   5.069
 9181SOL    HW128442   5.726   2.610   5.026
 9181SOL    HW228443   5.751   2.769   5.001
 9182SOL     OW28444   2.602   6.749   2.245
 9182SOL    HW128445   2.670   6.814   2.278
 9182SOL    HW228446   2.573   6.690   2.320
 9183SOL     OW28447   4.738   4.975   0.584
 9183SOL    HW128448   4.712   4.879   0.576
 9183SOL    HW228449   4.738   5.002   0.680
 9184SOL     OW28450   4.988   2.222   0.361
 9184SOL    HW128451   4.919   2.149   0.362
 9184SOL    HW228452   5.006   2.252   0.454
 9185SOL     OW28453   4.794   6.814   4.986
 9185SOL    HW128454   4.740   6.883   4.938
 9185SOL    HW228455   4.832   6.749   4.920
 9186SOL     OW28456   5.596   6.095   4.624
 9186SOL    HW128457   5.565   6.006   4.657
 9186SOL    HW228458   5.519   6.146   4.585
 9187SOL     OW28459   2.426   2.128   0.478
 9187SOL    HW128460   2.436   2.052   0.543
 9187SOL    HW228461   2.359   2.105   0.408
 9188SOL     OW28462   1.498   6.950   1.170
 9188SOL    HW128463   1.479   6.963   1.268
 9188SOL    HW228464   1.562   6.875   1.158
 9189SOL     OW28465   2.951   5.970   2.049
 9189SOL    HW128466   3.012   5.935   2.120
 9189SOL    HW228467   2.859   5.980   2.086
 9190SOL     OW28468   1.908   4.715   5.570
 9190SOL    HW128469   1.873   4.650   5.502
 9190SOL    HW228470   1.919   4.805   5.527
 9191SOL     OW28471   6.221   1.674   6.503
 9191SOL    HW128472   6.296   1.680   6.437
 9191SOL    HW228473   6.144   1.728   6.470
 9192SOL     OW28474   0.853   2.300   6.178
 9192SOL    HW128475   0.917   2.372   6.207
 9192SOL    HW228476   0.894   2.211   6.196
 9193SOL     OW28477   3.523   4.118   5.989
 9193SOL    HW128478   3.434   4.131   6.034
 9193SOL    HW228479   3.512   4.130   5.890
 9194SOL     OW28480   3.497   1.151   3.539
 9194SOL    HW128481   3.411   1.168   3.492
 9194SOL    HW228482   3.491   1.185   3.633
 9195SOL     OW28483   0.604   2.161   2.968
 9195SOL    HW128484   0.562   2.078   2.933
 9195SOL    HW228485   0.562   2.241   2.923
 9196SOL     OW28486   5.775   0.430   3.353
 9196SOL    HW128487   5.796   0.482   3.436
 9196SOL    HW228488   5.779   0.491   3.274
 9197SOL     OW28489   1.773   4.981   1.472
 9197SOL    HW128490   1.712   4.907   1.500
 9197SOL    HW228491   1.855   4.943   1.429
 9198SOL     OW28492   6.722   4.516   6.514
 9198SOL    HW128493   6.645   4.499   6.453
 9198SOL    HW228494   6.690   4.516   6.609
 9199SOL     OW28495   0.593   3.575   4.980
 9199SOL    HW128496   0.585   3.486   4.936
 9199SOL    HW228497   0.527   3.638   4.939
 9200SOL     OW28498   3.416   6.161   0.008
 9200SOL    HW128499   3.360   6.229   6.989
 9200SOL    HW228500   3.393   6.162   0.106
 9201SOL     OW28501   0.627   3.256   0.688
 9201SOL    HW128502   0.655   3.314   0.611
 9201SOL    HW228503   0.541   3.211   0.666
 9202SOL     OW28504   0.962   6.262   2.704
 9202SOL    HW128505   1.006   6.280   2.617
 9202SOL    HW228506   0.975   6.341   2.765
 9203SOL     OW28507   7.008   3.323   5.712
 9203SOL    HW128508   7.002   3.423   5.720
 9203SOL    HW228509   0.070   3.292   5.742
 9204SOL     OW28510   4.762   2.927   5.290
 9204SOL    HW128511   4.812   2.898   5.371
 9204SOL    HW228512   4.825   2.939   5.213
 9205SOL     OW28513   5.066   6.160   3.366
 9205SOL    HW128514   5.029   6.211   3.289
 9205SOL    HW228515   5.163   6.143   3.352
 9206SOL     OW28516   3.397   4.940   3.703
 9206SOL    HW128517   3.300   4.919   3.695
 9206SOL    HW228518   3.429   4.984   3.619
 9207SOL     OW28519   5.312   4.934   6.043
 9207SOL    HW128520   5.243   4.966   5.978
 9207SOL    HW228521   5.379   5.006   6.059
 9208SOL     OW28522   5.838   4.594   3.642
 9208SOL    HW128523   5.876   4.612   3.551
 9208SOL    HW228524   5.829   4.495   3.655
 9209SOL     OW28525   4.259   0.891   0.322
 9209SOL    HW128526   4.267   0.986   0.290
 9209SOL    HW228527   4.314   0.832   0.263
 9210SOL     OW28528   0.689   1.428   1.934
 9210SOL    HW128529   0.686   1.336   1.973
 9210SOL    HW228530   0.608   1.442   1.877
 9211SOL     OW28531   6.760   2.879   6.132
 9211SOL    HW128532   6.702   2.951   6.093
 9211SOL    HW228533   6.763   2.802   6.068
 9212SOL     OW28534   4.317   5.487   4.349
 9212SOL    HW128535   4.360   5.535   4.426
 9212SOL    HW228536   4.388   5.441   4.295
 9213SOL     OW28537   5.461   3.848   5.134
 9213SOL    HW128538   5.513   3.781   5.189
 9213SOL    HW228539   5.390   3.800   5.082
 9214SOL     OW28540   6.952   3.925   5.853
 9214SOL    HW128541   7.000   3.896   5.770
 9214SOL    HW228542   7.008   3.906   5.933
 9215SOL     OW28543   1.562   2.998   1.957
 9215SOL    HW128544   1.534   3.092   1.975
 9215SOL    HW228545   1.662   2.992   1.959
 9216SOL     OW28546   3.728   0.102   2.341
 9216SOL    HW128547   3.799   0.067   2.280
 9216SOL    HW228548   3.726   0.202   2.337
 9217SOL     OW28549   6.995   3.077   6.790
 9217SOL    HW128550   6.915   3.123   6.828
 9217SOL    HW228551   6.966   3.007   6.725
 9218SOL     OW28552   2.205   0.982   0.051
 9218SOL    HW128553   2.154   1.000   0.135
 9218SOL    HW228554   2.184   1.053   7.012
 9219SOL     OW28555   5.865   3.494   0.147
 9219SOL    HW128556   5.953   3.496   0.100
 9219SOL    HW228557   5.874   3.445   0.233
 9220SOL     OW28558   1.171   6.299   1.790
 9220SOL    HW128559   1.192   6.210   1.831
 9220SOL    HW228560   1.073   6.305   1.774
 9221SOL     OW28561   2.347   0.636   3.156
 9221SOL    HW128562   2.349   0.586   3.069
 9221SOL    HW228563   2.401   0.587   3.224
 9222SOL     OW28564   2.704   6.196   6.131
 9222SOL    HW128565   2.736   6.101   6.127
 9222SOL    HW228566   2.782   6.257   6.146
 9223SOL     OW28567   1.105   2.246   4.056
 9223SOL    HW128568   1.102   2.169   3.993
 9223SOL    HW228569   1.025   2.305   4.040
 9224SOL     OW28570   1.351   5.294   4.035
 9224SOL    HW128571   1.254   5.273   4.024
 9224SOL    HW228572   1.363   5.393   4.048
 9225SOL     OW28573   3.156   6.295   6.685
 9225SOL    HW128574   3.081   6.354   6.715
 9225SOL    HW228575   3.224   6.350   6.638
 9226SOL     OW28576   5.932   6.534   1.470
 9226SOL    HW128577   5.969   6.567   1.383
 9226SOL    HW228578   5.845   6.487   1.454
 9227SOL     OW28579   1.756   5.464   0.714
 9227SOL    HW128580   1.763   5.491   0.810
 9227SOL    HW228581   1.811   5.525   0.658
 9228SOL     OW28582   2.028   1.862   5.835
 9228SOL    HW128583   1.946   1.878   5.890
 9228SOL    HW228584   2.041   1.938   5.771
 9229SOL     OW28585   0.930   6.127   4.989
 9229SOL    HW128586   0.962   6.149   4.896
 9229SOL    HW228587   0.922   6.211   5.042
 9230SOL     OW28588   5.331   2.688   2.923
 9230SOL    HW128589   5.255   2.625   2.941
 9230SOL    HW228590   5.398   2.680   2.996
 9231SOL     OW28591   0.500   3.192   4.636
 9231SOL    HW128592   0.432   3.164   4.569
 9231SOL    HW228593   0.546   3.111   4.673
 9232SOL     OW28594   3.953   5.370   0.825
 9232SOL    HW128595   4.017   5.379   0.749
 9232SOL    HW228596   3.915   5.460   0.847
 9233SOL     OW28597   5.737   5.261   2.046
 9233SOL    HW128598   5.837   5.249   2.043
 9233SOL    HW228599   5.716   5.356   2.066
 9234SOL     OW28600   3.639   5.932   6.680
 9234SOL    HW128601   3.569   5.903   6.615
 9234SOL    HW228602   3.703   5.856   6.695
 9235SOL     OW28603   1.406   3.125   3.292
 9235SOL    HW128604   1.360   3.190   3.231
 9235SOL    HW228605   1.343   3.096   3.363
 9236SOL     OW28606   1.881   4.466   5.983
 9236SOL    HW128607   1.969   4.459   5.937
 9236SOL    HW228608   1.893   4.447   6.081
 9237SOL     OW28609   0.919   6.135   4.229
 9237SOL    HW128610   0.891   6.230   4.233
 9237SOL    HW228611   0.928   6.107   4.133
 9238SOL     OW28612   2.515   1.815   6.924
 9238SOL    HW128613   2.513   1.898   6.868
 9238SOL    HW228614   2.424   1.774   6.926
 9239SOL     OW28615   6.834   3.933   6.966
 9239SOL    HW128616   6.798   3.976   0.020
 9239SOL    HW228617   6.836   4.000   6.892
 9240SOL     OW28618   4.806   1.847   1.966
 9240SOL    HW128619   4.882   1.854   2.031
 9240SOL    HW228620   4.735   1.788   2.004
 9241SOL     OW28621   1.079   5.220   5.835
 9241SOL    HW128622   1.169   5.257   5.814
 9241SOL    HW228623   1.051   5.155   5.764
 9242SOL     OW28624   0.592   4.824   0.124
 9242SOL    HW128625   0.677   4.792   0.167
 9242SOL    HW228626   0.615   4.877   0.043
 9243SOL     OW28627   0.376   6.397   1.303
 9243SOL    HW128628   0.330   6.311   1.327
 9243SOL    HW228629   0.396   6.398   1.205
 9244SOL     OW28630   4.021   5.779   6.892
 9244SOL    HW128631   4.060   5.867   6.863
 9244SOL    HW228632   4.093   5.712   6.904
 9245SOL     OW28633   1.651   4.605   2.944
 9245SOL    HW128634   1.618   4.569   3.031
 9245SOL    HW228635   1.750   4.617   2.948
 9246SOL     OW28636   6.767   5.332   2.403
 9246SOL    HW128637   6.701   5.349   2.476
 9246SOL    HW228638   6.734   5.375   2.318
 9247SOL     OW28639   1.094   0.172   2.898
 9247SOL    HW128640   1.086   0.269   2.922
 9247SOL    HW228641   1.116   0.119   2.980
 9248SOL     OW28642   2.342   2.041   4.604
 9248SOL    HW128643   2.408   2.070   4.534
 9248SOL    HW228644   2.266   1.994   4.560
 9249SOL     OW28645   3.757   3.528   0.276
 9249SOL    HW128646   3.747   3.625   0.256
 9249SOL    HW228647   3.819   3.485   0.210
 9250SOL     OW28648   5.387   3.010   3.887
 9250SOL    HW128649   5.290   3.006   3.862
 9250SOL    HW228650   5.424   2.918   3.891
 9251SOL     OW28651   3.934   1.726   2.844
 9251SOL    HW128652   4.000   1.771   2.903
 9251SOL    HW228653   3.914   1.783   2.765
 9252SOL     OW28654   5.254   0.129   3.833
 9252SOL    HW128655   5.327   0.121   3.901
 9252SOL    HW228656   5.193   0.051   3.840
 9253SOL     OW28657   5.754   6.412   5.469
 9253SOL    HW128658   5.798   6.349   5.533
 9253SOL    HW228659   5.679   6.460   5.516
 9254SOL     OW28660   6.616   4.967   2.891
 9254SOL    HW128661   6.666   4.974   2.978
 9254SOL    HW228662   6.645   5.040   2.830
 9255SOL     OW28663   4.505   4.078   0.009
 9255SOL    HW128664   4.425   4.039   6.991
 9255SOL    HW228665   4.588   4.036   7.001
 9256SOL     OW28666   3.367   0.122   2.688
 9256SOL    HW128667   3.410   0.034   2.668
 9256SOL    HW228668   3.437   0.185   2.723
 9257SOL     OW28669   6.962   3.532   3.228
 9257SOL    HW128670   6.986   3.607   3.290
 9257SOL    HW228671   6.868   3.543   3.197
 9258SOL     OW28672   3.330   2.941   2.761
 9258SOL    HW128673   3.231   2.959   2.756
 9258SOL    HW228674   3.363   2.912   2.672
 9259SOL     OW28675   1.187   2.491   0.866
 9259SOL    HW128676   1.255   2.422   0.887
 9259SOL    HW228677   1.173   2.494   0.767
 9260SOL     OW28678   5.613   1.506   4.788
 9260SOL    HW128679   5.604   1.416   4.833
 9260SOL    HW228680   5.549   1.512   4.712
 9261SOL     OW28681   3.158   0.661   0.565
 9261SOL    HW128682   3.184   0.689   0.473
 9261SOL    HW228683   3.223   0.699   0.631
 9262SOL     OW28684   0.117   4.257   5.562
 9262SOL    HW128685   0.176   4.277   5.484
 9262SOL    HW228686   0.065   4.174   5.544
 9263SOL     OW28687   4.958   6.793   0.989
 9263SOL    HW128688   5.018   6.854   0.937
 9263SOL    HW228689   5.003   6.705   1.003
 9264SOL     OW28690   4.527   5.302   0.331
 9264SOL    HW128691   4.611   5.298   0.386
 9264SOL    HW228692   4.533   5.234   0.257
 9265SOL     OW28693   4.357   1.749   0.414
 9265SOL    HW128694   4.317   1.722   0.327
 9265SOL    HW228695   4.342   1.847   0.429
 9266SOL     OW28696   2.376   6.950   1.510
 9266SOL    HW128697   2.324   6.865   1.503
 9266SOL    HW228698   2.469   6.935   1.476
 9267SOL     OW28699   6.480   2.967   4.496
 9267SOL    HW128700   6.557   2.920   4.538
 9267SOL    HW228701   6.506   2.999   4.405
 9268SOL     OW28702   1.047   5.235   2.139
 9268SOL    HW128703   1.020   5.182   2.219
 9268SOL    HW228704   1.114   5.183   2.085
 9269SOL     OW28705   2.956   1.537   6.151
 9269SOL    HW128706   2.976   1.441   6.135
 9269SOL    HW228707   2.896   1.572   6.079
 9270SOL     OW28708   4.339   6.260   5.845
 9270SOL    HW128709   4.292   6.173   5.860
 9270SOL    HW228710   4.321   6.321   5.921
 9271SOL     OW28711   6.449   6.819   0.020
 9271SOL    HW128712   6.399   6.732   0.018
 9271SOL    HW228713   6.444   6.862   6.958
 9272SOL     OW28714   1.254   5.765   4.671
 9272SOL    HW128715   1.250   5.781   4.572
 9272SOL    HW228716   1.187   5.823   4.717
 9273SOL     OW28717   6.165   6.474   3.353
 9273SOL    HW128718   6.135   6.392   3.304
 9273SOL    HW228719   6.089   6.538   3.361
 9274SOL     OW28720   6.959   1.998   6.680
 9274SOL    HW128721   6.888   2.068   6.685
 9274SOL    HW228722   7.011   1.998   6.765
 9275SOL     OW28723   7.027   1.023   0.156
 9275SOL    HW128724   0.028   0.929   0.171
 9275SOL    HW228725   7.004   1.036   0.060
 9276SOL     OW28726   1.984   3.821   1.761
 9276SOL    HW128727   2.071   3.804   1.808
 9276SOL    HW228728   1.969   3.751   1.692
 9277SOL     OW28729   4.730   3.574   6.893
 9277SOL    HW128730   4.634   3.568   6.922
 9277SOL    HW228731   4.734   3.593   6.795
 9278SOL     OW28732   1.826   0.406   6.167
 9278SOL    HW128733   1.850   0.501   6.186
 9278SOL    HW228734   1.905   0.359   6.127
 9279SOL     OW28735   4.778   0.545   1.629
 9279SOL    HW128736   4.841   0.619   1.652
 9279SOL    HW228737   4.693   0.584   1.594
 9280SOL     OW28738   1.863   1.909   3.240
 9280SOL    HW128739   1.923   1.963   3.300
 9280SOL    HW228740   1.900   1.817   3.231
 9281SOL     OW28741   2.629   4.413   0.376
 9281SOL    HW128742   2.561   4.341   0.364
 9281SOL    HW228743   2.693   4.388   0.448
 9282SOL     OW28744   4.700   1.278   3.804
 9282SOL    HW128745   4.799   1.274   3.791
 9282SOL    HW228746   4.676   1.231   3.889
 9283SOL     OW28747   5.582   0.681   4.072
 9283SOL    HW128748   5.569   0.773   4.035
 9283SOL    HW228749   5.495   0.631   4.071
 9284SOL     OW28750   3.467   3.420   5.918
 9284SOL    HW128751   3.392   3.447   5.979
 9284SOL    HW228752   3.429   3.400   5.827
 9285SOL     OW28753   4.917   2.891   0.908
 9285SOL    HW128754   4.922   2.991   0.905
 9285SOL    HW228755   4.828   2.861   0.874
 9286SOL     OW28756   5.178   5.765   0.606
 9286SOL    HW128757   5.087   5.778   0.568
 9286SOL    HW228758   5.213   5.852   0.642
 9287SOL     OW28759   3.465   4.972   6.872
 9287SOL    HW128760   3.493   5.015   6.958
 9287SOL    HW228761   3.386   4.914   6.889
 9288SOL     OW28762   4.837   1.273   3.543
 9288SOL    HW128763   4.750   1.305   3.578
 9288SOL    HW228764   4.912   1.325   3.586
 9289SOL     OW28765   3.816   1.176   2.478
 9289SOL    HW128766   3.770   1.161   2.391
 9289SOL    HW228767   3.775   1.254   2.525
 9290SOL     OW28768   5.135   1.406   2.969
 9290SOL    HW128769   5.041   1.427   2.943
 9290SOL    HW228770   5.174   1.340   2.905
 9291SOL     OW28771   1.565   6.290   4.052
 9291SOL    HW128772   1.649   6.305   4.001
 9291SOL    HW228773   1.561   6.194   4.083
 9292SOL     OW28774   1.273   3.204   0.124
 9292SOL    HW128775   1.200   3.211   0.055
 9292SOL    HW228776   1.358   3.175   0.080
 9293SOL     OW28777   5.009   3.593   6.945
 9293SOL    HW128778   4.919   3.551   6.954
 9293SOL    HW228779   5.034   3.638   0.002
 9294SOL     OW28780   4.451   0.532   5.272
 9294SOL    HW128781   4.377   0.510   5.208
 9294SOL    HW228782   4.497   0.448   5.300
 9295SOL     OW28783   5.591   2.335   4.513
 9295SOL    HW128784   5.587   2.293   4.423
 9295SOL    HW228785   5.519   2.298   4.571
 9296SOL     OW28786   0.815   6.407   6.883
 9296SOL    HW128787   0.850   6.424   6.975
 9296SOL    HW228788   0.886   6.428   6.816
 9297SOL     OW28789   6.457   0.498   0.981
 9297SOL    HW128790   6.461   0.416   1.038
 9297SOL    HW228791   6.504   0.573   1.027
 9298SOL     OW28792   0.593   0.160   5.446
 9298SOL    HW128793   0.564   0.080   5.500
 9298SOL    HW228794   0.690   0.153   5.426
 9299SOL     OW28795   0.680   2.419   5.364
 9299SOL    HW128796   0.707   2.429   5.268
 9299SOL    HW228797   0.581   2.412   5.370
 9300SOL     OW28798   0.498   4.907   5.897
 9300SOL    HW128799   0.412   4.957   5.904
 9300SOL    HW228800   0.558   4.933   5.973
 9301SOL     OW28801   5.032   4.863   3.754
 9301SOL    HW128802   4.980   4.778   3.753
 9301SOL    HW228803   5.046   4.895   3.660
 9302SOL     OW28804   2.053   2.967   3.713
 9302SOL    HW128805   2.010   2.980   3.803
 9302SOL    HW228806   1.986   2.982   3.641
 9303SOL     OW28807   2.637   4.432   0.778
 9303SOL    HW128808   2.576   4.508   0.756
 9303SOL    HW228809   2.716   4.467   0.829
 9304SOL     OW28810   3.946   5.068   1.766
 9304SOL    HW128811   4.038   5.106   1.758
 9304SOL    HW228812   3.934   5.029   1.857
 9305SOL     OW28813   3.323   1.406   0.811
 9305SOL    HW128814   3.234   1.406   0.858
 9305SOL    HW228815   3.314   1.362   0.722
 9306SOL     OW28816   0.062   5.197   4.914
 9306SOL    HW128817   0.008   5.215   4.832
 9306SOL    HW228818   0.157   5.181   4.889
 9307SOL     OW28819   2.052   3.491   1.792
 9307SOL    HW128820   2.058   3.538   1.704
 9307SOL    HW228821   2.141   3.491   1.837
 9308SOL     OW28822   1.934   3.417   0.200
 9308SOL    HW128823   1.976   3.328   0.181
 9308SOL    HW228824   1.854   3.405   0.259
 9309SOL     OW28825   3.300   4.644   5.947
 9309SOL    HW128826   3.290   4.674   6.042
 9309SOL    HW228827   3.347   4.714   5.894
 9310SOL     OW28828   4.730   5.152   6.498
 9310SOL    HW128829   4.730   5.208   6.581
 9310SOL    HW228830   4.795   5.189   6.432
 9311SOL     OW28831   4.336   5.234   2.079
 9311SOL    HW128832   4.319   5.150   2.028
 9311SOL    HW228833   4.348   5.310   2.015
 9312SOL     OW28834   1.253   3.729   1.342
 9312SOL    HW128835   1.159   3.733   1.379
 9312SOL    HW228836   1.259   3.657   1.273
 9313SOL     OW28837   0.166   1.073   1.369
 9313SOL    HW128838   0.248   1.078   1.311
 9313SOL    HW228839   0.189   1.030   1.456
 9314SOL     OW28840   4.924   5.217   6.279
 9314SOL    HW128841   4.982   5.216   6.361
 9314SOL    HW228842   4.926   5.128   6.236
 9315SOL     OW28843   6.020   0.775   4.974
 9315SOL    HW128844   5.936   0.788   5.026
 9315SOL    HW228845   6.099   0.777   5.036
 9316SOL     OW28846   4.755   6.098   5.687
 9316SOL    HW128847   4.819   6.170   5.717
 9316SOL    HW228848   4.751   6.099   5.587
 9317SOL     OW28849   5.571   5.308   3.478
 9317SOL    HW128850   5.522   5.333   3.395
 9317SOL    HW228851   5.590   5.210   3.477
 9318SOL     OW28852   6.123   0.512   5.641
 9318SOL    HW128853   6.131   0.601   5.685
 9318SOL    HW228854   6.144   0.440   5.706
 9319SOL     OW28855   2.008   2.902   0.022
 9319SOL    HW128856   1.920   2.869   7.014
 9319SOL    HW228857   2.049   2.965   6.985
 9320SOL     OW28858   3.743   0.414   5.174
 9320SOL    HW128859   3.812   0.370   5.233
 9320SOL    HW228860   3.774   0.412   5.079
 9321SOL     OW28861   6.843   0.331   3.650
 9321SOL    HW128862   6.794   0.249   3.622
 9321SOL    HW228863   6.871   0.383   3.570
 9322SOL     OW28864   0.483   3.304   6.975
 9322SOL    HW128865   0.465   3.363   6.896
 9322SOL    HW228866   0.397   3.284   7.022
 9323SOL     OW28867   1.438   0.761   5.858
 9323SOL    HW128868   1.377   0.718   5.791
 9323SOL    HW228869   1.414   0.728   5.950
 9324SOL     OW28870   0.995   4.647   0.942
 9324SOL    HW128871   0.992   4.550   0.918
 9324SOL    HW228872   0.907   4.676   0.979
 9325SOL     OW28873   5.771   0.672   0.293
 9325SOL    HW128874   5.694   0.682   0.231
 9325SOL    HW228875   5.805   0.763   0.319
 9326SOL     OW28876   2.118   5.341   0.600
 9326SOL    HW128877   2.096   5.367   0.506
 9326SOL    HW228878   2.144   5.422   0.652
 9327SOL     OW28879   5.238   0.773   2.761
 9327SOL    HW128880   5.243   0.829   2.678
 9327SOL    HW228881   5.252   0.830   2.842
 9328SOL     OW28882   2.321   1.122   5.147
 9328SOL    HW128883   2.274   1.205   5.178
 9328SOL    HW228884   2.371   1.081   5.224
 9329SOL     OW28885   6.233   3.610   1.006
 9329SOL    HW128886   6.138   3.629   0.984
 9329SOL    HW228887   6.288   3.616   0.922
 9330SOL     OW28888   6.375   0.277   5.918
 9330SOL    HW128889   6.435   0.327   5.857
 9330SOL    HW228890   6.361   0.330   6.002
 9331SOL     OW28891   2.568   1.124   0.518
 9331SOL    HW128892   2.547   1.028   0.533
 9331SOL    HW228893   2.487   1.171   0.483
 9332SOL     OW28894   4.288   4.377   1.380
 9332SOL    HW128895   4.373   4.390   1.328
 9332SOL    HW228896   4.213   4.357   1.316
 9333SOL     OW28897   4.111   4.114   6.933
 9333SOL    HW128898   4.027   4.126   6.986
 9333SOL    HW228899   4.170   4.048   6.980
 9334SOL     OW28900   5.578   5.967   3.101
 9334SOL    HW128901   5.594   6.066   3.105
 9334SOL    HW228902   5.497   5.944   3.155
 9335SOL     OW28903   0.972   1.169   6.738
 9335SOL    HW128904   0.877   1.196   6.720
 9335SOL    HW228905   1.029   1.195   6.661
 9336SOL     OW28906   3.295   5.639   5.819
 9336SOL    HW128907   3.289   5.553   5.869
 9336SOL    HW228908   3.391   5.659   5.797
 9337SOL     OW28909   4.117   1.767   4.846
 9337SOL    HW128910   4.063   1.817   4.779
 9337SOL    HW228911   4.076   1.778   4.937
 9338SOL     OW28912   5.360   0.238   2.061
 9338SOL    HW128913   5.270   0.264   2.024
 9338SOL    HW228914   5.348   0.168   2.131
 9339SOL     OW28915   6.062   6.653   1.214
 9339SOL    HW128916   6.095   6.685   1.125
 9339SOL    HW228917   5.994   6.717   1.249
 9340SOL     OW28918   4.683   4.254   4.215
 9340SOL    HW128919   4.644   4.287   4.301
 9340SOL    HW228920   4.758   4.191   4.235
 9341SOL     OW28921   0.616   5.930   0.963
 9341SOL    HW128922   0.574   6.019   0.976
 9341SOL    HW228923   0.607   5.876   1.047
 9342SOL     OW28924   2.491   6.384   3.985
 9342SOL    HW128925   2.495   6.407   3.888
 9342SOL    HW228926   2.540   6.298   4.001
 9343SOL     OW28927   5.419   4.326   2.282
 9343SOL    HW128928   5.508   4.369   2.271
 9343SOL    HW228929   5.421   4.265   2.362
 9344SOL     OW28930   4.586   6.858   3.112
 9344SOL    HW128931   4.516   6.812   3.056
 9344SOL    HW228932   4.548   6.943   3.148
 9345SOL     OW28933   6.483   5.835   1.720
 9345SOL    HW128934   6.571   5.833   1.673
 9345SOL    HW228935   6.495   5.802   1.814
 9346SOL     OW28936   5.648   1.316   0.883
 9346SOL    HW128937   5.576   1.332   0.951
 9346SOL    HW228938   5.736   1.344   0.921
 9347SOL     OW28939   3.018   3.966   0.190
 9347SOL    HW128940   3.057   3.919   0.111
 9347SOL    HW228941   3.083   3.962   0.266
 9348SOL     OW28942   2.824   6.518   2.351
 9348SOL    HW128943   2.727   6.543   2.354
 9348SOL    HW228944   2.833   6.419   2.365
 9349SOL     OW28945   6.820   5.396   2.912
 9349SOL    HW128946   6.881   5.349   2.849
 9349SOL    HW228947   6.761   5.459   2.861
 9350SOL     OW28948   0.018   2.772   5.389
 9350SOL    HW128949   7.013   2.864   5.412
 9350SOL    HW228950   0.118   2.773   5.391
 9351SOL     OW28951   2.970   6.936   6.925
 9351SOL    HW128952   2.967   6.857   6.987
 9351SOL    HW228953   2.958   7.020   6.978
 9352SOL     OW28954   3.186   1.620   6.509
 9352SOL    HW128955   3.139   1.544   6.465
 9352SOL    HW228956   3.223   1.681   6.439
 9353SOL     OW28957   0.541   4.340   1.031
 9353SOL    HW128958   0.625   4.287   1.044
 9353SOL    HW228959   0.546   4.389   0.943
 9354SOL     OW28960   0.587   1.500   6.626
 9354SOL    HW128961   0.517   1.472   6.560
 9354SOL    HW228962   0.652   1.561   6.580
 9355SOL     OW28963   0.211   2.030   4.592
 9355SOL    HW128964   0.283   2.066   4.533
 9355SOL    HW228965   0.125   2.078   4.573
 9356SOL     OW28966   4.828   6.844   2.245
 9356SOL    HW128967   4.821   6.943   2.241
 9356SOL    HW228968   4.837   6.815   2.340
 9357SOL     OW28969   1.680   3.560   5.924
 9357SOL    HW128970   1.762   3.604   5.886
 9357SOL    HW228971   1.599   3.613   5.900
 9358SOL     OW28972   6.834   3.118   1.674
 9358SOL    HW128973   6.845   3.101   1.772
 9358SOL    HW228974   6.781   3.044   1.633
 9359SOL     OW28975   1.734   4.379   5.728
 9359SOL    HW128976   1.773   4.419   5.811
 9359SOL    HW228977   1.807   4.359   5.664
 9360SOL     OW28978   0.610   4.445   6.956
 9360SOL    HW128979   0.614   4.526   6.897
 9360SOL    HW228980   0.682   4.381   6.929
 9361SOL     OW28981   1.511   5.431   2.990
 9361SOL    HW128982   1.427   5.465   3.033
 9361SOL    HW228983   1.534   5.341   3.029
 9362SOL     OW28984   1.859   2.135   2.613
 9362SOL    HW128985   1.860   2.131   2.713
 9362SOL    HW228986   1.827   2.225   2.584
 9363SOL     OW28987   3.175   5.803   1.979
 9363SOL    HW128988   3.261   5.831   1.937
 9363SOL    HW228989   3.099   5.820   1.917
 9364SOL     OW28990   2.740   2.740   6.647
 9364SOL    HW128991   2.807   2.689   6.700
 9364SOL    HW228992   2.788   2.804   6.586
 9365SOL     OW28993   2.825   2.197   4.166
 9365SOL    HW128994   2.895   2.230   4.102
 9365SOL    HW228995   2.768   2.273   4.195
 9366SOL     OW28996   3.824   5.271   6.259
 9366SOL    HW128997   3.837   5.283   6.357
 9366SOL    HW228998   3.821   5.361   6.215
 9367SOL     OW28999   6.958   6.633   2.429
 9367SOL    HW129000   6.948   6.723   2.471
 9367SOL    HW229001   6.873   6.607   2.383
 9368SOL     OW29002   3.769   0.622   3.077
 9368SOL    HW129003   3.690   0.581   3.032
 9368SOL    HW229004   3.738   0.674   3.157
 9369SOL     OW29005   6.925   6.624   3.632
 9369SOL    HW129006   6.874   6.549   3.674
 9369SOL    HW229007   6.899   6.632   3.535
 9370SOL     OW29008   5.626   0.537   4.462
 9370SOL    HW129009   5.633   0.477   4.382
 9370SOL    HW229010   5.607   0.482   4.543
 9371SOL     OW29011   2.441   5.002   0.466
 9371SOL    HW129012   2.459   4.906   0.486
 9371SOL    HW229013   2.384   5.008   0.383
 9372SOL     OW29014   5.190   6.583   1.341
 9372SOL    HW129015   5.180   6.535   1.254
 9372SOL    HW229016   5.275   6.554   1.385
 9373SOL     OW29017   4.830   2.671   1.620
 9373SOL    HW129018   4.767   2.745   1.642
 9373SOL    HW229019   4.819   2.643   1.525
 9374SOL     OW29020   0.473   2.571   0.062
 9374SOL    HW129021   0.552   2.627   0.086
 9374SOL    HW229022   0.453   2.507   0.137
 9375SOL     OW29023   0.765   2.030   1.052
 9375SOL    HW129024   0.860   2.039   1.080
 9375SOL    HW229025   0.706   2.039   1.132
 9376SOL     OW29026   2.438   4.306   1.192
 9376SOL    HW129027   2.400   4.362   1.266
 9376SOL    HW229028   2.456   4.214   1.226
 9377SOL     OW29029   1.843   5.161   3.356
 9377SOL    HW129030   1.853   5.251   3.400
 9377SOL    HW229031   1.878   5.166   3.263
 9378SOL     OW29032   2.793   1.469   3.325
 9378SOL    HW129033   2.856   1.391   3.334
 9378SOL    HW229034   2.836   1.540   3.269
 9379SOL     OW29035   4.991   0.378   5.549
 9379SOL    HW129036   5.037   0.351   5.464
 9379SOL    HW229037   4.919   0.444   5.528
 9380SOL     OW29038   4.056   5.734   5.328
 9380SOL    HW129039   4.008   5.820   5.311
 9380SOL    HW229040   4.090   5.697   5.242
 9381SOL     OW29041   5.371   3.112   5.925
 9381SOL    HW129042   5.274   3.118   5.948
 9381SOL    HW229043   5.426   3.138   6.005
 9382SOL     OW29044   4.358   6.949   3.887
 9382SOL    HW129045   4.279   6.983   3.937
 9382SOL    HW229046   4.329   6.882   3.819
 9383SOL     OW29047   5.683   4.929   4.062
 9383SOL    HW129048   5.665   4.880   3.977
 9383SOL    HW229049   5.617   4.901   4.132
 9384SOL     OW29050   4.510   0.006   2.038
 9384SOL    HW129051   4.434   0.022   1.975
 9384SOL    HW229052   4.584   6.987   1.991
 9385SOL     OW29053   4.582   1.815   3.986
 9385SOL    HW129054   4.642   1.889   3.954
 9385SOL    HW229055   4.553   1.760   3.908
 9386SOL     OW29056   3.317   6.012   5.398
 9386SOL    HW129057   3.250   5.945   5.431
 9386SOL    HW229058   3.335   5.996   5.301
 9387SOL     OW29059   2.607   2.361   0.489
 9387SOL    HW129060   2.693   2.310   0.494
 9387SOL    HW229061   2.530   2.298   0.500
 9388SOL     OW29062   2.669   6.037   3.636
 9388SOL    HW129063   2.718   6.054   3.721
 9388SOL    HW229064   2.594   5.973   3.653
 9389SOL     OW29065   2.865   0.211   3.148
 9389SOL    HW129066   2.898   0.239   3.058
 9389SOL    HW229067   2.895   0.278   3.216
 9390SOL     OW29068   5.640   5.148   6.277
 9390SOL    HW129069   5.733   5.133   6.244
 9390SOL    HW229070   5.591   5.206   6.213
 9391SOL     OW29071   0.928   0.254   6.121
 9391SOL    HW129072   0.961   0.298   6.204
 9391SOL    HW229073   0.910   0.323   6.051
 9392SOL     OW29074   5.422   5.082   5.295
 9392SOL    HW129075   5.431   5.107   5.198
 9392SOL    HW229076   5.435   5.163   5.352
 9393SOL     OW29077   2.599   6.864   5.856
 9393SOL    HW129078   2.508   6.824   5.865
 9393SOL    HW229079   2.591   6.962   5.837
 9394SOL     OW29080   6.302   0.680   1.416
 9394SOL    HW129081   6.252   0.748   1.469
 9394SOL    HW229082   6.271   0.682   1.321
 9395SOL     OW29083   2.780   1.302   0.589
 9395SOL    HW129084   2.693   1.261   0.559
 9395SOL    HW229085   2.829   1.237   0.647
 9396SOL     OW29086   2.096   4.620   4.841
 9396SOL    HW129087   2.124   4.711   4.809
 9396SOL    HW229088   2.178   4.566   4.862
 9397SOL     OW29089   2.949   6.346   6.211
 9397SOL    HW129090   2.919   6.441   6.212
 9397SOL    HW229091   3.045   6.341   6.186
 9398SOL     OW29092   5.886   0.904   6.350
 9398SOL    HW129093   5.926   0.813   6.342
 9398SOL    HW229094   5.957   0.973   6.333
 9399SOL     OW29095   1.049   3.383   4.836
 9399SOL    HW129096   1.087   3.331   4.759
 9399SOL    HW229097   1.101   3.361   4.919
 9400SOL     OW29098   4.964   0.893   1.169
 9400SOL    HW129099   4.934   0.976   1.216
 9400SOL    HW229100   5.060   0.902   1.144
 9401SOL     OW29101   6.492   2.016   2.883
 9401SOL    HW129102   6.578   1.971   2.859
 9401SOL    HW229103   6.474   2.004   2.980
 9402SOL     OW29104   1.459   4.287   3.034
 9402SOL    HW129105   1.525   4.346   3.081
 9402SOL    HW229106   1.405   4.237   3.102
 9403SOL     OW29107   6.295   1.637   1.807
 9403SOL    HW129108   6.313   1.734   1.788
 9403SOL    HW229109   6.308   1.584   1.723
 9404SOL     OW29110   0.563   2.165   1.361
 9404SOL    HW129111   0.540   2.068   1.366
 9404SOL    HW229112   0.559   2.194   1.265
 9405SOL     OW29113   2.202   4.122   3.984
 9405SOL    HW129114   2.136   4.182   3.938
 9405SOL    HW229115   2.226   4.046   3.923
 9406SOL     OW29116   0.826   2.640   6.814
 9406SOL    HW129117   0.799   2.736   6.809
 9406SOL    HW229118   0.762   2.590   6.872
 9407SOL     OW29119   2.667   5.220   4.236
 9407SOL    HW129120   2.740   5.152   4.244
 9407SOL    HW229121   2.703   5.310   4.262
 9408SOL     OW29122   7.023   2.987   6.214
 9408SOL    HW129123   6.935   2.960   6.174
 9408SOL    HW229124   0.056   3.017   6.141
 9409SOL     OW29125   6.375   6.244   1.325
 9409SOL    HW129126   6.385   6.154   1.369
 9409SOL    HW229127   6.310   6.299   1.377
 9410SOL     OW29128   3.313   0.464   2.061
 9410SOL    HW129129   3.242   0.534   2.068
 9410SOL    HW229130   3.295   0.407   1.981
 9411SOL     OW29131   3.917   3.055   3.088
 9411SOL    HW129132   3.922   3.131   3.152
 9411SOL    HW229133   3.848   2.990   3.119
 9412SOL     OW29134   1.530   0.863   2.241
 9412SOL    HW129135   1.569   0.833   2.154
 9412SOL    HW229136   1.603   0.871   2.309
 9413SOL     OW29137   4.794   5.043   3.364
 9413SOL    HW129138   4.725   4.987   3.409
 9413SOL    HW229139   4.770   5.140   3.374
 9414SOL     OW29140   3.190   1.248   3.788
 9414SOL    HW129141   3.285   1.280   3.794
 9414SOL    HW229142   3.189   1.153   3.758
 9415SOL     OW29143   2.162   7.014   1.917
 9415SOL    HW129144   2.077   0.007   1.868
 9415SOL    HW229145   2.141   6.960   1.998
 9416SOL     OW29146   0.100   0.971   6.070
 9416SOL    HW129147   0.087   0.905   5.997
 9416SOL    HW229148   0.083   0.927   6.158
 9417SOL     OW29149   3.583   7.019   0.732
 9417SOL    HW129150   3.512   6.950   0.716
 9417SOL    HW229151   3.590   0.050   0.652
 9418SOL     OW29152   2.215   1.293   1.641
 9418SOL    HW129153   2.226   1.381   1.593
 9418SOL    HW229154   2.302   1.245   1.642
 9419SOL     OW29155   1.542   3.790   6.134
 9419SOL    HW129156   1.640   3.791   6.155
 9419SOL    HW229157   1.505   3.882   6.148
 9420SOL     OW29158   5.900   4.414   0.267
 9420SOL    HW129159   5.912   4.324   0.308
 9420SOL    HW229160   5.989   4.451   0.241
 9421SOL     OW29161   2.813   5.821   4.948
 9421SOL    HW129162   2.742   5.889   4.967
 9421SOL    HW229163   2.873   5.814   5.028
 9422SOL     OW29164   3.017   5.794   3.013
 9422SOL    HW129165   3.073   5.845   2.948
 9422SOL    HW229166   2.976   5.857   3.079
 9423SOL     OW29167   4.034   6.539   3.505
 9423SOL    HW129168   4.082   6.456   3.533
 9423SOL    HW229169   3.947   6.513   3.462
 9424SOL     OW29170   5.205   2.051   4.642
 9424SOL    HW129171   5.209   2.000   4.729
 9424SOL    HW229172   5.259   2.003   4.573
 9425SOL     OW29173   5.623   4.635   1.449
 9425SOL    HW129174   5.587   4.662   1.539
 9425SOL    HW229175   5.562   4.566   1.408
 9426SOL     OW29176   3.191   1.251   6.238
 9426SOL    HW129177   3.194   1.153   6.260
 9426SOL    HW229178   3.112   1.270   6.180
 9427SOL     OW29179   2.708   5.578   3.047
 9427SOL    HW129180   2.667   5.640   3.113
 9427SOL    HW229181   2.722   5.626   2.960
 9428SOL     OW29182   0.148   0.111   0.498
 9428SOL    HW129183   0.191   0.175   0.562
 9428SOL    HW229184   0.218   0.060   0.448
 9429SOL     OW29185   2.147   3.052   4.070
 9429SOL    HW129186   2.083   3.090   4.136
 9429SOL    HW229187   2.214   2.994   4.116
 9430SOL     OW29188   0.411   2.272   4.775
 9430SOL    HW129189   0.361   2.186   4.786
 9430SOL    HW229190   0.493   2.256   4.720
 9431SOL     OW29191   6.402   4.645   1.189
 9431SOL    HW129192   6.473   4.715   1.189
 9431SOL    HW229193   6.358   4.641   1.279
 9432SOL     OW29194   6.456   0.986   4.191
 9432SOL    HW129195   6.361   1.012   4.173
 9432SOL    HW229196   6.462   0.887   4.199
 9433SOL     OW29197   3.106   6.574   2.738
 9433SOL    HW129198   3.182   6.568   2.802
 9433SOL    HW229199   3.026   6.611   2.785
 9434SOL     OW29200   5.429   5.834   2.761
 9434SOL    HW129201   5.437   5.764   2.690
 9434SOL    HW229202   5.334   5.841   2.791
 9435SOL     OW29203   0.191   1.806   2.947
 9435SOL    HW129204   0.258   1.855   3.002
 9435SOL    HW229205   0.101   1.813   2.989
 9436SOL     OW29206   1.633   1.828   2.584
 9436SOL    HW129207   1.688   1.864   2.509
 9436SOL    HW229208   1.551   1.884   2.595
 9437SOL     OW29209   0.054   5.694   3.415
 9437SOL    HW129210   0.003   5.734   3.338
 9437SOL    HW229211   0.101   5.611   3.384
 9438SOL     OW29212   1.356   6.961   2.057
 9438SOL    HW129213   1.364   0.029   2.036
 9438SOL    HW229214   1.402   6.941   2.143
 9439SOL     OW29215   1.110   2.582   1.117
 9439SOL    HW129216   1.020   2.540   1.127
 9439SOL    HW229217   1.149   2.558   1.028
 9440SOL     OW29218   3.989   4.876   3.453
 9440SOL    HW129219   4.070   4.817   3.456
 9440SOL    HW229220   3.986   4.932   3.536
 9441SOL     OW29221   6.486   5.224   5.668
 9441SOL    HW129222   6.585   5.240   5.675
 9441SOL    HW229223   6.438   5.286   5.731
 9442SOL     OW29224   4.985   3.468   1.755
 9442SOL    HW129225   4.990   3.531   1.832
 9442SOL    HW229226   5.028   3.381   1.780
 9443SOL     OW29227   2.429   5.490   0.639
 9443SOL    HW129228   2.435   5.390   0.639
 9443SOL    HW229229   2.463   5.526   0.552
 9444SOL     OW29230   1.592   4.356   0.604
 9444SOL    HW129231   1.673   4.412   0.622
 9444SOL    HW229232   1.510   4.405   0.634
 9445SOL     OW29233   6.685   3.518   3.276
 9445SOL    HW129234   6.746   3.522   3.355
 9445SOL    HW229235   6.592   3.545   3.304
 9446SOL     OW29236   6.968   5.821   4.738
 9446SOL    HW129237   6.935   5.835   4.831
 9446SOL    HW229238   6.942   5.730   4.706
 9447SOL     OW29239   5.408   4.926   3.546
 9447SOL    HW129240   5.412   4.826   3.539
 9447SOL    HW229241   5.396   4.952   3.641
 9448SOL     OW29242   6.798   0.288   5.952
 9448SOL    HW129243   6.749   0.340   6.023
 9448SOL    HW229244   6.747   0.294   5.866
 9449SOL     OW29245   6.210   0.106   7.027
 9449SOL    HW129246   6.309   0.096   7.019
 9449SOL    HW229247   6.183   0.096   0.094
 9450SOL     OW29248   2.073   5.619   3.453
 9450SOL    HW129249   2.027   5.571   3.379
 9450SOL    HW229250   2.171   5.596   3.452
 9451SOL     OW29251   3.634   5.402   5.492
 9451SOL    HW129252   3.718   5.454   5.506
 9451SOL    HW229253   3.655   5.318   5.442
 9452SOL     OW29254   0.847   4.272   0.223
 9452SOL    HW129255   0.930   4.248   0.173
 9452SOL    HW229256   0.808   4.356   0.185
 9453SOL     OW29257   3.062   5.360   2.523
 9453SOL    HW129258   2.995   5.402   2.461
 9453SOL    HW229259   3.013   5.306   2.592
 9454SOL     OW29260   3.387   3.714   6.452
 9454SOL    HW129261   3.457   3.686   6.386
 9454SOL    HW229262   3.316   3.766   6.405
 9455SOL     OW29263   2.222   2.131   3.225
 9455SOL    HW129264   2.251   2.074   3.148
 9455SOL    HW229265   2.293   2.198   3.246
 9456SOL     OW29266   6.499   3.473   0.555
 9456SOL    HW129267   6.518   3.459   0.652
 9456SOL    HW229268   6.586   3.483   0.506
 9457SOL     OW29269   0.460   4.925   4.782
 9457SOL    HW129270   0.506   4.920   4.693
 9457SOL    HW229271   0.396   4.849   4.792
 9458SOL     OW29272   0.732   3.756   6.979
 9458SOL    HW129273   0.633   3.773   6.978
 9458SOL    HW229274   0.757   3.712   0.037
 9459SOL     OW29275   5.481   4.749   4.014
 9459SOL    HW129276   5.383   4.752   3.996
 9459SOL    HW229277   5.531   4.753   3.928
 9460SOL     OW29278   2.121   3.756   4.719
 9460SOL    HW129279   2.102   3.744   4.816
 9460SOL    HW229280   2.177   3.838   4.706
 9461SOL     OW29281   0.509   1.954   1.911
 9461SOL    HW129282   0.551   2.035   1.872
 9461SOL    HW229283   0.527   1.950   2.009
 9462SOL     OW29284   1.563   2.622   3.621
 9462SOL    HW129285   1.655   2.660   3.635
 9462SOL    HW229286   1.510   2.685   3.563
 9463SOL     OW29287   5.210   6.854   1.177
 9463SOL    HW129288   5.206   6.759   1.145
 9463SOL    HW229289   5.274   6.906   1.121
 9464SOL     OW29290   6.257   0.291   0.294
 9464SOL    HW129291   6.345   0.331   0.268
 9464SOL    HW229292   6.231   0.323   0.384
 9465SOL     OW29293   0.206   3.362   1.942
 9465SOL    HW129294   0.165   3.295   2.004
 9465SOL    HW229295   0.268   3.315   1.879
 9466SOL     OW29296   3.430   4.152   5.694
 9466SOL    HW129297   3.426   4.247   5.663
 9466SOL    HW229298   3.351   4.102   5.658
 9467SOL     OW29299   0.832   2.748   1.060
 9467SOL    HW129300   0.801   2.689   1.135
 9467SOL    HW229301   0.868   2.833   1.098
 9468SOL     OW29302   6.031   3.809   6.957
 9468SOL    HW129303   6.099   3.880   6.971
 9468SOL    HW229304   5.978   3.828   6.875
 9469SOL     OW29305   0.205   5.925   1.061
 9469SOL    HW129306   0.294   5.886   1.082
 9469SOL    HW229307   0.146   5.855   1.021
 9470SOL     OW29308   4.693   3.730   0.119
 9470SOL    HW129309   4.725   3.666   0.049
 9470SOL    HW229310   4.762   3.801   0.132
 9471SOL     OW29311   6.416   2.149   4.604
 9471SOL    HW129312   6.411   2.132   4.703
 9471SOL    HW229313   6.456   2.239   4.588
 9472SOL     OW29314   0.043   3.600   5.816
 9472SOL    HW129315   0.104   3.603   5.895
 9472SOL    HW229316   0.073   3.667   5.748
 9473SOL     OW29317   3.252   4.810   6.875
 9473SOL    HW129318   3.191   4.848   6.944
 9473SOL    HW229319   3.233   4.712   6.864
 9474SOL     OW29320   6.383   3.822   1.833
 9474SOL    HW129321   6.363   3.742   1.890
 9474SOL    HW229322   6.481   3.825   1.814
 9475SOL     OW29323   4.229   3.133   0.892
 9475SOL    HW129324   4.265   3.177   0.809
 9475SOL    HW229325   4.259   3.184   0.972
 9476SOL     OW29326   3.982   3.895   4.617
 9476SOL    HW129327   4.054   3.891   4.686
 9476SOL    HW229328   4.007   3.836   4.540
 9477SOL     OW29329   0.347   2.744   1.275
 9477SOL    HW129330   0.279   2.757   1.347
 9477SOL    HW229331   0.428   2.700   1.313
 9478SOL     OW29332   5.406   3.375   0.801
 9478SOL    HW129333   5.476   3.409   0.739
 9478SOL    HW229334   5.431   3.398   0.895
 9479SOL     OW29335   4.411   6.708   0.714
 9479SOL    HW129336   4.418   6.807   0.728
 9479SOL    HW229337   4.420   6.662   0.803
 9480SOL     OW29338   6.482   5.306   0.161
 9480SOL    HW129339   6.428   5.371   0.214
 9480SOL    HW229340   6.534   5.247   0.223
 9481SOL     OW29341   4.871   2.199   2.581
 9481SOL    HW129342   4.937   2.206   2.655
 9481SOL    HW229343   4.781   2.175   2.618
 9482SOL     OW29344   6.929   0.771   2.919
 9482SOL    HW129345   6.946   0.687   2.868
 9482SOL    HW229346   7.002   0.784   2.986
 9483SOL     OW29347   1.862   0.927   0.588
 9483SOL    HW129348   1.786   0.957   0.646
 9483SOL    HW229349   1.836   0.934   0.492
 9484SOL     OW29350   3.946   0.319   4.960
 9484SOL    HW129351   3.866   0.268   4.927
 9484SOL    HW229352   3.972   0.388   4.892
 9485SOL     OW29353   0.527   1.689   1.341
 9485SOL    HW129354   0.552   1.768   1.285
 9485SOL    HW229355   0.534   1.606   1.286
 9486SOL     OW29356   4.785   6.317   1.461
 9486SOL    HW129357   4.832   6.352   1.542
 9486SOL    HW229358   4.803   6.377   1.384
 9487SOL     OW29359   3.424   4.173   3.654
 9487SOL    HW129360   3.448   4.246   3.718
 9487SOL    HW229361   3.362   4.109   3.698
 9488SOL     OW29362   2.620   0.092   0.939
 9488SOL    HW129363   2.597   0.035   1.018
 9488SOL    HW229364   2.574   0.181   0.948
 9489SOL     OW29365   5.218   3.981   1.289
 9489SOL    HW129366   5.295   4.039   1.313
 9489SOL    HW229367   5.216   3.966   1.190
 9490SOL     OW29368   6.695   5.816   3.501
 9490SOL    HW129369   6.716   5.866   3.584
 9490SOL    HW229370   6.739   5.726   3.504
 9491SOL     OW29371   5.499   5.271   3.818
 9491SOL    HW129372   5.588   5.317   3.812
 9491SOL    HW229373   5.436   5.326   3.872
 9492SOL     OW29374   3.387   3.574   4.996
 9492SOL    HW129375   3.448   3.558   5.074
 9492SOL    HW229376   3.428   3.535   4.914
 9493SOL     OW29377   3.146   5.846   4.827
 9493SOL    HW129378   3.229   5.903   4.830
 9493SOL    HW229379   3.077   5.885   4.888
 9494SOL     OW29380   5.590   3.170   2.188
 9494SOL    HW129381   5.669   3.116   2.161
 9494SOL    HW229382   5.515   3.109   2.214
 9495SOL     OW29383   6.808   1.871   3.089
 9495SOL    HW129384   6.765   1.899   3.003
 9495SOL    HW229385   6.739   1.831   3.149
 9496SOL     OW29386   5.717   3.411   1.546
 9496SOL    HW129387   5.696   3.471   1.623
 9496SOL    HW229388   5.742   3.320   1.580
 9497SOL     OW29389   5.042   5.777   4.853
 9497SOL    HW129390   4.950   5.805   4.879
 9497SOL    HW229391   5.104   5.790   4.931
 9498SOL     OW29392   6.335   4.953   4.943
 9498SOL    HW129393   6.346   4.966   5.041
 9498SOL    HW229394   6.425   4.933   4.902
 9499SOL     OW29395   1.412   6.286   5.350
 9499SOL    HW129396   1.475   6.212   5.374
 9499SOL    HW229397   1.464   6.369   5.330
 9500SOL     OW29398   4.136   6.751   0.359
 9500SOL    HW129399   4.123   6.652   0.363
 9500SOL    HW229400   4.062   6.796   0.409
 9501SOL     OW29401   2.096   1.045   4.546
 9501SOL    HW129402   2.045   0.960   4.532
 9501SOL    HW229403   2.057   1.095   4.623
 9502SOL     OW29404   5.735   3.405   5.390
 9502SOL    HW129405   5.657   3.447   5.343
 9502SOL    HW229406   5.790   3.477   5.433
 9503SOL     OW29407   6.848   2.302   0.332
 9503SOL    HW129408   6.751   2.322   0.315
 9503SOL    HW229409   6.855   2.219   0.388
 9504SOL     OW29410   6.626   3.681   1.507
 9504SOL    HW129411   6.565   3.662   1.430
 9504SOL    HW229412   6.717   3.705   1.473
 9505SOL     OW29413   4.772   4.408   5.733
 9505SOL    HW129414   4.685   4.445   5.700
 9505SOL    HW229415   4.845   4.474   5.715
 9506SOL     OW29416   1.591   2.585   0.777
 9506SOL    HW129417   1.552   2.550   0.692
 9506SOL    HW229418   1.672   2.532   0.800
 9507SOL     OW29419   0.027   0.789   2.071
 9507SOL    HW129420   0.088   0.711   2.087
 9507SOL    HW229421   0.080   0.865   2.033
 9508SOL     OW29422   6.030   1.818   2.533
 9508SOL    HW129423   6.037   1.763   2.450
 9508SOL    HW229424   5.937   1.857   2.539
 9509SOL     OW29425   0.064   1.300   3.757
 9509SOL    HW129426   0.122   1.366   3.805
 9509SOL    HW229427   7.000   1.306   3.794
 9510SOL     OW29428   1.522   4.347   3.787
 9510SOL    HW129429   1.436   4.313   3.749
 9510SOL    HW229430   1.525   4.446   3.780
 9511SOL     OW29431   2.118   0.400   1.017
 9511SOL    HW129432   2.025   0.367   1.029
 9511SOL    HW229433   2.117   0.489   0.973
 9512SOL     OW29434   6.995   1.926   0.818
 9512SOL    HW129435   7.013   2.022   0.838
 9512SOL    HW229436   7.020   1.869   0.896
 9513SOL     OW29437   2.683   4.318   6.923
 9513SOL    HW129438   2.682   4.320   6.823
 9513SOL    HW229439   2.757   4.259   6.954
 9514SOL     OW29440   2.260   4.811   6.756
 9514SOL    HW129441   2.323   4.887   6.770
 9514SOL    HW229442   2.265   4.781   6.661
 9515SOL     OW29443   1.611   6.287   2.236
 9515SOL    HW129444   1.582   6.380   2.217
 9515SOL    HW229445   1.692   6.288   2.295
 9516SOL     OW29446   5.678   4.558   0.194
 9516SOL    HW129447   5.752   4.496   0.221
 9516SOL    HW229448   5.646   4.534   0.103
 9517SOL     OW29449   1.520   4.122   1.553
 9517SOL    HW129450   1.564   4.061   1.619
 9517SOL    HW229451   1.430   4.086   1.528
 9518SOL     OW29452   1.919   1.318   0.740
 9518SOL    HW129453   1.862   1.336   0.660
 9518SOL    HW229454   1.944   1.405   0.783
 9519SOL     OW29455   3.318   2.983   5.071
 9519SOL    HW129456   3.251   3.027   5.012
 9519SOL    HW229457   3.388   3.049   5.097
 9520SOL     OW29458   2.766   1.084   3.189
 9520SOL    HW129459   2.719   1.040   3.266
 9520SOL    HW229460   2.699   1.106   3.118
 9521SOL     OW29461   5.321   5.526   2.502
 9521SOL    HW129462   5.293   5.431   2.494
 9521SOL    HW229463   5.270   5.582   2.437
 9522SOL     OW29464   3.291   5.566   1.376
 9522SOL    HW129465   3.330   5.604   1.460
 9522SOL    HW229466   3.232   5.488   1.399
 9523SOL     OW29467   3.080   5.407   4.970
 9523SOL    HW129468   2.992   5.446   4.996
 9523SOL    HW229469   3.068   5.312   4.943
 9524SOL     OW29470   3.615   2.457   0.951
 9524SOL    HW129471   3.668   2.507   0.883
 9524SOL    HW229472   3.668   2.380   0.985
 9525SOL     OW29473   2.505   2.604   6.116
 9525SOL    HW129474   2.416   2.566   6.141
 9525SOL    HW229475   2.542   2.655   6.193
 9526SOL     OW29476   4.887   5.996   1.878
 9526SOL    HW129477   4.920   6.074   1.932
 9526SOL    HW229478   4.836   6.030   1.799
 9527SOL     OW29479   0.875   0.198   2.142
 9527SOL    HW129480   0.854   0.194   2.044
 9527SOL    HW229481   0.871   0.293   2.173
 9528SOL     OW29482   6.726   0.518   0.571
 9528SOL    HW129483   6.672   0.461   0.633
 9528SOL    HW229484   6.806   0.466   0.539
 9529SOL     OW29485   6.530   3.173   5.545
 9529SOL    HW129486   6.485   3.243   5.489
 9529SOL    HW229487   6.629   3.185   5.540
 9530SOL     OW29488   2.133   3.105   3.304
 9530SOL    HW129489   2.182   3.040   3.362
 9530SOL    HW229490   2.036   3.080   3.300
 9531SOL     OW29491   4.056   5.488   2.854
 9531SOL    HW129492   3.980   5.424   2.868
 9531SOL    HW229493   4.143   5.441   2.870
 9532SOL     OW29494   0.418   6.423   1.950
 9532SOL    HW129495   0.384   6.468   1.867
 9532SOL    HW229496   0.341   6.385   2.001
 9533SOL     OW29497   0.088   0.838   4.837
 9533SOL    HW129498   0.093   0.819   4.739
 9533SOL    HW229499   0.157   0.783   4.885
 9534SOL     OW29500   5.725   3.153   5.145
 9534SOL    HW129501   5.704   3.131   5.050
 9534SOL    HW229502   5.765   3.073   5.190
 9535SOL     OW29503   2.545   1.379   5.765
 9535SOL    HW129504   2.535   1.467   5.719
 9535SOL    HW229505   2.637   1.371   5.804
 9536SOL     OW29506   3.178   4.598   5.311
 9536SOL    HW129507   3.084   4.562   5.301
 9536SOL    HW229508   3.185   4.685   5.262
 9537SOL     OW29509   2.556   0.270   2.165
 9537SOL    HW129510   2.578   0.246   2.260
 9537SOL    HW229511   2.472   0.223   2.138
 9538SOL     OW29512   6.288   1.860   4.242
 9538SOL    HW129513   6.292   1.888   4.146
 9538SOL    HW229514   6.241   1.931   4.296
 9539SOL     OW29515   2.117   4.159   5.719
 9539SOL    HW129516   2.165   4.238   5.681
 9539SOL    HW229517   2.095   4.095   5.646
 9540SOL     OW29518   4.681   4.245   4.965
 9540SOL    HW129519   4.601   4.293   5.001
 9540SOL    HW229520   4.715   4.293   4.885
 9541SOL     OW29521   2.479   2.005   5.852
 9541SOL    HW129522   2.401   2.064   5.831
 9541SOL    HW229523   2.448   1.923   5.899
 9542SOL     OW29524   4.967   3.763   5.090
 9542SOL    HW129525   4.922   3.673   5.093
 9542SOL    HW229526   4.898   3.834   5.084
 9543SOL     OW29527   3.630   0.585   4.404
 9543SOL    HW129528   3.701   0.624   4.344
 9543SOL    HW229529   3.543   0.583   4.355
 9544SOL     OW29530   6.408   1.165   2.338
 9544SOL    HW129531   6.501   1.138   2.362
 9544SOL    HW229532   6.405   1.263   2.320
 9545SOL     OW29533   6.607   5.416   3.560
 9545SOL    HW129534   6.544   5.466   3.620
 9545SOL    HW229535   6.701   5.430   3.593
 9546SOL     OW29536   1.723   3.027   6.714
 9546SOL    HW129537   1.792   3.082   6.762
 9546SOL    HW229538   1.694   3.075   6.632
 9547SOL     OW29539   2.219   6.021   4.197
 9547SOL    HW129540   2.243   6.118   4.209
 9547SOL    HW229541   2.124   6.013   4.167
 9548SOL     OW29542   6.586   5.784   4.688
 9548SOL    HW129543   6.559   5.746   4.777
 9548SOL    HW229544   6.509   5.833   4.648
 9549SOL     OW29545   2.773   4.133   1.420
 9549SOL    HW129546   2.786   4.038   1.393
 9549SOL    HW229547   2.847   4.161   1.480
 9550SOL     OW29548   0.103   1.468   6.429
 9550SOL    HW129549   0.030   1.406   6.399
 9550SOL    HW229550   0.093   1.556   6.382
 9551SOL     OW29551   0.178   0.065   4.467
 9551SOL    HW129552   0.225   0.147   4.436
 9551SOL    HW229553   0.094   0.090   4.516
 9552SOL     OW29554   0.787   6.122   2.467
 9552SOL    HW129555   0.886   6.112   2.482
 9552SOL    HW229556   0.741   6.038   2.492
 9553SOL     OW29557   6.272   4.069   6.542
 9553SOL    HW129558   6.200   4.000   6.534
 9553SOL    HW229559   6.336   4.042   6.614
 9554SOL     OW29560   2.654   0.670   1.211
 9554SOL    HW129561   2.727   0.689   1.276
 9554SOL    HW229562   2.669   0.723   1.127
 9555SOL     OW29563   0.104   1.804   0.600
 9555SOL    HW129564   0.038   1.732   0.579
 9555SOL    HW229565   0.067   1.864   0.672
 9556SOL     OW29566   2.186   1.878   1.087
 9556SOL    HW129567   2.116   1.807   1.093
 9556SOL    HW229568   2.276   1.839   1.107
 9557SOL     OW29569   6.300   0.711   2.307
 9557SOL    HW129570   6.320   0.798   2.262
 9557SOL    HW229571   6.211   0.716   2.353
 9558SOL     OW29572   6.356   5.371   3.901
 9558SOL    HW129573   6.308   5.291   3.864
 9558SOL    HW229574   6.370   5.438   3.828
 9559SOL     OW29575   6.929   3.788   1.827
 9559SOL    HW129576   6.881   3.700   1.822
 9559SOL    HW229577   7.028   3.772   1.817
 9560SOL     OW29578   1.251   1.558   2.873
 9560SOL    HW129579   1.162   1.575   2.831
 9560SOL    HW229580   1.299   1.645   2.885
 9561SOL     OW29581   2.280   6.692   1.144
 9561SOL    HW129582   2.327   6.738   1.068
 9561SOL    HW229583   2.230   6.760   1.197
 9562SOL     OW29584   2.905   6.386   5.042
 9562SOL    HW129585   2.958   6.320   5.095
 9562SOL    HW229586   2.809   6.358   5.040
 9563SOL     OW29587   6.267   5.901   6.871
 9563SOL    HW129588   6.267   5.961   6.791
 9563SOL    HW229589   6.241   5.808   6.844
 9564SOL     OW29590   2.991   0.295   6.595
 9564SOL    HW129591   2.970   0.201   6.622
 9564SOL    HW229592   3.005   0.300   6.497
 9565SOL     OW29593   4.404   5.990   4.950
 9565SOL    HW129594   4.452   6.041   4.879
 9565SOL    HW229595   4.437   5.896   4.952
 9566SOL     OW29596   3.286   4.587   0.291
 9566SOL    HW129597   3.317   4.680   0.309
 9566SOL    HW229598   3.294   4.532   0.374
 9567SOL     OW29599   6.394   5.091   6.157
 9567SOL    HW129600   6.446   5.037   6.090
 9567SOL    HW229601   6.386   5.185   6.124
 9568SOL     OW29602   4.451   3.144   6.360
 9568SOL    HW129603   4.495   3.215   6.305
 9568SOL    HW229604   4.412   3.185   6.443
 9569SOL     OW29605   6.510   1.194   0.752
 9569SOL    HW129606   6.481   1.277   0.704
 9569SOL    HW229607   6.431   1.132   0.762
 9570SOL     OW29608   0.690   2.180   1.828
 9570SOL    HW129609   0.772   2.122   1.832
 9570SOL    HW229610   0.686   2.225   1.739
 9571SOL     OW29611   2.944   3.524   0.345
 9571SOL    HW129612   2.870   3.463   0.318
 9571SOL    HW229613   3.007   3.476   0.406
 9572SOL     OW29614   1.469   5.525   0.728
 9572SOL    HW129615   1.417   5.444   0.753
 9572SOL    HW229616   1.559   5.498   0.692
 9573SOL     OW29617   0.687   1.264   6.633
 9573SOL    HW129618   0.627   1.205   6.687
 9573SOL    HW229619   0.649   1.356   6.629
 9574SOL     OW29620   3.788   3.323   4.869
 9574SOL    HW129621   3.754   3.415   4.886
 9574SOL    HW229622   3.796   3.274   4.956
 9575SOL     OW29623   5.721   0.904   0.836
 9575SOL    HW129624   5.674   0.825   0.875
 9575SOL    HW229625   5.675   0.988   0.863
 9576SOL     OW29626   3.287   1.850   3.507
 9576SOL    HW129627   3.321   1.788   3.577
 9576SOL    HW229628   3.359   1.915   3.483
 9577SOL     OW29629   1.321   0.709   2.333
 9577SOL    HW129630   1.418   0.725   2.314
 9577SOL    HW229631   1.279   0.796   2.361
 9578SOL     OW29632   5.786   3.520   2.998
 9578SOL    HW129633   5.693   3.513   2.962
 9578SOL    HW229634   5.804   3.444   3.059
 9579SOL     OW29635   1.260   6.374   2.864
 9579SOL    HW129636   1.300   6.307   2.801
 9579SOL    HW229637   1.334   6.419   2.914
 9580SOL     OW29638   5.741   3.680   6.939
 9580SOL    HW129639   5.830   3.722   6.955
 9580SOL    HW229640   5.710   3.634   7.022
 9581SOL     OW29641   2.654   4.804   6.645
 9581SOL    HW129642   2.628   4.710   6.623
 9581SOL    HW229643   2.746   4.806   6.683
 9582SOL     OW29644   4.380   4.632   4.086
 9582SOL    HW129645   4.371   4.714   4.143
 9582SOL    HW229646   4.314   4.564   4.116
 9583SOL     OW29647   2.128   3.438   1.496
 9583SOL    HW129648   2.191   3.511   1.524
 9583SOL    HW229649   2.181   3.356   1.474
 9584SOL     OW29650   5.945   5.766   6.808
 9584SOL    HW129651   5.971   5.701   6.737
 9584SOL    HW229652   5.968   5.728   6.898
 9585SOL     OW29653   6.351   0.422   2.327
 9585SOL    HW129654   6.302   0.507   2.309
 9585SOL    HW229655   6.419   0.437   2.398
 9586SOL     OW29656   5.853   3.779   2.954
 9586SOL    HW129657   5.852   3.683   2.982
 9586SOL    HW229658   5.875   3.785   2.856
 9587SOL     OW29659   6.055   0.285   1.937
 9587SOL    HW129660   5.986   0.220   1.905
 9587SOL    HW229661   6.043   0.301   2.035
 9588SOL     OW29662   0.265   1.255   1.599
 9588SOL    HW129663   0.311   1.169   1.576
 9588SOL    HW229664   0.170   1.235   1.625
 9589SOL     OW29665   2.553   5.733   0.134
 9589SOL    HW129666   2.537   5.830   0.116
 9589SOL    HW229667   2.651   5.715   0.128
 9590SOL     OW29668   0.483   3.691   2.261
 9590SOL    HW129669   0.405   3.731   2.310
 9590SOL    HW229670   0.450   3.620   2.200
 9591SOL     OW29671   2.685   5.780   0.550
 9591SOL    HW129672   2.646   5.870   0.565
 9591SOL    HW229673   2.781   5.780   0.579
 9592SOL     OW29674   4.382   5.416   2.648
 9592SOL    HW129675   4.397   5.514   2.657
 9592SOL    HW229676   4.354   5.395   2.554
 9593SOL     OW29677   4.943   2.107   4.653
 9593SOL    HW129678   4.893   2.052   4.585
 9593SOL    HW229679   5.040   2.084   4.649
 9594SOL     OW29680   0.073   6.107   3.332
 9594SOL    HW129681   0.094   6.156   3.417
 9594SOL    HW229682   7.003   6.091   3.327
 9595SOL     OW29683   1.987   5.521   5.089
 9595SOL    HW129684   2.086   5.524   5.108
 9595SOL    HW229685   1.973   5.502   4.992
 9596SOL     OW29686   0.341   4.661   6.038
 9596SOL    HW129687   0.341   4.665   5.938
 9596SOL    HW229688   0.404   4.590   6.068
 9597SOL     OW29689   0.106   3.969   1.676
 9597SOL    HW129690   0.085   3.892   1.616
 9597SOL    HW229691   0.050   3.962   1.759
 9598SOL     OW29692   0.425   3.799   5.175
 9598SOL    HW129693   0.434   3.734   5.250
 9598SOL    HW229694   0.403   3.890   5.212
 9599SOL     OW29695   3.750   0.663   5.354
 9599SOL    HW129696   3.686   0.604   5.306
 9599SOL    HW229697   3.791   0.614   5.430
 9600SOL     OW29698   1.600   0.231   5.725
 9600SOL    HW129699   1.516   0.275   5.757
 9600SOL    HW229700   1.612   0.143   5.772
 9601SOL     OW29701   6.331   4.030   6.258
 9601SOL    HW129702   6.238   4.032   6.222
 9601SOL    HW229703   6.329   4.041   6.358
 9602SOL     OW29704   6.803   5.107   6.077
 9602SOL    HW129705   6.866   5.047   6.126
 9602SOL    HW229706   6.738   5.148   6.141
 9603SOL     OW29707   2.249   6.709   4.597
 9603SOL    HW129708   2.150   6.710   4.584
 9603SOL    HW229709   2.294   6.737   4.511
 9604SOL     OW29710   5.416   0.778   0.356
 9604SOL    HW129711   5.437   0.786   0.259
 9604SOL    HW229712   5.471   0.843   0.408
 9605SOL     OW29713   1.234   4.826   5.601
 9605SOL    HW129714   1.333   4.812   5.609
 9605SOL    HW229715   1.190   4.739   5.578
 9606SOL     OW29716   0.799   6.994   3.908
 9606SOL    HW129717   0.740   6.946   3.972
 9606SOL    HW229718   0.803   0.062   3.933
 9607SOL     OW29719   0.817   1.054   1.770
 9607SOL    HW129720   0.791   1.135   1.716
 9607SOL    HW229721   0.908   1.069   1.810
 9608SOL     OW29722   6.853   6.752   2.693
 9608SOL    HW129723   6.794   6.762   2.774
 9608SOL    HW229724   6.863   6.654   2.672
 9609SOL     OW29725   1.448   3.986   4.351
 9609SOL    HW129726   1.536   3.943   4.330
 9609SOL    HW229727   1.416   3.954   4.440
 9610SOL     OW29728   1.505   2.849   5.629
 9610SOL    HW129729   1.534   2.925   5.688
 9610SOL    HW229730   1.570   2.773   5.637
 9611SOL     OW29731   6.954   6.931   1.629
 9611SOL    HW129732   7.024   6.946   1.560
 9611SOL    HW229733   6.988   6.864   1.696
 9612SOL     OW29734   6.834   2.730   0.435
 9612SOL    HW129735   6.827   2.659   0.505
 9612SOL    HW229736   6.754   2.727   0.376
 9613SOL     OW29737   5.587   6.479   4.281
 9613SOL    HW129738   5.649   6.533   4.338
 9613SOL    HW229739   5.583   6.518   4.189
 9614SOL     OW29740   4.175   3.481   1.954
 9614SOL    HW129741   4.166   3.385   1.929
 9614SOL    HW229742   4.258   3.519   1.913
 9615SOL     OW29743   2.379   5.199   3.093
 9615SOL    HW129744   2.414   5.108   3.116
 9615SOL    HW229745   2.352   5.246   3.176
 9616SOL     OW29746   4.081   3.292   1.397
 9616SOL    HW129747   4.038   3.202   1.401
 9616SOL    HW229748   4.046   3.342   1.318
 9617SOL     OW29749   1.154   3.445   3.505
 9617SOL    HW129750   1.126   3.425   3.599
 9617SOL    HW229751   1.073   3.463   3.449
 9618SOL     OW29752   3.588   0.616   6.701
 9618SOL    HW129753   3.521   0.672   6.749
 9618SOL    HW229754   3.646   0.675   6.645
 9619SOL     OW29755   1.284   6.133   0.534
 9619SOL    HW129756   1.195   6.133   0.579
 9619SOL    HW229757   1.284   6.201   0.460
 9620SOL     OW29758   3.943   1.000   6.945
 9620SOL    HW129759   4.001   0.948   6.882
 9620SOL    HW229760   3.882   0.937   6.993
 9621SOL     OW29761   1.557   0.484   1.891
 9621SOL    HW129762   1.467   0.510   1.923
 9621SOL    HW229763   1.551   0.397   1.842
 9622SOL     OW29764   6.825   0.885   6.788
 9622SOL    HW129765   6.902   0.838   6.747
 9622SOL    HW229766   6.777   0.939   6.718
 9623SOL     OW29767   4.951   5.453   6.561
 9623SOL    HW129768   4.882   5.519   6.593
 9623SOL    HW229769   4.998   5.491   6.481
 9624SOL     OW29770   5.063   5.313   5.451
 9624SOL    HW129771   5.032   5.352   5.538
 9624SOL    HW229772   5.160   5.290   5.456
 9625SOL     OW29773   4.968   4.354   6.623
 9625SOL    HW129774   4.877   4.332   6.586
 9625SOL    HW229775   4.964   4.443   6.670
 9626SOL     OW29776   1.826   4.710   4.294
 9626SOL    HW129777   1.767   4.670   4.224
 9626SOL    HW229778   1.898   4.646   4.318
 9627SOL     OW29779   1.290   4.505   5.164
 9627SOL    HW129780   1.374   4.460   5.134
 9627SOL    HW229781   1.265   4.576   5.098
 9628SOL     OW29782   6.175   4.399   0.320
 9628SOL    HW129783   6.262   4.378   0.276
 9628SOL    HW229784   6.174   4.361   0.412
 9629SOL     OW29785   6.657   6.407   3.530
 9629SOL    HW129786   6.564   6.443   3.524
 9629SOL    HW229787   6.690   6.413   3.624
 9630SOL     OW29788   5.837   6.117   5.359
 9630SOL    HW129789   5.912   6.145   5.420
 9630SOL    HW229790   5.836   6.176   5.279
 9631SOL     OW29791   4.312   1.053   1.826
 9631SOL    HW129792   4.270   1.140   1.851
 9631SOL    HW229793   4.361   1.016   1.905
 9632SOL     OW29794   1.611   5.394   1.725
 9632SOL    HW129795   1.675   5.350   1.661
 9632SOL    HW229796   1.523   5.349   1.719
 9633SOL     OW29797   3.666   3.413   1.678
 9633SOL    HW129798   3.636   3.372   1.764
 9633SOL    HW229799   3.599   3.391   1.606
 9634SOL     OW29800   6.172   4.264   2.801
 9634SOL    HW129801   6.116   4.347   2.801
 9634SOL    HW229802   6.218   4.255   2.889
 9635SOL     OW29803   0.162   4.674   5.080
 9635SOL    HW129804   0.082   4.643   5.028
 9635SOL    HW229805   0.152   4.771   5.102
 9636SOL     OW29806   4.089   0.988   6.124
 9636SOL    HW129807   3.992   1.012   6.120
 9636SOL    HW229808   4.107   0.934   6.206
 9637SOL     OW29809   2.613   3.841   1.206
 9637SOL    HW129810   2.605   3.744   1.182
 9637SOL    HW229811   2.649   3.850   1.299
 9638SOL     OW29812   0.275   4.121   6.159
 9638SOL    HW129813   0.208   4.174   6.108
 9638SOL    HW229814   0.253   4.125   6.257
 9639SOL     OW29815   4.445   2.666   1.611
 9639SOL    HW129816   4.533   2.713   1.603
 9639SOL    HW229817   4.426   2.647   1.707
 9640SOL     OW29818   3.833   1.002   2.146
 9640SOL    HW129819   3.868   0.959   2.229
 9640SOL    HW229820   3.760   1.066   2.170
 9641SOL     OW29821   5.159   5.619   2.746
 9641SOL    HW129822   5.152   5.714   2.775
 9641SOL    HW229823   5.255   5.597   2.727
 9642SOL     OW29824   1.106   0.415   4.489
 9642SOL    HW129825   1.121   0.334   4.546
 9642SOL    HW229826   1.193   0.458   4.468
 9643SOL     OW29827   4.708   4.213   3.444
 9643SOL    HW129828   4.665   4.191   3.531
 9643SOL    HW229829   4.772   4.290   3.457
 9644SOL     OW29830   1.429   5.740   5.117
 9644SOL    HW129831   1.482   5.656   5.126
 9644SOL    HW229832   1.412   5.759   5.021
 9645SOL     OW29833   1.072   4.108   5.422
 9645SOL    HW129834   1.061   4.200   5.384
 9645SOL    HW229835   1.023   4.042   5.364
 9646SOL     OW29836   2.158   6.383   3.683
 9646SOL    HW129837   2.145   6.284   3.678
 9646SOL    HW229838   2.072   6.429   3.660
 9647SOL     OW29839   6.961   6.501   2.856
 9647SOL    HW129840   7.026   6.563   2.813
 9647SOL    HW229841   6.990   6.406   2.841
 9648SOL     OW29842   5.279   3.334   1.250
 9648SOL    HW129843   5.254   3.237   1.242
 9648SOL    HW229844   5.372   3.341   1.286
 9649SOL     OW29845   2.184   3.570   6.267
 9649SOL    HW129846   2.236   3.630   6.327
 9649SOL    HW229847   2.201   3.594   6.171
 9650SOL     OW29848   5.905   4.956   3.357
 9650SOL    HW129849   5.949   5.003   3.434
 9650SOL    HW229850   5.929   5.002   3.272
 9651SOL     OW29851   3.881   1.528   0.843
 9651SOL    HW129852   3.890   1.518   0.942
 9651SOL    HW229853   3.952   1.473   0.798
 9652SOL     OW29854   0.611   4.474   1.701
 9652SOL    HW129855   0.524   4.519   1.679
 9652SOL    HW229856   0.609   4.440   1.794
 9653SOL     OW29857   4.265   4.537   5.818
 9653SOL    HW129858   4.344   4.489   5.856
 9653SOL    HW229859   4.214   4.581   5.892
 9654SOL     OW29860   3.443   3.136   2.517
 9654SOL    HW129861   3.507   3.062   2.538
 9654SOL    HW229862   3.349   3.104   2.530
 9655SOL     OW29863   0.309   1.790   0.850
 9655SOL    HW129864   0.270   1.719   0.909
 9655SOL    HW229865   0.276   1.777   0.757
 9656SOL     OW29866   4.568   2.121   0.535
 9656SOL    HW129867   4.657   2.109   0.492
 9656SOL    HW229868   4.574   2.190   0.607
 9657SOL     OW29869   5.147   4.345   3.589
 9657SOL    HW129870   5.198   4.409   3.647
 9657SOL    HW229871   5.211   4.283   3.543
 9658SOL     OW29872   5.470   1.956   2.302
 9658SOL    HW129873   5.561   1.925   2.277
 9658SOL    HW229874   5.419   1.881   2.344
 9659SOL     OW29875   1.989   2.078   0.119
 9659SOL    HW129876   2.021   2.168   0.148
 9659SOL    HW229877   2.052   2.041   0.050
 9660SOL     OW29878   0.623   0.260   1.374
 9660SOL    HW129879   0.546   0.230   1.430
 9660SOL    HW229880   0.694   0.298   1.433
 9661SOL     OW29881   4.418   5.771   1.530
 9661SOL    HW129882   4.487   5.700   1.513
 9661SOL    HW229883   4.447   5.857   1.488
 9662SOL     OW29884   5.462   3.887   0.156
 9662SOL    HW129885   5.518   3.918   0.233
 9662SOL    HW229886   5.470   3.788   0.148
 9663SOL     OW29887   0.442   4.455   2.699
 9663SOL    HW129888   0.512   4.387   2.720
 9663SOL    HW229889   0.359   4.434   2.750
 9664SOL     OW29890   5.593   4.262   4.652
 9664SOL    HW129891   5.649   4.294   4.729
 9664SOL    HW229892   5.500   4.298   4.661
 9665SOL     OW29893   6.205   5.896   5.816
 9665SOL    HW129894   6.267   5.970   5.842
 9665SOL    HW229895   6.154   5.866   5.896
 9666SOL     OW29896   6.584   4.498   1.579
 9666SOL    HW129897   6.662   4.435   1.575
 9666SOL    HW229898   6.562   4.518   1.674
 9667SOL     OW29899   4.526   4.139   0.712
 9667SOL    HW129900   4.540   4.056   0.766
 9667SOL    HW229901   4.470   4.117   0.632
 9668SOL     OW29902   1.447   1.321   6.092
 9668SOL    HW129903   1.539   1.320   6.133
 9668SOL    HW229904   1.445   1.388   6.018
 9669SOL     OW29905   2.466   6.824   0.969
 9669SOL    HW129906   2.515   6.830   0.882
 9669SOL    HW229907   2.516   6.874   1.040
 9670SOL     OW29908   0.065   5.909   5.271
 9670SOL    HW129909   6.999   5.880   5.285
 9670SOL    HW229910   0.099   5.874   5.184
 9671SOL     OW29911   0.099   5.061   0.045
 9671SOL    HW129912   0.046   5.015   7.003
 9671SOL    HW229913   0.048   5.141   0.078
 9672SOL     OW29914   1.936   4.938   2.900
 9672SOL    HW129915   1.968   4.890   2.982
 9672SOL    HW229916   1.939   4.877   2.822
 9673SOL     OW29917   3.742   3.721   1.307
 9673SOL    HW129918   3.791   3.804   1.282
 9673SOL    HW229919   3.790   3.675   1.381
 9674SOL     OW29920   3.629   6.301   2.901
 9674SOL    HW129921   3.623   6.334   2.995
 9674SOL    HW229922   3.611   6.203   2.899
 9675SOL     OW29923   4.960   3.314   6.851
 9675SOL    HW129924   5.055   3.341   6.863
 9675SOL    HW229925   4.921   3.366   6.775
 9676SOL     OW29926   1.332   3.569   5.378
 9676SOL    HW129927   1.278   3.651   5.399
 9676SOL    HW229928   1.372   3.533   5.463
 9677SOL     OW29929   6.669   5.280   6.270
 9677SOL    HW129930   6.639   5.255   6.362
 9677SOL    HW229931   6.717   5.367   6.273
 9678SOL     OW29932   3.221   3.811   4.245
 9678SOL    HW129933   3.250   3.886   4.306
 9678SOL    HW229934   3.121   3.805   4.246
 9679SOL     OW29935   3.142   1.355   4.553
 9679SOL    HW129936   3.191   1.268   4.549
 9679SOL    HW229937   3.060   1.350   4.497
 9680SOL     OW29938   4.773   6.950   5.605
 9680SOL    HW129939   4.755   6.853   5.618
 9680SOL    HW229940   4.853   6.977   5.659
 9681SOL     OW29941   3.344   1.940   1.221
 9681SOL    HW129942   3.413   1.934   1.150
 9681SOL    HW229943   3.266   1.882   1.197
 9682SOL     OW29944   4.980   4.178   3.742
 9682SOL    HW129945   4.887   4.153   3.714
 9682SOL    HW229946   5.021   4.235   3.671
 9683SOL     OW29947   3.054   5.827   0.644
 9683SOL    HW129948   3.073   5.879   0.561
 9683SOL    HW229949   3.071   5.886   0.724
 9684SOL     OW29950   0.611   3.868   4.964
 9684SOL    HW129951   0.654   3.947   5.008
 9684SOL    HW229952   0.537   3.833   5.021
 9685SOL     OW29953   4.538   3.501   0.598
 9685SOL    HW129954   4.595   3.455   0.666
 9685SOL    HW229955   4.591   3.514   0.514
 9686SOL     OW29956   0.983   2.872   0.137
 9686SOL    HW129957   0.943   2.953   0.180
 9686SOL    HW229958   0.979   2.882   0.037
 9687SOL     OW29959   6.303   0.585   1.804
 9687SOL    HW129960   6.253   0.619   1.883
 9687SOL    HW229961   6.257   0.503   1.768
 9688SOL     OW29962   0.785   3.698   0.878
 9688SOL    HW129963   0.841   3.733   0.803
 9688SOL    HW229964   0.719   3.632   0.842
 9689SOL     OW29965   0.887   4.057   6.584
 9689SOL    HW129966   0.895   3.975   6.641
 9689SOL    HW229967   0.820   4.041   6.512
 9690SOL     OW29968   4.500   5.997   5.708
 9690SOL    HW129969   4.594   6.028   5.723
 9690SOL    HW229970   4.462   6.043   5.628
 9691SOL     OW29971   3.100   3.833   2.011
 9691SOL    HW129972   3.085   3.735   2.019
 9691SOL    HW229973   3.045   3.869   1.935
 9692SOL     OW29974   4.750   6.024   1.158
 9692SOL    HW129975   4.756   5.927   1.182
 9692SOL    HW229976   4.750   6.033   1.058
 9693SOL     OW29977   5.717   4.240   3.123
 9693SOL    HW129978   5.774   4.208   3.047
 9693SOL    HW229979   5.775   4.283   3.193
 9694SOL     OW29980   3.636   1.159   2.272
 9694SOL    HW129981   3.653   1.239   2.213
 9694SOL    HW229982   3.542   1.161   2.304
 9695SOL     OW29983   6.868   2.617   3.326
 9695SOL    HW129984   6.781   2.665   3.321
 9695SOL    HW229985   6.853   2.520   3.341
 9696SOL     OW29986   6.078   2.156   1.864
 9696SOL    HW129987   6.148   2.157   1.792
 9696SOL    HW229988   6.058   2.250   1.891
 9697SOL     OW29989   0.540   6.512   0.653
 9697SOL    HW129990   0.584   6.546   0.570
 9697SOL    HW229991   0.576   6.421   0.674
 9698SOL     OW29992   5.589   2.891   6.116
 9698SOL    HW129993   5.646   2.964   6.078
 9698SOL    HW229994   5.531   2.928   6.188
 9699SOL     OW29995   0.424   5.902   0.273
 9699SOL    HW129996   0.376   5.913   0.359
 9699SOL    HW229997   0.502   5.841   0.285
 9700SOL     OW29998   6.458   5.476   4.734
 9700SOL    HW129999   6.502   5.389   4.757
 9700SOL    HW230000   6.485   5.545   4.801
 9701SOL     OW30001   4.211   3.883   5.844
 9701SOL    HW130002   4.249   3.901   5.753
 9701SOL    HW230003   4.149   3.805   5.840
 9702SOL     OW30004   4.080   2.335   7.016
 9702SOL    HW130005   3.993   2.285   7.016
 9702SOL    HW230006   4.137   2.303   6.941
 9703SOL     OW30007   4.952   3.824   4.019
 9703SOL    HW130008   5.035   3.879   4.018
 9703SOL    HW230009   4.920   3.808   3.926
 9704SOL     OW30010   3.554   5.837   2.558
 9704SOL    HW130011   3.465   5.856   2.516
 9704SOL    HW230012   3.553   5.868   2.653
 9705SOL     OW30013   5.707   4.510   5.722
 9705SOL    HW130014   5.772   4.586   5.728
 9705SOL    HW230015   5.616   4.543   5.745
 9706SOL     OW30016   2.825   2.362   1.696
 9706SOL    HW130017   2.778   2.280   1.727
 9706SOL    HW230018   2.868   2.408   1.773
 9707SOL     OW30019   5.555   5.189   2.479
 9707SOL    HW130020   5.500   5.117   2.437
 9707SOL    HW230021   5.631   5.148   2.530
 9708SOL     OW30022   0.875   1.424   3.111
 9708SOL    HW130023   0.923   1.509   3.129
 9708SOL    HW230024   0.848   1.420   3.015
 9709SOL     OW30025   5.688   4.792   2.133
 9709SOL    HW130026   5.593   4.801   2.103
 9709SOL    HW230027   5.691   4.745   2.220
 9710SOL     OW30028   6.331   0.833   0.988
 9710SOL    HW130029   6.370   0.820   0.897
 9710SOL    HW230030   6.387   0.897   1.040
 9711SOL     OW30031   3.993   5.541   6.516
 9711SOL    HW130032   3.954   5.449   6.522
 9711SOL    HW230033   3.953   5.590   6.438
 9712SOL     OW30034   5.658   3.220   0.472
 9712SOL    HW130035   5.618   3.148   0.529
 9712SOL    HW230036   5.599   3.238   0.394
 9713SOL     OW30037   2.694   5.253   3.206
 9713SOL    HW130038   2.638   5.170   3.197
 9713SOL    HW230039   2.645   5.331   3.167
 9714SOL     OW30040   3.786   6.558   5.967
 9714SOL    HW130041   3.854   6.523   6.032
 9714SOL    HW230042   3.696   6.524   5.992
 9715SOL     OW30043   6.061   4.445   6.577
 9715SOL    HW130044   6.059   4.365   6.636
 9715SOL    HW230045   5.968   4.468   6.548
 9716SOL     OW30046   3.467   4.637   7.000
 9716SOL    HW130047   3.497   4.599   6.913
 9716SOL    HW230048   3.498   4.578   0.046
 9717SOL     OW30049   4.701   6.303   6.632
 9717SOL    HW130050   4.656   6.313   6.720
 9717SOL    HW230051   4.786   6.356   6.632
 9718SOL     OW30052   4.424   2.779   1.107
 9718SOL    HW130053   4.463   2.697   1.149
 9718SOL    HW230054   4.375   2.832   1.176
 9719SOL     OW30055   4.951   6.888   5.897
 9719SOL    HW130056   5.025   6.865   5.960
 9719SOL    HW230057   4.863   6.860   5.936
 9720SOL     OW30058   0.840   3.637   2.518
 9720SOL    HW130059   0.905   3.581   2.467
 9720SOL    HW230060   0.799   3.583   2.592
 9721SOL     OW30061   0.100   1.109   6.808
 9721SOL    HW130062   0.001   1.122   6.805
 9721SOL    HW230063   0.141   1.136   6.721
 9722SOL     OW30064   3.392   0.808   5.381
 9722SOL    HW130065   3.416   0.826   5.285
 9722SOL    HW230066   3.403   0.892   5.434
 9723SOL     OW30067   4.573   5.710   4.251
 9723SOL    HW130068   4.620   5.626   4.280
 9723SOL    HW230069   4.640   5.783   4.238
 9724SOL     OW30070   1.742   4.195   0.189
 9724SOL    HW130071   1.767   4.284   0.152
 9724SOL    HW230072   1.697   4.141   0.118
 9725SOL     OW30073   3.947   6.365   6.453
 9725SOL    HW130074   3.853   6.339   6.476
 9725SOL    HW230075   3.952   6.463   6.433
 9726SOL     OW30076   4.597   1.884   4.703
 9726SOL    HW130077   4.533   1.955   4.730
 9726SOL    HW230078   4.652   1.916   4.626
 9727SOL     OW30079   1.244   1.958   6.430
 9727SOL    HW130080   1.209   2.049   6.452
 9727SOL    HW230081   1.320   1.936   6.491
 9728SOL     OW30082   0.329   1.706   5.127
 9728SOL    HW130083   0.234   1.713   5.094
 9728SOL    HW230084   0.335   1.744   5.219
 9729SOL     OW30085   1.484   4.616   3.746
 9729SOL    HW130086   1.486   4.631   3.647
 9729SOL    HW230087   1.490   4.704   3.793
 9730SOL     OW30088   1.038   4.435   3.382
 9730SOL    HW130089   1.076   4.490   3.457
 9730SOL    HW230090   1.086   4.457   3.298
 9731SOL     OW30091   4.784   5.526   1.705
 9731SOL    HW130092   4.783   5.626   1.711
 9731SOL    HW230093   4.712   5.488   1.763
 9732SOL     OW30094   1.161   3.542   2.095
 9732SOL    HW130095   1.227   3.617   2.084
 9732SOL    HW230096   1.111   3.529   2.009
 9733SOL     OW30097   5.818   5.503   0.182
 9733SOL    HW130098   5.766   5.542   0.258
 9733SOL    HW230099   5.756   5.462   0.116
 9734SOL     OW30100   6.684   6.958   0.077
 9734SOL    HW130101   6.592   6.921   0.060
 9734SOL    HW230102   6.683   7.011   0.161
 9735SOL     OW30103   1.455   2.812   3.479
 9735SOL    HW130104   1.470   2.895   3.534
 9735SOL    HW230105   1.520   2.809   3.404
 9736SOL     OW30106   5.443   1.846   6.190
 9736SOL    HW130107   5.356   1.826   6.236
 9736SOL    HW230108   5.491   1.919   6.240
 9737SOL     OW30109   5.251   2.545   2.636
 9737SOL    HW130110   5.331   2.491   2.663
 9737SOL    HW230111   5.216   2.511   2.549
 9738SOL     OW30112   1.830   6.723   0.978
 9738SOL    HW130113   1.787   6.692   0.893
 9738SOL    HW230114   1.903   6.659   1.002
 9739SOL     OW30115   4.981   5.782   0.433
 9739SOL    HW130116   5.024   5.856   0.381
 9739SOL    HW230117   4.887   5.770   0.402
 9740SOL     OW30118   0.247   1.250   2.937
 9740SOL    HW130119   0.336   1.294   2.930
 9740SOL    HW230120   0.175   1.319   2.933
 9741SOL     OW30121   2.519   0.951   3.484
 9741SOL    HW130122   2.445   0.973   3.547
 9741SOL    HW230123   2.593   1.017   3.494
 9742SOL     OW30124   4.264   1.373   0.512
 9742SOL    HW130125   4.310   1.285   0.527
 9742SOL    HW230126   4.321   1.447   0.547
 9743SOL     OW30127   0.052   4.213   2.906
 9743SOL    HW130128   0.124   4.145   2.898
 9743SOL    HW230129   6.994   4.169   2.931
 9744SOL     OW30130   2.036   0.271   2.647
 9744SOL    HW130131   1.955   0.271   2.705
 9744SOL    HW230132   2.056   0.177   2.617
 9745SOL     OW30133   4.863   2.984   6.316
 9745SOL    HW130134   4.847   3.064   6.373
 9745SOL    HW230135   4.796   2.982   6.242
 9746SOL     OW30136   5.521   6.703   5.777
 9746SOL    HW130137   5.436   6.707   5.725
 9746SOL    HW230138   5.524   6.779   5.843
 9747SOL     OW30139   3.051   2.175   1.902
 9747SOL    HW130140   3.126   2.214   1.848
 9747SOL    HW230141   2.973   2.237   1.899
 9748SOL     OW30142   6.817   6.591   3.340
 9748SOL    HW130143   6.798   6.509   3.393
 9748SOL    HW230144   6.776   6.582   3.249
 9749SOL     OW30145   0.843   0.932   3.613
 9749SOL    HW130146   0.825   0.987   3.532
 9749SOL    HW230147   0.759   0.883   3.638
 9750SOL     OW30148   5.744   5.310   3.667
 9750SOL    HW130149   5.692   5.333   3.585
 9750SOL    HW230150   5.751   5.211   3.676
 9751SOL     OW30151   1.803   7.003   0.667
 9751SOL    HW130152   1.877   6.936   0.666
 9751SOL    HW230153   1.840   0.064   0.689
 9752SOL     OW30154   4.621   1.688   5.383
 9752SOL    HW130155   4.653   1.635   5.462
 9752SOL    HW230156   4.547   1.640   5.338
 9753SOL     OW30157   0.810   5.527   5.880
 9753SOL    HW130158   0.824   5.532   5.781
 9753SOL    HW230159   0.771   5.438   5.904
 9754SOL     OW30160   2.810   0.467   0.885
 9754SOL    HW130161   2.783   0.395   0.949
 9754SOL    HW230162   2.874   0.530   0.930
 9755SOL     OW30163   3.016   3.964   4.376
 9755SOL    HW130164   3.062   4.008   4.300
 9755SOL    HW230165   3.021   4.023   4.457
 9756SOL     OW30166   6.303   2.445   6.484
 9756SOL    HW130167   6.269   2.367   6.432
 9756SOL    HW230168   6.356   2.412   6.563
 9757SOL     OW30169   6.003   4.693   4.945
 9757SOL    HW130170   6.022   4.595   4.950
 9757SOL    HW230171   5.967   4.724   5.033
 9758SOL     OW30172   2.189   1.195   0.659
 9758SOL    HW130173   2.092   1.219   0.665
 9758SOL    HW230174   2.211   1.169   0.565
 9759SOL     OW30175   0.928   0.922   0.232
 9759SOL    HW130176   0.872   0.874   0.299
 9759SOL    HW230177   0.887   1.011   0.212
 9760SOL     OW30178   4.908   3.149   5.466
 9760SOL    HW130179   4.910   3.248   5.480
 9760SOL    HW230180   4.830   3.110   5.515
 9761SOL     OW30181   0.855   2.606   1.737
 9761SOL    HW130182   0.776   2.661   1.767
 9761SOL    HW230183   0.908   2.578   1.816
 9762SOL     OW30184   3.312   1.584   5.117
 9762SOL    HW130185   3.350   1.627   5.035
 9762SOL    HW230186   3.223   1.623   5.138
 9763SOL     OW30187   5.485   0.974   3.673
 9763SOL    HW130188   5.387   0.962   3.688
 9763SOL    HW230189   5.505   1.070   3.653
 9764SOL     OW30190   6.293   2.540   2.342
 9764SOL    HW130191   6.198   2.564   2.321
 9764SOL    HW230192   6.296   2.456   2.396
 9765SOL     OW30193   6.887   6.345   3.100
 9765SOL    HW130194   6.915   6.424   3.047
 9765SOL    HW230195   6.817   6.372   3.167
 9766SOL     OW30196   2.481   6.465   1.901
 9766SOL    HW130197   2.422   6.538   1.867
 9766SOL    HW230198   2.475   6.461   2.001
 9767SOL     OW30199   2.378   2.446   5.812
 9767SOL    HW130200   2.410   2.438   5.717
 9767SOL    HW230201   2.444   2.403   5.873
 9768SOL     OW30202   4.473   1.362   1.914
 9768SOL    HW130203   4.464   1.425   1.837
 9768SOL    HW230204   4.383   1.323   1.935
 9769SOL     OW30205   3.444   1.346   4.489
 9769SOL    HW130206   3.391   1.333   4.405
 9769SOL    HW230207   3.505   1.269   4.503
 9770SOL     OW30208   3.911   1.156   5.400
 9770SOL    HW130209   3.864   1.144   5.487
 9770SOL    HW230210   3.977   1.081   5.388
 9771SOL     OW30211   2.453   5.326   1.083
 9771SOL    HW130212   2.485   5.271   1.160
 9771SOL    HW230213   2.521   5.395   1.061
 9772SOL     OW30214   1.784   6.162   1.826
 9772SOL    HW130215   1.846   6.240   1.820
 9772SOL    HW230216   1.711   6.182   1.892
 9773SOL     OW30217   4.970   5.474   3.620
 9773SOL    HW130218   5.054   5.481   3.674
 9773SOL    HW230219   4.993   5.487   3.523
 9774SOL     OW30220   0.396   5.396   3.030
 9774SOL    HW130221   0.412   5.364   2.937
 9774SOL    HW230222   0.303   5.434   3.037
 9775SOL     OW30223   3.249   0.339   3.090
 9775SOL    HW130224   3.194   0.399   3.032
 9775SOL    HW230225   3.289   0.266   3.034
 9776SOL     OW30226   1.124   4.947   5.975
 9776SOL    HW130227   1.065   4.968   5.898
 9776SOL    HW230228   1.079   4.880   6.034
 9777SOL     OW30229   6.272   5.063   1.048
 9777SOL    HW130230   6.223   5.109   0.974
 9777SOL    HW230231   6.353   5.018   1.012
 9778SOL     OW30232   0.012   1.360   4.837
 9778SOL    HW130233   0.065   1.275   4.839
 9778SOL    HW230234   6.949   1.341   4.803
 9779SOL     OW30235   0.866   1.571   4.231
 9779SOL    HW130236   0.870   1.480   4.272
 9779SOL    HW230237   0.871   1.563   4.131
 9780SOL     OW30238   2.368   1.659   0.399
 9780SOL    HW130239   2.397   1.731   0.336
 9780SOL    HW230240   2.393   1.684   0.493
 9781SOL     OW30241   2.261   3.054   4.474
 9781SOL    HW130242   2.283   3.030   4.568
 9781SOL    HW230243   2.228   3.149   4.471
 9782SOL     OW30244   0.468   2.153   0.100
 9782SOL    HW130245   0.455   2.073   0.043
 9782SOL    HW230246   0.542   2.137   0.165
 9783SOL     OW30247   4.349   2.354   3.277
 9783SOL    HW130248   4.401   2.413   3.215
 9783SOL    HW230249   4.354   2.259   3.245
 9784SOL     OW30250   3.683   0.704   6.110
 9784SOL    HW130251   3.653   0.745   6.196
 9784SOL    HW230252   3.777   0.671   6.119
 9785SOL     OW30253   0.098   2.002   5.438
 9785SOL    HW130254   0.198   1.998   5.431
 9785SOL    HW230255   0.072   2.059   5.516
 9786SOL     OW30256   2.272   3.258   0.403
 9786SOL    HW130257   2.279   3.340   0.459
 9786SOL    HW230258   2.308   3.276   0.311
 9787SOL     OW30259   3.449   3.188   2.831
 9787SOL    HW130260   3.407   3.102   2.801
 9787SOL    HW230261   3.545   3.189   2.806
 9788SOL     OW30262   0.824   6.786   2.279
 9788SOL    HW130263   0.740   6.778   2.331
 9788SOL    HW230264   0.808   6.842   2.198
 9789SOL     OW30265   1.171   6.026   0.060
 9789SOL    HW130266   1.263   6.026   0.099
 9789SOL    HW230267   1.127   6.113   0.077
 9790SOL     OW30268   6.473   4.422   6.016
 9790SOL    HW130269   6.534   4.439   6.093
 9790SOL    HW230270   6.515   4.356   5.954
 9791SOL     OW30271   0.639   6.873   6.605
 9791SOL    HW130272   0.670   6.804   6.670
 9791SOL    HW230273   0.560   6.921   6.642
 9792SOL     OW30274   3.126   4.766   0.718
 9792SOL    HW130275   3.076   4.689   0.680
 9792SOL    HW230276   3.083   4.852   0.691
 9793SOL     OW30277   4.297   0.406   2.499
 9793SOL    HW130278   4.324   0.477   2.564
 9793SOL    HW230279   4.279   0.321   2.549
 9794SOL     OW30280   6.249   4.472   5.726
 9794SOL    HW130281   6.246   4.494   5.824
 9794SOL    HW230282   6.167   4.508   5.681
 9795SOL     OW30283   1.340   2.515   4.569
 9795SOL    HW130284   1.321   2.436   4.628
 9795SOL    HW230285   1.413   2.570   4.610
 9796SOL     OW30286   4.133   3.655   2.744
 9796SOL    HW130287   4.095   3.564   2.761
 9796SOL    HW230288   4.149   3.666   2.645
 9797SOL     OW30289   2.022   6.011   0.084
 9797SOL    HW130290   2.114   5.993   0.047
 9797SOL    HW230291   1.956   5.952   0.037
 9798SOL     OW30292   2.872   0.677   2.319
 9798SOL    HW130293   2.807   0.724   2.378
 9798SOL    HW230294   2.840   0.680   2.224
 9799SOL     OW30295   3.026   4.216   6.150
 9799SOL    HW130296   2.930   4.196   6.134
 9799SOL    HW230297   3.041   4.315   6.146
 9800SOL     OW30298   4.989   4.977   4.847
 9800SOL    HW130299   4.928   4.960   4.925
 9800SOL    HW230300   5.015   5.074   4.846
 9801SOL     OW30301   4.698   4.386   6.794
 9801SOL    HW130302   4.697   4.327   6.713
 9801SOL    HW230303   4.607   4.384   6.837
 9802SOL     OW30304   5.866   4.821   0.736
 9802SOL    HW130305   5.889   4.786   0.645
 9802SOL    HW230306   5.918   4.770   0.805
 9803SOL     OW30307   1.693   3.165   6.478
 9803SOL    HW130308   1.698   3.256   6.437
 9803SOL    HW230309   1.717   3.096   6.410
 9804SOL     OW30310   0.583   6.520   3.509
 9804SOL    HW130311   0.539   6.594   3.458
 9804SOL    HW230312   0.593   6.439   3.450
 9805SOL     OW30313   0.389   6.637   2.850
 9805SOL    HW130314   0.471   6.627   2.906
 9805SOL    HW230315   0.329   6.706   2.892
 9806SOL     OW30316   1.548   1.498   0.025
 9806SOL    HW130317   1.486   1.545   0.087
 9806SOL    HW230318   1.613   1.563   7.015
 9807SOL     OW30319   3.148   3.785   0.984
 9807SOL    HW130320   3.243   3.802   1.010
 9807SOL    HW230321   3.135   3.810   0.888
 9808SOL     OW30322   4.157   5.678   5.048
 9808SOL    HW130323   4.216   5.646   4.973
 9808SOL    HW230324   4.081   5.730   5.010
 9809SOL     OW30325   1.073   3.119   6.952
 9809SOL    HW130326   1.146   3.161   6.898
 9809SOL    HW230327   0.987   3.128   6.902
 9810SOL     OW30328   3.233   2.140   4.611
 9810SOL    HW130329   3.142   2.149   4.571
 9810SOL    HW230330   3.231   2.074   4.685
 9811SOL     OW30331   5.669   5.044   3.456
 9811SOL    HW130332   5.743   4.999   3.405
 9811SOL    HW230333   5.584   4.993   3.444
 9812SOL     OW30334   3.181   1.549   5.613
 9812SOL    HW130335   3.266   1.540   5.664
 9812SOL    HW230336   3.179   1.482   5.539
 9813SOL     OW30337   5.143   1.957   1.211
 9813SOL    HW130338   5.083   1.909   1.147
 9813SOL    HW230339   5.228   1.906   1.222
 9814SOL     OW30340   0.217   0.200   6.535
 9814SOL    HW130341   0.292   0.207   6.469
 9814SOL    HW230342   0.194   0.103   6.550
 9815SOL     OW30343   5.044   3.333   4.471
 9815SOL    HW130344   5.121   3.289   4.516
 9815SOL    HW230345   5.054   3.326   4.372
 9816SOL     OW30346   0.602   1.073   6.008
 9816SOL    HW130347   0.601   1.015   5.927
 9816SOL    HW230348   0.512   1.115   6.019
 9817SOL     OW30349   1.620   6.751   3.290
 9817SOL    HW130350   1.610   6.654   3.316
 9817SOL    HW230351   1.542   6.802   3.325
 9818SOL     OW30352   6.460   1.155   3.908
 9818SOL    HW130353   6.418   1.239   3.875
 9818SOL    HW230354   6.420   1.130   3.996
 9819SOL     OW30355   5.478   3.391   3.357
 9819SOL    HW130356   5.383   3.363   3.342
 9819SOL    HW230357   5.480   3.487   3.385
 9820SOL     OW30358   3.492   3.477   6.585
 9820SOL    HW130359   3.415   3.473   6.521
 9820SOL    HW230360   3.463   3.525   6.668
 9821SOL     OW30361   5.635   1.029   6.212
 9821SOL    HW130362   5.637   1.091   6.290
 9821SOL    HW230363   5.554   0.970   6.218
 9822SOL     OW30364   1.658   0.201   3.127
 9822SOL    HW130365   1.605   0.270   3.078
 9822SOL    HW230366   1.619   0.111   3.111
 9823SOL     OW30367   2.704   0.207   0.475
 9823SOL    HW130368   2.693   0.193   0.377
 9823SOL    HW230369   2.708   0.305   0.495
 9824SOL     OW30370   2.084   4.880   4.699
 9824SOL    HW130371   2.007   4.896   4.638
 9824SOL    HW230372   2.167   4.868   4.645
 9825SOL     OW30373   4.137   5.167   6.048
 9825SOL    HW130374   4.203   5.104   6.089
 9825SOL    HW230375   4.047   5.123   6.044
 9826SOL     OW30376   5.133   4.978   5.811
 9826SOL    HW130377   5.194   5.057   5.802
 9826SOL    HW230378   5.038   5.007   5.798
 9827SOL     OW30379   2.145   3.791   3.862
 9827SOL    HW130380   2.141   3.745   3.773
 9827SOL    HW230381   2.168   3.724   3.933
 9828SOL     OW30382   2.340   2.971   6.407
 9828SOL    HW130383   2.337   3.067   6.381
 9828SOL    HW230384   2.425   2.929   6.374
 9829SOL     OW30385   3.624   6.022   6.936
 9829SOL    HW130386   3.532   6.054   6.957
 9829SOL    HW230387   3.625   5.982   6.844
 9830SOL     OW30388   6.164   2.719   2.074
 9830SOL    HW130389   6.238   2.709   2.141
 9830SOL    HW230390   6.112   2.802   2.094
 9831SOL     OW30391   2.220   5.500   1.052
 9831SOL    HW130392   2.284   5.428   1.079
 9831SOL    HW230393   2.134   5.490   1.103
 9832SOL     OW30394   4.999   5.494   2.541
 9832SOL    HW130395   4.953   5.423   2.595
 9832SOL    HW230396   5.048   5.556   2.602
 9833SOL     OW30397   3.800   3.518   5.348
 9833SOL    HW130398   3.809   3.581   5.424
 9833SOL    HW230399   3.870   3.447   5.354
 9834SOL     OW30400   3.285   4.356   5.372
 9834SOL    HW130401   3.214   4.425   5.357
 9834SOL    HW230402   3.375   4.400   5.369
 9835SOL     OW30403   3.413   2.956   5.507
 9835SOL    HW130404   3.391   2.900   5.427
 9835SOL    HW230405   3.391   2.904   5.590
 9836SOL     OW30406   6.165   4.503   3.974
 9836SOL    HW130407   6.072   4.530   3.999
 9836SOL    HW230408   6.169   4.484   3.875
 9837SOL     OW30409   3.072   0.481   2.942
 9837SOL    HW130410   3.017   0.437   2.871
 9837SOL    HW230411   3.062   0.580   2.936
 9838SOL     OW30412   1.016   6.597   5.771
 9838SOL    HW130413   1.072   6.556   5.698
 9838SOL    HW230414   1.009   6.696   5.756
 9839SOL     OW30415   5.940   1.765   3.483
 9839SOL    HW130416   6.021   1.794   3.534
 9839SOL    HW230417   5.953   1.782   3.386
 9840SOL     OW30418   6.880   1.951   1.239
 9840SOL    HW130419   6.940   1.992   1.307
 9840SOL    HW230420   6.934   1.895   1.177
 9841SOL     OW30421   1.906   4.178   4.549
 9841SOL    HW130422   1.906   4.153   4.646
 9841SOL    HW230423   1.833   4.243   4.531
 9842SOL     OW30424   4.072   3.273   2.545
 9842SOL    HW130425   4.002   3.228   2.600
 9842SOL    HW230426   4.125   3.335   2.602
 9843SOL     OW30427   5.226   0.914   1.193
 9843SOL    HW130428   5.289   0.910   1.271
 9843SOL    HW230429   5.241   0.836   1.133
 9844SOL     OW30430   6.017   1.092   1.944
 9844SOL    HW130431   5.928   1.121   1.981
 9844SOL    HW230432   6.044   1.152   1.869
 9845SOL     OW30433   3.016   2.217   3.969
 9845SOL    HW130434   3.086   2.201   4.038
 9845SOL    HW230435   3.016   2.141   3.904
 9846SOL     OW30436   3.870   3.674   1.863
 9846SOL    HW130437   3.908   3.610   1.796
 9846SOL    HW230438   3.776   3.649   1.884
 9847SOL     OW30439   3.529   2.872   4.342
 9847SOL    HW130440   3.585   2.804   4.388
 9847SOL    HW230441   3.588   2.938   4.296
 9848SOL     OW30442   3.007   3.378   6.032
 9848SOL    HW130443   3.070   3.306   6.063
 9848SOL    HW230444   2.941   3.339   5.968
 9849SOL     OW30445   0.693   0.117   6.805
 9849SOL    HW130446   0.743   0.145   6.724
 9849SOL    HW230447   0.607   0.074   6.779
 9850SOL     OW30448   5.639   6.998   3.913
 9850SOL    HW130449   5.737   6.998   3.932
 9850SOL    HW230450   5.611   6.907   3.882
 9851SOL     OW30451   4.852   1.016   4.959
 9851SOL    HW130452   4.767   0.966   4.976
 9851SOL    HW230453   4.930   0.963   4.992
 9852SOL     OW30454   4.108   2.072   2.750
 9852SOL    HW130455   4.190   2.018   2.770
 9852SOL    HW230456   4.090   2.072   2.652
 9853SOL     OW30457   5.219   4.306   4.465
 9853SOL    HW130458   5.257   4.314   4.557
 9853SOL    HW230459   5.265   4.371   4.404
 9854SOL     OW30460   0.621   6.163   4.859
 9854SOL    HW130461   0.560   6.212   4.921
 9854SOL    HW230462   0.707   6.214   4.850
 9855SOL     OW30463   2.399   2.906   0.963
 9855SOL    HW130464   2.485   2.907   1.014
 9855SOL    HW230465   2.415   2.872   0.870
 9856SOL     OW30466   4.893   4.233   5.311
 9856SOL    HW130467   4.969   4.295   5.291
 9856SOL    HW230468   4.926   4.139   5.310
 9857SOL     OW30469   4.519   2.429   3.469
 9857SOL    HW130470   4.453   2.399   3.401
 9857SOL    HW230471   4.584   2.356   3.487
 9858SOL     OW30472   0.277   0.725   0.696
 9858SOL    HW130473   0.197   0.692   0.746
 9858SOL    HW230474   0.318   0.650   0.644
 9859SOL     OW30475   6.164   6.928   1.884
 9859SOL    HW130476   6.134   6.990   1.811
 9859SOL    HW230477   6.264   6.920   1.882
 9860SOL     OW30478   0.911   1.359   3.946
 9860SOL    HW130479   0.860   1.300   4.009
 9860SOL    HW230480   0.876   1.345   3.853
 9861SOL     OW30481   3.275   0.031   3.349
 9861SOL    HW130482   3.228   7.028   3.266
 9861SOL    HW230483   3.209   0.046   3.422
 9862SOL     OW30484   3.704   4.095   0.130
 9862SOL    HW130485   3.618   4.146   0.138
 9862SOL    HW230486   3.778   4.148   0.172
 9863SOL     OW30487   3.466   6.907   2.596
 9863SOL    HW130488   3.415   6.827   2.564
 9863SOL    HW230489   3.563   6.893   2.581
 9864SOL     OW30490   3.667   6.534   3.944
 9864SOL    HW130491   3.752   6.498   3.905
 9864SOL    HW230492   3.652   6.628   3.911
 9865SOL     OW30493   1.531   0.908   4.084
 9865SOL    HW130494   1.578   0.881   4.001
 9865SOL    HW230495   1.568   0.856   4.162
 9866SOL     OW30496   4.740   4.906   6.256
 9866SOL    HW130497   4.667   4.936   6.319
 9866SOL    HW230498   4.707   4.829   6.202
 9867SOL     OW30499   6.269   1.076   0.672
 9867SOL    HW130500   6.204   1.140   0.712
 9867SOL    HW230501   6.270   0.991   0.725
 9868SOL     OW30502   0.555   3.844   5.997
 9868SOL    HW130503   0.578   3.800   6.083
 9868SOL    HW230504   0.596   3.792   5.921
 9869SOL     OW30505   1.708   3.429   2.319
 9869SOL    HW130506   1.762   3.363   2.267
 9869SOL    HW230507   1.611   3.412   2.304
 9870SOL     OW30508   3.996   5.478   2.583
 9870SOL    HW130509   4.017   5.487   2.680
 9870SOL    HW230510   4.000   5.567   2.538
 9871SOL     OW30511   0.179   5.739   5.990
 9871SOL    HW130512   0.255   5.803   5.985
 9871SOL    HW230513   0.096   5.788   6.017
 9872SOL     OW30514   2.371   4.845   4.277
 9872SOL    HW130515   2.401   4.751   4.260
 9872SOL    HW230516   2.301   4.870   4.210
 9873SOL     OW30517   2.751   2.624   0.148
 9873SOL    HW130518   2.801   2.710   0.154
 9873SOL    HW230519   2.815   2.549   0.128
 9874SOL     OW30520   6.793   3.267   4.772
 9874SOL    HW130521   6.698   3.273   4.802
 9874SOL    HW230522   6.817   3.171   4.759
 9875SOL     OW30523   6.276   6.058   1.838
 9875SOL    HW130524   6.347   5.987   1.841
 9875SOL    HW230525   6.306   6.137   1.891
 9876SOL     OW30526   6.311   0.526   3.028
 9876SOL    HW130527   6.259   0.503   3.111
 9876SOL    HW230528   6.305   0.624   3.010
 9877SOL     OW30529   0.245   6.335   4.259
 9877SOL    HW130530   0.339   6.370   4.266
 9877SOL    HW230531   0.204   6.334   4.350
 9878SOL     OW30532   2.813   4.757   5.302
 9878SOL    HW130533   2.837   4.702   5.222
 9878SOL    HW230534   2.838   4.709   5.386
 9879SOL     OW30535   5.568   5.566   4.761
 9879SOL    HW130536   5.662   5.598   4.758
 9879SOL    HW230537   5.552   5.502   4.685
 9880SOL     OW30538   3.318   0.945   6.061
 9880SOL    HW130539   3.338   0.871   5.997
 9880SOL    HW230540   3.261   0.910   6.136
 9881SOL     OW30541   0.669   0.832   5.029
 9881SOL    HW130542   0.637   0.753   4.976
 9881SOL    HW230543   0.669   0.913   4.970
 9882SOL     OW30544   1.242   3.775   3.550
 9882SOL    HW130545   1.252   3.676   3.555
 9882SOL    HW230546   1.325   3.818   3.586
 9883SOL     OW30547   1.417   6.399   0.084
 9883SOL    HW130548   1.500   6.455   0.085
 9883SOL    HW230549   1.350   6.441   0.023
 9884SOL     OW30550   5.109   2.186   1.898
 9884SOL    HW130551   5.015   2.200   1.869
 9884SOL    HW230552   5.170   2.237   1.837
 9885SOL     OW30553   6.810   2.480   4.885
 9885SOL    HW130554   6.822   2.578   4.868
 9885SOL    HW230555   6.864   2.453   4.964
 9886SOL     OW30556   1.268   4.645   2.709
 9886SOL    HW130557   1.292   4.713   2.779
 9886SOL    HW230558   1.308   4.557   2.733
 9887SOL     OW30559   3.980   0.403   6.359
 9887SOL    HW130560   3.937   0.320   6.322
 9887SOL    HW230561   3.963   0.480   6.297
 9888SOL     OW30562   5.647   4.647   3.129
 9888SOL    HW130563   5.719   4.583   3.103
 9888SOL    HW230564   5.577   4.650   3.057
 9889SOL     OW30565   6.758   5.386   1.901
 9889SOL    HW130566   6.753   5.310   1.966
 9889SOL    HW230567   6.818   5.457   1.938
 9890SOL     OW30568   1.765   2.069   0.366
 9890SOL    HW130569   1.722   2.059   0.456
 9890SOL    HW230570   1.858   2.104   0.378
 9891SOL     OW30571   4.826   3.754   1.957
 9891SOL    HW130572   4.822   3.853   1.954
 9891SOL    HW230573   4.801   3.721   2.048
 9892SOL     OW30574   0.020   4.745   1.005
 9892SOL    HW130575   0.013   4.774   0.910
 9892SOL    HW230576   0.079   4.665   1.012
 9893SOL     OW30577   0.710   0.593   1.331
 9893SOL    HW130578   0.615   0.604   1.303
 9893SOL    HW230579   0.762   0.674   1.304
 9894SOL     OW30580   3.213   2.970   0.518
 9894SOL    HW130581   3.267   2.985   0.435
 9894SOL    HW230582   3.263   2.909   0.580
 9895SOL     OW30583   5.809   4.996   4.425
 9895SOL    HW130584   5.886   4.954   4.378
 9895SOL    HW230585   5.730   4.934   4.421
 9896SOL     OW30586   6.260   1.534   6.727
 9896SOL    HW130587   6.175   1.527   6.779
 9896SOL    HW230588   6.245   1.590   6.645
 9897SOL     OW30589   5.385   6.354   2.497
 9897SOL    HW130590   5.407   6.380   2.403
 9897SOL    HW230591   5.318   6.280   2.497
 9898SOL     OW30592   1.750   5.767   4.843
 9898SOL    HW130593   1.702   5.762   4.755
 9898SOL    HW230594   1.684   5.760   4.917
 9899SOL     OW30595   1.502   5.766   0.590
 9899SOL    HW130596   1.475   5.684   0.641
 9899SOL    HW230597   1.426   5.795   0.531
 9900SOL     OW30598   1.683   2.451   3.115
 9900SOL    HW130599   1.778   2.457   3.146
 9900SOL    HW230600   1.643   2.365   3.146
 9901SOL     OW30601   2.981   0.421   6.849
 9901SOL    HW130602   2.934   0.348   6.900
 9901SOL    HW230603   2.996   0.391   6.755
 9902SOL     OW30604   3.412   4.862   1.418
 9902SOL    HW130605   3.496   4.862   1.472
 9902SOL    HW230606   3.364   4.949   1.432
 9903SOL     OW30607   5.744   2.217   1.262
 9903SOL    HW130608   5.664   2.161   1.239
 9903SOL    HW230609   5.823   2.158   1.277
 9904SOL     OW30610   1.092   3.872   6.984
 9904SOL    HW130611   1.018   3.888   0.021
 9904SOL    HW230612   1.147   3.955   6.975
 9905SOL     OW30613   2.176   0.362   6.627
 9905SOL    HW130614   2.140   0.451   6.656
 9905SOL    HW230615   2.224   0.372   6.540
 9906SOL     OW30616   1.829   3.445   1.045
 9906SOL    HW130617   1.845   3.352   1.013
 9906SOL    HW230618   1.886   3.463   1.125
 9907SOL     OW30619   0.953   0.156   1.406
 9907SOL    HW130620   0.863   0.173   1.447
 9907SOL    HW230621   1.015   0.230   1.430
 9908SOL     OW30622   6.363   1.336   5.630
 9908SOL    HW130623   6.440   1.379   5.677
 9908SOL    HW230624   6.313   1.278   5.694
 9909SOL     OW30625   4.846   1.446   2.924
 9909SOL    HW130626   4.807   1.420   3.012
 9909SOL    HW230627   4.779   1.500   2.873
 9910SOL     OW30628   1.064   5.012   1.482
 9910SOL    HW130629   1.079   5.037   1.578
 9910SOL    HW230630   1.144   4.965   1.446
 9911SOL     OW30631   3.156   6.053   2.580
 9911SOL    HW130632   3.210   5.970   2.594
 9911SOL    HW230633   3.059   6.030   2.580
 9912SOL     OW30634   3.889   0.359   1.489
 9912SOL    HW130635   3.921   0.365   1.395
 9912SOL    HW230636   3.798   0.399   1.497
 9913SOL     OW30637   6.720   3.999   0.187
 9913SOL    HW130638   6.681   4.069   0.126
 9913SOL    HW230639   6.648   3.936   0.215
 9914SOL     OW30640   5.909   1.108   4.939
 9914SOL    HW130641   5.879   1.121   4.844
 9914SOL    HW230642   5.835   1.131   5.001
 9915SOL     OW30643   6.313   0.977   3.752
 9915SOL    HW130644   6.365   1.034   3.816
 9915SOL    HW230645   6.312   0.882   3.785
 9916SOL     OW30646   1.948   2.609   2.813
 9916SOL    HW130647   1.869   2.670   2.812
 9916SOL    HW230648   1.950   2.556   2.728
 9917SOL     OW30649   4.411   3.818   6.167
 9917SOL    HW130650   4.493   3.864   6.134
 9917SOL    HW230651   4.374   3.868   6.245
 9918SOL     OW30652   2.065   2.075   3.429
 9918SOL    HW130653   2.131   2.090   3.355
 9918SOL    HW230654   2.042   2.162   3.472
 9919SOL     OW30655   0.784   5.452   0.579
 9919SOL    HW130656   0.766   5.480   0.485
 9919SOL    HW230657   0.732   5.369   0.600
 9920SOL     OW30658   4.819   0.976   2.178
 9920SOL    HW130659   4.732   1.023   2.196
 9920SOL    HW230660   4.895   1.033   2.209
 9921SOL     OW30661   4.000   6.140   4.678
 9921SOL    HW130662   4.088   6.116   4.636
 9921SOL    HW230663   4.001   6.113   4.774
 9922SOL     OW30664   2.229   3.622   0.229
 9922SOL    HW130665   2.209   3.591   0.136
 9922SOL    HW230666   2.325   3.604   0.250
 9923SOL     OW30667   5.769   4.762   0.037
 9923SOL    HW130668   5.731   4.701   0.106
 9923SOL    HW230669   5.698   4.824   0.004
 9924SOL     OW30670   6.031   1.590   2.950
 9924SOL    HW130671   6.117   1.542   2.968
 9924SOL    HW230672   6.048   1.664   2.884
 9925SOL     OW30673   0.486   4.759   4.156
 9925SOL    HW130674   0.585   4.767   4.165
 9925SOL    HW230675   0.462   4.663   4.142
 9926SOL     OW30676   4.601   2.976   1.403
 9926SOL    HW130677   4.613   3.075   1.411
 9926SOL    HW230678   4.688   2.934   1.376
 9927SOL     OW30679   1.612   0.350   0.820
 9927SOL    HW130680   1.626   0.439   0.863
 9927SOL    HW230681   1.520   0.345   0.782
 9928SOL     OW30682   5.095   5.005   2.855
 9928SOL    HW130683   5.073   5.027   2.950
 9928SOL    HW230684   5.051   4.919   2.830
 9929SOL     OW30685   3.089   4.125   4.913
 9929SOL    HW130686   3.186   4.126   4.939
 9929SOL    HW230687   3.038   4.186   4.975
 9930SOL     OW30688   6.655   6.784   5.162
 9930SOL    HW130689   6.607   6.871   5.161
 9930SOL    HW230690   6.715   6.780   5.242
 9931SOL     OW30691   0.546   5.380   4.426
 9931SOL    HW130692   0.635   5.380   4.471
 9931SOL    HW230693   0.554   5.335   4.337
 9932SOL     OW30694   2.916   3.582   6.345
 9932SOL    HW130695   2.960   3.584   6.255
 9932SOL    HW230696   2.876   3.671   6.365
 9933SOL     OW30697   1.166   6.846   4.119
 9933SOL    HW130698   1.242   6.783   4.105
 9933SOL    HW230699   1.106   6.811   4.191
 9934SOL     OW30700   6.345   2.221   5.867
 9934SOL    HW130701   6.258   2.237   5.912
 9934SOL    HW230702   6.332   2.161   5.788
 9935SOL     OW30703   3.272   6.618   0.342
 9935SOL    HW130704   3.242   6.527   0.372
 9935SOL    HW230705   3.201   6.685   0.361
 9936SOL     OW30706   6.757   4.783   0.380
 9936SOL    HW130707   6.660   4.779   0.403
 9936SOL    HW230708   6.803   4.702   0.417
 9937SOL     OW30709   0.348   2.208   1.733
 9937SOL    HW130710   0.446   2.226   1.720
 9937SOL    HW230711   0.325   2.119   1.695
 9938SOL     OW30712   6.455   5.180   3.491
 9938SOL    HW130713   6.443   5.117   3.568
 9938SOL    HW230714   6.512   5.257   3.519
 9939SOL     OW30715   4.538   2.571   1.390
 9939SOL    HW130716   4.471   2.606   1.456
 9939SOL    HW230717   4.504   2.485   1.352
 9940SOL     OW30718   0.739   0.850   1.624
 9940SOL    HW130719   0.641   0.849   1.647
 9940SOL    HW230720   0.784   0.926   1.670
 9941SOL     OW30721   3.102   3.014   4.895
 9941SOL    HW130722   3.171   2.992   4.826
 9941SOL    HW230723   3.034   2.941   4.900
 9942SOL     OW30724   2.739   5.364   2.787
 9942SOL    HW130725   2.640   5.374   2.773
 9942SOL    HW230726   2.777   5.452   2.817
 9943SOL     OW30727   0.530   4.060   5.584
 9943SOL    HW130728   0.597   4.125   5.621
 9943SOL    HW230729   0.474   4.024   5.658
 9944SOL     OW30730   0.736   4.514   6.567
 9944SOL    HW130731   0.755   4.519   6.469
 9944SOL    HW230732   0.710   4.420   6.591
 9945SOL     OW30733   4.605   5.793   6.583
 9945SOL    HW130734   4.567   5.884   6.593
 9945SOL    HW230735   4.627   5.776   6.487
 9946SOL     OW30736   6.085   0.690   3.487
 9946SOL    HW130737   6.023   0.612   3.483
 9946SOL    HW230738   6.034   0.773   3.507
 9947SOL     OW30739   2.549   2.547   4.624
 9947SOL    HW130740   2.617   2.494   4.575
 9947SOL    HW230741   2.469   2.490   4.644
 9948SOL     OW30742   6.226   4.551   6.003
 9948SOL    HW130743   6.321   4.523   6.014
 9948SOL    HW230744   6.167   4.485   6.050
 9949SOL     OW30745   6.594   5.074   3.899
 9949SOL    HW130746   6.508   5.049   3.854
 9949SOL    HW230747   6.645   5.138   3.841
 9950SOL     OW30748   5.477   6.135   5.532
 9950SOL    HW130749   5.443   6.095   5.617
 9950SOL    HW230750   5.552   6.079   5.496
 9951SOL     OW30751   1.079   1.769   3.984
 9951SOL    HW130752   1.132   1.701   4.034
 9951SOL    HW230753   1.134   1.805   3.908
 9952SOL     OW30754   1.111   4.829   0.366
 9952SOL    HW130755   1.070   4.919   0.383
 9952SOL    HW230756   1.137   4.787   0.453
 9953SOL     OW30757   5.998   2.473   4.809
 9953SOL    HW130758   6.060   2.403   4.774
 9953SOL    HW230759   5.929   2.429   4.867
 9954SOL     OW30760   0.407   0.816   5.963
 9954SOL    HW130761   0.437   0.850   5.874
 9954SOL    HW230762   0.483   0.824   6.028
 9955SOL     OW30763   5.883   3.773   6.068
 9955SOL    HW130764   5.923   3.681   6.066
 9955SOL    HW230765   5.924   3.826   6.142
 9956SOL     OW30766   0.655   5.892   2.523
 9956SOL    HW130767   0.566   5.875   2.482
 9956SOL    HW230768   0.692   5.806   2.559
 9957SOL     OW30769   5.593   6.935   2.108
 9957SOL    HW130770   5.580   7.008   2.175
 9957SOL    HW230771   5.504   6.906   2.073
 9958SOL     OW30772   2.071   5.171   0.042
 9958SOL    HW130773   2.101   5.076   0.035
 9958SOL    HW230774   2.148   5.232   0.027
 9959SOL     OW30775   4.067   3.715   4.436
 9959SOL    HW130776   4.040   3.653   4.510
 9959SOL    HW230777   4.060   3.668   4.348
 9960SOL     OW30778   0.106   0.116   1.954
 9960SOL    HW130779   0.187   0.059   1.967
 9960SOL    HW230780   0.054   0.083   1.875
 9961SOL     OW30781   1.893   5.668   4.463
 9961SOL    HW130782   1.979   5.679   4.513
 9961SOL    HW230783   1.913   5.652   4.366
 9962SOL     OW30784   4.948   6.707   1.392
 9962SOL    HW130785   5.040   6.676   1.367
 9962SOL    HW230786   4.880   6.642   1.357
 9963SOL     OW30787   2.704   3.273   6.454
 9963SOL    HW130788   2.665   3.326   6.380
 9963SOL    HW230789   2.648   3.284   6.537
 9964SOL     OW30790   4.827   3.655   5.775
 9964SOL    HW130791   4.892   3.728   5.755
 9964SOL    HW230792   4.794   3.663   5.869
 9965SOL     OW30793   3.823   5.722   6.721
 9965SOL    HW130794   3.870   5.766   6.798
 9965SOL    HW230795   3.889   5.671   6.667
 9966SOL     OW30796   2.502   5.558   2.197
 9966SOL    HW130797   2.560   5.629   2.157
 9966SOL    HW230798   2.411   5.596   2.216
 9967SOL     OW30799   6.072   0.043   2.337
 9967SOL    HW130800   6.031   7.000   2.280
 9967SOL    HW230801   6.007   0.071   2.408
 9968SOL     OW30802   2.881   3.308   6.814
 9968SOL    HW130803   2.889   3.396   6.861
 9968SOL    HW230804   2.907   3.319   6.718
 9969SOL     OW30805   2.158   3.265   3.544
 9969SOL    HW130806   2.096   3.196   3.581
 9969SOL    HW230807   2.197   3.232   3.458
 9970SOL     OW30808   5.224   4.245   2.886
 9970SOL    HW130809   5.319   4.268   2.904
 9970SOL    HW230810   5.170   4.259   2.970
 9971SOL     OW30811   2.839   4.287   0.527
 9971SOL    HW130812   2.797   4.224   0.593
 9971SOL    HW230813   2.920   4.243   0.487
 9972SOL     OW30814   3.931   4.716   1.503
 9972SOL    HW130815   3.893   4.808   1.514
 9972SOL    HW230816   3.939   4.694   1.406
 9973SOL     OW30817   4.009   2.235   4.500
 9973SOL    HW130818   3.952   2.230   4.582
 9973SOL    HW230819   3.956   2.202   4.421
 9974SOL     OW30820   6.762   3.761   3.625
 9974SOL    HW130821   6.776   3.715   3.713
 9974SOL    HW230822   6.665   3.781   3.612
 9975SOL     OW30823   6.985   4.903   6.907
 9975SOL    HW130824   6.971   4.926   6.811
 9975SOL    HW230825   6.899   4.869   6.946
 9976SOL     OW30826   0.293   5.828   5.369
 9976SOL    HW130827   0.376   5.881   5.347
 9976SOL    HW230828   0.212   5.880   5.341
 9977SOL     OW30829   6.993   5.430   5.292
 9977SOL    HW130830   6.952   5.344   5.321
 9977SOL    HW230831   0.061   5.431   5.319
 9978SOL     OW30832   6.105   3.040   3.057
 9978SOL    HW130833   6.134   2.946   3.038
 9978SOL    HW230834   6.178   3.089   3.104
 9979SOL     OW30835   6.933   4.644   5.726
 9979SOL    HW130836   6.852   4.681   5.772
 9979SOL    HW230837   7.002   4.715   5.717
 9980SOL     OW30838   1.915   1.999   6.126
 9980SOL    HW130839   1.909   1.923   6.191
 9980SOL    HW230840   1.849   1.986   6.053
 9981SOL     OW30841   2.948   2.002   2.085
 9981SOL    HW130842   2.988   2.055   2.010
 9981SOL    HW230843   2.849   1.992   2.070
 9982SOL     OW30844   0.373   0.742   3.409
 9982SOL    HW130845   0.302   0.813   3.409
 9982SOL    HW230846   0.330   0.653   3.420
 9983SOL     OW30847   0.508   2.642   3.708
 9983SOL    HW130848   0.504   2.664   3.610
 9983SOL    HW230849   0.589   2.586   3.725
 9984SOL     OW30850   2.152   0.972   0.344
 9984SOL    HW130851   2.053   0.982   0.336
 9984SOL    HW230852   2.175   0.877   0.365
 9985SOL     OW30853   2.440   1.137   1.760
 9985SOL    HW130854   2.524   1.191   1.769
 9985SOL    HW230855   2.451   1.049   1.805
 9986SOL     OW30856   4.586   4.530   6.512
 9986SOL    HW130857   4.524   4.543   6.589
 9986SOL    HW230858   4.630   4.616   6.488
 9987SOL     OW30859   6.639   2.169   3.612
 9987SOL    HW130860   6.565   2.235   3.596
 9987SOL    HW230861   6.701   2.204   3.682
 9988SOL     OW30862   0.557   6.019   4.636
 9988SOL    HW130863   0.633   5.987   4.579
 9988SOL    HW230864   0.592   6.086   4.702
 9989SOL     OW30865   6.193   4.470   3.699
 9989SOL    HW130866   6.158   4.527   3.625
 9989SOL    HW230867   6.288   4.447   3.681
 9990SOL     OW30868   2.828   6.435   1.985
 9990SOL    HW130869   2.767   6.514   1.985
 9990SOL    HW230870   2.786   6.360   1.934
 9991SOL     OW30871   1.929   2.724   4.049
 9991SOL    HW130872   1.840   2.679   4.049
 9991SOL    HW230873   1.977   2.703   4.134
 9992SOL     OW30874   5.014   4.357   0.362
 9992SOL    HW130875   4.946   4.427   0.384
 9992SOL    HW230876   4.983   4.302   0.285
 9993SOL     OW30877   3.890   0.775   1.839
 9993SOL    HW130878   3.830   0.701   1.809
 9993SOL    HW230879   3.835   0.858   1.854
 9994SOL     OW30880   7.022   4.931   3.274
 9994SOL    HW130881   6.941   4.959   3.224
 9994SOL    HW230882   6.995   4.884   3.358
 9995SOL     OW30883   3.953   1.476   2.985
 9995SOL    HW130884   3.985   1.565   2.954
 9995SOL    HW230885   3.882   1.488   3.055
 9996SOL     OW30886   2.350   3.265   1.717
 9996SOL    HW130887   2.344   3.331   1.792
 9996SOL    HW230888   2.331   3.312   1.630
 9997SOL     OW30889   3.906   1.789   0.896
 9997SOL    HW130890   3.869   1.702   0.862
 9997SOL    HW230891   3.864   1.811   0.984
 9998SOL     OW30892   5.647   4.242   0.599
 9998SOL    HW130893   5.675   4.321   0.655
 9998SOL    HW230894   5.563   4.204   0.637
 9999SOL     OW30895   6.814   2.636   5.281
 9999SOL    HW130896   6.745   2.628   5.353
 9999SOL    HW230897   6.892   2.688   5.315
10000SOL     OW30898   6.794   3.498   0.445
10000SOL    HW130899   6.886   3.532   0.429
10000SOL    HW230900   6.798   3.416   0.503
10001SOL     OW30901   5.013   0.702   1.922
10001SOL    HW130902   4.942   0.668   1.983
10001SOL    HW230903   4.973   0.766   1.857
10002SOL     OW30904   1.695   0.847   2.447
10002SOL    HW130905   1.780   0.795   2.445
10002SOL    HW230906   1.639   0.817   2.525
10003SOL     OW30907   3.684   1.668   3.739
10003SOL    HW130908   3.689   1.760   3.702
10003SOL    HW230909   3.746   1.607   3.690
10004SOL     OW30910   5.181   2.453   3.764
10004SOL    HW130911   5.269   2.491   3.792
10004SOL    HW230912   5.136   2.411   3.844
10005SOL     OW30913   4.850   0.614   3.850
10005SOL    HW130914   4.811   0.690   3.902
10005SOL    HW230915   4.845   0.530   3.905
10006SOL     OW30916   5.212   0.186   4.455
10006SOL    HW130917   5.159   0.219   4.534
10006SOL    HW230918   5.151   0.136   4.394
10007SOL     OW30919   0.545   5.276   4.962
10007SOL    HW130920   0.517   5.311   4.873
10007SOL    HW230921   0.607   5.342   5.005
10008SOL     OW30922   4.282   1.039   4.667
10008SOL    HW130923   4.226   1.118   4.693
10008SOL    HW230924   4.378   1.060   4.683
10009SOL     OW30925   2.018   4.249   1.558
10009SOL    HW130926   2.001   4.242   1.460
10009SOL    HW230927   1.936   4.223   1.609
10010SOL     OW30928   1.850   0.340   5.820
10010SOL    HW130929   1.764   0.304   5.785
10010SOL    HW230930   1.888   0.275   5.886
10011SOL     OW30931   5.733   1.617   4.540
10011SOL    HW130932   5.695   1.593   4.630
10011SOL    HW230933   5.797   1.547   4.511
10012SOL     OW30934   5.037   1.078   3.333
10012SOL    HW130935   5.130   1.103   3.359
10012SOL    HW230936   5.024   1.097   3.235
10013SOL     OW30937   0.904   1.383   3.668
10013SOL    HW130938   0.864   1.439   3.596
10013SOL    HW230939   0.951   1.305   3.628
10014SOL     OW30940   6.905   3.890   0.325
10014SOL    HW130941   6.835   3.953   0.291
10014SOL    HW230942   6.865   3.798   0.335
10015SOL     OW30943   1.594   3.603   0.306
10015SOL    HW130944   1.557   3.694   0.322
10015SOL    HW230945   1.519   3.536   0.307
10016SOL     OW30946   1.808   0.940   6.273
10016SOL    HW130947   1.808   0.867   6.342
10016SOL    HW230948   1.738   0.922   6.204
10017SOL     OW30949   2.928   1.909   3.005
10017SOL    HW130950   3.009   1.968   3.002
10017SOL    HW230951   2.846   1.965   2.990
10018SOL     OW30952   4.470   6.362   5.523
10018SOL    HW130953   4.377   6.339   5.554
10018SOL    HW230954   4.469   6.379   5.425
10019SOL     OW30955   6.657   2.416   2.689
10019SOL    HW130956   6.580   2.388   2.746
10019SOL    HW230957   6.660   2.361   2.606
10020SOL     OW30958   1.733   2.218   1.637
10020SOL    HW130959   1.647   2.206   1.687
10020SOL    HW230960   1.732   2.163   1.554
10021SOL     OW30961   6.991   2.938   1.310
10021SOL    HW130962   6.911   2.896   1.269
10021SOL    HW230963   0.018   2.868   1.356
10022SOL     OW30964   2.701   0.268   6.581
10022SOL    HW130965   2.796   0.293   6.601
10022SOL    HW230966   2.699   0.197   6.512
10023SOL     OW30967   1.057   5.246   0.014
10023SOL    HW130968   1.113   5.220   0.093
10023SOL    HW230969   1.115   5.249   6.961
10024SOL     OW30970   1.525   6.552   2.194
10024SOL    HW130971   1.450   6.569   2.130
10024SOL    HW230972   1.514   6.609   2.275
10025SOL     OW30973   1.659   1.310   1.257
10025SOL    HW130974   1.687   1.311   1.161
10025SOL    HW230975   1.648   1.215   1.288
10026SOL     OW30976   5.737   6.350   3.523
10026SOL    HW130977   5.739   6.251   3.538
10026SOL    HW230978   5.653   6.388   3.562
10027SOL     OW30979   6.457   3.749   5.003
10027SOL    HW130980   6.443   3.721   5.098
10027SOL    HW230981   6.480   3.846   5.000
10028SOL     OW30982   1.761   0.928   1.798
10028SOL    HW130983   1.833   0.866   1.769
10028SOL    HW230984   1.798   1.021   1.808
10029SOL     OW30985   4.660   1.784   5.004
10029SOL    HW130986   4.688   1.871   4.963
10029SOL    HW230987   4.560   1.784   5.015
10030SOL     OW30988   2.681   0.034   3.612
10030SOL    HW130989   2.736   0.066   3.534
10030SOL    HW230990   2.684   6.963   3.616
10031SOL     OW30991   6.015   5.130   4.858
10031SOL    HW130992   6.042   5.132   4.954
10031SOL    HW230993   5.954   5.052   4.842
10032SOL     OW30994   2.493   1.587   5.280
10032SOL    HW130995   2.526   1.560   5.189
10032SOL    HW230996   2.536   1.673   5.307
10033SOL     OW30997   5.694   2.592   4.520
10033SOL    HW130998   5.655   2.500   4.527
10033SOL    HW230999   5.766   2.593   4.451
10034SOL     OW31000   3.372   0.266   3.852
10034SOL    HW131001   3.445   0.280   3.919
10034SOL    HW231002   3.336   0.354   3.823
10035SOL     OW31003   6.094   4.255   1.307
10035SOL    HW131004   6.071   4.193   1.382
10035SOL    HW231005   6.035   4.335   1.311
10036SOL     OW31006   6.164   2.600   1.321
10036SOL    HW131007   6.074   2.612   1.278
10036SOL    HW231008   6.189   2.503   1.319
10037SOL     OW31009   6.967   1.552   0.553
10037SOL    HW131010   6.886   1.610   0.555
10037SOL    HW231011   6.954   1.475   0.617
10038SOL     OW31012   5.603   0.446   0.157
10038SOL    HW131013   5.654   0.459   0.242
10038SOL    HW231014   5.661   0.471   0.080
10039SOL     OW31015   3.665   0.447   3.691
10039SOL    HW131016   3.627   0.417   3.604
10039SOL    HW231017   3.672   0.547   3.692
10040SOL     OW31018   5.298   5.070   6.634
10040SOL    HW131019   5.377   5.029   6.588
10040SOL    HW231020   5.291   5.035   6.727
10041SOL     OW31021   4.410   5.837   6.886
10041SOL    HW131022   4.420   5.936   6.873
10041SOL    HW231023   4.490   5.791   6.849
10042SOL     OW31024   0.543   2.395   3.988
10042SOL    HW131025   0.615   2.326   3.979
10042SOL    HW231026   0.463   2.367   3.935
10043SOL     OW31027   6.738   1.141   4.972
10043SOL    HW131028   6.796   1.153   5.052
10043SOL    HW231029   6.651   1.099   4.999
10044SOL     OW31030   1.901   2.225   4.391
10044SOL    HW131031   1.806   2.208   4.363
10044SOL    HW231032   1.941   2.141   4.425
10045SOL     OW31033   4.248   0.211   2.088
10045SOL    HW131034   4.181   0.157   2.140
10045SOL    HW231035   4.293   0.276   2.148
10046SOL     OW31036   2.009   3.298   0.733
10046SOL    HW131037   1.914   3.289   0.762
10046SOL    HW231038   2.060   3.217   0.762
10047SOL     OW31039   0.641   3.332   4.466
10047SOL    HW131040   0.725   3.354   4.516
10047SOL    HW231041   0.577   3.286   4.527
10048SOL     OW31042   0.421   6.470   2.429
10048SOL    HW131043   0.482   6.501   2.356
10048SOL    HW231044   0.453   6.381   2.463
10049SOL     OW31045   2.155   1.452   5.723
10049SOL    HW131046   2.218   1.467   5.647
10049SOL    HW231047   2.116   1.361   5.717
10050SOL     OW31048   5.819   3.971   5.039
10050SOL    HW131049   5.789   4.010   5.127
10050SOL    HW231050   5.768   3.887   5.022
10051SOL     OW31051   0.510   4.190   4.730
10051SOL    HW131052   0.482   4.159   4.639
10051SOL    HW231053   0.551   4.281   4.723
10052SOL     OW31054   2.227   1.313   3.289
10052SOL    HW131055   2.205   1.216   3.275
10052SOL    HW231056   2.325   1.324   3.304
10053SOL     OW31057   4.166   6.109   4.394
10053SOL    HW131058   4.072   6.135   4.414
10053SOL    HW231059   4.215   6.188   4.357
10054SOL     OW31060   6.118   4.975   5.620
10054SOL    HW131061   6.128   4.973   5.719
10054SOL    HW231062   6.114   5.069   5.588
10055SOL     OW31063   6.226   1.961   5.305
10055SOL    HW131064   6.221   2.058   5.332
10055SOL    HW231065   6.312   1.944   5.258
10056SOL     OW31066   5.375   4.665   3.532
10056SOL    HW131067   5.287   4.661   3.483
10056SOL    HW231068   5.371   4.606   3.613
10057SOL     OW31069   5.436   4.329   5.022
10057SOL    HW131070   5.395   4.259   5.081
10057SOL    HW231071   5.390   4.329   4.933
10058SOL     OW31072   6.551   3.479   4.821
10058SOL    HW131073   6.463   3.526   4.815
10058SOL    HW231074   6.602   3.493   4.737
10059SOL     OW31075   0.080   1.679   0.271
10059SOL    HW131076   0.012   1.709   0.204
10059SOL    HW231077   0.033   1.638   0.349
10060SOL     OW31078   1.947   2.173   3.082
10060SOL    HW131079   2.022   2.145   3.141
10060SOL    HW231080   1.898   2.250   3.125
10061SOL     OW31081   4.563   0.961   3.850
10061SOL    HW131082   4.591   0.929   3.759
10061SOL    HW231083   4.490   1.029   3.840
10062SOL     OW31084   6.651   0.041   4.379
10062SOL    HW131085   6.672   0.016   4.285
10062SOL    HW231086   6.587   7.004   4.418
10063SOL     OW31087   3.530   1.316   4.793
10063SOL    HW131088   3.571   1.251   4.728
10063SOL    HW231089   3.471   1.379   4.744
10064SOL     OW31090   4.533   6.058   6.577
10064SOL    HW131091   4.599   6.132   6.592
10064SOL    HW231092   4.481   6.076   6.493
10065SOL     OW31093   1.982   1.175   1.183
10065SOL    HW131094   1.967   1.234   1.263
10065SOL    HW231095   2.080   1.158   1.173
10066SOL     OW31096   0.478   2.422   5.012
10066SOL    HW131097   0.568   2.464   5.024
10066SOL    HW231098   0.472   2.382   4.921
10067SOL     OW31099   0.138   3.226   6.381
10067SOL    HW131100   0.137   3.126   6.373
10067SOL    HW231101   0.227   3.255   6.415
10068SOL     OW31102   1.131   3.861   3.323
10068SOL    HW131103   1.182   3.807   3.257
10068SOL    HW231104   1.168   3.846   3.415
10069SOL     OW31105   3.073   4.855   1.519
10069SOL    HW131106   3.020   4.796   1.457
10069SOL    HW231107   3.010   4.906   1.578
10070SOL     OW31108   0.843   5.366   5.266
10070SOL    HW131109   0.767   5.377   5.329
10070SOL    HW231110   0.926   5.342   5.316
10071SOL     OW31111   0.875   0.210   3.983
10071SOL    HW131112   0.832   0.270   4.051
10071SOL    HW231113   0.973   0.231   3.978
10072SOL     OW31114   0.534   1.226   3.377
10072SOL    HW131115   0.520   1.144   3.322
10072SOL    HW231116   0.564   1.200   3.469
10073SOL     OW31117   6.694   3.919   4.000
10073SOL    HW131118   6.785   3.893   3.968
10073SOL    HW231119   6.650   3.841   4.044
10074SOL     OW31120   1.779   5.920   0.416
10074SOL    HW131121   1.872   5.938   0.384
10074SOL    HW231122   1.727   5.873   0.344
10075SOL     OW31123   1.937   0.580   2.674
10075SOL    HW131124   1.923   0.607   2.579
10075SOL    HW231125   2.023   0.530   2.682
10076SOL     OW31126   4.921   5.725   2.983
10076SOL    HW131127   4.988   5.672   3.034
10076SOL    HW231128   4.833   5.723   3.032
10077SOL     OW31129   5.321   2.666   0.836
10077SOL    HW131130   5.307   2.608   0.756
10077SOL    HW231131   5.237   2.671   0.889
10078SOL     OW31132   0.780   6.386   4.906
10078SOL    HW131133   0.872   6.421   4.887
10078SOL    HW231134   0.752   6.417   4.997
10079SOL     OW31135   5.513   1.951   2.962
10079SOL    HW131136   5.535   1.934   2.866
10079SOL    HW231137   5.581   1.906   3.020
10080SOL     OW31138   4.961   0.968   6.487
10080SOL    HW131139   4.939   0.900   6.557
10080SOL    HW231140   4.992   0.921   6.404
10081SOL     OW31141   0.485   1.448   0.373
10081SOL    HW131142   0.503   1.537   0.332
10081SOL    HW231143   0.408   1.455   0.436
10082SOL     OW31144   1.283   5.610   3.560
10082SOL    HW131145   1.314   5.559   3.640
10082SOL    HW231146   1.350   5.681   3.538
10083SOL     OW31147   3.449   6.688   3.665
10083SOL    HW131148   3.524   6.737   3.709
10083SOL    HW231149   3.430   6.729   3.576
10084SOL     OW31150   7.007   6.680   5.054
10084SOL    HW131151   6.975   6.774   5.051
10084SOL    HW231152   7.026   6.648   4.962
10085SOL     OW31153   4.634   6.917   0.624
10085SOL    HW131154   4.566   6.871   0.568
10085SOL    HW231155   4.619   7.015   0.622
10086SOL     OW31156   5.896   6.329   3.245
10086SOL    HW131157   5.887   6.230   3.257
10086SOL    HW231158   5.807   6.373   3.259
10087SOL     OW31159   6.967   6.589   4.487
10087SOL    HW131160   6.889   6.646   4.462
10087SOL    HW231161   6.981   6.593   4.586
10088SOL     OW31162   6.781   0.785   0.564
10088SOL    HW131163   6.876   0.791   0.531
10088SOL    HW231164   6.762   0.691   0.594
10089SOL     OW31165   3.128   1.689   3.349
10089SOL    HW131166   3.185   1.719   3.426
10089SOL    HW231167   3.033   1.715   3.365
10090SOL     OW31168   0.584   4.637   2.129
10090SOL    HW131169   0.619   4.725   2.097
10090SOL    HW231170   0.492   4.649   2.167
10091SOL     OW31171   6.014   6.113   6.795
10091SOL    HW131172   5.991   6.077   6.886
10091SOL    HW231173   5.953   6.073   6.727
10092SOL     OW31174   1.469   3.405   5.106
10092SOL    HW131175   1.485   3.452   5.193
10092SOL    HW231176   1.463   3.307   5.122
10093SOL     OW31177   4.927   3.444   4.837
10093SOL    HW131178   4.949   3.353   4.872
10093SOL    HW231179   4.888   3.499   4.911
10094SOL     OW31180   2.531   6.820   0.700
10094SOL    HW131181   2.539   6.858   0.608
10094SOL    HW231182   2.500   6.725   0.694
10095SOL     OW31183   5.506   1.710   4.950
10095SOL    HW131184   5.536   1.799   4.917
10095SOL    HW231185   5.574   1.641   4.926
10096SOL     OW31186   5.237   0.926   2.521
10096SOL    HW131187   5.195   0.862   2.457
10096SOL    HW231188   5.315   0.970   2.478
10097SOL     OW31189   2.139   2.492   6.462
10097SOL    HW131190   2.099   2.409   6.423
10097SOL    HW231191   2.217   2.467   6.519
10098SOL     OW31192   2.982   6.150   4.811
10098SOL    HW131193   2.909   6.094   4.772
10098SOL    HW231194   3.043   6.181   4.738
10099SOL     OW31195   6.390   4.239   1.807
10099SOL    HW131196   6.473   4.292   1.790
10099SOL    HW231197   6.397   4.193   1.896
10100SOL     OW31198   5.542   5.302   5.548
10100SOL    HW131199   5.626   5.345   5.516
10100SOL    HW231200   5.472   5.372   5.563
10101SOL     OW31201   6.886   3.140   1.967
10101SOL    HW131202   6.979   3.157   2.000
10101SOL    HW231203   6.858   3.048   1.992
10102SOL     OW31204   5.864   0.627   0.812
10102SOL    HW131205   5.848   0.681   0.729
10102SOL    HW231206   5.932   0.556   0.792
10103SOL     OW31207   1.172   0.552   5.199
10103SOL    HW131208   1.127   0.641   5.202
10103SOL    HW231209   1.248   0.556   5.133
10104SOL     OW31210   2.384   0.649   6.269
10104SOL    HW131211   2.475   0.654   6.312
10104SOL    HW231212   2.395   0.643   6.170
10105SOL     OW31213   2.768   1.051   5.890
10105SOL    HW131214   2.854   1.077   5.847
10105SOL    HW231215   2.731   1.129   5.941
10106SOL     OW31216   4.191   6.117   1.475
10106SOL    HW131217   4.253   6.107   1.553
10106SOL    HW231218   4.209   6.043   1.409
10107SOL     OW31219   4.882   3.418   6.612
10107SOL    HW131220   4.839   3.508   6.609
10107SOL    HW231221   4.939   3.405   6.531
10108SOL     OW31222   1.484   2.490   1.142
10108SOL    HW131223   1.495   2.464   1.238
10108SOL    HW231224   1.519   2.416   1.084
10109SOL     OW31225   0.818   1.171   0.220
10109SOL    HW131226   0.722   1.190   0.242
10109SOL    HW231227   0.845   1.225   0.140
10110SOL     OW31228   4.633   4.994   2.737
10110SOL    HW131229   4.642   4.894   2.731
10110SOL    HW231230   4.681   5.036   2.659
10111SOL     OW31231   1.195   2.666   2.388
10111SOL    HW131232   1.169   2.629   2.477
10111SOL    HW231233   1.275   2.724   2.398
10112SOL     OW31234   6.711   3.796   3.053
10112SOL    HW131235   6.613   3.810   3.038
10112SOL    HW231236   6.739   3.843   3.137
10113SOL     OW31237   4.125   0.861   6.789
10113SOL    HW131238   4.132   0.769   6.751
10113SOL    HW231239   4.185   0.923   6.739
10114SOL     OW31240   3.926   2.072   3.183
10114SOL    HW131241   3.999   2.096   3.248
10114SOL    HW231242   3.944   2.117   3.096
10115SOL     OW31243   4.024   1.669   4.339
10115SOL    HW131244   4.062   1.760   4.356
10115SOL    HW231245   4.071   1.602   4.396
10116SOL     OW31246   6.043   0.260   5.542
10116SOL    HW131247   6.083   0.349   5.520
10116SOL    HW231248   6.082   0.227   5.628
10117SOL     OW31249   6.623   5.927   5.754
10117SOL    HW131250   6.684   5.859   5.796
10117SOL    HW231251   6.542   5.880   5.717
10118SOL     OW31252   2.732   4.647   4.194
10118SOL    HW131253   2.707   4.724   4.252
10118SOL    HW231254   2.654   4.585   4.185
10119SOL     OW31255   0.107   5.629   3.809
10119SOL    HW131256   0.082   5.659   3.717
10119SOL    HW231257   0.111   5.529   3.811
10120SOL     OW31258   1.254   2.812   2.758
10120SOL    HW131259   1.194   2.736   2.735
10120SOL    HW231260   1.349   2.781   2.757
10121SOL     OW31261   5.707   4.479   0.781
10121SOL    HW131262   5.802   4.478   0.812
10121SOL    HW231263   5.699   4.539   0.701
10122SOL     OW31264   5.811   2.157   3.545
10122SOL    HW131265   5.861   2.239   3.573
10122SOL    HW231266   5.726   2.151   3.596
10123SOL     OW31267   6.131   6.457   0.482
10123SOL    HW131268   6.075   6.385   0.441
10123SOL    HW231269   6.217   6.418   0.515
10124SOL     OW31270   1.298   5.027   2.360
10124SOL    HW131271   1.220   5.004   2.303
10124SOL    HW231272   1.283   4.990   2.452
10125SOL     OW31273   2.122   0.826   1.947
10125SOL    HW131274   2.211   0.871   1.959
10125SOL    HW231275   2.072   0.870   1.873
10126SOL     OW31276   6.400   7.023   5.891
10126SOL    HW131277   6.313   6.982   5.918
10126SOL    HW231278   6.393   0.094   5.899
10127SOL     OW31279   1.181   4.498   6.347
10127SOL    HW131280   1.160   4.578   6.291
10127SOL    HW231281   1.277   4.500   6.373
10128SOL     OW31282   2.765   0.761   0.086
10128SOL    HW131283   2.767   0.843   0.029
10128SOL    HW231284   2.701   0.775   0.162
10129SOL     OW31285   6.963   1.452   1.928
10129SOL    HW131286   6.871   1.432   1.960
10129SOL    HW231287   6.961   1.529   1.864
10130SOL     OW31288   1.221   2.292   1.592
10130SOL    HW131289   1.253   2.197   1.592
10130SOL    HW231290   1.158   2.306   1.668
10131SOL     OW31291   1.830   0.606   3.981
10131SOL    HW131292   1.748   0.645   3.941
10131SOL    HW231293   1.884   0.678   4.024
10132SOL     OW31294   0.244   0.350   2.447
10132SOL    HW131295   0.225   0.322   2.541
10132SOL    HW231296   0.299   0.280   2.402
10133SOL     OW31297   4.515   5.997   1.418
10133SOL    HW131298   4.467   6.085   1.412
10133SOL    HW231299   4.613   6.012   1.411
10134SOL     OW31300   0.056   0.881   2.577
10134SOL    HW131301   0.112   0.945   2.630
10134SOL    HW231302   0.080   0.887   2.480
10135SOL     OW31303   5.538   1.243   3.676
10135SOL    HW131304   5.485   1.266   3.757
10135SOL    HW231305   5.529   1.316   3.608
10136SOL     OW31306   4.812   2.512   2.517
10136SOL    HW131307   4.788   2.426   2.562
10136SOL    HW231308   4.734   2.574   2.519
10137SOL     OW31309   0.560   5.135   5.558
10137SOL    HW131310   0.536   5.170   5.467
10137SOL    HW231311   0.543   5.207   5.626
10138SOL     OW31312   5.797   1.808   6.854
10138SOL    HW131313   5.705   1.807   6.894
10138SOL    HW231314   5.816   1.719   6.812
10139SOL     OW31315   3.787   3.156   5.113
10139SOL    HW131316   3.832   3.067   5.107
10139SOL    HW231317   3.746   3.167   5.203
10140SOL     OW31318   6.468   6.592   6.185
10140SOL    HW131319   6.547   6.652   6.184
10140SOL    HW231320   6.410   6.612   6.105
10141SOL     OW31321   4.078   1.118   3.960
10141SOL    HW131322   4.038   1.028   3.979
10141SOL    HW231323   4.024   1.189   4.005
10142SOL     OW31324   5.991   6.524   4.585
10142SOL    HW131325   5.975   6.461   4.661
10142SOL    HW231326   6.090   6.534   4.571
10143SOL     OW31327   5.729   3.127   7.017
10143SOL    HW131328   5.782   3.116   0.073
10143SOL    HW231329   5.707   3.037   6.980
10144SOL     OW31330   4.223   6.634   5.511
10144SOL    HW131331   4.310   6.621   5.559
10144SOL    HW231332   4.157   6.677   5.572
10145SOL     OW31333   4.228   6.127   2.516
10145SOL    HW131334   4.266   6.071   2.589
10145SOL    HW231335   4.302   6.182   2.474
10146SOL     OW31336   6.985   3.947   4.485
10146SOL    HW131337   6.921   4.012   4.526
10146SOL    HW231338   6.969   3.943   4.386
10147SOL     OW31339   4.168   4.873   0.240
10147SOL    HW131340   4.176   4.964   0.280
10147SOL    HW231341   4.105   4.818   0.294
10148SOL     OW31342   6.739   5.024   1.279
10148SOL    HW131343   6.788   4.959   1.336
10148SOL    HW231344   6.641   5.003   1.280
10149SOL     OW31345   4.709   4.626   1.417
10149SOL    HW131346   4.652   4.707   1.433
10149SOL    HW231347   4.702   4.564   1.496
10150SOL     OW31348   5.063   3.655   1.938
10150SOL    HW131349   4.982   3.714   1.948
10150SOL    HW231350   5.102   3.636   2.029
10151SOL     OW31351   0.153   0.341   5.559
10151SOL    HW131352   0.183   0.370   5.650
10151SOL    HW231353   0.078   0.276   5.568
10152SOL     OW31354   5.816   5.962   2.784
10152SOL    HW131355   5.875   5.957   2.864
10152SOL    HW231356   5.745   5.892   2.790
10153SOL     OW31357   4.068   5.919   3.914
10153SOL    HW131358   4.112   5.964   3.992
10153SOL    HW231359   4.119   5.836   3.891
10154SOL     OW31360   4.118   5.073   5.739
10154SOL    HW131361   4.199   5.085   5.796
10154SOL    HW231362   4.135   5.000   5.672
10155SOL     OW31363   4.627   2.198   5.800
10155SOL    HW131364   4.723   2.226   5.791
10155SOL    HW231365   4.599   2.206   5.896
10156SOL     OW31366   4.274   0.481   1.195
10156SOL    HW131367   4.371   0.488   1.221
10156SOL    HW231368   4.222   0.553   1.241
10157SOL     OW31369   0.017   2.020   0.284
10157SOL    HW131370   0.099   1.962   0.282
10157SOL    HW231371   0.014   2.077   0.202
10158SOL     OW31372   5.715   6.648   2.462
10158SOL    HW131373   5.727   6.686   2.370
10158SOL    HW231374   5.746   6.553   2.463
10159SOL     OW31375   3.177   2.979   3.047
10159SOL    HW131376   3.100   2.937   3.096
10159SOL    HW231377   3.171   2.956   2.950
10160SOL     OW31378   2.028   4.413   2.455
10160SOL    HW131379   2.064   4.320   2.465
10160SOL    HW231380   2.091   4.478   2.498
10161SOL     OW31381   3.570   4.648   6.512
10161SOL    HW131382   3.605   4.690   6.429
10161SOL    HW231383   3.506   4.710   6.558
10162SOL     OW31384   1.789   4.451   1.767
10162SOL    HW131385   1.820   4.499   1.685
10162SOL    HW231386   1.757   4.360   1.742
10163SOL     OW31387   1.051   5.598   5.468
10163SOL    HW131388   1.023   5.665   5.537
10163SOL    HW231389   1.088   5.646   5.388
10164SOL     OW31390   6.393   3.334   3.434
10164SOL    HW131391   6.465   3.315   3.501
10164SOL    HW231392   6.305   3.335   3.479
10165SOL     OW31393   5.490   2.791   3.952
10165SOL    HW131394   5.444   2.726   4.012
10165SOL    HW231395   5.583   2.808   3.985
10166SOL     OW31396   1.681   2.583   1.491
10166SOL    HW131397   1.694   2.586   1.391
10166SOL    HW231398   1.611   2.516   1.513
10167SOL     OW31399   0.253   4.832   6.846
10167SOL    HW131400   0.166   4.867   6.883
10167SOL    HW231401   0.328   4.884   6.886
10168SOL     OW31402   5.475   1.476   6.447
10168SOL    HW131403   5.398   1.534   6.420
10168SOL    HW231404   5.500   1.497   6.541
10169SOL     OW31405   0.302   3.846   3.133
10169SOL    HW131406   0.251   3.810   3.055
10169SOL    HW231407   0.243   3.903   3.189
10170SOL     OW31408   6.565   5.614   6.532
10170SOL    HW131409   6.571   5.596   6.630
10170SOL    HW231410   6.529   5.706   6.517
10171SOL     OW31411   1.035   2.860   5.485
10171SOL    HW131412   1.053   2.848   5.583
10171SOL    HW231413   1.115   2.901   5.442
10172SOL     OW31414   0.051   6.865   3.573
10172SOL    HW131415   7.016   6.902   3.641
10172SOL    HW231416   0.040   6.765   3.569
10173SOL     OW31417   3.439   4.809   0.357
10173SOL    HW131418   3.518   4.766   0.401
10173SOL    HW231419   3.389   4.864   0.424
10174SOL     OW31420   5.369   6.259   3.401
10174SOL    HW131421   5.293   6.322   3.418
10174SOL    HW231422   5.421   6.289   3.321
10175SOL     OW31423   6.526   1.834   3.379
10175SOL    HW131424   6.507   1.777   3.299
10175SOL    HW231425   6.452   1.899   3.392
10176SOL     OW31426   6.180   3.607   5.845
10176SOL    HW131427   6.278   3.590   5.856
10176SOL    HW231428   6.154   3.590   5.750
10177SOL     OW31429   2.042   0.566   1.388
10177SOL    HW131430   2.106   0.555   1.311
10177SOL    HW231431   2.089   0.545   1.473
10178SOL     OW31432   1.651   0.804   0.793
10178SOL    HW131433   1.739   0.809   0.839
10178SOL    HW231434   1.629   0.893   0.753
10179SOL     OW31435   0.055   4.260   0.172
10179SOL    HW131436   0.118   4.306   0.235
10179SOL    HW231437   0.105   4.228   0.092
10180SOL     OW31438   4.722   0.107   7.028
10180SOL    HW131439   4.690   0.197   0.030
10180SOL    HW231440   4.777   0.065   0.072
10181SOL     OW31441   6.486   3.166   1.095
10181SOL    HW131442   6.519   3.163   1.190
10181SOL    HW231443   6.404   3.110   1.087
10182SOL     OW31444   5.530   1.356   0.411
10182SOL    HW131445   5.509   1.315   0.499
10182SOL    HW231446   5.629   1.367   0.401
10183SOL     OW31447   5.980   3.157   5.916
10183SOL    HW131448   6.003   3.084   5.980
10183SOL    HW231449   6.059   3.218   5.905
10184SOL     OW31450   5.530   2.747   6.565
10184SOL    HW131451   5.474   2.774   6.487
10184SOL    HW231452   5.625   2.776   6.549
10185SOL     OW31453   4.584   6.044   2.510
10185SOL    HW131454   4.613   6.123   2.456
10185SOL    HW231455   4.528   5.984   2.453
10186SOL     OW31456   4.740   3.801   5.348
10186SOL    HW131457   4.750   3.705   5.321
10186SOL    HW231458   4.652   3.814   5.394
10187SOL     OW31459   2.132   3.937   5.547
10187SOL    HW131460   2.151   3.973   5.456
10187SOL    HW231461   2.168   3.845   5.555
10188SOL     OW31462   2.852   6.155   6.829
10188SOL    HW131463   2.898   6.120   6.747
10188SOL    HW231464   2.755   6.128   6.826
10189SOL     OW31465   1.708   0.813   0.155
10189SOL    HW131466   1.676   0.805   0.249
10189SOL    HW231467   1.630   0.805   0.092
10190SOL     OW31468   3.314   3.962   1.423
10190SOL    HW131469   3.376   3.910   1.365
10190SOL    HW231470   3.257   4.021   1.367
10191SOL     OW31471   6.041   5.465   1.138
10191SOL    HW131472   6.037   5.561   1.166
10191SOL    HW231473   5.985   5.409   1.200
10192SOL     OW31474   2.036   1.496   4.652
10192SOL    HW131475   2.027   1.593   4.675
10192SOL    HW231476   2.132   1.469   4.661
10193SOL     OW31477   3.582   3.771   2.195
10193SOL    HW131478   3.653   3.831   2.159
10193SOL    HW231479   3.508   3.763   2.128
10194SOL     OW31480   3.090   0.237   4.981
10194SOL    HW131481   3.093   0.305   5.054
10194SOL    HW231482   3.177   0.239   4.931
10195SOL     OW31483   6.056   7.009   1.275
10195SOL    HW131484   5.982   6.944   1.256
10195SOL    HW231485   6.020   0.055   1.332
10196SOL     OW31486   5.602   2.417   3.538
10196SOL    HW131487   5.679   2.441   3.478
10196SOL    HW231488   5.595   2.484   3.612
10197SOL     OW31489   5.842   0.542   3.588
10197SOL    HW131490   5.830   0.464   3.649
10197SOL    HW231491   5.790   0.620   3.623
10198SOL     OW31492   3.715   6.382   0.791
10198SOL    HW131493   3.727   6.337   0.703
10198SOL    HW231494   3.775   6.462   0.796
10199SOL     OW31495   0.957   1.471   0.050
10199SOL    HW131496   0.932   1.510   0.139
10199SOL    HW231497   0.901   1.513   7.007
10200SOL     OW31498   5.280   3.315   5.679
10200SOL    HW131499   5.341   3.308   5.758
10200SOL    HW231500   5.194   3.358   5.707
10201SOL     OW31501   0.305   5.762   1.829
10201SOL    HW131502   0.310   5.807   1.918
10201SOL    HW231503   0.371   5.687   1.826
10202SOL     OW31504   1.045   3.842   1.108
10202SOL    HW131505   1.140   3.814   1.123
10202SOL    HW231506   1.043   3.923   1.051
10203SOL     OW31507   1.523   2.534   2.417
10203SOL    HW131508   1.603   2.506   2.364
10203SOL    HW231509   1.449   2.468   2.402
10204SOL     OW31510   3.370   4.706   6.202
10204SOL    HW131511   3.318   4.685   6.285
10204SOL    HW231512   3.467   4.718   6.225
10205SOL     OW31513   4.193   1.181   3.406
10205SOL    HW131514   4.153   1.183   3.497
10205SOL    HW231515   4.124   1.206   3.338
10206SOL     OW31516   5.123   5.943   5.995
10206SOL    HW131517   5.159   5.913   5.906
10206SOL    HW231518   5.023   5.948   5.989
10207SOL     OW31519   1.848   0.365   1.355
10207SOL    HW131520   1.896   0.288   1.397
10207SOL    HW231521   1.897   0.450   1.375
10208SOL     OW31522   6.472   5.648   5.354
10208SOL    HW131523   6.442   5.586   5.427
10208SOL    HW231524   6.570   5.638   5.340
10209SOL     OW31525   0.343   1.141   6.031
10209SOL    HW131526   0.297   1.223   5.997
10209SOL    HW231527   0.276   1.066   6.039
10210SOL     OW31528   5.399   6.500   1.504
10210SOL    HW131529   5.372   6.554   1.584
10210SOL    HW231530   5.490   6.528   1.474
10211SOL     OW31531   3.715   6.805   5.869
10211SOL    HW131532   3.778   6.844   5.801
10211SOL    HW231533   3.743   6.712   5.891
10212SOL     OW31534   0.562   1.104   4.441
10212SOL    HW131535   0.527   1.039   4.373
10212SOL    HW231536   0.551   1.197   4.407
10213SOL     OW31537   6.184   1.603   2.310
10213SOL    HW131538   6.232   1.526   2.353
10213SOL    HW231539   6.240   1.638   2.234
10214SOL     OW31540   0.507   0.814   2.636
10214SOL    HW131541   0.458   0.834   2.721
10214SOL    HW231542   0.451   0.754   2.579
10215SOL     OW31543   3.208   2.846   5.267
10215SOL    HW131544   3.241   2.889   5.183
10215SOL    HW231545   3.247   2.754   5.274
10216SOL     OW31546   0.227   6.958   0.879
10216SOL    HW131547   0.314   6.921   0.912
10216SOL    HW231548   0.187   6.895   0.812
10217SOL     OW31549   2.417   1.356   3.950
10217SOL    HW131550   2.385   1.345   4.043
10217SOL    HW231551   2.426   1.266   3.906
10218SOL     OW31552   0.660   1.240   1.334
10218SOL    HW131553   0.715   1.264   1.253
10218SOL    HW231554   0.713   1.260   1.416
10219SOL     OW31555   0.187   2.646   2.565
10219SOL    HW131556   0.193   2.629   2.467
10219SOL    HW231557   0.111   2.593   2.603
10220SOL     OW31558   4.111   1.800   1.777
10220SOL    HW131559   4.184   1.802   1.845
10220SOL    HW231560   4.149   1.825   1.687
10221SOL     OW31561   1.472   2.011   4.002
10221SOL    HW131562   1.456   1.924   3.956
10221SOL    HW231563   1.515   2.075   3.938
10222SOL     OW31564   1.190   3.786   5.483
10222SOL    HW131565   1.150   3.861   5.431
10222SOL    HW231566   1.118   3.726   5.517
10223SOL     OW31567   2.300   5.389   6.356
10223SOL    HW131568   2.294   5.312   6.419
10223SOL    HW231569   2.352   5.361   6.275
10224SOL     OW31570   1.008   0.916   4.375
10224SOL    HW131571   1.026   0.908   4.277
10224SOL    HW231572   1.033   0.830   4.420
10225SOL     OW31573   1.156   6.368   5.230
10225SOL    HW131574   1.231   6.324   5.280
10225SOL    HW231575   1.185   6.459   5.201
10226SOL     OW31576   2.806   0.253   6.942
10226SOL    HW131577   2.711   0.255   6.972
10226SOL    HW231578   2.857   0.186   6.998
10227SOL     OW31579   4.551   4.843   1.360
10227SOL    HW131580   4.540   4.787   1.277
10227SOL    HW231581   4.587   4.933   1.335
10228SOL     OW31582   0.890   4.708   2.082
10228SOL    HW131583   0.895   4.782   2.015
10228SOL    HW231584   0.956   4.725   2.155
10229SOL     OW31585   1.283   0.981   3.933
10229SOL    HW131586   1.367   0.974   3.988
10229SOL    HW231587   1.271   0.897   3.880
10230SOL     OW31588   6.955   0.511   3.420
10230SOL    HW131589   6.909   0.599   3.437
10230SOL    HW231590   6.919   0.471   3.336
10231SOL     OW31591   6.699   6.758   5.792
10231SOL    HW131592   6.661   6.791   5.705
10231SOL    HW231593   6.787   6.714   5.776
10232SOL     OW31594   3.841   1.019   4.424
10232SOL    HW131595   3.794   0.952   4.482
10232SOL    HW231596   3.898   0.970   4.357
10233SOL     OW31597   5.275   3.047   5.353
10233SOL    HW131598   5.285   3.055   5.452
10233SOL    HW231599   5.342   3.107   5.308
10234SOL     OW31600   5.571   0.215   1.216
10234SOL    HW131601   5.618   0.302   1.202
10234SOL    HW231602   5.476   0.233   1.242
10235SOL     OW31603   4.825   1.574   0.230
10235SOL    HW131604   4.917   1.541   0.209
10235SOL    HW231605   4.771   1.577   0.146
10236SOL     OW31606   1.549   6.214   1.970
10236SOL    HW131607   1.547   6.295   1.911
10236SOL    HW231608   1.576   6.241   2.062
10237SOL     OW31609   6.477   4.241   0.689
10237SOL    HW131610   6.570   4.207   0.674
10237SOL    HW231611   6.415   4.164   0.706
10238SOL     OW31612   3.500   4.182   4.480
10238SOL    HW131613   3.469   4.190   4.575
10238SOL    HW231614   3.589   4.136   4.478
10239SOL     OW31615   1.299   4.136   4.758
10239SOL    HW131616   1.375   4.118   4.821
10239SOL    HW231617   1.319   4.096   4.669
10240SOL     OW31618   1.441   4.777   2.909
10240SOL    HW131619   1.409   4.773   3.004
10240SOL    HW231620   1.525   4.723   2.900
10241SOL     OW31621   0.212   0.922   1.619
10241SOL    HW131622   0.167   0.842   1.579
10241SOL    HW231623   0.301   0.895   1.656
10242SOL     OW31624   0.085   2.100   6.468
10242SOL    HW131625   0.120   2.191   6.491
10242SOL    HW231626   0.050   2.056   6.550
10243SOL     OW31627   0.269   5.334   1.146
10243SOL    HW131628   0.294   5.247   1.104
10243SOL    HW231629   0.251   5.401   1.074
10244SOL     OW31630   1.246   5.169   0.274
10244SOL    HW131631   1.311   5.244   0.273
10244SOL    HW231632   1.279   5.097   0.335
10245SOL     OW31633   2.227   3.892   0.235
10245SOL    HW131634   2.220   3.792   0.237
10245SOL    HW231635   2.214   3.928   0.328
10246SOL     OW31636   3.106   3.516   4.501
10246SOL    HW131637   3.085   3.421   4.476
10246SOL    HW231638   3.141   3.518   4.595
10247SOL     OW31639   0.671   5.634   4.693
10247SOL    HW131640   0.671   5.632   4.793
10247SOL    HW231641   0.623   5.715   4.661
10248SOL     OW31642   3.330   0.058   1.870
10248SOL    HW131643   3.296   7.022   1.802
10248SOL    HW231644   3.393   0.011   1.932
10249SOL     OW31645   2.571   0.817   6.514
10249SOL    HW131646   2.502   0.846   6.580
10249SOL    HW231647   2.552   0.722   6.486
10250SOL     OW31648   0.251   1.990   1.113
10250SOL    HW131649   0.218   1.909   1.063
10250SOL    HW231650   0.214   1.988   1.206
10251SOL     OW31651   1.929   2.495   5.419
10251SOL    HW131652   1.892   2.446   5.499
10251SOL    HW231653   1.878   2.468   5.338
10252SOL     OW31654   6.848   6.406   0.530
10252SOL    HW131655   6.912   6.402   0.453
10252SOL    HW231656   6.899   6.401   0.616
10253SOL     OW31657   5.168   5.844   0.174
10253SOL    HW131658   5.200   5.929   0.217
10253SOL    HW231659   5.214   5.766   0.216
10254SOL     OW31660   3.782   1.960   4.963
10254SOL    HW131661   3.809   1.871   4.928
10254SOL    HW231662   3.688   1.956   4.997
10255SOL     OW31663   2.449   5.451   1.473
10255SOL    HW131664   2.490   5.442   1.564
10255SOL    HW231665   2.484   5.379   1.413
10256SOL     OW31666   5.705   0.007   1.675
10256SOL    HW131667   5.612   0.034   1.654
10256SOL    HW231668   5.755   7.016   1.590
10257SOL     OW31669   1.424   4.672   4.964
10257SOL    HW131670   1.361   4.743   4.994
10257SOL    HW231671   1.385   4.624   4.886
10258SOL     OW31672   5.007   0.257   3.749
10258SOL    HW131673   5.098   0.221   3.771
10258SOL    HW231674   4.949   0.181   3.720
10259SOL     OW31675   0.659   6.002   3.283
10259SOL    HW131676   0.675   5.963   3.192
10259SOL    HW231677   0.609   5.936   3.339
10260SOL     OW31678   6.875   0.424   3.149
10260SOL    HW131679   6.894   0.352   3.082
10260SOL    HW231680   6.947   0.493   3.144
10261SOL     OW31681   0.015   6.654   1.730
10261SOL    HW131682   7.002   6.570   1.765
10261SOL    HW231683   0.018   6.651   1.630
10262SOL     OW31684   2.687   5.725   4.722
10262SOL    HW131685   2.591   5.744   4.741
10262SOL    HW231686   2.742   5.753   4.800
10263SOL     OW31687   4.655   1.314   6.412
10263SOL    HW131688   4.581   1.259   6.373
10263SOL    HW231689   4.739   1.260   6.415
10264SOL     OW31690   5.859   1.554   6.742
10264SOL    HW131691   5.812   1.488   6.802
10264SOL    HW231692   5.857   1.520   6.648
10265SOL     OW31693   3.371   2.110   2.902
10265SOL    HW131694   3.470   2.122   2.906
10265SOL    HW231695   3.349   2.012   2.897
10266SOL     OW31696   3.649   2.870   5.189
10266SOL    HW131697   3.634   2.942   5.256
10266SOL    HW231698   3.746   2.865   5.166
10267SOL     OW31699   6.636   1.944   6.498
10267SOL    HW131700   6.672   2.014   6.559
10267SOL    HW231701   6.588   1.988   6.422
10268SOL     OW31702   4.318   6.694   1.923
10268SOL    HW131703   4.313   6.785   1.882
10268SOL    HW231704   4.370   6.699   2.008
10269SOL     OW31705   2.138   1.862   5.441
10269SOL    HW131706   2.207   1.810   5.390
10269SOL    HW231707   2.098   1.803   5.511
10270SOL     OW31708   2.162   5.349   2.598
10270SOL    HW131709   2.251   5.365   2.555
10270SOL    HW231710   2.170   5.275   2.665
10271SOL     OW31711   3.636   2.975   0.546
10271SOL    HW131712   3.612   2.878   0.535
10271SOL    HW231713   3.730   2.990   0.516
10272SOL     OW31714   1.268   0.914   4.695
10272SOL    HW131715   1.199   0.978   4.727
10272SOL    HW231716   1.298   0.856   4.771
10273SOL     OW31717   4.203   5.705   3.804
10273SOL    HW131718   4.170   5.619   3.765
10273SOL    HW231719   4.299   5.694   3.832
10274SOL     OW31720   1.563   4.506   5.941
10274SOL    HW131721   1.494   4.575   5.964
10274SOL    HW231722   1.651   4.551   5.928
10275SOL     OW31723   1.593   0.144   2.039
10275SOL    HW131724   1.533   0.167   2.116
10275SOL    HW231725   1.668   0.087   2.072
10276SOL     OW31726   6.467   5.659   6.109
10276SOL    HW131727   6.402   5.706   6.170
10276SOL    HW231728   6.542   5.722   6.088
10277SOL     OW31729   2.440   6.393   3.702
10277SOL    HW131730   2.493   6.354   3.627
10277SOL    HW231731   2.344   6.396   3.677
10278SOL     OW31732   5.679   0.844   5.529
10278SOL    HW131733   5.689   0.943   5.516
10278SOL    HW231734   5.769   0.801   5.534
10279SOL     OW31735   3.189   6.957   4.272
10279SOL    HW131736   3.280   6.927   4.302
10279SOL    HW231737   3.133   6.876   4.250
10280SOL     OW31738   2.501   4.210   0.902
10280SOL    HW131739   2.467   4.261   0.981
10280SOL    HW231740   2.556   4.271   0.845
10281SOL     OW31741   5.727   2.661   2.662
10281SOL    HW131742   5.771   2.749   2.680
10281SOL    HW231743   5.703   2.618   2.749
10282SOL     OW31744   6.524   3.741   4.193
10282SOL    HW131745   6.452   3.677   4.170
10282SOL    HW231746   6.484   3.823   4.234
10283SOL     OW31747   1.049   2.897   0.856
10283SOL    HW131748   1.133   2.949   0.870
10283SOL    HW231749   0.987   2.912   0.933
10284SOL     OW31750   4.812   4.752   5.850
10284SOL    HW131751   4.745   4.695   5.897
10284SOL    HW231752   4.818   4.841   5.896
10285SOL     OW31753   4.624   0.101   0.945
10285SOL    HW131754   4.552   0.143   1.000
10285SOL    HW231755   4.637   0.006   0.975
10286SOL     OW31756   3.268   1.907   3.901
10286SOL    HW131757   3.179   1.896   3.944
10286SOL    HW231758   3.320   1.822   3.910
10287SOL     OW31759   1.755   6.567   1.829
10287SOL    HW131760   1.666   6.527   1.807
10287SOL    HW231761   1.819   6.495   1.853
10288SOL     OW31762   5.033   6.391   2.367
10288SOL    HW131763   5.031   6.295   2.396
10288SOL    HW231764   4.943   6.416   2.330
10289SOL     OW31765   3.533   0.792   2.039
10289SOL    HW131766   3.543   0.772   1.941
10289SOL    HW231767   3.624   0.802   2.080
10290SOL     OW31768   3.807   3.982   2.737
10290SOL    HW131769   3.733   4.050   2.742
10290SOL    HW231770   3.771   3.898   2.697
10291SOL     OW31771   4.100   0.314   4.192
10291SOL    HW131772   4.196   0.321   4.221
10291SOL    HW231773   4.040   0.329   4.271
10292SOL     OW31774   1.045   1.772   4.641
10292SOL    HW131775   1.072   1.679   4.665
10292SOL    HW231776   1.027   1.778   4.543
10293SOL     OW31777   1.966   6.051   2.549
10293SOL    HW131778   1.939   5.973   2.605
10293SOL    HW231779   2.059   6.078   2.571
10294SOL     OW31780   4.985   3.444   3.095
10294SOL    HW131781   5.043   3.511   3.141
10294SOL    HW231782   4.943   3.384   3.163
10295SOL     OW31783   6.342   4.813   6.151
10295SOL    HW131784   6.271   4.754   6.114
10295SOL    HW231785   6.309   4.908   6.154
10296SOL     OW31786   5.219   4.398   6.805
10296SOL    HW131787   5.146   4.373   6.742
10296SOL    HW231788   5.236   4.496   6.801
10297SOL     OW31789   2.675   6.711   4.585
10297SOL    HW131790   2.625   6.641   4.534
10297SOL    HW231791   2.611   6.782   4.615
10298SOL     OW31792   4.486   4.619   2.956
10298SOL    HW131793   4.394   4.600   2.922
10298SOL    HW231794   4.526   4.535   2.992
10299SOL     OW31795   4.419   4.672   2.532
10299SOL    HW131796   4.408   4.656   2.434
10299SOL    HW231797   4.348   4.622   2.582
10300SOL     OW31798   1.555   4.751   2.304
10300SOL    HW131799   1.528   4.800   2.221
10300SOL    HW231800   1.568   4.654   2.284
10301SOL     OW31801   5.752   1.871   2.485
10301SOL    HW131802   5.689   1.818   2.542
10301SOL    HW231803   5.739   1.846   2.389
10302SOL     OW31804   1.270   6.245   3.834
10302SOL    HW131805   1.257   6.345   3.833
10302SOL    HW231806   1.256   6.209   3.742
10303SOL     OW31807   3.583   4.938   1.201
10303SOL    HW131808   3.533   4.871   1.256
10303SOL    HW231809   3.679   4.941   1.229
10304SOL     OW31810   6.012   1.011   3.004
10304SOL    HW131811   5.959   1.001   2.919
10304SOL    HW231812   5.999   0.930   3.061
10305SOL     OW31813   0.593   5.652   6.278
10305SOL    HW131814   0.627   5.619   6.367
10305SOL    HW231815   0.670   5.660   6.214
10306SOL     OW31816   4.317   6.122   6.153
10306SOL    HW131817   4.317   6.141   6.252
10306SOL    HW231818   4.230   6.081   6.127
10307SOL     OW31819   2.380   1.684   4.886
10307SOL    HW131820   2.301   1.721   4.935
10307SOL    HW231821   2.437   1.631   4.948
10308SOL     OW31822   2.974   4.802   4.266
10308SOL    HW131823   2.928   4.824   4.353
10308SOL    HW231824   2.926   4.726   4.222
10309SOL     OW31825   6.274   0.437   3.922
10309SOL    HW131826   6.327   0.406   3.843
10309SOL    HW231827   6.186   0.390   3.924
10310SOL     OW31828   3.526   3.107   1.551
10310SOL    HW131829   3.451   3.066   1.603
10310SOL    HW231830   3.612   3.096   1.601
10311SOL     OW31831   0.649   5.417   1.202
10311SOL    HW131832   0.557   5.443   1.230
10311SOL    HW231833   0.713   5.490   1.226
10312SOL     OW31834   3.850   5.854   1.311
10312SOL    HW131835   3.848   5.849   1.212
10312SOL    HW231836   3.837   5.763   1.350
10313SOL     OW31837   4.124   6.911   2.571
10313SOL    HW131838   4.027   6.903   2.594
10313SOL    HW231839   4.156   7.002   2.595
10314SOL     OW31840   5.716   0.904   1.533
10314SOL    HW131841   5.743   0.881   1.626
10314SOL    HW231842   5.625   0.946   1.534
10315SOL     OW31843   6.553   6.585   4.450
10315SOL    HW131844   6.609   6.514   4.490
10315SOL    HW231845   6.552   6.575   4.350
10316SOL     OW31846   6.794   3.203   4.366
10316SOL    HW131847   6.727   3.129   4.373
10316SOL    HW231848   6.837   3.201   4.276
10317SOL     OW31849   3.691   5.024   6.583
10317SOL    HW131850   3.720   5.088   6.655
10317SOL    HW231851   3.751   5.033   6.504
10318SOL     OW31852   6.412   5.758   1.413
10318SOL    HW131853   6.326   5.713   1.387
10318SOL    HW231854   6.449   5.807   1.334
10319SOL     OW31855   1.211   4.449   4.864
10319SOL    HW131856   1.248   4.385   4.932
10319SOL    HW231857   1.126   4.488   4.899
10320SOL     OW31858   0.940   0.824   0.855
10320SOL    HW131859   0.959   0.831   0.953
10320SOL    HW231860   0.938   0.728   0.828
10321SOL     OW31861   4.051   6.876   4.602
10321SOL    HW131862   4.002   6.889   4.516
10321SOL    HW231863   4.019   6.942   4.669
10322SOL     OW31864   6.465   5.474   0.393
10322SOL    HW131865   6.493   5.383   0.421
10322SOL    HW231866   6.384   5.502   0.444
10323SOL     OW31867   6.286   3.294   6.405
10323SOL    HW131868   6.383   3.276   6.387
10323SOL    HW231869   6.250   3.355   6.335
10324SOL     OW31870   3.243   3.022   3.465
10324SOL    HW131871   3.287   2.946   3.416
10324SOL    HW231872   3.314   3.076   3.512
10325SOL     OW31873   6.642   4.765   4.546
10325SOL    HW131874   6.619   4.856   4.580
10325SOL    HW231875   6.580   4.741   4.472
10326SOL     OW31876   4.778   2.779   6.932
10326SOL    HW131877   4.772   2.878   6.935
10326SOL    HW231878   4.706   2.743   6.872
10327SOL     OW31879   2.417   1.589   2.761
10327SOL    HW131880   2.511   1.620   2.769
10327SOL    HW231881   2.356   1.653   2.808
10328SOL     OW31882   5.878   3.626   1.883
10328SOL    HW131883   5.956   3.678   1.847
10328SOL    HW231884   5.902   3.529   1.886
10329SOL     OW31885   2.869   0.144   4.376
10329SOL    HW131886   2.812   0.107   4.303
10329SOL    HW231887   2.925   0.218   4.340
10330SOL     OW31888   3.389   4.972   2.974
10330SOL    HW131889   3.393   5.069   2.951
10330SOL    HW231890   3.452   4.921   2.915
10331SOL     OW31891   5.822   0.719   2.746
10331SOL    HW131892   5.757   0.776   2.795
10331SOL    HW231893   5.909   0.768   2.736
10332SOL     OW31894   6.807   1.894   0.296
10332SOL    HW131895   6.901   1.926   0.306
10332SOL    HW231896   6.805   1.813   0.237
10333SOL     OW31897   5.940   4.239   4.096
10333SOL    HW131898   5.882   4.320   4.088
10333SOL    HW231899   5.894   4.169   4.151
10334SOL     OW31900   2.173   5.800   3.870
10334SOL    HW131901   2.221   5.717   3.842
10334SOL    HW231902   2.240   5.866   3.905
10335SOL     OW31903   1.603   4.503   6.708
10335SOL    HW131904   1.599   4.572   6.780
10335SOL    HW231905   1.543   4.426   6.732
10336SOL     OW31906   4.610   6.522   3.026
10336SOL    HW131907   4.549   6.513   2.948
10336SOL    HW231908   4.699   6.556   2.996
10337SOL     OW31909   6.635   5.388   5.155
10337SOL    HW131910   6.728   5.359   5.131
10337SOL    HW231911   6.639   5.468   5.214
10338SOL     OW31912   3.486   6.674   0.989
10338SOL    HW131913   3.422   6.612   1.034
10338SOL    HW231914   3.490   6.653   0.891
10339SOL     OW31915   3.613   5.108   0.883
10339SOL    HW131916   3.697   5.134   0.931
10339SOL    HW231917   3.541   5.087   0.949
10340SOL     OW31918   1.379   5.616   6.776
10340SOL    HW131919   1.332   5.699   6.744
10340SOL    HW231920   1.325   5.574   6.849
10341SOL     OW31921   2.225   2.803   1.985
10341SOL    HW131922   2.129   2.775   1.975
10341SOL    HW231923   2.238   2.893   1.945
10342SOL     OW31924   2.133   5.911   5.945
10342SOL    HW131925   2.094   5.829   5.989
10342SOL    HW231926   2.089   5.924   5.856
10343SOL     OW31927   2.177   3.545   6.973
10343SOL    HW131928   2.227   3.613   6.919
10343SOL    HW231929   2.081   3.570   6.977
10344SOL     OW31930   4.122   3.604   3.645
10344SOL    HW131931   4.054   3.678   3.648
10344SOL    HW231932   4.214   3.643   3.645
10345SOL     OW31933   1.966   1.036   6.709
10345SOL    HW131934   1.895   1.093   6.667
10345SOL    HW231935   2.025   1.094   6.765
10346SOL     OW31936   5.747   0.074   1.001
10346SOL    HW131937   5.692   0.076   1.084
10346SOL    HW231938   5.842   0.098   1.023
10347SOL     OW31939   5.020   1.711   1.059
10347SOL    HW131940   5.025   1.621   1.015
10347SOL    HW231941   4.961   1.771   1.006
10348SOL     OW31942   6.819   0.745   6.368
10348SOL    HW131943   6.787   0.699   6.284
10348SOL    HW231944   6.839   0.676   6.438
10349SOL     OW31945   6.203   0.542   0.894
10349SOL    HW131946   6.145   0.503   0.965
10349SOL    HW231947   6.299   0.526   0.917
10350SOL     OW31948   3.724   6.150   4.624
10350SOL    HW131949   3.683   6.226   4.675
10350SOL    HW231950   3.821   6.143   4.647
10351SOL     OW31951   6.108   4.765   5.876
10351SOL    HW131952   6.043   4.746   5.803
10351SOL    HW231953   6.129   4.680   5.924
10352SOL     OW31954   5.215   2.306   6.423
10352SOL    HW131955   5.251   2.348   6.339
10352SOL    HW231956   5.135   2.357   6.454
10353SOL     OW31957   6.883   3.031   3.599
10353SOL    HW131958   6.894   2.957   3.532
10353SOL    HW231959   6.811   3.093   3.568
10354SOL     OW31960   0.341   3.985   1.784
10354SOL    HW131961   0.250   3.983   1.743
10354SOL    HW231962   0.343   3.927   1.866
10355SOL     OW31963   1.246   1.009   1.275
10355SOL    HW131964   1.308   1.061   1.333
10355SOL    HW231965   1.300   0.959   1.207
10356SOL     OW31966   0.677   3.309   0.138
10356SOL    HW131967   0.605   3.302   0.070
10356SOL    HW231968   0.761   3.341   0.095
10357SOL     OW31969   2.106   2.440   5.780
10357SOL    HW131970   2.061   2.510   5.836
10357SOL    HW231971   2.205   2.443   5.796
10358SOL     OW31972   1.992   3.628   2.645
10358SOL    HW131973   1.964   3.605   2.738
10358SOL    HW231974   1.929   3.587   2.579
10359SOL     OW31975   4.808   2.424   2.072
10359SOL    HW131976   4.812   2.496   2.002
10359SOL    HW231977   4.876   2.442   2.142
10360SOL     OW31978   5.371   4.911   2.745
10360SOL    HW131979   5.377   4.827   2.798
10360SOL    HW231980   5.310   4.976   2.790
10361SOL     OW31981   2.500   0.925   2.325
10361SOL    HW131982   2.555   0.887   2.251
10361SOL    HW231983   2.406   0.891   2.317
10362SOL     OW31984   0.604   4.584   2.504
10362SOL    HW131985   0.636   4.512   2.442
10362SOL    HW231986   0.542   4.545   2.571
10363SOL     OW31987   4.241   2.534   0.453
10363SOL    HW131988   4.305   2.611   0.453
10363SOL    HW231989   4.259   2.476   0.373
10364SOL     OW31990   5.766   5.061   1.443
10364SOL    HW131991   5.681   5.112   1.433
10364SOL    HW231992   5.762   5.006   1.526
10365SOL     OW31993   5.667   4.938   0.497
10365SOL    HW131994   5.703   4.899   0.582
10365SOL    HW231995   5.739   4.936   0.427
10366SOL     OW31996   4.243   6.703   3.448
10366SOL    HW131997   4.155   6.661   3.471
10366SOL    HW231998   4.227   6.783   3.390
10367SOL     OW31999   6.854   2.038   2.250
10367SOL    HW132000   6.755   2.048   2.258
10367SOL    HW232001   6.897   2.128   2.260
10368SOL     OW32002   2.326   0.998   2.820
10368SOL    HW132003   2.318   1.097   2.804
10368SOL    HW232004   2.285   0.948   2.744
10369SOL     OW32005   2.811   6.617   5.878
10369SOL    HW132006   2.791   6.626   5.781
10369SOL    HW232007   2.728   6.588   5.927
10370SOL     OW32008   6.355   1.466   4.896
10370SOL    HW132009   6.299   1.383   4.893
10370SOL    HW232010   6.383   1.491   4.803
10371SOL     OW32011   3.105   6.729   3.509
10371SOL    HW132012   3.083   6.793   3.435
10371SOL    HW232013   3.149   6.779   3.584
10372SOL     OW32014   2.874   0.672   1.760
10372SOL    HW132015   2.878   0.591   1.701
10372SOL    HW232016   2.966   0.710   1.770
10373SOL     OW32017   0.358   7.011   4.670
10373SOL    HW132018   0.299   0.025   4.601
10373SOL    HW232019   0.453   0.006   4.652
10374SOL     OW32020   2.737   6.363   4.723
10374SOL    HW132021   2.799   6.298   4.766
10374SOL    HW232022   2.782   6.402   4.642
10375SOL     OW32023   3.301   2.102   6.430
10375SOL    HW132024   3.234   2.102   6.355
10375SOL    HW232025   3.339   2.010   6.439
10376SOL     OW32026   1.662   6.452   3.669
10376SOL    HW132027   1.730   6.447   3.596
10376SOL    HW232028   1.583   6.505   3.637
10377SOL     OW32029   0.693   2.284   1.581
10377SOL    HW132030   0.646   2.247   1.501
10377SOL    HW232031   0.745   2.365   1.554
10378SOL     OW32032   0.064   5.542   5.728
10378SOL    HW132033   0.112   5.626   5.705
10378SOL    HW232034   0.057   5.533   5.827
10379SOL     OW32035   2.667   5.730   3.779
10379SOL    HW132036   2.740   5.724   3.711
10379SOL    HW232037   2.690   5.674   3.858
10380SOL     OW32038   1.339   2.217   4.668
10380SOL    HW132039   1.424   2.170   4.693
10380SOL    HW232040   1.281   2.155   4.615
10381SOL     OW32041   3.905   4.245   0.240
10381SOL    HW132042   3.935   4.340   0.239
10381SOL    HW232043   3.960   4.193   0.305
10382SOL     OW32044   3.125   6.387   2.025
10382SOL    HW132045   3.027   6.406   2.021
10382SOL    HW232046   3.148   6.316   1.959
10383SOL     OW32047   1.649   3.672   0.664
10383SOL    HW132048   1.686   3.671   0.571
10383SOL    HW232049   1.603   3.585   0.682
10384SOL     OW32050   6.550   6.271   0.950
10384SOL    HW132051   6.561   6.182   0.906
10384SOL    HW232052   6.606   6.338   0.903
10385SOL     OW32053   3.613   5.968   6.064
10385SOL    HW132054   3.528   5.916   6.053
10385SOL    HW232055   3.654   5.984   5.974
10386SOL     OW32056   0.808   0.790   5.568
10386SOL    HW132057   0.746   0.728   5.617
10386SOL    HW232058   0.756   0.846   5.504
10387SOL     OW32059   5.081   3.051   3.083
10387SOL    HW132060   5.172   3.057   3.042
10387SOL    HW232061   5.090   3.044   3.182
10388SOL     OW32062   2.788   6.665   0.911
10388SOL    HW132063   2.780   6.575   0.870
10388SOL    HW232064   2.803   6.734   0.840
10389SOL     OW32065   5.398   3.611   0.184
10389SOL    HW132066   5.448   3.526   0.172
10389SOL    HW232067   5.396   3.635   0.281
10390SOL     OW32068   1.499   2.736   0.278
10390SOL    HW132069   1.411   2.698   0.251
10390SOL    HW232070   1.559   2.662   0.309
10391SOL     OW32071   1.903   5.977   3.681
10391SOL    HW132072   1.820   6.032   3.672
10391SOL    HW232073   1.900   5.925   3.767
10392SOL     OW32074   6.032   5.231   5.363
10392SOL    HW132075   6.104   5.227   5.295
10392SOL    HW232076   6.030   5.321   5.405
10393SOL     OW32077   1.759   3.765   3.495
10393SOL    HW132078   1.774   3.763   3.594
10393SOL    HW232079   1.662   3.780   3.476
10394SOL     OW32080   2.464   5.541   4.619
10394SOL    HW132081   2.388   5.513   4.677
10394SOL    HW232082   2.479   5.470   4.549
10395SOL     OW32083   0.770   6.865   1.395
10395SOL    HW132084   0.832   6.936   1.363
10395SOL    HW232085   0.699   6.850   1.326
10396SOL     OW32086   3.986   1.847   3.683
10396SOL    HW132087   4.082   1.825   3.700
10396SOL    HW232088   3.970   1.945   3.696
10397SOL     OW32089   3.390   1.684   3.973
10397SOL    HW132090   3.484   1.666   4.003
10397SOL    HW232091   3.329   1.618   4.016
10398SOL     OW32092   6.362   2.430   0.824
10398SOL    HW132093   6.407   2.442   0.913
10398SOL    HW232094   6.276   2.381   0.836
10399SOL     OW32095   5.816   1.963   2.854
10399SOL    HW132096   5.870   2.012   2.922
10399SOL    HW232097   5.764   2.028   2.799
10400SOL     OW32098   4.812   6.019   0.204
10400SOL    HW132099   4.754   6.093   0.240
10400SOL    HW232100   4.812   5.943   0.268
10401SOL     OW32101   6.905   6.302   2.590
10401SOL    HW132102   6.989   6.279   2.639
10401SOL    HW232103   6.926   6.311   2.492
10402SOL     OW32104   6.552   2.165   5.101
10402SOL    HW132105   6.562   2.077   5.148
10402SOL    HW232106   6.518   2.234   5.164
10403SOL     OW32107   5.354   1.555   3.728
10403SOL    HW132108   5.408   1.485   3.681
10403SOL    HW232109   5.302   1.607   3.661
10404SOL     OW32110   6.368   6.163   4.466
10404SOL    HW132111   6.290   6.178   4.405
10404SOL    HW232112   6.430   6.097   4.424
10405SOL     OW32113   1.029   0.286   5.226
10405SOL    HW132114   1.100   0.355   5.209
10405SOL    HW232115   1.047   0.205   5.170
10406SOL     OW32116   2.533   4.504   2.987
10406SOL    HW132117   2.498   4.410   2.987
10406SOL    HW232118   2.478   4.560   3.049
10407SOL     OW32119   2.443   6.734   6.184
10407SOL    HW132120   2.394   6.785   6.113
10407SOL    HW232121   2.386   6.729   6.267
10408SOL     OW32122   4.566   0.225   1.388
10408SOL    HW132123   4.579   0.149   1.451
10408SOL    HW232124   4.535   0.306   1.439
10409SOL     OW32125   0.432   4.787   1.034
10409SOL    HW132126   0.524   4.815   1.004
10409SOL    HW232127   0.441   4.718   1.105
10410SOL     OW32128   5.392   1.716   1.944
10410SOL    HW132129   5.423   1.687   1.854
10410SOL    HW232130   5.353   1.808   1.939
10411SOL     OW32131   3.436   6.442   3.142
10411SOL    HW132132   3.490   6.443   3.226
10411SOL    HW232133   3.339   6.444   3.164
10412SOL     OW32134   0.653   1.076   6.990
10412SOL    HW132135   0.752   1.059   6.989
10412SOL    HW232136   0.608   1.004   0.013
10413SOL     OW32137   6.972   2.782   0.173
10413SOL    HW132138   6.958   2.861   0.233
10413SOL    HW232139   6.957   2.810   0.078
10414SOL     OW32140   3.921   5.017   6.009
10414SOL    HW132141   3.862   4.978   5.938
10414SOL    HW232142   3.901   4.971   6.096
10415SOL     OW32143   1.824   3.776   4.668
10415SOL    HW132144   1.836   3.747   4.572
10415SOL    HW232145   1.912   3.806   4.704
10416SOL     OW32146   6.208   0.472   4.849
10416SOL    HW132147   6.193   0.433   4.940
10416SOL    HW232148   6.134   0.536   4.828
10417SOL     OW32149   3.084   5.084   4.645
10417SOL    HW132150   3.083   4.988   4.673
10417SOL    HW232151   3.153   5.097   4.574
10418SOL     OW32152   6.878   3.350   6.535
10418SOL    HW132153   6.893   3.351   6.436
10418SOL    HW232154   6.789   3.311   6.555
10419SOL     OW32155   2.142   6.967   5.883
10419SOL    HW132156   2.100   0.001   5.949
10419SOL    HW232157   2.113   6.992   5.791
10420SOL     OW32158   0.567   3.615   3.297
10420SOL    HW132159   0.542   3.707   3.267
10420SOL    HW232160   0.650   3.620   3.353
10421SOL     OW32161   0.678   1.921   4.030
10421SOL    HW132162   0.705   1.825   4.040
10421SOL    HW232163   0.656   1.959   4.119
10422SOL     OW32164   6.189   3.366   4.867
10422SOL    HW132165   6.137   3.292   4.912
10422SOL    HW232166   6.187   3.352   4.768
10423SOL     OW32167   6.439   6.070   5.325
10423SOL    HW132168   6.424   6.103   5.418
10423SOL    HW232169   6.522   6.113   5.288
10424SOL     OW32170   5.069   2.991   0.063
10424SOL    HW132171   4.987   3.023   0.015
10424SOL    HW232172   5.109   2.914   0.013
10425SOL     OW32173   1.180   0.301   1.879
10425SOL    HW132174   1.107   0.348   1.829
10425SOL    HW232175   1.229   0.241   1.817
10426SOL     OW32176   5.650   4.900   0.894
10426SOL    HW132177   5.734   4.863   0.854
10426SOL    HW232178   5.673   4.979   0.951
10427SOL     OW32179   3.718   0.832   6.557
10427SOL    HW132180   3.802   0.855   6.507
10427SOL    HW232181   3.696   0.905   6.621
10428SOL     OW32182   3.717   1.245   3.892
10428SOL    HW132183   3.736   1.158   3.847
10428SOL    HW232184   3.767   1.249   3.979
10429SOL     OW32185   6.634   4.550   1.018
10429SOL    HW132186   6.636   4.516   1.112
10429SOL    HW232187   6.555   4.511   0.971
10430SOL     OW32188   4.815   7.010   4.573
10430SOL    HW132189   4.805   7.019   4.672
10430SOL    HW232190   4.767   0.057   4.528
10431SOL     OW32191   3.150   6.186   4.429
10431SOL    HW132192   3.144   6.095   4.469
10431SOL    HW232193   3.156   6.179   4.330
10432SOL     OW32194   5.164   6.548   4.982
10432SOL    HW132195   5.215   6.462   4.980
10432SOL    HW232196   5.111   6.555   5.066
10433SOL     OW32197   1.341   6.300   1.567
10433SOL    HW132198   1.279   6.329   1.640
10433SOL    HW232199   1.354   6.201   1.570
10434SOL     OW32200   3.815   6.711   3.461
10434SOL    HW132201   3.907   6.699   3.424
10434SOL    HW232202   3.754   6.742   3.389
10435SOL     OW32203   6.732   0.554   4.866
10435SOL    HW132204   6.639   0.591   4.863
10435SOL    HW232205   6.793   0.615   4.815
10436SOL     OW32206   0.784   4.939   5.574
10436SOL    HW132207   0.704   4.998   5.558
10436SOL    HW232208   0.764   4.846   5.542
10437SOL     OW32209   5.008   4.784   5.458
10437SOL    HW132210   4.994   4.728   5.539
10437SOL    HW232211   5.089   4.841   5.470
10438SOL     OW32212   6.270   6.635   0.313
10438SOL    HW132213   6.220   6.569   0.369
10438SOL    HW232214   6.208   6.706   0.280
10439SOL     OW32215   4.364   1.037   5.594
10439SOL    HW132216   4.306   1.092   5.654
10439SOL    HW232217   4.389   0.952   5.641
10440SOL     OW32218   1.428   0.180   0.585
10440SOL    HW132219   1.385   0.125   0.513
10440SOL    HW232220   1.357   0.220   0.643
10441SOL     OW32221   2.946   0.215   1.489
10441SOL    HW132222   3.018   0.162   1.535
10441SOL    HW232223   2.962   0.213   1.390
10442SOL     OW32224   3.117   6.614   5.711
10442SOL    HW132225   3.048   6.549   5.743
10442SOL    HW232226   3.188   6.625   5.781
10443SOL     OW32227   4.955   3.746   4.769
10443SOL    HW132228   4.910   3.667   4.729
10443SOL    HW232229   4.919   3.762   4.861
10444SOL     OW32230   3.795   6.466   4.700
10444SOL    HW132231   3.739   6.504   4.626
10444SOL    HW232232   3.739   6.405   4.757
10445SOL     OW32233   0.588   4.929   5.013
10445SOL    HW132234   0.546   4.939   4.922
10445SOL    HW232235   0.638   5.013   5.035
10446SOL     OW32236   1.519   3.129   5.038
10446SOL    HW132237   1.599   3.116   5.096
10446SOL    HW232238   1.549   3.154   4.946
10447SOL     OW32239   0.092   0.900   2.317
10447SOL    HW132240   0.135   0.818   2.278
10447SOL    HW232241   7.026   0.905   2.286
10448SOL     OW32242   3.377   1.215   2.363
10448SOL    HW132243   3.324   1.181   2.441
10448SOL    HW232244   3.399   1.312   2.378
10449SOL     OW32245   2.351   5.284   4.844
10449SOL    HW132246   2.324   5.189   4.858
10449SOL    HW232247   2.303   5.321   4.764
10450SOL     OW32248   0.613   1.705   0.941
10450SOL    HW132249   0.548   1.673   0.872
10450SOL    HW232250   0.677   1.769   0.898
10451SOL     OW32251   1.559   5.932   2.535
10451SOL    HW132252   1.568   5.840   2.497
10451SOL    HW232253   1.466   5.966   2.520
10452SOL     OW32254   6.493   3.878   2.502
10452SOL    HW132255   6.499   3.811   2.428
10452SOL    HW232256   6.563   3.948   2.490
10453SOL     OW32257   3.951   5.966   1.721
10453SOL    HW132258   3.959   5.867   1.707
10453SOL    HW232259   3.891   6.005   1.652
10454SOL     OW32260   4.566   3.880   0.846
10454SOL    HW132261   4.598   3.855   0.937
10454SOL    HW232262   4.486   3.825   0.822
10455SOL     OW32263   6.164   6.019   3.190
10455SOL    HW132264   6.132   5.963   3.265
10455SOL    HW232265   6.181   6.112   3.222
10456SOL     OW32266   3.253   6.589   1.102
10456SOL    HW132267   3.208   6.629   1.022
10456SOL    HW232268   3.208   6.620   1.185
10457SOL     OW32269   3.267   3.528   2.054
10457SOL    HW132270   3.296   3.465   2.126
10457SOL    HW232271   3.323   3.514   1.973
10458SOL     OW32272   0.504   1.596   5.835
10458SOL    HW132273   0.584   1.625   5.889
10458SOL    HW232274   0.420   1.617   5.887
10459SOL     OW32275   4.870   5.836   2.090
10459SOL    HW132276   4.873   5.739   2.067
10459SOL    HW232277   4.876   5.890   2.006
10460SOL     OW32278   1.388   4.722   1.351
10460SOL    HW132279   1.354   4.815   1.337
10460SOL    HW232280   1.312   4.658   1.348
10461SOL     OW32281   1.571   5.018   5.563
10461SOL    HW132282   1.607   5.112   5.566
10461SOL    HW232283   1.547   4.989   5.656
10462SOL     OW32284   6.027   2.319   3.684
10462SOL    HW132285   5.959   2.356   3.747
10462SOL    HW232286   6.083   2.393   3.648
10463SOL     OW32287   3.870   3.025   5.502
10463SOL    HW132288   3.831   3.008   5.592
10463SOL    HW232289   3.967   3.047   5.511
10464SOL     OW32290   6.338   6.762   0.994
10464SOL    HW132291   6.409   6.786   0.927
10464SOL    HW232292   6.345   6.665   1.018
10465SOL     OW32293   6.653   6.197   1.614
10465SOL    HW132294   6.668   6.107   1.574
10465SOL    HW232295   6.555   6.216   1.618
10466SOL     OW32296   4.658   4.917   5.587
10466SOL    HW132297   4.700   4.860   5.657
10466SOL    HW232298   4.727   4.974   5.544
10467SOL     OW32299   1.423   2.371   5.806
10467SOL    HW132300   1.510   2.415   5.828
10467SOL    HW232301   1.439   2.287   5.756
10468SOL     OW32302   4.215   4.765   2.818
10468SOL    HW132303   4.204   4.861   2.790
10468SOL    HW232304   4.125   4.727   2.838
10469SOL     OW32305   4.018   3.071   6.408
10469SOL    HW132306   3.991   3.151   6.462
10469SOL    HW232307   3.971   3.074   6.319
10470SOL     OW32308   2.717   2.395   3.822
10470SOL    HW132309   2.670   2.452   3.889
10470SOL    HW232310   2.816   2.398   3.838
10471SOL     OW32311   2.461   2.362   1.534
10471SOL    HW132312   2.557   2.373   1.509
10471SOL    HW232313   2.416   2.302   1.469
10472SOL     OW32314   2.622   5.547   1.027
10472SOL    HW132315   2.653   5.559   0.933
10472SOL    HW232316   2.696   5.508   1.082
10473SOL     OW32317   6.533   0.809   0.254
10473SOL    HW132318   6.552   0.865   0.335
10473SOL    HW232319   6.561   0.859   0.172
10474SOL     OW32320   4.435   1.532   4.903
10474SOL    HW132321   4.429   1.628   4.932
10474SOL    HW232322   4.441   1.528   4.803
10475SOL     OW32323   5.013   6.788   2.884
10475SOL    HW132324   5.044   6.834   2.800
10475SOL    HW232325   5.093   6.760   2.937
10476SOL     OW32326   6.829   6.358   6.869
10476SOL    HW132327   6.927   6.348   6.852
10476SOL    HW232328   6.796   6.442   6.826
10477SOL     OW32329   6.123   1.666   4.304
10477SOL    HW132330   6.201   1.724   4.282
10477SOL    HW232331   6.038   1.713   4.278
10478SOL     OW32332   0.458   0.498   1.273
10478SOL    HW132333   0.473   0.400   1.264
10478SOL    HW232334   0.360   0.517   1.273
10479SOL     OW32335   0.384   2.695   2.040
10479SOL    HW132336   0.340   2.751   2.111
10479SOL    HW232337   0.466   2.742   2.007
10480SOL     OW32338   6.008   0.475   1.329
10480SOL    HW132339   6.089   0.528   1.302
10480SOL    HW232340   6.006   0.466   1.428
10481SOL     OW32341   2.252   6.948   4.186
10481SOL    HW132342   2.195   7.005   4.246
10481SOL    HW232343   2.302   7.007   4.122
10482SOL     OW32344   0.291   5.555   4.789
10482SOL    HW132345   0.304   5.654   4.788
10482SOL    HW232346   0.196   5.534   4.763
10483SOL     OW32347   0.218   6.086   0.437
10483SOL    HW132348   0.126   6.092   0.398
10483SOL    HW232349   0.242   6.174   0.479
10484SOL     OW32350   6.166   0.874   1.548
10484SOL    HW132351   6.142   0.870   1.645
10484SOL    HW232352   6.096   0.926   1.499
10485SOL     OW32353   3.076   3.307   2.426
10485SOL    HW132354   2.979   3.330   2.419
10485SOL    HW232355   3.125   3.383   2.469
10486SOL     OW32356   6.459   0.744   6.295
10486SOL    HW132357   6.459   0.757   6.394
10486SOL    HW232358   6.474   0.832   6.250
10487SOL     OW32359   5.008   2.308   1.498
10487SOL    HW132360   4.915   2.280   1.475
10487SOL    HW232361   5.072   2.271   1.431
10488SOL     OW32362   2.180   2.071   6.061
10488SOL    HW132363   2.089   2.035   6.081
10488SOL    HW232364   2.181   2.107   5.968
10489SOL     OW32365   6.174   6.700   3.715
10489SOL    HW132366   6.106   6.688   3.643
10489SOL    HW232367   6.161   6.630   3.785
10490SOL     OW32368   5.943   2.033   0.537
10490SOL    HW132369   5.910   1.939   0.533
10490SOL    HW232370   5.924   2.071   0.628
10491SOL     OW32371   2.250   2.113   5.383
10491SOL    HW132372   2.229   2.195   5.436
10491SOL    HW232373   2.205   2.033   5.425
10492SOL     OW32374   4.974   6.182   1.266
10492SOL    HW132375   4.951   6.225   1.352
10492SOL    HW232376   4.896   6.131   1.231
10493SOL     OW32377   2.940   6.296   1.666
10493SOL    HW132378   2.992   6.222   1.708
10493SOL    HW232379   2.871   6.329   1.730
10494SOL     OW32380   6.118   4.282   5.504
10494SOL    HW132381   6.157   4.316   5.589
10494SOL    HW232382   6.030   4.238   5.522
10495SOL     OW32383   7.007   0.157   0.265
10495SOL    HW132384   0.023   0.166   0.354
10495SOL    HW232385   0.047   0.162   0.193
10496SOL     OW32386   6.319   4.954   5.256
10496SOL    HW132387   6.254   5.013   5.304
10496SOL    HW232388   6.412   4.984   5.276
10497SOL     OW32389   1.461   6.907   2.556
10497SOL    HW132390   1.368   6.892   2.522
10497SOL    HW232391   1.460   6.912   2.656
10498SOL     OW32392   6.005   5.850   0.827
10498SOL    HW132393   6.016   5.931   0.884
10498SOL    HW232394   5.968   5.876   0.738
10499SOL     OW32395   4.418   6.965   1.442
10499SOL    HW132396   4.351   0.001   1.405
10499SOL    HW232397   4.467   7.008   1.518
10500SOL     OW32398   6.099   2.295   5.933
10500SOL    HW132399   6.111   2.346   5.848
10500SOL    HW232400   6.062   2.355   6.003
10501SOL     OW32401   2.227   5.923   2.316
10501SOL    HW132402   2.249   5.837   2.268
10501SOL    HW232403   2.208   5.994   2.249
10502SOL     OW32404   2.395   4.002   0.742
10502SOL    HW132405   2.413   4.078   0.804
10502SOL    HW232406   2.298   4.000   0.719
10503SOL     OW32407   5.646   3.707   0.604
10503SOL    HW132408   5.732   3.729   0.559
10503SOL    HW232409   5.637   3.763   0.687
10504SOL     OW32410   0.419   2.383   5.423
10504SOL    HW132411   0.372   2.339   5.500
10504SOL    HW232412   0.411   2.324   5.342
10505SOL     OW32413   5.596   6.556   1.198
10505SOL    HW132414   5.653   6.512   1.128
10505SOL    HW232415   5.623   6.523   1.289
10506SOL     OW32416   0.608   3.668   0.306
10506SOL    HW132417   0.683   3.648   0.243
10506SOL    HW232418   0.630   3.633   0.397
10507SOL     OW32419   2.239   5.378   0.053
10507SOL    HW132420   2.335   5.403   0.059
10507SOL    HW232421   2.191   5.442   7.021
10508SOL     OW32422   0.752   5.675   4.063
10508SOL    HW132423   0.726   5.673   4.160
10508SOL    HW232424   0.839   5.626   4.051
10509SOL     OW32425   6.137   4.865   4.777
10509SOL    HW132426   6.096   4.796   4.838
10509SOL    HW232427   6.225   4.894   4.815
10510SOL     OW32428   4.661   6.207   0.314
10510SOL    HW132429   4.632   6.290   0.268
10510SOL    HW232430   4.580   6.160   0.352
10511SOL     OW32431   3.126   1.525   2.479
10511SOL    HW132432   3.051   1.466   2.510
10511SOL    HW232433   3.092   1.589   2.410
10512SOL     OW32434   3.315   0.258   6.160
10512SOL    HW132435   3.229   0.213   6.138
10512SOL    HW232436   3.386   0.189   6.177
10513SOL     OW32437   6.322   2.690   3.211
10513SOL    HW132438   6.385   2.768   3.212
10513SOL    HW232439   6.318   2.652   3.119
10514SOL     OW32440   1.456   1.801   1.680
10514SOL    HW132441   1.389   1.759   1.742
10514SOL    HW232442   1.527   1.847   1.734
10515SOL     OW32443   1.953   3.079   4.279
10515SOL    HW132444   1.921   3.150   4.342
10515SOL    HW232445   1.892   3.000   4.283
10516SOL     OW32446   2.587   1.831   0.302
10516SOL    HW132447   2.563   1.925   0.277
10516SOL    HW232448   2.607   1.779   0.220
10517SOL     OW32449   1.264   4.027   1.555
10517SOL    HW132450   1.226   4.007   1.465
10517SOL    HW232451   1.221   3.967   1.623
10518SOL     OW32452   6.998   6.066   1.682
10518SOL    HW132453   6.977   5.968   1.689
10518SOL    HW232454   0.013   6.097   1.767
10519SOL     OW32455   2.689   4.906   0.294
10519SOL    HW132456   2.628   4.842   0.341
10519SOL    HW232457   2.659   4.918   0.200
10520SOL     OW32458   0.110   2.331   6.016
10520SOL    HW132459   0.103   2.348   6.115
10520SOL    HW232460   0.164   2.405   5.974
10521SOL     OW32461   6.794   5.835   1.283
10521SOL    HW132462   6.694   5.829   1.275
10521SOL    HW232463   6.836   5.758   1.235
10522SOL     OW32464   0.263   2.770   3.301
10522SOL    HW132465   0.277   2.671   3.307
10522SOL    HW232466   0.261   2.797   3.205
10523SOL     OW32467   0.771   4.038   3.597
10523SOL    HW132468   0.762   4.120   3.654
10523SOL    HW232469   0.760   3.956   3.654
10524SOL     OW32470   0.759   6.369   4.262
10524SOL    HW132471   0.677   6.334   4.308
10524SOL    HW232472   0.732   6.432   4.190
10525SOL     OW32473   3.921   0.133   5.347
10525SOL    HW132474   3.962   0.066   5.408
10525SOL    HW232475   3.915   0.095   5.255
10526SOL     OW32476   0.645   6.537   1.763
10526SOL    HW132477   0.547   6.522   1.768
10526SOL    HW232478   0.664   6.634   1.749
10527SOL     OW32479   1.111   0.621   5.899
10527SOL    HW132480   1.149   0.619   5.806
10527SOL    HW232481   1.181   0.650   5.963
10528SOL     OW32482   1.082   4.152   6.409
10528SOL    HW132483   0.999   4.127   6.459
10528SOL    HW232484   1.063   4.228   6.347
10529SOL     OW32485   2.177   5.711   4.566
10529SOL    HW132486   2.220   5.791   4.525
10529SOL    HW232487   2.183   5.717   4.666
10530SOL     OW32488   1.159   6.486   5.564
10530SOL    HW132489   1.129   6.482   5.469
10530SOL    HW232490   1.230   6.418   5.579
10531SOL     OW32491   2.710   2.115   4.544
10531SOL    HW132492   2.764   2.044   4.589
10531SOL    HW232493   2.642   2.071   4.484
10532SOL     OW32494   6.838   0.146   6.507
10532SOL    HW132495   6.753   0.186   6.473
10532SOL    HW232496   6.916   0.186   6.459
10533SOL     OW32497   3.270   6.038   3.639
10533SOL    HW132498   3.248   6.133   3.659
10533SOL    HW232499   3.186   5.983   3.639
10534SOL     OW32500   6.452   5.365   1.901
10534SOL    HW132501   6.440   5.369   2.000
10534SOL    HW232502   6.546   5.389   1.878
10535SOL     OW32503   1.796   1.947   2.399
10535SOL    HW132504   1.717   1.994   2.359
10535SOL    HW232505   1.844   2.009   2.461
10536SOL     OW32506   4.873   0.357   3.954
10536SOL    HW132507   4.805   0.293   3.989
10536SOL    HW232508   4.926   0.314   3.881
10537SOL     OW32509   4.837   6.495   4.026
10537SOL    HW132510   4.821   6.589   4.056
10537SOL    HW232511   4.875   6.442   4.102
10538SOL     OW32512   6.601   3.480   0.829
10538SOL    HW132513   6.645   3.398   0.792
10538SOL    HW232514   6.586   3.469   0.927
10539SOL     OW32515   6.404   5.379   1.087
10539SOL    HW132516   6.311   5.415   1.090
10539SOL    HW232517   6.433   5.371   0.992
10540SOL     OW32518   2.182   3.065   5.334
10540SOL    HW132519   2.100   3.026   5.291
10540SOL    HW232520   2.262   3.043   5.278
10541SOL     OW32521   3.867   2.975   3.602
10541SOL    HW132522   3.928   2.897   3.586
10541SOL    HW232523   3.897   3.025   3.683
10542SOL     OW32524   6.348   0.325   4.671
10542SOL    HW132525   6.429   0.286   4.713
10542SOL    HW232526   6.303   0.386   4.736
10543SOL     OW32527   1.007   1.757   4.391
10543SOL    HW132528   1.052   1.819   4.326
10543SOL    HW232529   0.958   1.686   4.340
10544SOL     OW32530   2.213   6.109   2.612
10544SOL    HW132531   2.240   6.014   2.597
10544SOL    HW232532   2.215   6.129   2.710
10545SOL     OW32533   1.742   1.825   1.747
10545SOL    HW132534   1.726   1.831   1.846
10545SOL    HW232535   1.832   1.863   1.726
10546SOL     OW32536   3.100   6.291   1.229
10546SOL    HW132537   3.038   6.267   1.304
10546SOL    HW232538   3.177   6.344   1.264
10547SOL     OW32539   5.007   2.142   4.049
10547SOL    HW132540   5.087   2.088   4.022
10547SOL    HW232541   4.931   2.081   4.071
10548SOL     OW32542   0.443   4.048   4.100
10548SOL    HW132543   0.463   3.983   4.172
10548SOL    HW232544   0.348   4.037   4.070
10549SOL     OW32545   0.225   1.477   0.540
10549SOL    HW132546   0.156   1.549   0.536
10549SOL    HW232547   0.272   1.480   0.628
10550SOL     OW32548   4.203   6.354   3.789
10550SOL    HW132549   4.252   6.364   3.703
10550SOL    HW232550   4.226   6.266   3.831
10551SOL     OW32551   2.110   2.230   6.305
10551SOL    HW132552   2.156   2.179   6.378
10551SOL    HW232553   2.123   2.183   6.218
10552SOL     OW32554   1.969   0.646   5.241
10552SOL    HW132555   1.958   0.670   5.338
10552SOL    HW232556   2.042   0.579   5.232
10553SOL     OW32557   0.299   4.261   1.011
10553SOL    HW132558   0.277   4.235   0.917
10553SOL    HW232559   0.387   4.309   1.013
10554SOL     OW32560   4.928   5.553   2.046
10554SOL    HW132561   4.993   5.587   1.979
10554SOL    HW232562   4.855   5.503   2.000
10555SOL     OW32563   2.489   2.337   1.180
10555SOL    HW132564   2.568   2.327   1.119
10555SOL    HW232565   2.461   2.433   1.183
10556SOL     OW32566   2.883   0.867   3.734
10556SOL    HW132567   2.959   0.816   3.773
10556SOL    HW232568   2.887   0.962   3.766
10557SOL     OW32569   1.386   3.510   3.381
10557SOL    HW132570   1.312   3.458   3.424
10557SOL    HW232571   1.471   3.457   3.385
10558SOL     OW32572   3.806   5.940   6.243
10558SOL    HW132573   3.851   6.029   6.256
10558SOL    HW232574   3.738   5.948   6.170
10559SOL     OW32575   3.966   0.650   2.094
10559SOL    HW132576   3.895   0.658   2.164
10559SOL    HW232577   3.936   0.696   2.011
10560SOL     OW32578   4.942   6.951   2.518
10560SOL    HW132579   4.942   6.852   2.528
10560SOL    HW232580   4.852   6.987   2.545
10561SOL     OW32581   3.791   4.274   1.633
10561SOL    HW132582   3.871   4.276   1.573
10561SOL    HW232583   3.756   4.366   1.646
10562SOL     OW32584   4.153   5.508   0.640
10562SOL    HW132585   4.214   5.495   0.562
10562SOL    HW232586   4.096   5.589   0.626
10563SOL     OW32587   0.980   0.727   1.762
10563SOL    HW132588   0.969   0.737   1.861
10563SOL    HW232589   0.902   0.768   1.715
10564SOL     OW32590   5.855   6.680   3.783
10564SOL    HW132591   5.912   6.639   3.855
10564SOL    HW232592   5.866   6.628   3.699
10565SOL     OW32593   6.483   6.484   5.641
10565SOL    HW132594   6.391   6.521   5.654
10565SOL    HW232595   6.525   6.468   5.730
10566SOL     OW32596   3.158   1.795   6.718
10566SOL    HW132597   3.227   1.865   6.700
10566SOL    HW232598   3.172   1.717   6.657
10567SOL     OW32599   2.341   2.755   5.916
10567SOL    HW132600   2.390   2.755   5.829
10567SOL    HW232601   2.392   2.699   5.982
10568SOL     OW32602   5.689   2.584   0.726
10568SOL    HW132603   5.595   2.580   0.690
10568SOL    HW232604   5.697   2.523   0.805
10569SOL     OW32605   5.650   0.616   1.861
10569SOL    HW132606   5.664   0.695   1.800
10569SOL    HW232607   5.725   0.611   1.927
10570SOL     OW32608   1.344   4.473   3.292
10570SOL    HW132609   1.285   4.520   3.227
10570SOL    HW232610   1.322   4.376   3.293
10571SOL     OW32611   7.012   4.013   5.249
10571SOL    HW132612   6.923   4.052   5.225
10571SOL    HW232613   0.055   4.060   5.198
10572SOL     OW32614   0.158   5.205   2.932
10572SOL    HW132615   0.152   5.192   3.031
10572SOL    HW232616   0.254   5.212   2.904
10573SOL     OW32617   5.109   0.470   4.992
10573SOL    HW132618   5.106   0.473   4.892
10573SOL    HW232619   5.031   0.419   5.027
10574SOL     OW32620   6.689   1.418   4.093
10574SOL    HW132621   6.731   1.342   4.142
10574SOL    HW232622   6.756   1.493   4.084
10575SOL     OW32623   6.713   1.088   3.736
10575SOL    HW132624   6.705   1.087   3.636
10575SOL    HW232625   6.625   1.113   3.776
10576SOL     OW32626   0.771   5.789   2.876
10576SOL    HW132627   0.799   5.693   2.882
10576SOL    HW232628   0.715   5.812   2.955
10577SOL     OW32629   1.870   4.432   0.129
10577SOL    HW132630   1.964   4.397   0.137
10577SOL    HW232631   1.860   4.512   0.189
10578SOL     OW32632   4.706   1.130   3.351
10578SOL    HW132633   4.783   1.166   3.403
10578SOL    HW232634   4.740   1.069   3.279
10579SOL     OW32635   3.681   3.004   1.309
10579SOL    HW132636   3.653   3.050   1.226
10579SOL    HW232637   3.620   3.030   1.384
10580SOL     OW32638   5.934   6.273   5.714
10580SOL    HW132639   6.006   6.250   5.648
10580SOL    HW232640   5.929   6.201   5.783
10581SOL     OW32641   5.889   0.462   2.310
10581SOL    HW132642   5.842   0.488   2.394
10581SOL    HW232643   5.963   0.398   2.331
10582SOL     OW32644   4.795   4.726   6.477
10582SOL    HW132645   4.840   4.757   6.561
10582SOL    HW232646   4.792   4.801   6.411
10583SOL     OW32647   4.632   0.075   4.195
10583SOL    HW132648   4.657   0.086   4.099
10583SOL    HW232649   4.658   0.156   4.246
10584SOL     OW32650   6.406   6.912   6.798
10584SOL    HW132651   6.371   7.006   6.796
10584SOL    HW232652   6.331   6.848   6.781
10585SOL     OW32653   2.259   2.137   5.772
10585SOL    HW132654   2.181   2.098   5.722
10585SOL    HW232655   2.278   2.229   5.738
10586SOL     OW32656   4.898   5.084   5.773
10586SOL    HW132657   4.830   5.065   5.844
10586SOL    HW232658   4.852   5.113   5.689
10587SOL     OW32659   6.408   5.346   6.918
10587SOL    HW132660   6.314   5.375   6.904
10587SOL    HW232661   6.422   5.324   7.015
10588SOL     OW32662   1.959   1.772   4.816
10588SOL    HW132663   1.944   1.871   4.814
10588SOL    HW232664   1.877   1.725   4.782
10589SOL     OW32665   5.076   0.216   4.694
10589SOL    HW132666   5.071   0.314   4.715
10589SOL    HW232667   5.017   0.166   4.757
10590SOL     OW32668   0.429   6.631   1.439
10590SOL    HW132669   0.464   6.706   1.383
10590SOL    HW232670   0.404   6.555   1.380
10591SOL     OW32671   2.358   1.689   1.191
10591SOL    HW132672   2.267   1.652   1.210
10591SOL    HW232673   2.427   1.627   1.230
10592SOL     OW32674   5.639   3.514   4.511
10592SOL    HW132675   5.659   3.601   4.558
10592SOL    HW232676   5.541   3.511   4.488
10593SOL     OW32677   2.456   6.046   0.609
10593SOL    HW132678   2.398   6.126   0.623
10593SOL    HW232679   2.449   5.985   0.688
10594SOL     OW32680   4.980   1.862   2.963
10594SOL    HW132681   4.982   1.961   2.950
10594SOL    HW232682   4.885   1.830   2.959
10595SOL     OW32683   5.932   0.251   6.621
10595SOL    HW132684   5.855   0.273   6.681
10595SOL    HW232685   5.979   0.170   6.656
10596SOL     OW32686   4.866   0.567   0.202
10596SOL    HW132687   4.958   0.598   0.228
10596SOL    HW232688   4.799   0.635   0.229
10597SOL     OW32689   3.001   1.262   6.053
10597SOL    HW132690   3.074   1.243   5.987
10597SOL    HW232691   2.913   1.238   6.012
10598SOL     OW32692   3.515   2.257   6.353
10598SOL    HW132693   3.467   2.308   6.282
10598SOL    HW232694   3.448   2.207   6.409
10599SOL     OW32695   6.276   3.592   6.679
10599SOL    HW132696   6.354   3.534   6.654
10599SOL    HW232697   6.213   3.539   6.736
10600SOL     OW32698   3.353   2.751   1.390
10600SOL    HW132699   3.284   2.688   1.426
10600SOL    HW232700   3.444   2.714   1.408
10601SOL     OW32701   1.495   4.749   5.644
10601SOL    HW132702   1.574   4.742   5.705
10601SOL    HW232703   1.513   4.698   5.560
10602SOL     OW32704   0.988   1.004   1.286
10602SOL    HW132705   1.086   1.013   1.303
10602SOL    HW232706   0.960   1.071   1.217
10603SOL     OW32707   5.019   0.140   3.251
10603SOL    HW132708   5.050   0.092   3.332
10603SOL    HW232709   4.973   0.225   3.278
10604SOL     OW32710   6.793   5.845   5.349
10604SOL    HW132711   6.746   5.904   5.415
10604SOL    HW232712   6.760   5.751   5.358
10605SOL     OW32713   1.874   6.492   0.106
10605SOL    HW132714   1.812   6.484   0.029
10605SOL    HW232715   1.873   6.406   0.159
10606SOL     OW32716   6.747   1.330   1.519
10606SOL    HW132717   6.725   1.330   1.422
10606SOL    HW232718   6.679   1.276   1.568
10607SOL     OW32719   3.708   4.735   0.169
10607SOL    HW132720   3.638   4.806   0.171
10607SOL    HW232721   3.794   4.774   0.136
10608SOL     OW32722   0.086   3.605   3.962
10608SOL    HW132723   0.122   3.650   4.044
10608SOL    HW232724   0.103   3.507   3.967
10609SOL     OW32725   3.158   6.583   0.003
10609SOL    HW132726   3.060   6.600   0.016
10609SOL    HW232727   3.210   6.663   0.033
10610SOL     OW32728   0.410   1.671   4.118
10610SOL    HW132729   0.478   1.641   4.052
10610SOL    HW232730   0.383   1.765   4.097
10611SOL     OW32731   2.747   5.032   6.523
10611SOL    HW132732   2.783   5.021   6.431
10611SOL    HW232733   2.691   4.952   6.547
10612SOL     OW32734   5.207   2.216   4.241
10612SOL    HW132735   5.152   2.268   4.306
10612SOL    HW232736   5.147   2.173   4.174
10613SOL     OW32737   6.193   5.930   5.178
10613SOL    HW132738   6.136   5.980   5.113
10613SOL    HW232739   6.266   5.989   5.211
10614SOL     OW32740   5.333   1.201   4.560
10614SOL    HW132741   5.286   1.267   4.618
10614SOL    HW232742   5.293   1.110   4.575
10615SOL     OW32743   3.124   0.854   6.220
10615SOL    HW132744   3.173   0.887   6.301
10615SOL    HW232745   3.029   0.834   6.244
10616SOL     OW32746   3.107   6.137   0.164
10616SOL    HW132747   3.181   6.074   0.189
10616SOL    HW232748   3.130   6.184   0.079
10617SOL     OW32749   3.010   4.235   1.500
10617SOL    HW132750   3.043   4.253   1.407
10617SOL    HW232751   3.087   4.209   1.558
10618SOL     OW32752   1.726   4.755   5.794
10618SOL    HW132753   1.766   4.725   5.708
10618SOL    HW232754   1.794   4.748   5.867
10619SOL     OW32755   0.299   2.571   2.821
10619SOL    HW132756   0.296   2.654   2.875
10619SOL    HW232757   0.272   2.592   2.727
10620SOL     OW32758   1.081   0.468   5.500
10620SOL    HW132759   1.147   0.434   5.433
10620SOL    HW232760   1.009   0.519   5.453
10621SOL     OW32761   0.052   3.849   2.098
10621SOL    HW132762   0.139   3.888   2.129
10621SOL    HW232763   0.017   3.903   2.022
10622SOL     OW32764   4.446   2.475   1.865
10622SOL    HW132765   4.453   2.500   1.962
10622SOL    HW232766   4.534   2.439   1.834
10623SOL     OW32767   6.721   5.635   5.888
10623SOL    HW132768   6.751   5.542   5.909
10623SOL    HW232769   6.725   5.691   5.971
10624SOL     OW32770   0.248   2.518   5.869
10624SOL    HW132771   0.343   2.487   5.860
10624SOL    HW232772   0.204   2.517   5.779
10625SOL     OW32773   0.214   3.829   1.351
10625SOL    HW132774   0.235   3.907   1.293
10625SOL    HW232775   0.126   3.843   1.397
10626SOL     OW32776   3.516   3.017   0.802
10626SOL    HW132777   3.504   2.921   0.828
10626SOL    HW232778   3.555   3.022   0.710
10627SOL     OW32779   5.715   1.376   6.899
10627SOL    HW132780   5.738   1.290   6.854
10627SOL    HW232781   5.760   1.380   6.988
10628SOL     OW32782   4.437   0.220   1.126
10628SOL    HW132783   4.483   0.238   1.213
10628SOL    HW232784   4.351   0.171   1.143
10629SOL     OW32785   3.056   4.865   4.820
10629SOL    HW132786   3.053   4.767   4.798
10629SOL    HW232787   3.025   4.878   4.914
10630SOL     OW32788   6.379   1.592   2.062
10630SOL    HW132789   6.416   1.682   2.082
10630SOL    HW232790   6.345   1.590   1.968
10631SOL     OW32791   3.866   4.345   5.731
10631SOL    HW132792   3.964   4.329   5.739
10631SOL    HW232793   3.822   4.325   5.819
10632SOL     OW32794   5.535   6.236   3.823
10632SOL    HW132795   5.475   6.315   3.817
10632SOL    HW232796   5.628   6.267   3.844
10633SOL     OW32797   2.315   2.645   1.582
10633SOL    HW132798   2.229   2.626   1.535
10633SOL    HW232799   2.375   2.565   1.577
10634SOL     OW32800   1.870   4.792   0.556
10634SOL    HW132801   1.963   4.785   0.591
10634SOL    HW232802   1.865   4.866   0.490
10635SOL     OW32803   1.821   2.985   6.311
10635SOL    HW132804   1.777   2.929   6.241
10635SOL    HW232805   1.915   2.955   6.323
10636SOL     OW32806   0.474   2.527   1.715
10636SOL    HW132807   0.515   2.474   1.790
10636SOL    HW232808   0.500   2.623   1.724
10637SOL     OW32809   1.333   4.988   6.691
10637SOL    HW132810   1.291   5.041   6.617
10637SOL    HW232811   1.432   4.986   6.678
10638SOL     OW32812   5.361   6.263   2.935
10638SOL    HW132813   5.406   6.195   2.877
10638SOL    HW232814   5.372   6.354   2.895
10639SOL     OW32815   1.241   3.717   2.374
10639SOL    HW132816   1.306   3.723   2.298
10639SOL    HW232817   1.187   3.802   2.378
10640SOL     OW32818   4.755   0.651   3.583
10640SOL    HW132819   4.787   0.655   3.678
10640SOL    HW232820   4.789   0.567   3.540
10641SOL     OW32821   2.341   1.685   3.123
10641SOL    HW132822   2.400   1.754   3.165
10641SOL    HW232823   2.283   1.728   3.054
10642SOL     OW32824   6.261   1.364   0.453
10642SOL    HW132825   6.167   1.331   0.446
10642SOL    HW232826   6.315   1.327   0.378
10643SOL     OW32827   2.606   5.848   5.506
10643SOL    HW132828   2.535   5.840   5.436
10643SOL    HW232829   2.645   5.758   5.525
10644SOL     OW32830   5.168   3.355   0.984
10644SOL    HW132831   5.228   3.412   0.929
10644SOL    HW232832   5.213   3.333   1.071
10645SOL     OW32833   1.207   3.196   4.296
10645SOL    HW132834   1.237   3.143   4.376
10645SOL    HW232835   1.108   3.206   4.298
10646SOL     OW32836   6.971   0.596   5.964
10646SOL    HW132837   7.021   0.681   5.950
10646SOL    HW232838   6.892   0.592   5.902
10647SOL     OW32839   3.277   5.592   4.848
10647SOL    HW132840   3.242   5.679   4.813
10647SOL    HW232841   3.229   5.569   4.932
10648SOL     OW32842   5.992   4.906   6.740
10648SOL    HW132843   6.069   4.965   6.765
10648SOL    HW232844   5.940   4.949   6.666
10649SOL     OW32845   0.204   3.498   3.156
10649SOL    HW132846   0.233   3.586   3.117
10649SOL    HW232847   0.105   3.493   3.157
10650SOL     OW32848   0.841   0.581   3.876
10650SOL    HW132849   0.746   0.597   3.851
10650SOL    HW232850   0.879   0.508   3.819
10651SOL     OW32851   6.398   6.177   6.294
10651SOL    HW132852   6.467   6.241   6.328
10651SOL    HW232853   6.314   6.187   6.346
10652SOL     OW32854   2.339   6.741   6.497
10652SOL    HW132855   2.382   6.825   6.465
10652SOL    HW232856   2.313   6.751   6.593
10653SOL     OW32857   4.360   5.731   4.541
10653SOL    HW132858   4.311   5.748   4.456
10653SOL    HW232859   4.454   5.705   4.520
10654SOL     OW32860   5.073   6.994   6.741
10654SOL    HW132861   5.141   6.929   6.774
10654SOL    HW232862   5.119   0.044   6.699
10655SOL     OW32863   1.801   5.551   6.995
10655SOL    HW132864   1.732   5.498   0.016
10655SOL    HW232865   1.835   5.496   6.918
10656SOL     OW32866   0.185   1.546   2.347
10656SOL    HW132867   0.260   1.612   2.349
10656SOL    HW232868   0.199   1.481   2.273
10657SOL     OW32869   6.055   0.870   4.733
10657SOL    HW132870   6.042   0.836   4.826
10657SOL    HW232871   6.151   0.895   4.721
10658SOL     OW32872   6.737   4.660   4.774
10658SOL    HW132873   6.715   4.699   4.863
10658SOL    HW232874   6.682   4.705   4.703
10659SOL     OW32875   0.974   5.835   0.598
10659SOL    HW132876   0.933   5.807   0.511
10659SOL    HW232877   0.912   5.814   0.673
10660SOL     OW32878   5.743   3.744   6.617
10660SOL    HW132879   5.679   3.799   6.670
10660SOL    HW232880   5.712   3.649   6.613
10661SOL     OW32881   1.369   6.301   0.780
10661SOL    HW132882   1.286   6.290   0.725
10661SOL    HW232883   1.447   6.264   0.730
10662SOL     OW32884   4.625   0.449   2.356
10662SOL    HW132885   4.602   0.546   2.352
10662SOL    HW232886   4.554   0.395   2.311
10663SOL     OW32887   0.786   1.104   2.443
10663SOL    HW132888   0.806   1.067   2.534
10663SOL    HW232889   0.806   1.202   2.443
10664SOL     OW32890   6.508   4.167   5.453
10664SOL    HW132891   6.522   4.250   5.508
10664SOL    HW232892   6.412   4.140   5.458
10665SOL     OW32893   1.228   1.781   0.409
10665SOL    HW132894   1.151   1.814   0.354
10665SOL    HW232895   1.314   1.803   0.362
10666SOL     OW32896   3.201   3.969   1.655
10666SOL    HW132897   3.232   3.971   1.560
10666SOL    HW232898   3.280   3.972   1.717
10667SOL     OW32899   4.841   2.292   3.624
10667SOL    HW132900   4.820   2.373   3.569
10667SOL    HW232901   4.757   2.245   3.648
10668SOL     OW32902   3.055   1.681   5.172
10668SOL    HW132903   3.002   1.690   5.256
10668SOL    HW232904   2.999   1.709   5.094
10669SOL     OW32905   5.136   0.388   1.466
10669SOL    HW132906   5.062   0.320   1.461
10669SOL    HW232907   5.146   0.419   1.560
10670SOL     OW32908   5.656   4.982   4.935
10670SOL    HW132909   5.748   4.967   4.899
10670SOL    HW232910   5.639   4.920   5.011
10671SOL     OW32911   2.195   1.925   4.129
10671SOL    HW132912   2.104   1.899   4.159
10671SOL    HW232913   2.213   1.887   4.039
10672SOL     OW32914   6.650   4.336   1.821
10672SOL    HW132915   6.690   4.274   1.889
10672SOL    HW232916   6.625   4.422   1.865
10673SOL     OW32917   0.498   1.131   6.767
10673SOL    HW132918   0.428   1.061   6.759
10673SOL    HW232919   0.545   1.122   6.855
10674SOL     OW32920   4.000   3.510   3.378
10674SOL    HW132921   4.056   3.536   3.457
10674SOL    HW232922   4.002   3.584   3.310
10675SOL     OW32923   1.567   6.657   7.005
10675SOL    HW132924   1.629   6.589   6.964
10675SOL    HW232925   1.529   6.715   6.933
10676SOL     OW32926   6.647   6.260   5.269
10676SOL    HW132927   6.662   6.279   5.172
10676SOL    HW232928   6.640   6.346   5.320
10677SOL     OW32929   1.982   0.706   1.715
10677SOL    HW132930   2.060   0.653   1.681
10677SOL    HW232931   1.914   0.645   1.754
10678SOL     OW32932   4.777   5.763   3.906
10678SOL    HW132933   4.846   5.705   3.949
10678SOL    HW232934   4.777   5.853   3.950
10679SOL     OW32935   4.365   5.369   6.855
10679SOL    HW132936   4.350   5.384   6.757
10679SOL    HW232937   4.461   5.342   6.869
10680SOL     OW32938   3.665   2.069   4.181
10680SOL    HW132939   3.570   2.076   4.151
10680SOL    HW232940   3.676   1.988   4.239
10681SOL     OW32941   0.623   3.530   0.762
10681SOL    HW132942   0.541   3.566   0.805
10681SOL    HW232943   0.630   3.431   0.780
10682SOL     OW32944   0.633   1.400   5.185
10682SOL    HW132945   0.636   1.424   5.282
10682SOL    HW232946   0.672   1.474   5.131
10683SOL     OW32947   4.841   1.594   3.915
10683SOL    HW132948   4.774   1.614   3.843
10683SOL    HW232949   4.809   1.518   3.971
10684SOL     OW32950   5.052   5.019   3.117
10684SOL    HW132951   5.058   4.948   3.187
10684SOL    HW232952   4.970   5.074   3.133
10685SOL     OW32953   0.524   5.552   1.818
10685SOL    HW132954   0.488   5.461   1.797
10685SOL    HW232955   0.537   5.602   1.732
10686SOL     OW32956   0.845   4.456   5.522
10686SOL    HW132957   0.898   4.463   5.607
10686SOL    HW232958   0.898   4.407   5.453
10687SOL     OW32959   5.841   5.516   3.789
10687SOL    HW132960   5.873   5.488   3.879
10687SOL    HW232961   5.805   5.436   3.741
10688SOL     OW32962   6.214   3.888   2.572
10688SOL    HW132963   6.181   3.961   2.512
10688SOL    HW232964   6.314   3.888   2.575
10689SOL     OW32965   0.182   0.171   3.792
10689SOL    HW132966   0.178   0.216   3.703
10689SOL    HW232967   0.201   0.240   3.863
10690SOL     OW32968   0.294   5.781   3.968
10690SOL    HW132969   0.279   5.761   4.065
10690SOL    HW232970   0.246   5.713   3.912
10691SOL     OW32971   0.787   2.040   2.723
10691SOL    HW132972   0.695   2.023   2.759
10691SOL    HW232973   0.782   2.100   2.643
10692SOL     OW32974   2.930   6.476   4.110
10692SOL    HW132975   2.912   6.401   4.047
10692SOL    HW232976   2.891   6.561   4.074
10693SOL     OW32977   1.735   5.782   0.737
10693SOL    HW132978   1.819   5.754   0.690
10693SOL    HW232979   1.658   5.778   0.673
10694SOL     OW32980   5.390   6.617   0.623
10694SOL    HW132981   5.412   6.640   0.528
10694SOL    HW232982   5.303   6.660   0.648
10695SOL     OW32983   0.254   2.306   2.898
10695SOL    HW132984   0.252   2.406   2.901
10695SOL    HW232985   0.324   2.272   2.961
10696SOL     OW32986   6.959   4.151   3.425
10696SOL    HW132987   6.968   4.220   3.353
10696SOL    HW232988   6.941   4.196   3.512
10697SOL     OW32989   0.061   6.096   4.997
10697SOL    HW132990   0.144   6.131   4.953
10697SOL    HW232991   0.067   5.997   5.006
10698SOL     OW32992   5.348   4.336   6.582
10698SOL    HW132993   5.300   4.397   6.646
10698SOL    HW232994   5.315   4.243   6.594
10699SOL     OW32995   3.691   4.093   1.804
10699SOL    HW132996   3.717   4.179   1.759
10699SOL    HW232997   3.715   4.016   1.744
10700SOL     OW32998   6.129   6.924   0.613
10700SOL    HW132999   6.123   6.960   0.707
10700SOL    HW233000   6.213   6.957   0.571
10701SOL     OW33001   2.988   6.640   6.675
10701SOL    HW133002   2.923   6.594   6.735
10701SOL    HW233003   3.025   6.721   6.722
10702SOL     OW33004   5.290   3.000   1.648
10702SOL    HW133005   5.190   3.000   1.640
10702SOL    HW233006   5.330   3.037   1.564
10703SOL     OW33007   3.101   3.307   4.882
10703SOL    HW133008   3.117   3.208   4.880
10703SOL    HW233009   3.047   3.330   4.963
10704SOL     OW33010   6.222   5.688   1.611
10704SOL    HW133011   6.300   5.751   1.611
10704SOL    HW233012   6.199   5.664   1.705
10705SOL     OW33013   5.930   4.803   1.874
10705SOL    HW133014   5.867   4.730   1.902
10705SOL    HW233015   5.969   4.781   1.785
10706SOL     OW33016   5.386   0.522   2.357
10706SOL    HW133017   5.452   0.447   2.347
10706SOL    HW233018   5.379   0.571   2.270
10707SOL     OW33019   7.012   6.908   4.325
10707SOL    HW133020   0.059   6.954   4.372
10707SOL    HW233021   0.001   6.809   4.323
10708SOL     OW33022   4.432   0.960   2.057
10708SOL    HW133023   4.378   0.909   2.124
10708SOL    HW233024   4.500   1.016   2.104
10709SOL     OW33025   5.748   5.487   5.473
10709SOL    HW133026   5.801   5.454   5.551
10709SOL    HW233027   5.779   5.578   5.448
10710SOL     OW33028   0.063   0.246   4.189
10710SOL    HW133029   0.001   0.168   4.204
10710SOL    HW233030   0.139   0.241   4.254
10711SOL     OW33031   1.714   6.771   4.650
10711SOL    HW133032   1.675   6.863   4.652
10711SOL    HW233033   1.728   6.743   4.555
10712SOL     OW33034   3.119   0.815   1.859
10712SOL    HW133035   3.147   0.742   1.920
10712SOL    HW233036   3.200   0.853   1.813
10713SOL     OW33037   0.585   3.645   1.937
10713SOL    HW133038   0.540   3.681   1.855
10713SOL    HW233039   0.532   3.569   1.974
10714SOL     OW33040   6.118   3.799   4.430
10714SOL    HW133041   6.140   3.792   4.333
10714SOL    HW233042   6.051   3.872   4.443
10715SOL     OW33043   4.976   0.661   2.767
10715SOL    HW133044   4.984   0.576   2.716
10715SOL    HW233045   5.064   0.709   2.766
10716SOL     OW33046   5.829   2.251   4.078
10716SOL    HW133047   5.760   2.206   4.020
10716SOL    HW233048   5.914   2.199   4.074
10717SOL     OW33049   1.492   1.997   1.133
10717SOL    HW133050   1.420   1.939   1.096
10717SOL    HW233051   1.457   2.048   1.212
10718SOL     OW33052   1.223   3.216   6.376
10718SOL    HW133053   1.176   3.154   6.313
10718SOL    HW233054   1.306   3.172   6.410
10719SOL     OW33055   6.552   5.791   2.657
10719SOL    HW133056   6.495   5.758   2.582
10719SOL    HW233057   6.493   5.821   2.732
10720SOL     OW33058   0.664   4.412   4.704
10720SOL    HW133059   0.761   4.395   4.686
10720SOL    HW233060   0.654   4.459   4.792
10721SOL     OW33061   5.738   4.079   5.302
10721SOL    HW133062   5.640   4.085   5.284
10721SOL    HW233063   5.776   4.171   5.309
10722SOL     OW33064   0.807   4.842   0.327
10722SOL    HW133065   0.763   4.821   0.415
10722SOL    HW233066   0.901   4.809   0.329
10723SOL     OW33067   0.299   3.490   6.175
10723SOL    HW133068   0.279   3.561   6.108
10723SOL    HW233069   0.339   3.411   6.128
10724SOL     OW33070   5.991   1.114   6.880
10724SOL    HW133071   5.907   1.153   6.841
10724SOL    HW233072   5.979   1.099   6.978
10725SOL     OW33073   0.745   5.155   4.744
10725SOL    HW133074   0.669   5.157   4.810
10725SOL    HW233075   0.718   5.102   4.664
10726SOL     OW33076   5.071   6.870   5.471
10726SOL    HW133077   5.108   6.779   5.492
10726SOL    HW233078   5.013   6.864   5.390
10727SOL     OW33079   0.384   4.945   5.167
10727SOL    HW133080   0.455   4.908   5.107
10727SOL    HW233081   0.383   4.893   5.253
10728SOL     OW33082   6.960   6.048   0.047
10728SOL    HW133083   6.934   5.963   0.093
10728SOL    HW233084   6.952   6.036   6.977
10729SOL     OW33085   5.461   1.031   1.566
10729SOL    HW133086   5.414   1.020   1.653
10729SOL    HW233087   5.416   1.102   1.512
10730SOL     OW33088   2.192   0.527   1.620
10730SOL    HW133089   2.231   0.437   1.639
10730SOL    HW233090   2.265   0.590   1.591
10731SOL     OW33091   3.113   5.973   0.889
10731SOL    HW133092   3.075   5.900   0.946
10731SOL    HW233093   3.159   6.040   0.947
10732SOL     OW33094   5.661   5.057   3.752
10732SOL    HW133095   5.656   5.053   3.653
10732SOL    HW233096   5.574   5.091   3.789
10733SOL     OW33097   6.481   1.517   1.129
10733SOL    HW133098   6.539   1.579   1.076
10733SOL    HW233099   6.537   1.447   1.173
10734SOL     OW33100   1.112   0.496   7.028
10734SOL    HW133101   1.097   0.570   0.066
10734SOL    HW233102   1.026   0.475   6.982
10735SOL     OW33103   1.628   3.230   3.404
10735SOL    HW133104   1.544   3.186   3.373
10735SOL    HW233105   1.605   3.300   3.472
10736SOL     OW33106   1.319   0.555   2.713
10736SOL    HW133107   1.237   0.498   2.711
10736SOL    HW233108   1.301   0.638   2.767
10737SOL     OW33109   2.137   1.706   0.633
10737SOL    HW133110   2.222   1.738   0.591
10737SOL    HW233111   2.153   1.619   0.679
10738SOL     OW33112   3.075   0.330   3.314
10738SOL    HW133113   3.137   0.323   3.235
10738SOL    HW233114   3.099   0.259   3.380
10739SOL     OW33115   0.518   1.489   1.173
10739SOL    HW133116   0.467   1.427   1.232
10739SOL    HW233117   0.529   1.448   1.083
10740SOL     OW33118   0.325   4.452   5.402
10740SOL    HW133119   0.421   4.461   5.377
10740SOL    HW233120   0.269   4.453   5.319
10741SOL     OW33121   6.523   0.052   1.165
10741SOL    HW133122   6.565   0.001   1.090
10741SOL    HW233123   6.443   0.001   1.199
10742SOL     OW33124   5.590   0.703   0.985
10742SOL    HW133125   5.560   0.608   0.976
10742SOL    HW233126   5.624   0.719   1.077
10743SOL     OW33127   2.716   1.675   4.909
10743SOL    HW133128   2.693   1.768   4.937
10743SOL    HW233129   2.808   1.674   4.870
10744SOL     OW33130   3.845   1.500   1.123
10744SOL    HW133131   3.822   1.522   1.218
10744SOL    HW233132   3.818   1.405   1.104
10745SOL     OW33133   0.202   5.524   0.153
10745SOL    HW133134   0.175   5.621   0.151
10745SOL    HW233135   0.297   5.515   0.124
10746SOL     OW33136   2.057   4.393   0.881
10746SOL    HW133137   1.963   4.416   0.907
10746SOL    HW233138   2.120   4.423   0.952
10747SOL     OW33139   4.606   0.878   3.561
10747SOL    HW133140   4.618   0.917   3.470
10747SOL    HW233141   4.641   0.784   3.563
10748SOL     OW33142   4.387   1.142   1.559
10748SOL    HW133143   4.393   1.236   1.592
10748SOL    HW233144   4.367   1.081   1.635
10749SOL     OW33145   0.524   5.797   3.415
10749SOL    HW133146   0.541   5.835   3.505
10749SOL    HW233147   0.571   5.709   3.406
10750SOL     OW33148   4.486   6.149   5.166
10750SOL    HW133149   4.438   6.096   5.096
10750SOL    HW233150   4.583   6.156   5.142
10751SOL     OW33151   1.785   4.394   3.982
10751SOL    HW133152   1.809   4.363   4.074
10751SOL    HW233153   1.712   4.335   3.946
10752SOL     OW33154   5.712   4.199   6.499
10752SOL    HW133155   5.640   4.197   6.429
10752SOL    HW233156   5.763   4.113   6.497
10753SOL     OW33157   4.551   6.434   4.370
10753SOL    HW133158   4.465   6.478   4.399
10753SOL    HW233159   4.582   6.476   4.285
10754SOL     OW33160   1.200   1.264   3.466
10754SOL    HW133161   1.134   1.231   3.533
10754SOL    HW233162   1.160   1.260   3.374
10755SOL     OW33163   0.101   0.927   6.526
10755SOL    HW133164   0.189   0.972   6.535
10755SOL    HW233165   0.029   0.995   6.513
10756SOL     OW33166   0.182   4.481   0.329
10756SOL    HW133167   0.131   4.542   0.269
10756SOL    HW233168   0.279   4.486   0.307
10757SOL     OW33169   0.969   2.752   0.376
10757SOL    HW133170   1.054   2.770   0.427
10757SOL    HW233171   0.969   2.806   0.291
10758SOL     OW33172   0.521   6.960   4.361
10758SOL    HW133173   0.520   6.945   4.460
10758SOL    HW233174   0.558   0.022   4.341
10759SOL     OW33175   1.620   2.971   1.458
10759SOL    HW133176   1.656   2.942   1.370
10759SOL    HW233177   1.579   3.062   1.450
10760SOL     OW33178   6.519   1.312   1.793
10760SOL    HW133179   6.540   1.229   1.742
10760SOL    HW233180   6.507   1.289   1.890
10761SOL     OW33181   1.069   1.009   6.268
10761SOL    HW133182   1.117   0.984   6.352
10761SOL    HW233183   0.970   1.001   6.281
10762SOL     OW33184   4.323   1.707   4.516
10762SOL    HW133185   4.261   1.785   4.519
10762SOL    HW233186   4.405   1.731   4.464
10763SOL     OW33187   5.129   6.484   2.622
10763SOL    HW133188   5.085   6.433   2.695
10763SOL    HW233189   5.101   6.447   2.533
10764SOL     OW33190   5.431   2.564   5.960
10764SOL    HW133191   5.469   2.632   5.897
10764SOL    HW233192   5.335   2.587   5.980
10765SOL     OW33193   5.503   2.190   0.489
10765SOL    HW133194   5.418   2.233   0.461
10765SOL    HW233195   5.571   2.200   0.417
10766SOL     OW33196   4.737   3.854   1.360
10766SOL    HW133197   4.785   3.855   1.448
10766SOL    HW233198   4.772   3.928   1.302
10767SOL     OW33199   1.073   0.695   0.209
10767SOL    HW133200   1.116   0.656   0.290
10767SOL    HW233201   1.032   0.783   0.232
10768SOL     OW33202   4.943   4.407   1.423
10768SOL    HW133203   4.925   4.315   1.388
10768SOL    HW233204   4.868   4.435   1.483
10769SOL     OW33205   2.709   4.752   4.884
10769SOL    HW133206   2.725   4.849   4.900
10769SOL    HW233207   2.782   4.699   4.928
10770SOL     OW33208   5.540   0.842   5.210
10770SOL    HW133209   5.492   0.893   5.282
10770SOL    HW233210   5.476   0.778   5.166
10771SOL     OW33211   5.405   1.477   3.054
10771SOL    HW133212   5.424   1.403   3.119
10771SOL    HW233213   5.306   1.483   3.039
10772SOL     OW33214   6.719   6.931   4.738
10772SOL    HW133215   6.692   6.949   4.643
10772SOL    HW233216   6.722   6.832   4.753
10773SOL     OW33217   6.789   5.504   6.921
10773SOL    HW133218   6.775   5.587   6.976
10773SOL    HW233219   6.820   5.529   6.830
10774SOL     OW33220   1.975   1.864   6.376
10774SOL    HW133221   1.975   1.964   6.372
10774SOL    HW233222   2.038   1.833   6.446
10775SOL     OW33223   6.919   4.750   1.234
10775SOL    HW133224   6.971   4.730   1.151
10775SOL    HW233225   6.846   4.683   1.245
10776SOL     OW33226   0.451   7.013   6.723
10776SOL    HW133227   0.407   7.014   6.813
10776SOL    HW233228   0.390   0.026   6.655
10777SOL     OW33229   3.389   5.684   3.197
10777SOL    HW133230   3.373   5.754   3.127
10777SOL    HW233231   3.306   5.673   3.253
10778SOL     OW33232   5.773   0.004   4.411
10778SOL    HW133233   5.741   6.985   4.329
10778SOL    HW233234   5.730   6.992   4.492
10779SOL     OW33235   6.440   4.463   3.604
10779SOL    HW133236   6.456   4.408   3.522
10779SOL    HW233237   6.523   4.464   3.660
10780SOL     OW33238   2.089   0.852   3.743
10780SOL    HW133239   2.037   0.889   3.666
10780SOL    HW233240   2.054   0.761   3.766
10781SOL     OW33241   4.333   0.677   3.414
10781SOL    HW133242   4.355   0.712   3.505
10781SOL    HW233243   4.282   0.591   3.423
10782SOL     OW33244   5.727   1.882   2.195
10782SOL    HW133245   5.803   1.919   2.143
10782SOL    HW233246   5.697   1.796   2.154
10783SOL     OW33247   0.815   3.171   3.484
10783SOL    HW133248   0.868   3.212   3.411
10783SOL    HW233249   0.731   3.132   3.446
10784SOL     OW33250   3.766   0.021   4.651
10784SOL    HW133251   3.770   0.091   4.723
10784SOL    HW233252   3.833   0.043   4.580
10785SOL     OW33253   0.271   4.617   1.881
10785SOL    HW133254   0.242   4.704   1.919
10785SOL    HW233255   0.256   4.617   1.782
10786SOL     OW33256   5.394   4.917   3.149
10786SOL    HW133257   5.353   4.971   3.222
10786SOL    HW233258   5.455   4.975   3.095
10787SOL     OW33259   1.881   1.357   4.486
10787SOL    HW133260   1.808   1.338   4.553
10787SOL    HW233261   1.963   1.386   4.534
10788SOL     OW33262   1.976   4.434   6.226
10788SOL    HW133263   2.061   4.395   6.190
10788SOL    HW233264   1.909   4.361   6.238
10789SOL     OW33265   0.406   2.967   6.456
10789SOL    HW133266   0.336   2.983   6.525
10789SOL    HW233267   0.364   2.938   6.371
10790SOL     OW33268   1.150   0.969   1.633
10790SOL    HW133269   1.106   0.908   1.567
10790SOL    HW233270   1.228   0.922   1.675
10791SOL     OW33271   0.800   0.021   1.058
10791SOL    HW133272   0.703   0.044   1.046
10791SOL    HW233273   0.848   0.100   1.094
10792SOL     OW33274   3.172   3.955   3.661
10792SOL    HW133275   3.158   4.047   3.625
10792SOL    HW233276   3.162   3.957   3.761
10793SOL     OW33277   6.056   3.399   4.260
10793SOL    HW133278   6.104   3.320   4.297
10793SOL    HW233279   6.025   3.457   4.335
10794SOL     OW33280   3.057   3.871   3.344
10794SOL    HW133281   3.096   3.923   3.269
10794SOL    HW233282   2.982   3.815   3.310
10795SOL     OW33283   6.439   4.575   2.748
10795SOL    HW133284   6.415   4.651   2.809
10795SOL    HW233285   6.519   4.527   2.786
10796SOL     OW33286   5.623   6.888   0.224
10796SOL    HW133287   5.692   6.877   0.296
10796SOL    HW233288   5.562   6.963   0.247
10797SOL     OW33289   4.271   2.892   1.599
10797SOL    HW133290   4.336   2.816   1.591
10797SOL    HW233291   4.178   2.857   1.600
10798SOL     OW33292   2.644   6.123   0.423
10798SOL    HW133293   2.568   6.091   0.478
10798SOL    HW233294   2.722   6.144   0.482
10799SOL     OW33295   3.722   0.970   1.883
10799SOL    HW133296   3.758   1.002   1.971
10799SOL    HW233297   3.622   0.980   1.883
10800SOL     OW33298   0.818   6.732   6.087
10800SOL    HW133299   0.812   6.640   6.125
10800SOL    HW233300   0.907   6.772   6.110
10801SOL     OW33301   0.412   5.824   5.769
10801SOL    HW133302   0.321   5.839   5.729
10801SOL    HW233303   0.407   5.834   5.868
10802SOL     OW33304   0.567   1.643   3.070
10802SOL    HW133305   0.628   1.687   3.136
10802SOL    HW233306   0.479   1.624   3.112
10803SOL     OW33307   3.052   4.072   6.366
10803SOL    HW133308   3.070   4.130   6.447
10803SOL    HW233309   3.052   4.129   6.284
10804SOL     OW33310   5.917   3.367   1.853
10804SOL    HW133311   5.880   3.344   1.763
10804SOL    HW233312   5.981   3.296   1.882
10805SOL     OW33313   4.279   6.835   6.887
10805SOL    HW133314   4.252   6.742   6.912
10805SOL    HW233315   4.368   6.856   6.927
10806SOL     OW33316   4.732   3.758   6.025
10806SOL    HW133317   4.753   3.856   6.022
10806SOL    HW233318   4.658   3.738   5.961
10807SOL     OW33319   1.064   6.938   2.282
10807SOL    HW133320   1.009   6.872   2.231
10807SOL    HW233321   1.078   7.020   2.226
10808SOL     OW33322   0.210   3.151   5.704
10808SOL    HW133323   0.254   3.092   5.636
10808SOL    HW233324   0.277   3.215   5.742
10809SOL     OW33325   2.759   4.936   3.342
10809SOL    HW133326   2.818   4.984   3.406
10809SOL    HW233327   2.814   4.903   3.265
10810SOL     OW33328   1.566   0.130   4.310
10810SOL    HW133329   1.553   0.037   4.275
10810SOL    HW233330   1.477   0.172   4.328
10811SOL     OW33331   3.957   4.500   6.463
10811SOL    HW133332   3.958   4.599   6.451
10811SOL    HW233333   4.037   4.460   6.419
10812SOL     OW33334   0.647   4.038   0.750
10812SOL    HW133335   0.675   4.014   0.843
10812SOL    HW233336   0.547   4.037   0.744
10813SOL     OW33337   2.328   4.709   6.478
10813SOL    HW133338   2.398   4.649   6.517
10813SOL    HW233339   2.360   4.744   6.390
10814SOL     OW33340   1.407   6.689   6.546
10814SOL    HW133341   1.385   6.752   6.472
10814SOL    HW233342   1.503   6.701   6.571
10815SOL     OW33343   4.486   4.627   3.412
10815SOL    HW133344   4.539   4.706   3.380
10815SOL    HW233345   4.530   4.543   3.382
10816SOL     OW33346   3.062   3.010   2.792
10816SOL    HW133347   3.060   3.014   2.692
10816SOL    HW233348   3.023   3.094   2.830
10817SOL     OW33349   4.483   0.347   3.465
10817SOL    HW133350   4.491   0.419   3.533
10817SOL    HW233351   4.551   0.276   3.483
10818SOL     OW33352   4.429   4.375   5.482
10818SOL    HW133353   4.386   4.298   5.529
10818SOL    HW233354   4.477   4.432   5.547
10819SOL     OW33355   6.608   4.941   6.323
10819SOL    HW133356   6.525   4.993   6.301
10819SOL    HW233357   6.614   4.862   6.262
10820SOL     OW33358   6.760   5.926   3.757
10820SOL    HW133359   6.716   5.897   3.842
10820SOL    HW233360   6.844   5.874   3.743
10821SOL     OW33361   5.565   0.042   2.354
10821SOL    HW133362   5.552   0.141   2.354
10821SOL    HW233363   5.555   0.007   2.447
10822SOL     OW33364   6.954   3.252   3.110
10822SOL    HW133365   6.870   3.216   3.153
10822SOL    HW233366   7.016   3.176   3.091
10823SOL     OW33367   1.820   6.629   1.543
10823SOL    HW133368   1.802   6.661   1.637
10823SOL    HW233369   1.750   6.562   1.518
10824SOL     OW33370   6.848   1.499   3.136
10824SOL    HW133371   6.802   1.576   3.092
10824SOL    HW233372   6.944   1.496   3.106
10825SOL     OW33373   2.346   0.968   6.242
10825SOL    HW133374   2.329   0.870   6.232
10825SOL    HW233375   2.297   1.018   6.170
10826SOL     OW33376   1.265   3.146   4.034
10826SOL    HW133377   1.217   3.154   4.121
10826SOL    HW233378   1.355   3.105   4.048
10827SOL     OW33379   6.829   3.169   4.097
10827SOL    HW133380   6.894   3.142   4.026
10827SOL    HW233381   6.741   3.127   4.080
10828SOL     OW33382   0.952   4.769   0.667
10828SOL    HW133383   0.959   4.868   0.656
10828SOL    HW233384   0.976   4.745   0.762
10829SOL     OW33385   4.319   2.098   0.215
10829SOL    HW133386   4.304   2.040   0.135
10829SOL    HW233387   4.263   2.066   0.291
10830SOL     OW33388   5.224   1.726   2.769
10830SOL    HW133389   5.128   1.702   2.781
10830SOL    HW233390   5.240   1.821   2.799
10831SOL     OW33391   2.714   5.742   2.833
10831SOL    HW133392   2.798   5.766   2.784
10831SOL    HW233393   2.686   5.819   2.890
10832SOL     OW33394   0.822   2.776   6.211
10832SOL    HW133395   0.910   2.774   6.165
10832SOL    HW233396   0.835   2.798   6.308
10833SOL     OW33397   0.929   0.502   2.239
10833SOL    HW133398   0.861   0.489   2.311
10833SOL    HW233399   1.015   0.532   2.279
10834SOL     OW33400   1.042   1.850   0.219
10834SOL    HW133401   1.014   1.947   0.220
10834SOL    HW233402   0.960   1.793   0.224
10835SOL     OW33403   5.435   2.463   0.647
10835SOL    HW133404   5.386   2.461   0.560
10835SOL    HW233405   5.483   2.376   0.661
10836SOL     OW33406   6.643   1.455   5.039
10836SOL    HW133407   6.549   1.443   5.006
10836SOL    HW233408   6.703   1.476   4.962
10837SOL     OW33409   6.961   5.125   1.463
10837SOL    HW133410   0.001   5.190   1.430
10837SOL    HW233411   6.870   5.154   1.432
10838SOL     OW33412   6.104   5.403   4.409
10838SOL    HW133413   6.046   5.328   4.442
10838SOL    HW233414   6.132   5.385   4.315
10839SOL     OW33415   4.347   3.147   1.708
10839SOL    HW133416   4.340   3.069   1.646
10839SOL    HW233417   4.424   3.133   1.771
10840SOL     OW33418   2.325   5.857   2.681
10840SOL    HW133419   2.267   5.814   2.612
10840SOL    HW233420   2.418   5.821   2.674
10841SOL     OW33421   5.931   5.131   6.131
10841SOL    HW133422   5.999   5.126   6.058
10841SOL    HW233423   5.948   5.058   6.196
10842SOL     OW33424   4.850   2.645   1.914
10842SOL    HW133425   4.875   2.739   1.940
10842SOL    HW233426   4.908   2.615   1.839
10843SOL     OW33427   1.162   1.816   1.596
10843SOL    HW133428   1.186   1.765   1.678
10843SOL    HW233429   1.129   1.753   1.526
10844SOL     OW33430   0.227   7.020   3.452
10844SOL    HW133431   0.152   6.959   3.476
10844SOL    HW233432   0.273   0.021   3.536
10845SOL     OW33433   3.013   0.288   5.403
10845SOL    HW133434   3.008   0.345   5.321
10845SOL    HW233435   2.992   0.344   5.483
10846SOL     OW33436   5.135   1.477   0.240
10846SOL    HW133437   5.197   1.445   0.169
10846SOL    HW233438   5.097   1.398   0.289
10847SOL     OW33439   3.655   3.227   6.540
10847SOL    HW133440   3.600   3.303   6.574
10847SOL    HW233441   3.623   3.141   6.579
10848SOL     OW33442   2.981   3.825   6.786
10848SOL    HW133443   3.062   3.821   6.727
10848SOL    HW233444   2.992   3.899   6.853
10849SOL     OW33445   1.894   5.527   3.761
10849SOL    HW133446   1.930   5.615   3.792
10849SOL    HW233447   1.938   5.453   3.811
10850SOL     OW33448   2.529   5.449   0.053
10850SOL    HW133449   2.553   5.530   0.107
10850SOL    HW233450   2.541   5.470   6.984
10851SOL     OW33451   1.822   3.453   6.805
10851SOL    HW133452   1.817   3.355   6.824
10851SOL    HW233453   1.852   3.502   6.887
10852SOL     OW33454   1.448   0.253   6.913
10852SOL    HW133455   1.440   0.182   6.842
10852SOL    HW233456   1.543   0.264   6.940
10853SOL     OW33457   1.576   2.192   4.921
10853SOL    HW133458   1.660   2.182   4.868
10853SOL    HW233459   1.555   2.289   4.933
10854SOL     OW33460   4.490   4.868   5.331
10854SOL    HW133461   4.472   4.940   5.398
10854SOL    HW233462   4.429   4.880   5.252
10855SOL     OW33463   3.511   0.254   0.896
10855SOL    HW133464   3.570   0.174   0.897
10855SOL    HW233465   3.499   0.286   0.802
10856SOL     OW33466   5.412   1.623   0.511
10856SOL    HW133467   5.463   1.547   0.471
10856SOL    HW233468   5.331   1.642   0.455
10857SOL     OW33469   6.355   2.557   2.978
10857SOL    HW133470   6.426   2.490   2.996
10857SOL    HW233471   6.329   2.552   2.881
10858SOL     OW33472   1.124   1.580   6.373
10858SOL    HW133473   1.124   1.652   6.304
10858SOL    HW233474   1.130   1.490   6.329
10859SOL     OW33475   1.272   4.550   4.605
10859SOL    HW133476   1.263   4.482   4.678
10859SOL    HW233477   1.226   4.517   4.523
10860SOL     OW33478   6.862   1.554   5.623
10860SOL    HW133479   6.861   1.458   5.651
10860SOL    HW233480   6.856   1.559   5.523
10861SOL     OW33481   3.531   3.340   3.234
10861SOL    HW133482   3.474   3.267   3.197
10861SOL    HW233483   3.604   3.361   3.169
10862SOL     OW33484   2.391   1.664   6.607
10862SOL    HW133485   2.457   1.738   6.597
10862SOL    HW233486   2.435   1.586   6.652
10863SOL     OW33487   3.693   0.710   3.595
10863SOL    HW133488   3.618   0.773   3.612
10863SOL    HW233489   3.720   0.716   3.499
10864SOL     OW33490   2.416   5.708   1.096
10864SOL    HW133491   2.480   5.636   1.069
10864SOL    HW233492   2.327   5.668   1.116
10865SOL     OW33493   6.801   1.170   2.150
10865SOL    HW133494   6.845   1.139   2.066
10865SOL    HW233495   6.714   1.215   2.128
10866SOL     OW33496   5.233   4.638   0.919
10866SOL    HW133497   5.221   4.630   0.820
10866SOL    HW233498   5.330   4.649   0.940
10867SOL     OW33499   3.688   4.352   6.913
10867SOL    HW133500   3.673   4.425   6.846
10867SOL    HW233501   3.600   4.310   6.937
10868SOL     OW33502   4.043   2.143   4.037
10868SOL    HW133503   4.009   2.182   3.951
10868SOL    HW233504   4.027   2.045   4.038
10869NA      NA33505   6.936   2.069   5.317
10870NA      NA33506   4.451   4.484   5.292
10871NA      NA33507   2.060   3.574   2.256
10872NA      NA33508   5.061   3.911   4.617
10873NA      NA33509   4.349   2.420   5.195
10874NA      NA33510   3.264   4.721   1.572
10875NA      NA33511   0.125   4.373   0.549
10876NA      NA33512   3.188   3.760   3.531
10877NA      NA33513   5.180   5.534   0.466
10878NA      NA33514   2.945   0.030   5.492
10879NA      NA33515   6.035   5.349   1.539
10880NA      NA33516   2.172   0.483   4.540
10881NA      NA33517   3.668   5.139   2.371
10882NA      NA33518   3.955   3.524   2.053
   7.02862   7.02862   7.02862
