Generated by trjconv : CNT in water t= 182.00000
33518
    1C        C    1   2.845   2.768   4.747
    1C        C    2   2.902   2.723   4.868
    1C        C    3   2.842   2.769   4.986
    1C        C    4   2.852   2.778   4.259
    1C        C    5   2.905   2.730   4.381
    1C        C    6   2.847   2.774   4.502
    1C        C    7   3.008   2.636   4.623
    1C        C    8   2.897   2.723   4.624
    1C        C    9   3.073   2.596   4.742
    1C        C   10   3.007   2.629   4.862
    1C        C   11   3.179   2.486   4.973
    1C        C   12   3.061   2.561   4.972
    1C        C   13   2.853   2.769   3.769
    1C        C   14   2.903   2.722   3.893
    1C        C   15   2.850   2.769   4.015
    1C        C   16   3.015   2.640   4.136
    1C        C   17   2.903   2.725   4.138
    1C        C   18   3.079   2.609   4.259
    1C        C   19   3.019   2.645   4.381
    1C        C   20   3.207   2.551   4.502
    1C        C   21   3.077   2.605   4.503
    1C        C   22   3.276   2.527   4.623
    1C        C   23   3.204   2.541   4.744
    1C        C   24   3.411   2.477   4.864
    1C        C   25   3.269   2.499   4.863
    1C        C   26   3.487   2.483   4.981
    1C        C   27   2.850   2.771   3.282
    1C        C   28   2.907   2.725   3.403
    1C        C   29   2.860   2.777   3.526
    1C        C   30   3.021   2.637   3.646
    1C        C   31   2.911   2.727   3.648
    1C        C   32   3.078   2.601   3.770
    1C        C   33   3.019   2.642   3.892
    1C        C   34   3.207   2.547   4.015
    1C        C   35   3.079   2.606   4.015
    1C        C   36   3.272   2.520   4.138
    1C        C   37   3.206   2.548   4.259
    1C        C   38   3.415   2.503   4.379
    1C        C   39   3.276   2.528   4.381
    1C        C   40   3.485   2.495   4.501
    1C        C   41   3.413   2.493   4.623
    1C        C   42   3.627   2.468   4.741
    1C        C   43   3.485   2.472   4.743
    1C        C   44   3.701   2.479   4.861
    1C        C   45   3.626   2.478   4.980
    1C        C   46   2.841   2.759   2.791
    1C        C   47   2.896   2.713   2.913
    1C        C   48   2.847   2.762   3.036
    1C        C   49   3.018   2.642   3.159
    1C        C   50   2.901   2.720   3.160
    1C        C   51   3.079   2.603   3.281
    1C        C   52   3.017   2.637   3.403
    1C        C   53   3.208   2.540   3.526
    1C        C   54   3.080   2.598   3.524
    1C        C   55   3.275   2.519   3.649
    1C        C   56   3.208   2.545   3.771
    1C        C   57   3.415   2.506   3.892
    1C        C   58   3.275   2.524   3.893
    1C        C   59   3.486   2.495   4.014
    1C        C   60   3.412   2.496   4.135
    1C        C   61   3.624   2.497   4.256
    1C        C   62   3.483   2.492   4.256
    1C        C   63   3.697   2.499   4.377
    1C        C   64   3.626   2.495   4.499
    1C        C   65   3.830   2.541   4.619
    1C        C   66   3.697   2.493   4.621
    1C        C   67   3.898   2.562   4.741
    1C        C   68   3.836   2.521   4.861
    1C        C   69   4.049   2.581   4.977
    1C        C   70   3.919   2.529   4.974
    1C        C   71   2.828   2.736   2.308
    1C        C   72   2.887   2.695   2.430
    1C        C   73   2.837   2.753   2.549
    1C        C   74   3.008   2.625   2.672
    1C        C   75   2.894   2.708   2.670
    1C        C   76   3.072   2.592   2.794
    1C        C   77   3.009   2.628   2.915
    1C        C   78   3.205   2.545   3.036
    1C        C   79   3.075   2.601   3.037
    1C        C   80   3.273   2.522   3.158
    1C        C   81   3.208   2.545   3.281
    1C        C   82   3.412   2.489   3.402
    1C        C   83   3.274   2.517   3.403
    1C        C   84   3.483   2.485   3.524
    1C        C   85   3.414   2.494   3.647
    1C        C   86   3.625   2.492   3.769
    1C        C   87   3.484   2.494   3.770
    1C        C   88   3.696   2.502   3.890
    1C        C   89   3.627   2.494   4.013
    1C        C   90   3.834   2.542   4.133
    1C        C   91   3.697   2.506   4.135
    1C        C   92   3.901   2.565   4.255
    1C        C   93   3.832   2.539   4.376
    1C        C   94   4.023   2.631   4.497
    1C        C   95   3.895   2.573   4.498
    1C        C   96   4.086   2.667   4.619
    1C        C   97   4.025   2.626   4.739
    1C        C   98   4.187   2.758   4.861
    1C        C   99   4.096   2.648   4.860
    1C        C  100   4.212   2.836   4.975
    1C        C  101   2.823   2.732   2.069
    1C        C  102   2.985   2.587   2.190
    1C        C  103   2.874   2.677   2.188
    1C        C  104   3.063   2.571   2.309
    1C        C  105   3.004   2.616   2.429
    1C        C  106   3.199   2.531   2.549
    1C        C  107   3.069   2.588   2.551
    1C        C  108   3.268   2.512   2.671
    1C        C  109   3.201   2.534   2.793
    1C        C  110   3.410   2.493   2.912
    1C        C  111   3.271   2.515   2.915
    1C        C  112   3.481   2.487   3.034
    1C        C  113   3.412   2.497   3.157
    1C        C  114   3.623   2.496   3.277
    1C        C  115   3.482   2.488   3.279
    1C        C  116   3.692   2.510   3.400
    1C        C  117   3.624   2.494   3.523
    1C        C  118   3.831   2.536   3.643
    1C        C  119   3.694   2.501   3.646
    1C        C  120   3.896   2.563   3.766
    1C        C  121   3.832   2.539   3.890
    1C        C  122   4.021   2.639   4.009
    1C        C  123   3.901   2.565   4.011
    1C        C  124   4.082   2.675   4.132
    1C        C  125   4.023   2.636   4.254
    1C        C  126   4.190   2.765   4.376
    1C        C  127   4.084   2.672   4.376
    1C        C  128   4.240   2.815   4.498
    1C        C  129   4.190   2.763   4.619
    1C        C  130   4.319   2.932   4.740
    1C        C  131   4.239   2.815   4.741
    1C        C  132   4.350   3.000   4.860
    1C        C  133   4.279   2.958   4.973
    1C        C  134   3.170   2.470   2.078
    1C        C  135   3.035   2.507   2.083
    1C        C  136   3.256   2.471   2.189
    1C        C  137   3.193   2.514   2.308
    1C        C  138   3.403   2.471   2.426
    1C        C  139   3.265   2.500   2.429
    1C        C  140   3.478   2.475   2.546
    1C        C  141   3.407   2.490   2.668
    1C        C  142   3.621   2.485   2.787
    1C        C  143   3.480   2.483   2.789
    1C        C  144   3.692   2.495   2.909
    1C        C  145   3.622   2.490   3.032
    1C        C  146   3.829   2.531   3.154
    1C        C  147   3.692   2.497   3.154
    1C        C  148   3.897   2.558   3.275
    1C        C  149   3.829   2.544   3.397
    1C        C  150   4.023   2.623   3.521
    1C        C  151   3.895   2.564   3.520
    1C        C  152   4.080   2.663   3.644
    1C        C  153   4.020   2.631   3.767
    1C        C  154   4.191   2.765   3.886
    1C        C  155   4.080   2.678   3.887
    1C        C  156   4.244   2.812   4.008
    1C        C  157   4.195   2.759   4.129
    1C        C  158   4.330   2.921   4.253
    1C        C  159   4.240   2.812   4.252
    1C        C  160   4.364   2.984   4.375
    1C        C  161   4.323   2.929   4.499
    1C        C  162   4.432   3.114   4.615
    1C        C  163   4.365   2.990   4.619
    1C        C  164   4.461   3.181   4.736
    1C        C  165   4.424   3.120   4.858
    1C        C  166   4.518   3.317   4.968
    1C        C  167   4.477   3.184   4.971
    1C        C  168   3.473   2.437   2.073
    1C        C  169   3.396   2.453   2.189
    1C        C  170   3.618   2.468   2.304
    1C        C  171   3.476   2.461   2.305
    1C        C  172   3.690   2.484   2.423
    1C        C  173   3.619   2.475   2.545
    1C        C  174   3.827   2.530   2.664
    1C        C  175   3.692   2.490   2.665
    1C        C  176   3.891   2.560   2.787
    1C        C  177   3.827   2.535   2.910
    1C        C  178   4.022   2.620   3.029
    1C        C  179   3.895   2.559   3.032
    1C        C  180   4.080   2.659   3.151
    1C        C  181   4.023   2.623   3.275
    1C        C  182   4.193   2.748   3.397
    1C        C  183   4.083   2.660   3.398
    1C        C  184   4.241   2.802   3.519
    1C        C  185   4.189   2.752   3.641
    1C        C  186   4.330   2.916   3.761
    1C        C  187   4.242   2.806   3.760
    1C        C  188   4.373   2.975   3.883
    1C        C  189   4.332   2.922   4.007
    1C        C  190   4.442   3.102   4.125
    1C        C  191   4.371   2.979   4.131
    1C        C  192   4.461   3.169   4.248
    1C        C  193   4.429   3.109   4.372
    1C        C  194   4.503   3.312   4.489
    1C        C  195   4.459   3.178   4.492
    1C        C  196   4.512   3.386   4.609
    1C        C  197   4.506   3.316   4.732
    1C        C  198   4.554   3.533   4.847
    1C        C  199   4.531   3.391   4.849
    1C        C  200   4.582   3.620   4.957
    1C        C  201   3.612   2.420   2.070
    1C        C  202   3.825   2.510   2.179
    1C        C  203   3.691   2.460   2.182
    1C        C  204   3.897   2.537   2.298
    1C        C  205   3.829   2.511   2.419
    1C        C  206   4.016   2.617   2.539
    1C        C  207   3.891   2.550   2.540
    1C        C  208   4.077   2.659   2.660
    1C        C  209   4.017   2.623   2.782
    1C        C  210   4.187   2.748   2.907
    1C        C  211   4.080   2.656   2.905
    1C        C  212   4.241   2.796   3.029
    1C        C  213   4.192   2.745   3.151
    1C        C  214   4.327   2.909   3.273
    1C        C  215   4.242   2.796   3.274
    1C        C  216   4.369   2.970   3.393
    1C        C  217   4.329   2.913   3.516
    1C        C  218   4.427   3.102   3.634
    1C        C  219   4.366   2.975   3.637
    1C        C  220   4.458   3.167   3.755
    1C        C  221   4.433   3.102   3.878
    1C        C  222   4.497   3.303   4.001
    1C        C  223   4.466   3.165   4.001
    1C        C  224   4.508   3.374   4.122
    1C        C  225   4.499   3.305   4.245
    1C        C  226   4.517   3.520   4.365
    1C        C  227   4.512   3.379   4.365
    1C        C  228   4.516   3.596   4.484
    1C        C  229   4.523   3.526   4.607
    1C        C  230   4.504   3.741   4.724
    1C        C  231   4.536   3.602   4.725
    1C        C  232   4.497   3.821   4.840
    1C        C  233   4.541   3.754   4.955
    1C        C  234   4.016   2.612   2.059
    1C        C  235   3.892   2.548   2.062
    1C        C  236   4.081   2.651   2.176
    1C        C  237   4.018   2.612   2.297
    1C        C  238   4.193   2.738   2.420
    1C        C  239   4.078   2.654   2.418
    1C        C  240   4.247   2.787   2.541
    1C        C  241   4.191   2.742   2.663
    1C        C  242   4.327   2.906   2.783
    1C        C  243   4.240   2.794   2.785
    1C        C  244   4.368   2.964   2.905
    1C        C  245   4.327   2.907   3.027
    1C        C  246   4.434   3.090   3.146
    1C        C  247   4.367   2.966   3.150
    1C        C  248   4.457   3.159   3.267
    1C        C  249   4.428   3.099   3.392
    1C        C  250   4.502   3.301   3.512
    1C        C  251   4.457   3.167   3.512
    1C        C  252   4.516   3.370   3.634
    1C        C  253   4.500   3.302   3.757
    1C        C  254   4.521   3.513   3.877
    1C        C  255   4.513   3.372   3.879
    1C        C  256   4.511   3.586   3.998
    1C        C  257   4.512   3.516   4.121
    1C        C  258   4.491   3.727   4.242
    1C        C  259   4.519   3.589   4.242
    1C        C  260   4.474   3.803   4.360
    1C        C  261   4.491   3.735   4.482
    1C        C  262   4.426   3.939   4.600
    1C        C  263   4.471   3.806   4.603
    1C        C  264   4.396   4.009   4.719
    1C        C  265   4.430   3.946   4.841
    1C        C  266   4.315   4.128   4.957
    1C        C  267   4.389   4.010   4.958
    1C        C  268   4.261   2.777   2.063
    1C        C  269   4.195   2.734   2.179
    1C        C  270   4.344   2.890   2.297
    1C        C  271   4.249   2.784   2.299
    1C        C  272   4.383   2.952   2.418
    1C        C  273   4.339   2.894   2.539
    1C        C  274   4.445   3.079   2.659
    1C        C  275   4.373   2.958   2.660
    1C        C  276   4.469   3.151   2.779
    1C        C  277   4.439   3.087   2.901
    1C        C  278   4.504   3.289   3.023
    1C        C  279   4.462   3.154   3.024
    1C        C  280   4.519   3.361   3.144
    1C        C  281   4.496   3.295   3.267
    1C        C  282   4.516   3.508   3.387
    1C        C  283   4.510   3.367   3.387
    1C        C  284   4.513   3.579   3.510
    1C        C  285   4.525   3.512   3.633
    1C        C  286   4.496   3.723   3.751
    1C        C  287   4.519   3.584   3.755
    1C        C  288   4.476   3.791   3.873
    1C        C  289   4.487   3.725   3.997
    1C        C  290   4.419   3.926   4.113
    1C        C  291   4.470   3.794   4.119
    1C        C  292   4.392   3.995   4.233
    1C        C  293   4.424   3.935   4.357
    1C        C  294   4.322   4.123   4.476
    1C        C  295   4.396   4.003   4.478
    1C        C  296   4.280   4.185   4.596
    1C        C  297   4.317   4.127   4.720
    1C        C  298   4.195   4.311   4.837
    1C        C  299   4.274   4.192   4.839
    1C        C  300   4.167   4.401   4.945
    1C        C  301   4.350   2.883   2.058
    1C        C  302   4.469   3.067   2.173
    1C        C  303   4.393   2.946   2.176
    1C        C  304   4.479   3.140   2.295
    1C        C  305   4.452   3.075   2.418
    1C        C  306   4.514   3.281   2.533
    1C        C  307   4.480   3.144   2.539
    1C        C  308   4.511   3.354   2.654
    1C        C  309   4.502   3.288   2.779
    1C        C  310   4.527   3.499   2.898
    1C        C  311   4.516   3.358   2.901
    1C        C  312   4.522   3.572   3.018
    1C        C  313   4.523   3.502   3.141
    1C        C  314   4.487   3.713   3.262
    1C        C  315   4.516   3.575   3.262
    1C        C  316   4.473   3.785   3.383
    1C        C  317   4.487   3.718   3.507
    1C        C  318   4.430   3.923   3.628
    1C        C  319   4.475   3.789   3.628
    1C        C  320   4.396   3.989   3.748
    1C        C  321   4.423   3.923   3.870
    1C        C  322   4.318   4.110   3.989
    1C        C  323   4.390   3.989   3.990
    1C        C  324   4.276   4.168   4.111
    1C        C  325   4.325   4.120   4.234
    1C        C  326   4.184   4.283   4.351
    1C        C  327   4.282   4.181   4.354
    1C        C  328   4.134   4.338   4.471
    1C        C  329   4.188   4.292   4.593
    1C        C  330   4.025   4.435   4.710
    1C        C  331   4.136   4.347   4.712
    1C        C  332   3.970   4.491   4.827
    1C        C  333   4.053   4.482   4.940
    1C        C  334   4.556   3.262   2.062
    1C        C  335   4.538   3.123   2.061
    1C        C  336   4.542   3.347   2.173
    1C        C  337   4.518   3.276   2.293
    1C        C  338   4.524   3.493   2.410
    1C        C  339   4.530   3.351   2.412
    1C        C  340   4.517   3.564   2.531
    1C        C  341   4.514   3.495   2.654
    1C        C  342   4.493   3.706   2.769
    1C        C  343   4.522   3.568   2.775
    1C        C  344   4.468   3.772   2.891
    1C        C  345   4.490   3.709   3.016
    1C        C  346   4.419   3.910   3.136
    1C        C  347   4.468   3.777   3.138
    1C        C  348   4.388   3.975   3.258
    1C        C  349   4.421   3.916   3.383
    1C        C  350   4.317   4.101   3.501
    1C        C  351   4.393   3.982   3.505
    1C        C  352   4.270   4.159   3.620
    1C        C  353   4.318   4.107   3.742
    1C        C  354   4.179   4.266   3.864
    1C        C  355   4.276   4.163   3.865
    1C        C  356   4.126   4.316   3.985
    1C        C  357   4.175   4.267   4.108
    1C        C  358   4.009   4.401   4.227
    1C        C  359   4.126   4.322   4.228
    1C        C  360   3.954   4.448   4.348
    1C        C  361   4.020   4.422   4.470
    1C        C  362   3.827   4.519   4.590
    1C        C  363   3.957   4.464   4.589
    1C        C  364   3.760   4.544   4.712
    1C        C  365   3.837   4.538   4.830
    1C        C  366   3.625   4.591   4.945
    1C        C  367   3.763   4.571   4.944
    1C        C  368   4.506   3.561   2.052
    1C        C  369   4.523   3.486   2.170
    1C        C  370   4.496   3.703   2.286
    1C        C  371   4.514   3.563   2.288
    1C        C  372   4.483   3.777   2.406
    1C        C  373   4.499   3.704   2.526
    1C        C  374   4.420   3.904   2.647
    1C        C  375   4.477   3.774   2.646
    1C        C  376   4.388   3.969   2.768
    1C        C  377   4.418   3.904   2.890
    1C        C  378   4.316   4.091   3.010
    1C        C  379   4.388   3.969   3.012
    1C        C  380   4.274   4.151   3.131
    1C        C  381   4.313   4.094   3.254
    1C        C  382   4.177   4.255   3.374
    1C        C  383   4.274   4.152   3.377
    1C        C  384   4.119   4.303   3.494
    1C        C  385   4.172   4.261   3.618
    1C        C  386   4.007   4.391   3.739
    1C        C  387   4.123   4.310   3.742
    1C        C  388   3.946   4.429   3.861
    1C        C  389   4.007   4.392   3.983
    1C        C  390   3.818   4.491   4.104
    1C        C  391   3.947   4.433   4.104
    1C        C  392   3.752   4.517   4.226
    1C        C  393   3.824   4.504   4.346
    1C        C  394   3.618   4.555   4.470
    1C        C  395   3.757   4.531   4.468
    1C        C  396   3.544   4.569   4.589
    1C        C  397   3.619   4.559   4.709
    1C        C  398   3.409   4.549   4.837
    1C        C  399   3.548   4.574   4.830
    1C        C  400   3.345   4.507   4.954
    1C        C  401   4.495   3.699   2.046
    1C        C  402   4.451   3.911   2.162
    1C        C  403   4.485   3.774   2.164
    1C        C  404   4.412   3.976   2.282
    1C        C  405   4.436   3.910   2.405
    1C        C  406   4.325   4.094   2.523
    1C        C  407   4.397   3.972   2.525
    1C        C  408   4.277   4.147   2.645
    1C        C  409   4.316   4.090   2.768
    1C        C  410   4.172   4.248   2.885
    1C        C  411   4.272   4.148   2.889
    1C        C  412   4.120   4.296   3.007
    1C        C  413   4.174   4.251   3.130
    1C        C  414   4.003   4.376   3.250
    1C        C  415   4.121   4.299   3.252
    1C        C  416   3.939   4.412   3.371
    1C        C  417   3.999   4.376   3.495
    1C        C  418   3.815   4.480   3.614
    1C        C  419   3.942   4.418   3.617
    1C        C  420   3.751   4.508   3.737
    1C        C  421   3.817   4.487   3.860
    1C        C  422   3.609   4.532   3.985
    1C        C  423   3.749   4.508   3.982
    1C        C  424   3.539   4.540   4.107
    1C        C  425   3.612   4.536   4.229
    1C        C  426   3.401   4.548   4.351
    1C        C  427   3.542   4.551   4.351
    1C        C  428   3.332   4.544   4.474
    1C        C  429   3.403   4.556   4.595
    1C        C  430   3.194   4.516   4.720
    1C        C  431   3.334   4.545   4.718
    1C        C  432   3.127   4.492   4.843
    1C        C  433   3.207   4.487   4.957
    1C        C  434   4.383   4.120   2.051
    1C        C  435   4.445   3.994   2.049
    1C        C  436   4.301   4.160   2.160
    1C        C  437   4.332   4.093   2.282
    1C        C  438   4.176   4.244   2.400
    1C        C  439   4.280   4.148   2.401
    1C        C  440   4.124   4.297   2.520
    1C        C  441   4.176   4.246   2.641
    1C        C  442   4.005   4.375   2.764
    1C        C  443   4.122   4.296   2.762
    1C        C  444   3.940   4.409   2.885
    1C        C  445   4.004   4.377   3.006
    1C        C  446   3.809   4.463   3.129
    1C        C  447   3.940   4.410   3.128
    1C        C  448   3.746   4.497   3.251
    1C        C  449   3.814   4.477   3.373
    1C        C  450   3.605   4.521   3.495
    1C        C  451   3.745   4.501   3.494
    1C        C  452   3.539   4.536   3.619
    1C        C  453   3.611   4.533   3.740
    1C        C  454   3.399   4.541   3.860
    1C        C  455   3.541   4.540   3.862
    1C        C  456   3.330   4.533   3.983
    1C        C  457   3.398   4.534   4.107
    1C        C  458   3.193   4.497   4.234
    1C        C  459   3.329   4.534   4.230
    1C        C  460   3.126   4.482   4.357
    1C        C  461   3.196   4.504   4.478
    1C        C  462   2.999   4.426   4.601
    1C        C  463   3.127   4.486   4.600
    1C        C  464   2.932   4.395   4.722
    1C        C  465   2.993   4.440   4.842
    1C        C  466   2.798   4.343   4.958
    1C        C  467   2.905   4.433   4.954
    1C        C  468   4.121   4.287   2.044
    1C        C  469   4.188   4.248   2.161
    1C        C  470   4.004   4.371   2.278
    1C        C  471   4.124   4.295   2.279
    1C        C  472   3.937   4.402   2.398
    1C        C  473   4.003   4.371   2.519
    1C        C  474   3.813   4.463   2.641
    1C        C  475   3.942   4.406   2.641
    1C        C  476   3.744   4.491   2.762
    1C        C  477   3.812   4.469   2.884
    1C        C  478   3.605   4.514   3.005
    1C        C  479   3.744   4.487   3.006
    1C        C  480   3.537   4.527   3.128
    1C        C  481   3.608   4.524   3.250
    1C        C  482   3.395   4.533   3.372
    1C        C  483   3.536   4.528   3.372
    1C        C  484   3.325   4.527   3.495
    1C        C  485   3.398   4.537   3.616
    1C        C  486   3.192   4.491   3.741
    1C        C  487   3.328   4.529   3.739
    1C        C  488   3.129   4.466   3.865
    1C        C  489   3.194   4.495   3.987
    1C        C  490   3.003   4.410   4.112
    1C        C  491   3.129   4.474   4.110
    1C        C  492   2.943   4.377   4.236
    1C        C  493   3.001   4.417   4.358
    1C        C  494   2.826   4.299   4.481
    1C        C  495   2.938   4.385   4.481
    1C        C  496   2.769   4.258   4.604
    1C        C  497   2.816   4.312   4.725
    1C        C  498   2.661   4.166   4.842
    1C        C  499   2.750   4.276   4.845
    1C        C  500   2.598   4.120   4.958
    1C        C  501   3.999   4.354   2.040
    1C        C  502   3.812   4.463   2.155
    1C        C  503   3.941   4.405   2.156
    1C        C  504   3.740   4.483   2.275
    1C        C  505   3.808   4.458   2.396
    1C        C  506   3.604   4.504   2.518
    1C        C  507   3.743   4.481   2.520
    1C        C  508   3.533   4.513   2.640
    1C        C  509   3.606   4.519   2.760
    1C        C  510   3.395   4.522   2.882
    1C        C  511   3.536   4.524   2.883
    1C        C  512   3.324   4.520   3.005
    1C        C  513   3.396   4.530   3.126
    1C        C  514   3.191   4.480   3.251
    1C        C  515   3.326   4.521   3.249
    1C        C  516   3.125   4.462   3.375
    1C        C  517   3.189   4.489   3.498
    1C        C  518   2.997   4.406   3.623
    1C        C  519   3.122   4.471   3.621
    1C        C  520   2.939   4.366   3.746
    1C        C  521   3.001   4.404   3.867
    1C        C  522   2.834   4.279   3.993
    1C        C  523   2.945   4.365   3.991
    1C        C  524   2.789   4.232   4.119
    1C        C  525   2.835   4.286   4.241
    1C        C  526   2.690   4.131   4.363
    1C        C  527   2.778   4.241   4.362
    1C        C  528   2.648   4.076   4.486
    1C        C  529   2.684   4.145   4.604
    1C        C  530   2.575   3.963   4.730
    1C        C  531   2.633   4.093   4.725
    1C        C  532   2.539   3.901   4.853
    1C        C  533   2.535   3.995   4.961
    1C        C  534   3.615   4.552   2.035
    1C        C  535   3.748   4.507   2.038
    1C        C  536   3.535   4.536   2.152
    1C        C  537   3.601   4.513   2.275
    1C        C  538   3.390   4.516   2.397
    1C        C  539   3.532   4.522   2.398
    1C        C  540   3.321   4.500   2.518
    1C        C  541   3.391   4.510   2.640
    1C        C  542   3.183   4.479   2.763
    1C        C  543   3.321   4.511   2.763
    1C        C  544   3.118   4.458   2.886
    1C        C  545   3.187   4.483   3.007
    1C        C  546   2.997   4.393   3.131
    1C        C  547   3.124   4.454   3.130
    1C        C  548   2.937   4.361   3.255
    1C        C  549   2.998   4.401   3.377
    1C        C  550   2.830   4.277   3.501
    1C        C  551   2.939   4.367   3.500
    1C        C  552   2.779   4.229   3.624
    1C        C  553   2.829   4.278   3.747
    1C        C  554   2.693   4.120   3.871
    1C        C  555   2.781   4.231   3.871
    1C        C  556   2.661   4.062   3.995
    1C        C  557   2.698   4.124   4.117
    1C        C  558   2.591   3.945   4.241
    1C        C  559   2.655   4.070   4.240
    1C        C  560   2.564   3.882   4.365
    1C        C  561   2.586   3.948   4.487
    1C        C  562   2.530   3.749   4.612
    1C        C  563   2.558   3.888   4.612
    1C        C  564   2.521   3.680   4.735
    1C        C  565   2.522   3.759   4.854
    1C        C  566   2.534   3.548   4.975
    1C        C  567   2.523   3.686   4.974
    1C        C  568   3.326   4.470   2.038
    1C        C  569   3.395   4.509   2.153
    1C        C  570   3.184   4.468   2.278
    1C        C  571   3.321   4.505   2.274
    1C        C  572   3.113   4.451   2.398
    1C        C  573   3.182   4.472   2.519
    1C        C  574   2.987   4.395   2.644
    1C        C  575   3.114   4.458   2.642
    1C        C  576   2.932   4.350   2.766
    1C        C  577   2.995   4.388   2.887
    1C        C  578   2.823   4.268   3.012
    1C        C  579   2.938   4.350   3.010
    1C        C  580   2.774   4.220   3.135
    1C        C  581   2.830   4.269   3.255
    1C        C  582   2.696   4.111   3.379
    1C        C  583   2.781   4.223   3.380
    1C        C  584   2.653   4.056   3.503
    1C        C  585   2.690   4.119   3.624
    1C        C  586   2.590   3.936   3.753
    1C        C  587   2.654   4.063   3.748
    1C        C  588   2.562   3.872   3.876
    1C        C  589   2.595   3.937   3.997
    1C        C  590   2.531   3.738   4.124
    1C        C  591   2.569   3.874   4.121
    1C        C  592   2.517   3.674   4.249
    1C        C  593   2.526   3.746   4.370
    1C        C  594   2.507   3.535   4.495
    1C        C  595   2.513   3.676   4.493
    1C        C  596   2.515   3.466   4.618
    1C        C  597   2.520   3.538   4.739
    1C        C  598   2.534   3.326   4.858
    1C        C  599   2.526   3.467   4.861
    1C        C  600   2.530   3.249   4.975
    1C        C  601   3.195   4.424   2.043
    1C        C  602   2.981   4.385   2.159
    1C        C  603   3.117   4.429   2.159
    1C        C  604   2.920   4.352   2.284
    1C        C  605   2.984   4.393   2.403
    1C        C  606   2.812   4.268   2.526
    1C        C  607   2.921   4.359   2.525
    1C        C  608   2.765   4.215   2.648
    1C        C  609   2.822   4.262   2.768
    1C        C  610   2.679   4.108   2.893
    1C        C  611   2.767   4.219   2.891
    1C        C  612   2.642   4.053   3.017
    1C        C  613   2.681   4.114   3.139
    1C        C  614   2.580   3.927   3.263
    1C        C  615   2.646   4.052   3.261
    1C        C  616   2.556   3.865   3.388
    1C        C  617   2.585   3.933   3.509
    1C        C  618   2.520   3.734   3.634
    1C        C  619   2.560   3.869   3.633
    1C        C  620   2.512   3.663   3.756
    1C        C  621   2.523   3.737   3.877
    1C        C  622   2.508   3.530   4.008
    1C        C  623   2.513   3.671   4.001
    1C        C  624   2.513   3.460   4.131
    1C        C  625   2.514   3.533   4.251
    1C        C  626   2.541   3.324   4.376
    1C        C  627   2.519   3.463   4.374
    1C        C  628   2.560   3.256   4.498
    1C        C  629   2.539   3.326   4.619
    1C        C  630   2.601   3.119   4.742
    1C        C  631   2.555   3.254   4.739
    1C        C  632   2.619   3.047   4.863
    1C        C  633   2.565   3.113   4.978
    1C        C  634   2.780   4.302   2.050
    1C        C  635   2.891   4.388   2.048
    1C        C  636   2.740   4.231   2.165
    1C        C  637   2.804   4.270   2.284
    1C        C  638   2.671   4.105   2.406
    1C        C  639   2.759   4.215   2.407
    1C        C  640   2.634   4.046   2.529
    1C        C  641   2.672   4.108   2.650
    1C        C  642   2.575   3.921   2.775
    1C        C  643   2.636   4.048   2.773
    1C        C  644   2.557   3.855   2.898
    1C        C  645   2.582   3.925   3.019
    1C        C  646   2.519   3.723   3.148
    1C        C  647   2.558   3.859   3.141
    1C        C  648   2.506   3.655   3.271
    1C        C  649   2.524   3.728   3.390
    1C        C  650   2.506   3.520   3.517
    1C        C  651   2.507   3.661   3.514
    1C        C  652   2.509   3.451   3.641
    1C        C  653   2.504   3.522   3.763
    1C        C  654   2.538   3.318   3.889
    1C        C  655   2.507   3.456   3.888
    1C        C  656   2.553   3.249   4.012
    1C        C  657   2.535   3.320   4.133
    1C        C  658   2.607   3.120   4.255
    1C        C  659   2.559   3.253   4.255
    1C        C  660   2.640   3.058   4.377
    1C        C  661   2.606   3.122   4.499
    1C        C  662   2.716   2.941   4.625
    1C        C  663   2.633   3.055   4.620
    1C        C  664   2.756   2.879   4.745
    1C        C  665   2.695   2.926   4.865
    1C        C  666   2.743   2.867   4.983
    1C        C  667   2.676   4.022   2.051
    1C        C  668   2.676   4.106   2.164
    1C        C  669   2.579   3.913   2.287
    1C        C  670   2.639   4.041   2.284
    1C        C  671   2.552   3.849   2.410
    1C        C  672   2.577   3.917   2.531
    1C        C  673   2.513   3.715   2.656
    1C        C  674   2.550   3.852   2.654
    1C        C  675   2.505   3.649   2.781
    1C        C  676   2.518   3.719   2.902
    1C        C  677   2.503   3.511   3.028
    1C        C  678   2.508   3.652   3.026
    1C        C  679   2.510   3.442   3.152
    1C        C  680   2.501   3.514   3.273
    1C        C  681   2.535   3.307   3.401
    1C        C  682   2.509   3.446   3.397
    1C        C  683   2.550   3.240   3.524
    1C        C  684   2.531   3.312   3.644
    1C        C  685   2.608   3.117   3.768
    1C        C  686   2.556   3.248   3.768
    1C        C  687   2.641   3.054   3.890
    1C        C  688   2.609   3.119   4.011
    1C        C  689   2.716   2.937   4.135
    1C        C  690   2.641   3.056   4.133
    1C        C  691   2.756   2.881   4.258
    1C        C  692   2.713   2.938   4.380
    1C        C  693   2.754   2.880   4.503
    1C        C  694   2.626   3.892   2.054
    1C        C  695   2.520   3.704   2.174
    1C        C  696   2.566   3.838   2.168
    1C        C  697   2.505   3.635   2.296
    1C        C  698   2.511   3.713   2.414
    1C        C  699   2.483   3.504   2.538
    1C        C  700   2.491   3.645   2.536
    1C        C  701   2.497   3.437   2.662
    1C        C  702   2.494   3.508   2.784
    1C        C  703   2.526   3.299   2.908
    1C        C  704   2.503   3.438   2.907
    1C        C  705   2.546   3.233   3.032
    1C        C  706   2.532   3.303   3.153
    1C        C  707   2.599   3.106   3.277
    1C        C  708   2.550   3.238   3.278
    1C        C  709   2.630   3.044   3.400
    1C        C  710   2.605   3.109   3.523
    1C        C  711   2.716   2.933   3.648
    1C        C  712   2.639   3.051   3.647
    1C        C  713   2.762   2.878   3.770
    1C        C  714   2.719   2.936   3.891
    1C        C  715   2.760   2.879   4.014
    1C        C  716   2.444   3.496   2.063
    1C        C  717   2.483   3.630   2.061
    1C        C  718   2.460   3.419   2.183
    1C        C  719   2.480   3.496   2.301
    1C        C  720   2.511   3.284   2.423
    1C        C  721   2.487   3.424   2.422
    1C        C  722   2.534   3.221   2.547
    1C        C  723   2.524   3.299   2.664
    1C        C  724   2.590   3.098   2.788
    1C        C  725   2.538   3.229   2.786
    1C        C  726   2.625   3.035   2.910
    1C        C  727   2.597   3.101   3.032
    1C        C  728   2.710   2.924   3.157
    1C        C  729   2.630   3.041   3.155
    1C        C  730   2.755   2.875   3.281
    1C        C  731   2.714   2.931   3.404
    1C        C  732   2.764   2.880   3.526
    1C        C  733   2.490   3.196   2.068
    1C        C  734   2.482   3.277   2.182
    1C        C  735   2.574   3.079   2.303
    1C        C  736   2.518   3.210   2.303
    1C        C  737   2.607   3.015   2.424
    1C        C  738   2.580   3.087   2.542
    1C        C  739   2.695   2.913   2.667
    1C        C  740   2.620   3.033   2.666
    1C        C  741   2.742   2.860   2.789
    1C        C  742   2.705   2.919   2.912
    1C        C  743   2.752   2.867   3.035
    1C        C  744   2.543   3.068   2.066
    1C        C  745   2.684   2.899   2.182
    1C        C  746   2.600   3.012   2.182
    1C        C  747   2.729   2.839   2.302
    1C        C  748   2.688   2.899   2.423
    1C        C  749   2.735   2.850   2.547
    1C        C  750   2.731   2.836   2.066
    1C        C  751   3.641   2.306   1.980
    1C        O  752   3.712   2.209   2.018
    1C        O  753   3.639   2.319   1.841
    1C        C  754   4.617   3.040   1.968
    1C        O  755   4.585   3.034   1.846
    1C        O  756   4.749   3.009   2.006
    1C        C  757   4.462   4.229   1.988
    1C        O  758   4.571   4.258   2.045
    1C        O  759   4.480   4.232   1.850
    1C        C  760   3.604   4.673   1.950
    1C        O  761   3.634   4.784   2.001
    1C        O  762   3.600   4.668   1.810
    1C        C  763   2.880   4.504   1.957
    1C        O  764   2.914   4.483   1.837
    1C        O  765   2.803   4.617   1.988
    1C        C  766   2.327   3.473   1.976
    1C        O  767   2.349   3.442   1.855
    1C        O  768   2.196   3.484   2.024
    1C        C  769   4.708   3.594   5.032
    1C        O  770   4.713   3.571   5.155
    1C        O  771   4.835   3.626   4.984
    1C        C  772   4.265   4.452   5.043
    1C        O  773   4.289   4.409   5.159
    1C        O  774   4.355   4.554   5.009
    1C        C  775   4.141   2.493   5.052
    1C        O  776   4.185   2.381   5.015
    1C        O  777   4.148   2.510   5.191
    1C        C  778   2.878   4.552   5.038
    1C        O  779   2.841   4.662   4.990
    1C        O  780   2.862   4.540   5.177
    1C        C  781   2.501   3.039   5.089
    1C        O  782   2.393   2.975   5.074
    1C        O  783   2.518   3.085   5.219
    1C        C  784   2.442   3.983   5.075
    1C        O  785   2.322   4.017   5.057
    1C        O  786   2.470   3.960   5.211
    1C        C  787   2.943   2.410   2.020
    1C        O  788   2.933   2.396   1.895
    1C        O  789   2.883   2.308   2.094
    1C        C  790   3.160   2.351   5.030
    1C        O  791   3.101   2.255   4.972
    1C        O  792   3.150   2.331   5.169
    1C        H  793   4.235   3.042   5.024
    1C        H  794   4.179   2.799   5.070
    1C        H  795   4.515   3.118   5.046
    1C        H  796   4.486   3.370   5.055
    1C        H  797   4.561   3.810   5.045
    1C        H  798   4.407   3.964   5.053
    1C        H  799   4.300   4.177   5.051
    1C        H  800   4.018   4.522   5.032
    1C        H  801   3.815   4.613   5.028
    1C        H  802   3.590   4.664   5.015
    1C        H  803   3.399   4.473   5.040
    1C        H  804   3.161   4.473   5.053
    1C        H  805   3.880   2.507   5.071
    1C        H  806   3.665   2.412   5.054
    1C        H  807   3.013   2.570   5.068
    1C        H  808   3.436   2.523   5.066
    1C        H  809   2.883   2.750   5.083
    1C        H  810   2.719   2.922   5.071
    1C        H  811   2.508   3.295   5.069
    1C        H  812   2.558   3.505   5.071
    1C        H  813   2.497   3.734   5.067
    1C        H  814   2.586   4.188   5.040
    1C        H  815   2.785   4.297   5.054
    1C        H  816   2.710   2.878   1.970
    1C        H  817   2.864   2.700   1.976
    1C        H  818   3.204   2.439   1.982
    1C        H  819   3.429   2.461   1.979
    1C        H  820   3.856   2.521   1.965
    1C        H  821   4.040   2.665   1.968
    1C        H  822   4.250   2.714   1.977
    1C        H  823   4.357   2.936   1.965
    1C        H  824   4.560   3.309   1.966
    1C        H  825   4.453   3.505   1.978
    1C        H  826   4.560   3.745   1.974
    1C        H  827   3.813   4.536   1.959
    1C        H  828   3.940   4.350   1.951
    1C        H  829   4.172   4.261   1.953
    1C        H  830   4.496   3.971   1.958
    1C        H  831   2.640   3.829   1.968
    1C        H  832   2.677   4.073   1.957
    1C        H  833   2.747   4.270   1.953
    1C        H  834   3.351   4.518   1.946
    1C        H  835   3.171   4.349   1.971
    1C        H  836   2.556   3.028   1.968
    1C        H  837   2.453   3.237   1.977
    1C        H  838   2.463   3.682   1.969
    2V3OU   H29  839   2.807   3.543   1.973
    2V3OU   C27  840   2.778   3.502   2.073
    2V3OU   H27  841   2.719   3.565   2.145
    2V3OU   H28  842   2.730   3.403   2.055
    2V3OU   O11  843   2.907   3.472   2.126
    2V3OU   C15  844   2.924   3.394   2.238
    2V3OU   C13  845   3.050   3.369   2.298
    2V3OU   C14  846   3.075   3.265   2.388
    2V3OU   C16  847   2.976   3.175   2.425
    2V3OU    H6  848   2.983   3.097   2.503
    2V3OU   C12  849   3.212   3.223   2.427
    2V3OU    O2  850   3.236   3.127   2.504
    2V3OU   C10  851   3.324   3.304   2.377
    2V3OU    C8  852   3.452   3.267   2.416
    2V3OU   O10  853   3.488   3.153   2.482
    2V3OU   H26  854   3.401   3.116   2.505
    2V3OU    C6  855   3.561   3.351   2.377
    2V3OU    C5  856   3.534   3.467   2.304
    2V3OU    C4  857   3.699   3.296   2.379
    2V3OU    H4  858   3.722   3.228   2.467
    2V3OU    H5  859   3.710   3.226   2.292
    2V3OU    C2  860   3.812   3.400   2.380
    2V3OU    O6  861   3.800   3.471   2.503
    2V3OU   H21  862   3.756   3.555   2.480
    2V3OU    C3  863   3.781   3.494   2.263
    2V3OU    H2  864   3.857   3.576   2.254
    2V3OU    H3  865   3.783   3.439   2.165
    2V3OU   C25  866   3.945   3.326   2.365
    2V3OU    O7  867   3.998   3.291   2.259
    2V3OU   C26  868   4.027   3.290   2.488
    2V3OU   H22  869   4.073   3.384   2.528
    2V3OU   H23  870   4.111   3.222   2.457
    2V3OU    O8  871   3.959   3.210   2.582
    2V3OU   H24  872   3.928   3.258   2.660
    2V3OU    C1  873   3.646   3.562   2.277
    2V3OU    H1  874   3.624   3.616   2.180
    2V3OU    O3  875   3.646   3.655   2.386
    2V3OU   C19  876   3.613   3.792   2.366
    2V3OU    H9  877   3.511   3.798   2.318
    2V3OU    O4  878   3.709   3.846   2.278
    2V3OU   C20  879   3.839   3.867   2.332
    2V3OU   H10  880   3.888   3.767   2.352
    2V3OU   C24  881   3.606   3.858   2.505
    2V3OU   H16  882   3.546   3.788   2.569
    2V3OU   H17  883   3.555   3.957   2.504
    2V3OU   C23  884   3.744   3.874   2.568
    2V3OU   H15  885   3.788   3.769   2.575
    2V3OU    N1  886   3.734   3.948   2.692
    2V3OU   H19  887   3.809   3.914   2.749
    2V3OU   H20  888   3.650   3.935   2.745
    2V3OU   C21  889   3.838   3.944   2.465
    2V3OU   H11  890   3.943   3.922   2.498
    2V3OU    O5  891   3.820   4.085   2.461
    2V3OU   H18  892   3.782   4.102   2.548
    2V3OU   C22  893   3.912   3.945   2.224
    2V3OU   H12  894   3.861   4.043   2.207
    2V3OU   H13  895   3.902   3.891   2.126
    2V3OU   H14  896   4.019   3.956   2.255
    2V3OU   C11  897   3.161   3.461   2.271
    2V3OU    O1  898   3.139   3.582   2.247
    2V3OU    C9  899   3.300   3.421   2.300
    2V3OU    C7  900   3.404   3.502   2.256
    2V3OU    O9  901   3.388   3.613   2.176
    2V3OU   H25  902   3.293   3.631   2.186
    2V3OU   C17  903   2.820   3.311   2.285
    2V3OU    H7  904   2.718   3.345   2.268
    2V3OU   C18  905   2.852   3.207   2.371
    2V3OU    H8  906   2.774   3.164   2.436
    3SOL     OW  907   3.040   4.397   0.394
    3SOL    HW1  908   2.985   4.373   0.314
    3SOL    HW2  909   3.118   4.452   0.365
    4SOL     OW  910   6.281   5.935   1.899
    4SOL    HW1  911   6.374   5.927   1.935
    4SOL    HW2  912   6.276   5.893   1.808
    5SOL     OW  913   3.826   1.722   2.832
    5SOL    HW1  914   3.818   1.672   2.746
    5SOL    HW2  915   3.871   1.664   2.900
    6SOL     OW  916   4.603   1.236   1.710
    6SOL    HW1  917   4.613   1.315   1.770
    6SOL    HW2  918   4.669   1.166   1.736
    7SOL     OW  919   6.557   3.547   2.403
    7SOL    HW1  920   6.462   3.516   2.409
    7SOL    HW2  921   6.572   3.620   2.470
    8SOL     OW  922   3.178   0.281   6.010
    8SOL    HW1  923   3.256   0.327   6.052
    8SOL    HW2  924   3.167   0.190   6.049
    9SOL     OW  925   6.642   5.645   5.690
    9SOL    HW1  926   6.607   5.616   5.601
    9SOL    HW2  927   6.740   5.626   5.695
   10SOL     OW  928   0.816   4.665   6.092
   10SOL    HW1  929   0.717   4.683   6.091
   10SOL    HW2  930   0.861   4.733   6.149
   11SOL     OW  931   3.090   0.156   0.154
   11SOL    HW1  932   3.161   0.086   0.154
   11SOL    HW2  933   3.017   0.129   0.091
   12SOL     OW  934   4.190   6.128   4.163
   12SOL    HW1  935   4.096   6.101   4.141
   12SOL    HW2  936   4.202   6.225   4.144
   13SOL     OW  937   3.127   5.431   3.873
   13SOL    HW1  938   3.105   5.409   3.968
   13SOL    HW2  939   3.068   5.506   3.841
   14SOL     OW  940   5.332   5.690   6.435
   14SOL    HW1  941   5.239   5.655   6.438
   14SOL    HW2  942   5.396   5.618   6.464
   15SOL     OW  943   0.817   5.343   0.753
   15SOL    HW1  944   0.815   5.243   0.744
   15SOL    HW2  945   0.882   5.381   0.687
   16SOL     OW  946   5.567   2.933   5.589
   16SOL    HW1  947   5.596   2.854   5.535
   16SOL    HW2  948   5.528   3.003   5.529
   17SOL     OW  949   5.355   6.151   5.560
   17SOL    HW1  950   5.307   6.232   5.594
   17SOL    HW2  951   5.368   6.159   5.462
   18SOL     OW  952   3.117   0.944   6.206
   18SOL    HW1  953   3.152   0.922   6.115
   18SOL    HW2  954   3.136   0.868   6.268
   19SOL     OW  955   0.257   6.913   3.339
   19SOL    HW1  956   0.161   6.926   3.362
   19SOL    HW2  957   0.314   6.951   3.412
   20SOL     OW  958   4.839   2.090   4.523
   20SOL    HW1  959   4.867   2.135   4.439
   20SOL    HW2  960   4.894   2.008   4.538
   21SOL     OW  961   3.030   2.156   2.455
   21SOL    HW1  962   2.941   2.200   2.439
   21SOL    HW2  963   3.058   2.107   2.373
   22SOL     OW  964   2.386   6.722   0.481
   22SOL    HW1  965   2.363   6.715   0.578
   22SOL    HW2  966   2.425   6.636   0.450
   23SOL     OW  967   4.788   6.695   3.535
   23SOL    HW1  968   4.712   6.755   3.559
   23SOL    HW2  969   4.770   6.603   3.569
   24SOL     OW  970   5.026   1.328   2.836
   24SOL    HW1  971   4.958   1.327   2.908
   24SOL    HW2  972   5.074   1.416   2.836
   25SOL     OW  973   3.524   6.715   5.640
   25SOL    HW1  974   3.433   6.674   5.631
   25SOL    HW2  975   3.528   6.766   5.726
   26SOL     OW  976   6.279   1.255   0.588
   26SOL    HW1  977   6.292   1.161   0.618
   26SOL    HW2  978   6.219   1.303   0.653
   27SOL     OW  979   0.248   1.639   1.412
   27SOL    HW1  980   0.244   1.736   1.389
   27SOL    HW2  981   0.238   1.628   1.511
   28SOL     OW  982   3.690   1.418   0.200
   28SOL    HW1  983   3.659   1.466   0.282
   28SOL    HW2  984   3.630   1.340   0.182
   29SOL     OW  985   5.286   3.347   1.959
   29SOL    HW1  986   5.298   3.249   1.945
   29SOL    HW2  987   5.325   3.397   1.881
   30SOL     OW  988   3.802   0.661   4.965
   30SOL    HW1  989   3.757   0.590   4.909
   30SOL    HW2  990   3.732   0.717   5.009
   31SOL     OW  991   0.621   1.833   5.940
   31SOL    HW1  992   0.617   1.792   5.848
   31SOL    HW2  993   0.607   1.931   5.933
   32SOL     OW  994   0.048   1.746   3.123
   32SOL    HW1  995   0.005   1.832   3.151
   32SOL    HW2  996   0.119   1.765   3.056
   33SOL     OW  997   2.550   3.807   6.934
   33SOL    HW1  998   2.608   3.858   6.871
   33SOL    HW2  999   2.454   3.821   6.910
   34SOL     OW 1000   2.241   1.499   3.193
   34SOL    HW1 1001   2.144   1.475   3.189
   34SOL    HW2 1002   2.251   1.598   3.183
   35SOL     OW 1003   3.386   2.704   6.983
   35SOL    HW1 1004   3.312   2.770   6.996
   35SOL    HW2 1005   3.375   2.660   6.894
   36SOL     OW 1006   7.012   0.603   6.174
   36SOL    HW1 1007   0.080   0.566   6.141
   36SOL    HW2 1008   7.013   0.703   6.166
   37SOL     OW 1009   1.388   6.774   0.458
   37SOL    HW1 1010   1.290   6.774   0.478
   37SOL    HW2 1011   1.415   6.865   0.426
   38SOL     OW 1012   6.961   4.512   2.382
   38SOL    HW1 1013   0.002   4.449   2.332
   38SOL    HW2 1014   7.008   4.600   2.393
   39SOL     OW 1015   6.608   4.962   6.393
   39SOL    HW1 1016   6.600   5.019   6.475
   39SOL    HW2 1017   6.526   4.905   6.385
   40SOL     OW 1018   5.611   2.408   1.289
   40SOL    HW1 1019   5.615   2.439   1.194
   40SOL    HW2 1020   5.701   2.421   1.332
   41SOL     OW 1021   6.982   6.814   4.228
   41SOL    HW1 1022   6.947   6.825   4.321
   41SOL    HW2 1023   6.941   6.733   4.186
   42SOL     OW 1024   2.402   5.771   5.438
   42SOL    HW1 1025   2.469   5.699   5.451
   42SOL    HW2 1026   2.338   5.745   5.365
   43SOL     OW 1027   5.545   6.639   5.002
   43SOL    HW1 1028   5.636   6.636   4.961
   43SOL    HW2 1029   5.508   6.546   5.007
   44SOL     OW 1030   5.855   1.970   6.083
   44SOL    HW1 1031   5.894   2.014   6.165
   44SOL    HW2 1032   5.920   1.904   6.047
   45SOL     OW 1033   3.712   6.478   3.101
   45SOL    HW1 1034   3.665   6.390   3.095
   45SOL    HW2 1035   3.693   6.520   3.190
   46SOL     OW 1036   1.187   3.551   3.583
   46SOL    HW1 1037   1.136   3.619   3.637
   46SOL    HW2 1038   1.209   3.473   3.641
   47SOL     OW 1039   4.675   4.618   1.463
   47SOL    HW1 1040   4.690   4.566   1.379
   47SOL    HW2 1041   4.652   4.555   1.537
   48SOL     OW 1042   6.780   2.982   6.032
   48SOL    HW1 1043   6.815   3.003   6.123
   48SOL    HW2 1044   6.739   2.890   6.032
   49SOL     OW 1045   4.672   4.086   1.727
   49SOL    HW1 1046   4.618   4.153   1.777
   49SOL    HW2 1047   4.613   4.009   1.701
   50SOL     OW 1048   6.949   2.608   5.736
   50SOL    HW1 1049   6.860   2.562   5.737
   50SOL    HW2 1050   6.939   2.702   5.768
   51SOL     OW 1051   3.067   6.325   2.375
   51SOL    HW1 1052   3.060   6.234   2.416
   51SOL    HW2 1053   3.083   6.317   2.277
   52SOL     OW 1054   5.342   2.628   3.287
   52SOL    HW1 1055   5.280   2.597   3.215
   52SOL    HW2 1056   5.289   2.664   3.363
   53SOL     OW 1057   4.030   0.136   4.761
   53SOL    HW1 1058   4.079   0.049   4.772
   53SOL    HW2 1059   3.996   0.144   4.668
   54SOL     OW 1060   4.122   4.475   0.568
   54SOL    HW1 1061   4.058   4.463   0.492
   54SOL    HW2 1062   4.141   4.385   0.608
   55SOL     OW 1063   3.329   1.598   6.475
   55SOL    HW1 1064   3.301   1.510   6.437
   55SOL    HW2 1065   3.277   1.671   6.430
   56SOL     OW 1066   0.171   0.093   1.036
   56SOL    HW1 1067   0.254   0.087   1.092
   56SOL    HW2 1068   0.093   0.060   1.090
   57SOL     OW 1069   5.323   0.781   0.775
   57SOL    HW1 1070   5.230   0.746   0.770
   57SOL    HW2 1071   5.343   0.836   0.694
   58SOL     OW 1072   6.174   0.031   5.567
   58SOL    HW1 1073   6.122   0.091   5.628
   58SOL    HW2 1074   6.190   6.962   5.612
   59SOL     OW 1075   1.644   0.982   6.032
   59SOL    HW1 1076   1.737   0.983   5.997
   59SOL    HW2 1077   1.594   1.062   6.000
   60SOL     OW 1078   5.564   1.041   5.894
   60SOL    HW1 1079   5.487   1.061   5.954
   60SOL    HW2 1080   5.622   1.121   5.885
   61SOL     OW 1081   5.066   1.842   5.007
   61SOL    HW1 1082   5.108   1.787   5.079
   61SOL    HW2 1083   5.101   1.812   4.918
   62SOL     OW 1084   0.304   0.862   3.223
   62SOL    HW1 1085   0.392   0.894   3.187
   62SOL    HW2 1086   0.301   0.762   3.217
   63SOL     OW 1087   5.804   1.697   3.683
   63SOL    HW1 1088   5.705   1.698   3.696
   63SOL    HW2 1089   5.847   1.642   3.755
   64SOL     OW 1090   0.668   3.803   6.015
   64SOL    HW1 1091   0.620   3.767   6.095
   64SOL    HW2 1092   0.709   3.728   5.964
   65SOL     OW 1093   6.739   4.764   5.278
   65SOL    HW1 1094   6.724   4.844   5.337
   65SOL    HW2 1095   6.652   4.719   5.259
   66SOL     OW 1096   3.865   0.868   6.244
   66SOL    HW1 1097   3.836   0.907   6.157
   66SOL    HW2 1098   3.907   0.779   6.229
   67SOL     OW 1099   5.367   4.456   5.751
   67SOL    HW1 1100   5.307   4.529   5.718
   67SOL    HW2 1101   5.443   4.496   5.803
   68SOL     OW 1102   5.439   0.826   6.761
   68SOL    HW1 1103   5.361   0.797   6.816
   68SOL    HW2 1104   5.453   0.761   6.686
   69SOL     OW 1105   0.977   3.466   6.494
   69SOL    HW1 1106   0.881   3.456   6.522
   69SOL    HW2 1107   0.985   3.544   6.431
   70SOL     OW 1108   5.607   4.648   3.773
   70SOL    HW1 1109   5.532   4.670   3.835
   70SOL    HW2 1110   5.693   4.677   3.813
   71SOL     OW 1111   4.363   1.386   2.798
   71SOL    HW1 1112   4.372   1.342   2.709
   71SOL    HW2 1113   4.304   1.466   2.790
   72SOL     OW 1114   2.562   6.061   4.910
   72SOL    HW1 1115   2.618   5.988   4.872
   72SOL    HW2 1116   2.498   6.023   4.978
   73SOL     OW 1117   3.647   0.844   0.796
   73SOL    HW1 1118   3.681   0.889   0.878
   73SOL    HW2 1119   3.583   0.771   0.822
   74SOL     OW 1120   5.138   6.376   5.992
   74SOL    HW1 1121   5.082   6.347   5.914
   74SOL    HW2 1122   5.169   6.470   5.977
   75SOL     OW 1123   4.079   0.023   6.533
   75SOL    HW1 1124   4.081   0.120   6.507
   75SOL    HW2 1125   3.995   0.005   6.584
   76SOL     OW 1126   2.524   2.653   0.922
   76SOL    HW1 1127   2.469   2.631   0.841
   76SOL    HW2 1128   2.475   2.626   1.004
   77SOL     OW 1129   6.355   6.391   4.046
   77SOL    HW1 1130   6.334   6.342   4.130
   77SOL    HW2 1131   6.447   6.430   4.052
   78SOL     OW 1132   5.890   0.741   5.792
   78SOL    HW1 1133   5.809   0.718   5.847
   78SOL    HW2 1134   5.868   0.733   5.695
   79SOL     OW 1135   2.899   6.917   0.252
   79SOL    HW1 1136   2.809   6.934   0.214
   79SOL    HW2 1137   2.956   6.870   0.184
   80SOL     OW 1138   5.235   1.986   4.229
   80SOL    HW1 1139   5.217   2.081   4.256
   80SOL    HW2 1140   5.269   1.984   4.135
   81SOL     OW 1141   1.963   0.353   3.220
   81SOL    HW1 1142   1.945   0.449   3.198
   81SOL    HW2 1143   1.877   0.308   3.246
   82SOL     OW 1144   6.623   4.540   0.821
   82SOL    HW1 1145   6.628   4.557   0.919
   82SOL    HW2 1146   6.704   4.579   0.776
   83SOL     OW 1147   0.584   0.562   0.532
   83SOL    HW1 1148   0.623   0.609   0.453
   83SOL    HW2 1149   0.522   0.623   0.580
   84SOL     OW 1150   5.303   3.273   3.569
   84SOL    HW1 1151   5.340   3.200   3.626
   84SOL    HW2 1152   5.264   3.234   3.485
   85SOL     OW 1153   1.929   1.595   4.750
   85SOL    HW1 1154   1.972   1.588   4.840
   85SOL    HW2 1155   1.983   1.544   4.684
   86SOL     OW 1156   0.212   0.476   5.128
   86SOL    HW1 1157   0.143   0.445   5.062
   86SOL    HW2 1158   0.292   0.417   5.122
   87SOL     OW 1159   5.038   3.678   0.643
   87SOL    HW1 1160   5.006   3.671   0.737
   87SOL    HW2 1161   5.117   3.618   0.630
   88SOL     OW 1162   3.710   1.734   6.725
   88SOL    HW1 1163   3.667   1.705   6.639
   88SOL    HW2 1164   3.809   1.717   6.720
   89SOL     OW 1165   0.863   2.509   5.751
   89SOL    HW1 1166   0.901   2.513   5.843
   89SOL    HW2 1167   0.917   2.446   5.695
   90SOL     OW 1168   4.111   6.284   2.732
   90SOL    HW1 1169   4.089   6.223   2.656
   90SOL    HW2 1170   4.071   6.374   2.716
   91SOL     OW 1171   4.829   4.452   4.862
   91SOL    HW1 1172   4.819   4.359   4.827
   91SOL    HW2 1173   4.741   4.485   4.896
   92SOL     OW 1174   3.406   3.672   0.272
   92SOL    HW1 1175   3.425   3.574   0.279
   92SOL    HW2 1176   3.416   3.715   0.361
   93SOL     OW 1177   2.555   3.671   6.444
   93SOL    HW1 1178   2.557   3.574   6.418
   93SOL    HW2 1179   2.460   3.700   6.457
   94SOL     OW 1180   2.747   5.973   5.990
   94SOL    HW1 1181   2.662   5.979   5.938
   94SOL    HW2 1182   2.777   6.064   6.017
   95SOL     OW 1183   1.438   0.604   3.188
   95SOL    HW1 1184   1.380   0.559   3.256
   95SOL    HW2 1185   1.423   0.562   3.099
   96SOL     OW 1186   3.438   0.355   5.075
   96SOL    HW1 1187   3.491   0.326   5.155
   96SOL    HW2 1188   3.499   0.365   4.996
   97SOL     OW 1189   1.866   3.506   6.019
   97SOL    HW1 1190   1.885   3.415   6.055
   97SOL    HW2 1191   1.797   3.500   5.948
   98SOL     OW 1192   6.292   3.907   0.501
   98SOL    HW1 1193   6.225   3.975   0.529
   98SOL    HW2 1194   6.356   3.890   0.576
   99SOL     OW 1195   4.748   3.579   1.469
   99SOL    HW1 1196   4.692   3.506   1.430
   99SOL    HW2 1197   4.815   3.609   1.401
  100SOL     OW 1198   7.007   0.416   4.983
  100SOL    HW1 1199   7.001   0.464   4.895
  100SOL    HW2 1200   7.001   0.317   4.967
  101SOL     OW 1201   1.550   5.565   2.178
  101SOL    HW1 1202   1.631   5.572   2.236
  101SOL    HW2 1203   1.468   5.556   2.235
  102SOL     OW 1204   4.372   6.868   2.566
  102SOL    HW1 1205   4.451   6.829   2.614
  102SOL    HW2 1206   4.291   6.860   2.624
  103SOL     OW 1207   3.177   1.004   1.973
  103SOL    HW1 1208   3.191   1.063   2.053
  103SOL    HW2 1209   3.132   1.056   1.901
  104SOL     OW 1210   0.230   5.157   2.349
  104SOL    HW1 1211   0.271   5.215   2.420
  104SOL    HW2 1212   0.156   5.208   2.304
  105SOL     OW 1213   0.029   2.641   6.798
  105SOL    HW1 1214   7.018   2.736   6.814
  105SOL    HW2 1215   0.127   2.633   6.816
  106SOL     OW 1216   3.985   5.677   4.558
  106SOL    HW1 1217   4.064   5.631   4.598
  106SOL    HW2 1218   4.010   5.713   4.468
  107SOL     OW 1219   2.023   1.160   2.148
  107SOL    HW1 1220   2.091   1.233   2.141
  107SOL    HW2 1221   1.978   1.148   2.059
  108SOL     OW 1222   3.774   5.197   5.601
  108SOL    HW1 1223   3.778   5.098   5.590
  108SOL    HW2 1224   3.762   5.220   5.697
  109SOL     OW 1225   6.871   0.573   1.277
  109SOL    HW1 1226   6.823   0.544   1.360
  109SOL    HW2 1227   6.909   0.493   1.230
  110SOL     OW 1228   3.509   6.101   5.503
  110SOL    HW1 1229   3.537   6.197   5.500
  110SOL    HW2 1230   3.409   6.096   5.515
  111SOL     OW 1231   3.115   1.116   4.173
  111SOL    HW1 1232   3.018   1.124   4.149
  111SOL    HW2 1233   3.160   1.056   4.108
  112SOL     OW 1234   4.897   6.688   5.605
  112SOL    HW1 1235   4.852   6.599   5.599
  112SOL    HW2 1236   4.843   6.756   5.555
  113SOL     OW 1237   6.221   5.186   3.105
  113SOL    HW1 1238   6.282   5.226   3.173
  113SOL    HW2 1239   6.257   5.202   3.013
  114SOL     OW 1240   0.740   0.666   0.952
  114SOL    HW1 1241   0.754   0.607   0.872
  114SOL    HW2 1242   0.776   0.757   0.932
  115SOL     OW 1243   3.958   1.570   3.034
  115SOL    HW1 1244   3.957   1.612   3.125
  115SOL    HW2 1245   4.015   1.487   3.037
  116SOL     OW 1246   5.734   5.058   1.521
  116SOL    HW1 1247   5.823   5.054   1.476
  116SOL    HW2 1248   5.713   4.969   1.561
  117SOL     OW 1249   1.316   1.236   0.507
  117SOL    HW1 1250   1.231   1.276   0.540
  117SOL    HW2 1251   1.314   1.137   0.520
  118SOL     OW 1252   1.822   1.188   3.200
  118SOL    HW1 1253   1.848   1.100   3.241
  118SOL    HW2 1254   1.722   1.194   3.195
  119SOL     OW 1255   0.955   1.413   6.705
  119SOL    HW1 1256   1.032   1.420   6.769
  119SOL    HW2 1257   0.956   1.323   6.661
  120SOL     OW 1258   6.312   6.777   0.332
  120SOL    HW1 1259   6.379   6.745   0.265
  120SOL    HW2 1260   6.237   6.822   0.284
  121SOL     OW 1261   2.511   3.393   6.436
  121SOL    HW1 1262   2.555   3.349   6.514
  121SOL    HW2 1263   2.517   3.334   6.356
  122SOL     OW 1264   1.813   4.718   6.469
  122SOL    HW1 1265   1.882   4.674   6.526
  122SOL    HW2 1266   1.842   4.812   6.449
  123SOL     OW 1267   0.113   1.585   1.661
  123SOL    HW1 1268   0.041   1.585   1.592
  123SOL    HW2 1269   0.084   1.531   1.740
  124SOL     OW 1270   4.984   3.211   0.632
  124SOL    HW1 1271   4.977   3.116   0.663
  124SOL    HW2 1272   4.894   3.254   0.632
  125SOL     OW 1273   3.184   1.656   1.834
  125SOL    HW1 1274   3.151   1.671   1.927
  125SOL    HW2 1275   3.237   1.735   1.804
  126SOL     OW 1276   2.760   3.728   1.231
  126SOL    HW1 1277   2.702   3.681   1.165
  126SOL    HW2 1278   2.716   3.725   1.321
  127SOL     OW 1279   0.107   5.264   6.259
  127SOL    HW1 1280   0.025   5.285   6.312
  127SOL    HW2 1281   0.183   5.247   6.320
  128SOL     OW 1282   4.849   2.741   1.236
  128SOL    HW1 1283   4.808   2.755   1.146
  128SOL    HW2 1284   4.916   2.813   1.253
  129SOL     OW 1285   2.572   3.001   6.075
  129SOL    HW1 1286   2.538   3.094   6.064
  129SOL    HW2 1287   2.666   3.003   6.108
  130SOL     OW 1288   0.706   1.318   3.935
  130SOL    HW1 1289   0.678   1.293   3.843
  130SOL    HW2 1290   0.744   1.411   3.935
  131SOL     OW 1291   4.994   2.005   3.708
  131SOL    HW1 1292   5.006   2.098   3.741
  131SOL    HW2 1293   4.898   1.978   3.716
  132SOL     OW 1294   2.226   2.280   1.033
  132SOL    HW1 1295   2.197   2.276   0.937
  132SOL    HW2 1296   2.147   2.303   1.090
  133SOL     OW 1297   5.080   6.360   4.414
  133SOL    HW1 1298   5.091   6.454   4.447
  133SOL    HW2 1299   4.995   6.321   4.452
  134SOL     OW 1300   6.500   1.652   2.533
  134SOL    HW1 1301   6.550   1.723   2.484
  134SOL    HW2 1302   6.403   1.656   2.509
  135SOL     OW 1303   5.586   3.605   3.247
  135SOL    HW1 1304   5.622   3.513   3.242
  135SOL    HW2 1305   5.601   3.652   3.160
  136SOL     OW 1306   3.233   3.609   6.291
  136SOL    HW1 1307   3.316   3.587   6.342
  136SOL    HW2 1308   3.234   3.559   6.204
  137SOL     OW 1309   5.404   1.616   4.729
  137SOL    HW1 1310   5.422   1.566   4.814
  137SOL    HW2 1311   5.436   1.562   4.651
  138SOL     OW 1312   0.925   4.764   3.198
  138SOL    HW1 1313   0.878   4.845   3.163
  138SOL    HW2 1314   0.963   4.713   3.121
  139SOL     OW 1315   2.172   6.804   4.875
  139SOL    HW1 1316   2.210   6.824   4.965
  139SOL    HW2 1317   2.244   6.810   4.806
  140SOL     OW 1318   0.851   5.752   3.265
  140SOL    HW1 1319   0.885   5.749   3.171
  140SOL    HW2 1320   0.807   5.665   3.288
  141SOL     OW 1321   6.130   3.730   4.960
  141SOL    HW1 1322   6.131   3.698   4.865
  141SOL    HW2 1323   6.150   3.828   4.962
  142SOL     OW 1324   1.919   3.848   0.401
  142SOL    HW1 1325   1.850   3.911   0.437
  142SOL    HW2 1326   1.990   3.899   0.354
  143SOL     OW 1327   5.841   4.678   0.942
  143SOL    HW1 1328   5.931   4.707   0.973
  143SOL    HW2 1329   5.806   4.744   0.875
  144SOL     OW 1330   1.128   6.103   5.831
  144SOL    HW1 1331   1.154   6.034   5.898
  144SOL    HW2 1332   1.202   6.114   5.764
  145SOL     OW 1333   6.901   5.673   0.348
  145SOL    HW1 1334   6.866   5.699   0.438
  145SOL    HW2 1335   6.874   5.742   0.281
  146SOL     OW 1336   4.950   0.480   6.200
  146SOL    HW1 1337   4.994   0.471   6.111
  146SOL    HW2 1338   4.886   0.403   6.213
  147SOL     OW 1339   6.168   3.860   6.503
  147SOL    HW1 1340   6.215   3.824   6.584
  147SOL    HW2 1341   6.223   3.933   6.462
  148SOL     OW 1342   0.127   5.717   6.471
  148SOL    HW1 1343   0.198   5.695   6.538
  148SOL    HW2 1344   0.037   5.715   6.516
  149SOL     OW 1345   2.747   1.528   4.389
  149SOL    HW1 1346   2.715   1.505   4.482
  149SOL    HW2 1347   2.743   1.446   4.332
  150SOL     OW 1348   5.720   5.925   6.485
  150SOL    HW1 1349   5.773   5.843   6.465
  150SOL    HW2 1350   5.650   5.905   6.553
  151SOL     OW 1351   3.188   2.321   1.092
  151SOL    HW1 1352   3.167   2.252   1.162
  151SOL    HW2 1353   3.161   2.286   1.002
  152SOL     OW 1354   1.229   0.949   2.841
  152SOL    HW1 1355   1.149   0.997   2.877
  152SOL    HW2 1356   1.308   1.010   2.843
  153SOL     OW 1357   3.202   0.288   2.051
  153SOL    HW1 1358   3.129   0.221   2.036
  153SOL    HW2 1359   3.163   0.380   2.055
  154SOL     OW 1360   0.781   2.136   2.798
  154SOL    HW1 1361   0.808   2.194   2.721
  154SOL    HW2 1362   0.816   2.177   2.883
  155SOL     OW 1363   6.572   1.737   3.354
  155SOL    HW1 1364   6.650   1.796   3.377
  155SOL    HW2 1365   6.497   1.793   3.319
  156SOL     OW 1366   0.479   1.953   0.725
  156SOL    HW1 1367   0.390   1.920   0.694
  156SOL    HW2 1368   0.477   1.965   0.825
  157SOL     OW 1369   5.896   3.217   0.992
  157SOL    HW1 1370   5.894   3.134   0.936
  157SOL    HW2 1371   5.879   3.193   1.088
  158SOL     OW 1372   2.026   5.827   2.491
  158SOL    HW1 1373   2.011   5.912   2.541
  158SOL    HW2 1374   2.115   5.831   2.445
  159SOL     OW 1375   4.195   4.654   1.952
  159SOL    HW1 1376   4.212   4.558   1.930
  159SOL    HW2 1377   4.275   4.709   1.926
  160SOL     OW 1378   6.184   5.555   0.492
  160SOL    HW1 1379   6.105   5.611   0.466
  160SOL    HW2 1380   6.263   5.582   0.439
  161SOL     OW 1381   1.953   5.638   4.556
  161SOL    HW1 1382   1.882   5.577   4.520
  161SOL    HW2 1383   2.028   5.584   4.592
  162SOL     OW 1384   3.783   6.794   6.912
  162SOL    HW1 1385   3.837   6.877   6.905
  162SOL    HW2 1386   3.841   6.719   6.943
  163SOL     OW 1387   5.500   5.938   0.772
  163SOL    HW1 1388   5.490   5.914   0.869
  163SOL    HW2 1389   5.453   5.870   0.716
  164SOL     OW 1390   6.256   4.255   0.001
  164SOL    HW1 1391   6.236   4.180   6.958
  164SOL    HW2 1392   6.220   4.234   0.092
  165SOL     OW 1393   5.317   3.081   1.871
  165SOL    HW1 1394   5.380   3.019   1.917
  165SOL    HW2 1395   5.336   3.080   1.772
  166SOL     OW 1396   0.115   4.837   3.447
  166SOL    HW1 1397   0.193   4.878   3.398
  166SOL    HW2 1398   0.074   4.905   3.507
  167SOL     OW 1399   5.782   2.788   0.366
  167SOL    HW1 1400   5.695   2.830   0.393
  167SOL    HW2 1401   5.765   2.696   0.331
  168SOL     OW 1402   2.391   3.034   1.259
  168SOL    HW1 1403   2.291   3.030   1.266
  168SOL    HW2 1404   2.420   2.986   1.177
  169SOL     OW 1405   4.399   0.705   1.859
  169SOL    HW1 1406   4.421   0.762   1.938
  169SOL    HW2 1407   4.378   0.764   1.781
  170SOL     OW 1408   1.018   1.095   3.548
  170SOL    HW1 1409   0.990   1.103   3.643
  170SOL    HW2 1410   0.959   1.028   3.502
  171SOL     OW 1411   3.732   4.309   0.231
  171SOL    HW1 1412   3.636   4.333   0.249
  171SOL    HW2 1413   3.744   4.291   0.134
  172SOL     OW 1414   5.819   1.911   4.194
  172SOL    HW1 1415   5.828   1.813   4.212
  172SOL    HW2 1416   5.753   1.925   4.120
  173SOL     OW 1417   0.090   2.225   4.689
  173SOL    HW1 1418   0.042   2.310   4.712
  173SOL    HW2 1419   0.184   2.246   4.664
  174SOL     OW 1420   3.380   5.217   4.417
  174SOL    HW1 1421   3.293   5.213   4.368
  174SOL    HW2 1422   3.391   5.135   4.473
  175SOL     OW 1423   2.515   0.001   1.952
  175SOL    HW1 1424   2.573   7.010   1.872
  175SOL    HW2 1425   2.485   0.096   1.960
  176SOL     OW 1426   1.096   4.293   1.026
  176SOL    HW1 1427   1.038   4.372   1.011
  176SOL    HW2 1428   1.170   4.317   1.089
  177SOL     OW 1429   5.869   3.425   2.208
  177SOL    HW1 1430   5.773   3.397   2.201
  177SOL    HW2 1431   5.878   3.499   2.274
  178SOL     OW 1432   2.437   2.416   6.539
  178SOL    HW1 1433   2.445   2.326   6.583
  178SOL    HW2 1434   2.510   2.425   6.471
  179SOL     OW 1435   2.422   1.297   6.209
  179SOL    HW1 1436   2.328   1.309   6.178
  179SOL    HW2 1437   2.448   1.201   6.199
  180SOL     OW 1438   1.638   6.695   6.777
  180SOL    HW1 1439   1.702   6.622   6.751
  180SOL    HW2 1440   1.564   6.699   6.710
  181SOL     OW 1441   2.922   2.501   6.138
  181SOL    HW1 1442   2.957   2.471   6.227
  181SOL    HW2 1443   2.999   2.524   6.078
  182SOL     OW 1444   3.445   1.240   3.854
  182SOL    HW1 1445   3.456   1.305   3.779
  182SOL    HW2 1446   3.375   1.273   3.917
  183SOL     OW 1447   3.504   2.145   3.442
  183SOL    HW1 1448   3.490   2.160   3.540
  183SOL    HW2 1449   3.599   2.121   3.425
  184SOL     OW 1450   1.959   6.225   4.168
  184SOL    HW1 1451   1.981   6.128   4.158
  184SOL    HW2 1452   1.894   6.252   4.098
  185SOL     OW 1453   7.017   1.560   6.239
  185SOL    HW1 1454   0.095   1.537   6.242
  185SOL    HW2 1455   6.969   1.513   6.313
  186SOL     OW 1456   5.521   1.372   3.925
  186SOL    HW1 1457   5.603   1.370   3.869
  186SOL    HW2 1458   5.546   1.387   4.020
  187SOL     OW 1459   4.448   0.346   3.222
  187SOL    HW1 1460   4.545   0.324   3.230
  187SOL    HW2 1461   4.406   0.285   3.154
  188SOL     OW 1462   6.987   2.007   2.737
  188SOL    HW1 1463   6.910   1.980   2.679
  188SOL    HW2 1464   0.021   1.926   2.763
  189SOL     OW 1465   2.303   5.499   1.428
  189SOL    HW1 1466   2.373   5.559   1.467
  189SOL    HW2 1467   2.329   5.404   1.443
  190SOL     OW 1468   4.415   1.734   4.504
  190SOL    HW1 1469   4.465   1.807   4.458
  190SOL    HW2 1470   4.472   1.694   4.575
  191SOL     OW 1471   5.814   6.308   6.739
  191SOL    HW1 1472   5.866   6.341   6.660
  191SOL    HW2 1473   5.717   6.307   6.717
  192SOL     OW 1474   0.448   5.563   1.899
  192SOL    HW1 1475   0.509   5.635   1.933
  192SOL    HW2 1476   0.451   5.485   1.962
  193SOL     OW 1477   4.713   3.102   5.245
  193SOL    HW1 1478   4.630   3.063   5.284
  193SOL    HW2 1479   4.772   3.135   5.318
  194SOL     OW 1480   4.171   0.616   2.830
  194SOL    HW1 1481   4.109   0.687   2.796
  194SOL    HW2 1482   4.201   0.559   2.753
  195SOL     OW 1483   1.912   0.259   4.846
  195SOL    HW1 1484   1.921   0.246   4.945
  195SOL    HW2 1485   1.986   0.211   4.799
  196SOL     OW 1486   2.301   0.642   0.554
  196SOL    HW1 1487   2.351   0.671   0.473
  196SOL    HW2 1488   2.344   0.561   0.594
  197SOL     OW 1489   2.714   0.410   1.002
  197SOL    HW1 1490   2.741   0.339   0.936
  197SOL    HW2 1491   2.630   0.454   0.971
  198SOL     OW 1492   4.707   0.596   2.685
  198SOL    HW1 1493   4.782   0.536   2.658
  198SOL    HW2 1494   4.731   0.642   2.771
  199SOL     OW 1495   0.592   2.434   3.935
  199SOL    HW1 1496   0.524   2.459   3.866
  199SOL    HW2 1497   0.596   2.334   3.942
  200SOL     OW 1498   1.471   3.640   0.832
  200SOL    HW1 1499   1.568   3.623   0.848
  200SOL    HW2 1500   1.431   3.685   0.912
  201SOL     OW 1501   0.352   0.073   6.066
  201SOL    HW1 1502   0.321   7.006   6.105
  201SOL    HW2 1503   0.410   0.054   5.986
  202SOL     OW 1504   3.740   1.369   6.945
  202SOL    HW1 1505   3.720   1.393   0.021
  202SOL    HW2 1506   3.677   1.417   6.884
  203SOL     OW 1507   6.000   2.521   5.702
  203SOL    HW1 1508   5.969   2.570   5.783
  203SOL    HW2 1509   5.955   2.432   5.697
  204SOL     OW 1510   0.983   0.116   4.485
  204SOL    HW1 1511   1.048   0.159   4.422
  204SOL    HW2 1512   1.008   0.020   4.498
  205SOL     OW 1513   0.942   2.569   2.868
  205SOL    HW1 1514   0.991   2.554   2.954
  205SOL    HW2 1515   1.007   2.571   2.792
  206SOL     OW 1516   0.488   4.241   1.213
  206SOL    HW1 1517   0.548   4.174   1.169
  206SOL    HW2 1518   0.442   4.296   1.143
  207SOL     OW 1519   6.258   1.323   3.804
  207SOL    HW1 1520   6.261   1.401   3.741
  207SOL    HW2 1521   6.329   1.333   3.873
  208SOL     OW 1522   6.760   4.455   5.218
  208SOL    HW1 1523   6.718   4.525   5.159
  208SOL    HW2 1524   6.769   4.370   5.167
  209SOL     OW 1525   0.303   5.253   3.947
  209SOL    HW1 1526   0.321   5.190   4.022
  209SOL    HW2 1527   0.263   5.337   3.984
  210SOL     OW 1528   4.692   1.534   0.270
  210SOL    HW1 1529   4.600   1.570   0.256
  210SOL    HW2 1530   4.758   1.609   0.267
  211SOL     OW 1531   1.263   6.336   1.688
  211SOL    HW1 1532   1.293   6.280   1.611
  211SOL    HW2 1533   1.343   6.376   1.733
  212SOL     OW 1534   1.248   3.601   1.491
  212SOL    HW1 1535   1.233   3.700   1.501
  212SOL    HW2 1536   1.336   3.585   1.446
  213SOL     OW 1537   2.905   6.781   0.739
  213SOL    HW1 1538   2.974   6.780   0.667
  213SOL    HW2 1539   2.932   6.720   0.813
  214SOL     OW 1540   3.650   5.604   3.008
  214SOL    HW1 1541   3.686   5.527   2.955
  214SOL    HW2 1542   3.585   5.655   2.951
  215SOL     OW 1543   2.930   3.670   0.375
  215SOL    HW1 1544   3.021   3.684   0.337
  215SOL    HW2 1545   2.926   3.582   0.421
  216SOL     OW 1546   1.162   5.537   3.267
  216SOL    HW1 1547   1.154   5.637   3.268
  216SOL    HW2 1548   1.126   5.500   3.353
  217SOL     OW 1549   1.651   2.864   4.226
  217SOL    HW1 1550   1.659   2.936   4.295
  217SOL    HW2 1551   1.569   2.811   4.243
  218SOL     OW 1552   0.919   2.983   4.214
  218SOL    HW1 1553   0.854   3.041   4.263
  218SOL    HW2 1554   0.982   3.040   4.161
  219SOL     OW 1555   4.152   0.073   0.084
  219SOL    HW1 1556   4.131   0.053   0.180
  219SOL    HW2 1557   4.247   0.104   0.076
  220SOL     OW 1558   2.632   6.692   1.413
  220SOL    HW1 1559   2.597   6.662   1.502
  220SOL    HW2 1560   2.732   6.688   1.412
  221SOL     OW 1561   5.766   4.403   0.888
  221SOL    HW1 1562   5.783   4.493   0.926
  221SOL    HW2 1563   5.852   4.353   0.878
  222SOL     OW 1564   1.212   4.964   5.557
  222SOL    HW1 1565   1.147   5.037   5.538
  222SOL    HW2 1566   1.251   4.976   5.648
  223SOL     OW 1567   6.874   3.251   5.991
  223SOL    HW1 1568   6.812   3.284   6.062
  223SOL    HW2 1569   6.853   3.155   5.970
  224SOL     OW 1570   2.848   1.856   5.882
  224SOL    HW1 1571   2.813   1.922   5.815
  224SOL    HW2 1572   2.876   1.904   5.965
  225SOL     OW 1573   4.972   3.912   6.416
  225SOL    HW1 1574   4.946   3.961   6.499
  225SOL    HW2 1575   4.910   3.835   6.401
  226SOL     OW 1576   0.761   0.998   5.691
  226SOL    HW1 1577   0.842   0.987   5.634
  226SOL    HW2 1578   0.740   1.095   5.700
  227SOL     OW 1579   0.710   4.025   2.095
  227SOL    HW1 1580   0.652   3.981   2.026
  227SOL    HW2 1581   0.761   3.955   2.145
  228SOL     OW 1582   2.349   0.239   3.215
  228SOL    HW1 1583   2.269   0.222   3.158
  228SOL    HW2 1584   2.416   0.292   3.163
  229SOL     OW 1585   6.053   6.014   5.947
  229SOL    HW1 1586   5.977   6.048   5.891
  229SOL    HW2 1587   6.130   5.992   5.888
  230SOL     OW 1588   3.785   5.544   3.935
  230SOL    HW1 1589   3.871   5.532   3.984
  230SOL    HW2 1590   3.738   5.456   3.928
  231SOL     OW 1591   5.869   1.640   0.046
  231SOL    HW1 1592   5.928   1.661   0.123
  231SOL    HW2 1593   5.884   1.545   0.017
  232SOL     OW 1594   0.313   3.210   6.644
  232SOL    HW1 1595   0.329   3.186   6.548
  232SOL    HW2 1596   0.238   3.275   6.650
  233SOL     OW 1597   3.342   1.174   3.053
  233SOL    HW1 1598   3.321   1.237   3.128
  233SOL    HW2 1599   3.409   1.216   2.992
  234SOL     OW 1600   5.145   1.080   6.324
  234SOL    HW1 1601   5.055   1.039   6.335
  234SOL    HW2 1602   5.194   1.076   6.411
  235SOL     OW 1603   4.798   2.754   1.948
  235SOL    HW1 1604   4.802   2.758   1.848
  235SOL    HW2 1605   4.752   2.836   1.983
  236SOL     OW 1606   5.649   2.779   6.758
  236SOL    HW1 1607   5.731   2.835   6.759
  236SOL    HW2 1608   5.607   2.782   6.668
  237SOL     OW 1609   0.198   4.522   2.083
  237SOL    HW1 1610   0.268   4.496   2.016
  237SOL    HW2 1611   0.130   4.581   2.039
  238SOL     OW 1612   5.831   1.214   0.605
  238SOL    HW1 1613   5.747   1.209   0.552
  238SOL    HW2 1614   5.901   1.262   0.553
  239SOL     OW 1615   0.809   4.365   6.674
  239SOL    HW1 1616   0.751   4.336   6.750
  239SOL    HW2 1617   0.807   4.296   6.602
  240SOL     OW 1618   0.444   2.730   3.412
  240SOL    HW1 1619   0.466   2.769   3.502
  240SOL    HW2 1620   0.345   2.715   3.406
  241SOL     OW 1621   2.847   2.279   4.780
  241SOL    HW1 1622   2.816   2.365   4.821
  241SOL    HW2 1623   2.901   2.228   4.847
  242SOL     OW 1624   3.144   4.015   4.425
  242SOL    HW1 1625   3.143   4.004   4.326
  242SOL    HW2 1626   3.226   4.068   4.451
  243SOL     OW 1627   4.466   1.160   6.698
  243SOL    HW1 1628   4.526   1.222   6.749
  243SOL    HW2 1629   4.402   1.116   6.761
  244SOL     OW 1630   6.697   3.610   5.410
  244SOL    HW1 1631   6.764   3.579   5.478
  244SOL    HW2 1632   6.624   3.542   5.402
  245SOL     OW 1633   5.121   2.609   4.157
  245SOL    HW1 1634   5.148   2.655   4.241
  245SOL    HW2 1635   5.026   2.578   4.165
  246SOL     OW 1636   5.026   2.356   3.398
  246SOL    HW1 1637   4.929   2.329   3.400
  246SOL    HW2 1638   5.065   2.331   3.309
  247SOL     OW 1639   2.530   1.561   0.471
  247SOL    HW1 1640   2.458   1.557   0.541
  247SOL    HW2 1641   2.494   1.527   0.384
  248SOL     OW 1642   3.738   1.127   2.728
  248SOL    HW1 1643   3.828   1.168   2.740
  248SOL    HW2 1644   3.728   1.094   2.634
  249SOL     OW 1645   5.023   0.228   5.036
  249SOL    HW1 1646   4.958   0.302   5.052
  249SOL    HW2 1647   5.099   0.236   5.101
  250SOL     OW 1648   5.001   3.473   0.372
  250SOL    HW1 1649   4.996   3.511   0.464
  250SOL    HW2 1650   5.080   3.511   0.324
  251SOL     OW 1651   4.871   3.585   5.375
  251SOL    HW1 1652   4.939   3.658   5.371
  251SOL    HW2 1653   4.808   3.594   5.297
  252SOL     OW 1654   6.495   6.365   5.559
  252SOL    HW1 1655   6.572   6.377   5.622
  252SOL    HW2 1656   6.520   6.397   5.468
  253SOL     OW 1657   2.560   5.255   6.099
  253SOL    HW1 1658   2.655   5.238   6.127
  253SOL    HW2 1659   2.550   5.235   6.002
  254SOL     OW 1660   6.014   2.626   3.907
  254SOL    HW1 1661   6.060   2.618   3.996
  254SOL    HW2 1662   5.928   2.575   3.910
  255SOL     OW 1663   2.009   4.710   5.429
  255SOL    HW1 1664   1.969   4.801   5.427
  255SOL    HW2 1665   1.939   4.642   5.405
  256SOL     OW 1666   6.189   4.004   6.143
  256SOL    HW1 1667   6.177   4.055   6.228
  256SOL    HW2 1668   6.272   3.947   6.150
  257SOL     OW 1669   5.355   0.372   3.661
  257SOL    HW1 1670   5.364   0.272   3.664
  257SOL    HW2 1671   5.282   0.400   3.724
  258SOL     OW 1672   2.140   5.124   4.980
  258SOL    HW1 1673   2.046   5.131   5.013
  258SOL    HW2 1674   2.199   5.099   5.057
  259SOL     OW 1675   6.550   2.064   2.945
  259SOL    HW1 1676   6.499   2.124   2.883
  259SOL    HW2 1677   6.558   1.973   2.903
  260SOL     OW 1678   4.107   6.645   1.810
  260SOL    HW1 1679   4.163   6.662   1.891
  260SOL    HW2 1680   4.066   6.731   1.779
  261SOL     OW 1681   6.129   2.931   0.459
  261SOL    HW1 1682   6.218   2.920   0.502
  261SOL    HW2 1683   6.066   2.862   0.495
  262SOL     OW 1684   0.745   3.628   0.014
  262SOL    HW1 1685   0.774   3.638   6.938
  262SOL    HW2 1686   0.647   3.606   0.017
  263SOL     OW 1687   2.565   0.499   4.785
  263SOL    HW1 1688   2.606   0.583   4.820
  263SOL    HW2 1689   2.606   0.476   4.697
  264SOL     OW 1690   5.881   2.928   6.807
  264SOL    HW1 1691   5.920   2.990   6.739
  264SOL    HW2 1692   5.952   2.865   6.840
  265SOL     OW 1693   5.423   6.514   2.514
  265SOL    HW1 1694   5.482   6.512   2.595
  265SOL    HW2 1695   5.348   6.578   2.528
  266SOL     OW 1696   3.505   2.500   5.837
  266SOL    HW1 1697   3.472   2.563   5.767
  266SOL    HW2 1698   3.499   2.543   5.926
  267SOL     OW 1699   0.842   1.343   6.358
  267SOL    HW1 1700   0.835   1.432   6.404
  267SOL    HW2 1701   0.907   1.350   6.282
  268SOL     OW 1702   3.275   1.367   6.356
  268SOL    HW1 1703   3.252   1.274   6.384
  268SOL    HW2 1704   3.321   1.364   6.267
  269SOL     OW 1705   1.543   3.546   1.504
  269SOL    HW1 1706   1.575   3.579   1.593
  269SOL    HW2 1707   1.505   3.454   1.514
  270SOL     OW 1708   1.402   6.109   0.398
  270SOL    HW1 1709   1.450   6.097   0.311
  270SOL    HW2 1710   1.468   6.138   0.468
  271SOL     OW 1711   0.106   2.017   6.802
  271SOL    HW1 1712   0.017   1.971   6.798
  271SOL    HW2 1713   0.162   1.991   6.724
  272SOL     OW 1714   3.476   5.478   4.034
  272SOL    HW1 1715   3.450   5.442   3.944
  272SOL    HW2 1716   3.574   5.494   4.036
  273SOL     OW 1717   2.532   4.536   4.276
  273SOL    HW1 1718   2.441   4.521   4.315
  273SOL    HW2 1719   2.597   4.472   4.316
  274SOL     OW 1720   4.246   1.646   3.066
  274SOL    HW1 1721   4.252   1.734   3.018
  274SOL    HW2 1722   4.177   1.589   3.022
  275SOL     OW 1723   6.549   4.930   3.723
  275SOL    HW1 1724   6.608   5.007   3.744
  275SOL    HW2 1725   6.553   4.863   3.797
  276SOL     OW 1726   6.690   6.427   2.481
  276SOL    HW1 1727   6.779   6.450   2.520
  276SOL    HW2 1728   6.621   6.489   2.517
  277SOL     OW 1729   1.698   4.327   0.372
  277SOL    HW1 1730   1.748   4.361   0.452
  277SOL    HW2 1731   1.600   4.328   0.392
  278SOL     OW 1732   0.206   4.898   2.096
  278SOL    HW1 1733   0.256   4.842   2.030
  278SOL    HW2 1734   0.190   4.846   2.179
  279SOL     OW 1735   5.862   3.289   4.436
  279SOL    HW1 1736   5.933   3.236   4.390
  279SOL    HW2 1737   5.817   3.233   4.505
  280SOL     OW 1738   2.962   6.642   3.330
  280SOL    HW1 1739   3.057   6.613   3.328
  280SOL    HW2 1740   2.931   6.664   3.238
  281SOL     OW 1741   2.373   4.319   1.341
  281SOL    HW1 1742   2.468   4.301   1.316
  281SOL    HW2 1743   2.365   4.333   1.439
  282SOL     OW 1744   3.035   1.206   6.272
  282SOL    HW1 1745   3.000   1.250   6.190
  282SOL    HW2 1746   3.052   1.110   6.254
  283SOL     OW 1747   5.963   1.710   6.252
  283SOL    HW1 1748   5.974   1.726   6.350
  283SOL    HW2 1749   6.052   1.693   6.210
  284SOL     OW 1750   1.124   3.901   3.801
  284SOL    HW1 1751   1.047   3.949   3.844
  284SOL    HW2 1752   1.189   3.874   3.872
  285SOL     OW 1753   5.747   4.863   4.467
  285SOL    HW1 1754   5.676   4.860   4.537
  285SOL    HW2 1755   5.704   4.864   4.376
  286SOL     OW 1756   3.635   5.031   6.332
  286SOL    HW1 1757   3.678   4.953   6.377
  286SOL    HW2 1758   3.536   5.018   6.329
  287SOL     OW 1759   0.842   3.702   1.317
  287SOL    HW1 1760   0.884   3.612   1.333
  287SOL    HW2 1761   0.834   3.718   1.219
  288SOL     OW 1762   3.129   1.404   6.922
  288SOL    HW1 1763   3.058   1.434   6.858
  288SOL    HW2 1764   3.213   1.456   6.906
  289SOL     OW 1765   1.508   4.449   5.235
  289SOL    HW1 1766   1.500   4.367   5.291
  289SOL    HW2 1767   1.490   4.427   5.140
  290SOL     OW 1768   6.351   2.411   4.591
  290SOL    HW1 1769   6.363   2.510   4.579
  290SOL    HW2 1770   6.368   2.387   4.687
  291SOL     OW 1771   1.265   2.470   4.439
  291SOL    HW1 1772   1.349   2.417   4.426
  291SOL    HW2 1773   1.187   2.418   4.403
  292SOL     OW 1774   1.940   2.315   3.235
  292SOL    HW1 1775   1.898   2.237   3.188
  292SOL    HW2 1776   1.964   2.288   3.329
  293SOL     OW 1777   4.104   6.095   2.518
  293SOL    HW1 1778   4.106   6.156   2.438
  293SOL    HW2 1779   4.064   6.007   2.492
  294SOL     OW 1780   0.676   6.067   6.664
  294SOL    HW1 1781   0.631   6.149   6.631
  294SOL    HW2 1782   0.610   6.009   6.712
  295SOL     OW 1783   3.715   1.314   3.638
  295SOL    HW1 1784   3.803   1.287   3.677
  295SOL    HW2 1785   3.708   1.414   3.638
  296SOL     OW 1786   3.560   2.096   3.113
  296SOL    HW1 1787   3.466   2.104   3.146
  296SOL    HW2 1788   3.562   2.105   3.014
  297SOL     OW 1789   2.816   5.062   3.429
  297SOL    HW1 1790   2.903   5.061   3.379
  297SOL    HW2 1791   2.741   5.084   3.366
  298SOL     OW 1792   3.252   5.521   1.678
  298SOL    HW1 1793   3.215   5.589   1.741
  298SOL    HW2 1794   3.312   5.567   1.612
  299SOL     OW 1795   5.192   3.466   5.890
  299SOL    HW1 1796   5.101   3.503   5.911
  299SOL    HW2 1797   5.212   3.391   5.952
  300SOL     OW 1798   6.552   0.625   2.691
  300SOL    HW1 1799   6.504   0.696   2.743
  300SOL    HW2 1800   6.509   0.616   2.601
  301SOL     OW 1801   4.863   3.392   1.207
  301SOL    HW1 1802   4.927   3.467   1.226
  301SOL    HW2 1803   4.900   3.335   1.133
  302SOL     OW 1804   1.289   0.463   3.346
  302SOL    HW1 1805   1.203   0.509   3.325
  302SOL    HW2 1806   1.274   0.364   3.344
  303SOL     OW 1807   5.842   0.875   2.458
  303SOL    HW1 1808   5.790   0.950   2.500
  303SOL    HW2 1809   5.778   0.809   2.418
  304SOL     OW 1810   2.422   0.371   3.564
  304SOL    HW1 1811   2.444   0.382   3.661
  304SOL    HW2 1812   2.323   0.364   3.553
  305SOL     OW 1813   0.270   3.390   0.405
  305SOL    HW1 1814   0.361   3.391   0.363
  305SOL    HW2 1815   0.214   3.319   0.362
  306SOL     OW 1816   1.610   0.626   3.798
  306SOL    HW1 1817   1.670   0.702   3.822
  306SOL    HW2 1818   1.661   0.560   3.742
  307SOL     OW 1819   4.612   6.827   0.901
  307SOL    HW1 1820   4.597   6.729   0.916
  307SOL    HW2 1821   4.710   6.845   0.897
  308SOL     OW 1822   6.367   4.166   4.871
  308SOL    HW1 1823   6.351   4.071   4.845
  308SOL    HW2 1824   6.421   4.169   4.955
  309SOL     OW 1825   4.244   3.882   5.838
  309SOL    HW1 1826   4.217   3.860   5.745
  309SOL    HW2 1827   4.209   3.972   5.863
  310SOL     OW 1828   6.836   6.664   5.610
  310SOL    HW1 1829   6.930   6.658   5.574
  310SOL    HW2 1830   6.817   6.759   5.635
  311SOL     OW 1831   6.495   5.546   1.715
  311SOL    HW1 1832   6.557   5.573   1.641
  311SOL    HW2 1833   6.535   5.574   1.803
  312SOL     OW 1834   4.497   1.879   5.904
  312SOL    HW1 1835   4.494   1.813   5.830
  312SOL    HW2 1836   4.432   1.851   5.976
  313SOL     OW 1837   3.047   4.377   1.637
  313SOL    HW1 1838   2.984   4.393   1.713
  313SOL    HW2 1839   2.996   4.350   1.556
  314SOL     OW 1840   3.109   5.351   6.897
  314SOL    HW1 1841   3.170   5.359   6.818
  314SOL    HW2 1842   3.051   5.432   6.903
  315SOL     OW 1843   1.051   2.882   3.427
  315SOL    HW1 1844   1.054   2.811   3.356
  315SOL    HW2 1845   1.040   2.972   3.384
  316SOL     OW 1846   2.284   2.461   4.139
  316SOL    HW1 1847   2.324   2.527   4.076
  316SOL    HW2 1848   2.357   2.408   4.183
  317SOL     OW 1849   0.636   0.460   1.558
  317SOL    HW1 1850   0.628   0.465   1.458
  317SOL    HW2 1851   0.612   0.548   1.597
  318SOL     OW 1852   0.904   6.014   0.306
  318SOL    HW1 1853   0.948   6.055   0.226
  318SOL    HW2 1854   0.889   5.917   0.290
  319SOL     OW 1855   0.361   0.649   2.762
  319SOL    HW1 1856   0.417   0.647   2.845
  319SOL    HW2 1857   0.358   0.742   2.725
  320SOL     OW 1858   5.203   2.478   6.741
  320SOL    HW1 1859   5.144   2.494   6.820
  320SOL    HW2 1860   5.299   2.476   6.770
  321SOL     OW 1861   2.984   1.376   2.008
  321SOL    HW1 1862   2.948   1.352   2.098
  321SOL    HW2 1863   3.084   1.372   2.010
  322SOL     OW 1864   3.239   3.313   4.812
  322SOL    HW1 1865   3.161   3.347   4.759
  322SOL    HW2 1866   3.242   3.213   4.806
  323SOL     OW 1867   0.475   3.644   6.977
  323SOL    HW1 1868   0.431   3.554   6.969
  323SOL    HW2 1869   0.458   3.697   6.895
  324SOL     OW 1870   2.184   2.894   4.099
  324SOL    HW1 1871   2.132   2.882   4.183
  324SOL    HW2 1872   2.271   2.845   4.107
  325SOL     OW 1873   1.970   2.970   1.560
  325SOL    HW1 1874   2.068   2.987   1.553
  325SOL    HW2 1875   1.921   3.031   1.498
  326SOL     OW 1876   1.975   5.244   6.558
  326SOL    HW1 1877   1.907   5.315   6.577
  326SOL    HW2 1878   1.938   5.156   6.587
  327SOL     OW 1879   1.395   5.185   3.836
  327SOL    HW1 1880   1.367   5.128   3.759
  327SOL    HW2 1881   1.323   5.250   3.858
  328SOL     OW 1882   3.287   5.048   2.505
  328SOL    HW1 1883   3.243   4.997   2.431
  328SOL    HW2 1884   3.385   5.058   2.486
  329SOL     OW 1885   3.187   3.735   4.061
  329SOL    HW1 1886   3.135   3.657   4.096
  329SOL    HW2 1887   3.210   3.719   3.965
  330SOL     OW 1888   3.370   6.064   2.209
  330SOL    HW1 1889   3.413   6.110   2.132
  330SOL    HW2 1890   3.273   6.088   2.214
  331SOL     OW 1891   4.666   5.060   6.605
  331SOL    HW1 1892   4.636   4.977   6.560
  331SOL    HW2 1893   4.684   5.131   6.537
  332SOL     OW 1894   3.853   2.172   4.398
  332SOL    HW1 1895   3.924   2.128   4.453
  332SOL    HW2 1896   3.828   2.260   4.438
  333SOL     OW 1897   3.334   0.038   6.584
  333SOL    HW1 1898   3.411   0.102   6.580
  333SOL    HW2 1899   3.358   6.974   6.534
  334SOL     OW 1900   2.461   6.819   1.215
  334SOL    HW1 1901   2.496   6.751   1.150
  334SOL    HW2 1902   2.524   6.827   1.292
  335SOL     OW 1903   3.399   6.692   4.095
  335SOL    HW1 1904   3.327   6.742   4.144
  335SOL    HW2 1905   3.386   6.703   3.996
  336SOL     OW 1906   2.197   0.709   3.945
  336SOL    HW1 1907   2.277   0.656   3.916
  336SOL    HW2 1908   2.183   0.785   3.882
  337SOL     OW 1909   0.166   3.792   0.708
  337SOL    HW1 1910   0.236   3.775   0.639
  337SOL    HW2 1911   0.095   3.721   0.701
  338SOL     OW 1912   2.867   2.507   0.791
  338SOL    HW1 1913   2.938   2.437   0.795
  338SOL    HW2 1914   2.795   2.485   0.857
  339SOL     OW 1915   3.759   6.543   4.024
  339SOL    HW1 1916   3.791   6.454   4.059
  339SOL    HW2 1917   3.764   6.542   3.924
  340SOL     OW 1918   5.205   4.033   4.611
  340SOL    HW1 1919   5.196   4.100   4.537
  340SOL    HW2 1920   5.151   3.951   4.589
  341SOL     OW 1921   6.421   0.030   3.971
  341SOL    HW1 1922   6.512   0.019   4.011
  341SOL    HW2 1923   6.425   0.099   3.898
  342SOL     OW 1924   5.901   4.048   0.001
  342SOL    HW1 1925   5.809   4.078   6.994
  342SOL    HW2 1926   5.896   3.997   0.086
  343SOL     OW 1927   2.063   5.958   0.932
  343SOL    HW1 1928   2.142   6.005   0.971
  343SOL    HW2 1929   2.023   5.898   1.001
  344SOL     OW 1930   2.017   5.516   1.462
  344SOL    HW1 1931   2.111   5.537   1.432
  344SOL    HW2 1932   2.013   5.422   1.495
  345SOL     OW 1933   6.809   0.898   5.920
  345SOL    HW1 1934   6.905   0.870   5.916
  345SOL    HW2 1935   6.793   0.973   5.856
  346SOL     OW 1936   2.323   0.255   1.744
  346SOL    HW1 1937   2.232   0.288   1.719
  346SOL    HW2 1938   2.331   0.255   1.844
  347SOL     OW 1939   4.867   6.862   6.488
  347SOL    HW1 1940   4.779   6.908   6.492
  347SOL    HW2 1941   4.853   6.763   6.489
  348SOL     OW 1942   4.880   5.033   1.525
  348SOL    HW1 1943   4.893   4.938   1.496
  348SOL    HW2 1944   4.842   5.086   1.449
  349SOL     OW 1945   0.081   4.754   2.337
  349SOL    HW1 1946   0.063   4.832   2.397
  349SOL    HW2 1947   0.003   4.740   2.277
  350SOL     OW 1948   3.481   3.464   1.906
  350SOL    HW1 1949   3.418   3.404   1.857
  350SOL    HW2 1950   3.448   3.479   1.999
  351SOL     OW 1951   2.511   2.426   0.548
  351SOL    HW1 1952   2.488   2.444   0.452
  351SOL    HW2 1953   2.537   2.330   0.559
  352SOL     OW 1954   3.930   6.915   4.538
  352SOL    HW1 1955   3.991   6.905   4.617
  352SOL    HW2 1956   3.918   7.012   4.517
  353SOL     OW 1957   2.854   7.011   0.961
  353SOL    HW1 1958   2.796   6.930   0.952
  353SOL    HW2 1959   2.942   6.993   0.918
  354SOL     OW 1960   4.226   2.458   0.249
  354SOL    HW1 1961   4.298   2.485   0.186
  354SOL    HW2 1962   4.241   2.501   0.338
  355SOL     OW 1963   6.708   2.685   2.941
  355SOL    HW1 1964   6.774   2.612   2.960
  355SOL    HW2 1965   6.645   2.693   3.018
  356SOL     OW 1966   4.250   5.613   4.431
  356SOL    HW1 1967   4.245   5.515   4.410
  356SOL    HW2 1968   4.305   5.626   4.513
  357SOL     OW 1969   6.802   6.783   5.297
  357SOL    HW1 1970   6.720   6.748   5.343
  357SOL    HW2 1971   6.787   6.878   5.269
  358SOL     OW 1972   5.834   0.344   1.514
  358SOL    HW1 1973   5.896   0.345   1.592
  358SOL    HW2 1974   5.759   0.410   1.529
  359SOL     OW 1975   2.160   2.162   2.151
  359SOL    HW1 1976   2.222   2.213   2.091
  359SOL    HW2 1977   2.213   2.117   2.222
  360SOL     OW 1978   2.481   6.274   6.271
  360SOL    HW1 1979   2.559   6.211   6.271
  360SOL    HW2 1980   2.513   6.365   6.246
  361SOL     OW 1981   5.497   5.639   2.702
  361SOL    HW1 1982   5.470   5.633   2.605
  361SOL    HW2 1983   5.440   5.707   2.748
  362SOL     OW 1984   3.603   3.621   0.477
  362SOL    HW1 1985   3.610   3.719   0.494
  362SOL    HW2 1986   3.534   3.582   0.538
  363SOL     OW 1987   3.918   5.113   3.684
  363SOL    HW1 1988   3.819   5.099   3.677
  363SOL    HW2 1989   3.965   5.048   3.625
  364SOL     OW 1990   0.589   5.754   5.319
  364SOL    HW1 1991   0.493   5.762   5.295
  364SOL    HW2 1992   0.604   5.794   5.410
  365SOL     OW 1993   4.820   6.110   2.395
  365SOL    HW1 1994   4.795   6.120   2.298
  365SOL    HW2 1995   4.775   6.029   2.433
  366SOL     OW 1996   5.650   1.082   0.260
  366SOL    HW1 1997   5.679   0.990   0.285
  366SOL    HW2 1998   5.589   1.118   0.331
  367SOL     OW 1999   5.011   2.793   0.848
  367SOL    HW1 2000   4.960   2.708   0.837
  367SOL    HW2 2001   5.094   2.790   0.791
  368SOL     OW 2002   0.769   4.204   5.234
  368SOL    HW1 2003   0.760   4.261   5.153
  368SOL    HW2 2004   0.691   4.219   5.294
  369SOL     OW 2005   6.686   4.590   1.874
  369SOL    HW1 2006   6.653   4.556   1.962
  369SOL    HW2 2007   6.711   4.686   1.882
  370SOL     OW 2008   2.964   1.540   5.659
  370SOL    HW1 2009   2.987   1.624   5.609
  370SOL    HW2 2010   2.868   1.544   5.687
  371SOL     OW 2011   2.253   3.356   6.534
  371SOL    HW1 2012   2.217   3.306   6.456
  371SOL    HW2 2013   2.341   3.396   6.511
  372SOL     OW 2014   6.884   0.692   4.961
  372SOL    HW1 2015   6.795   0.661   4.929
  372SOL    HW2 2016   6.895   0.669   5.058
  373SOL     OW 2017   6.695   6.454   5.736
  373SOL    HW1 2018   6.755   6.520   5.690
  373SOL    HW2 2019   6.749   6.376   5.768
  374SOL     OW 2020   4.534   6.775   2.366
  374SOL    HW1 2021   4.498   6.686   2.338
  374SOL    HW2 2022   4.460   6.830   2.404
  375SOL     OW 2023   6.899   4.687   3.783
  375SOL    HW1 2024   6.863   4.612   3.839
  375SOL    HW2 2025   6.862   4.680   3.691
  376SOL     OW 2026   1.798   3.768   3.801
  376SOL    HW1 2027   1.757   3.687   3.757
  376SOL    HW2 2028   1.893   3.777   3.771
  377SOL     OW 2029   6.223   2.976   2.191
  377SOL    HW1 2030   6.282   3.002   2.114
  377SOL    HW2 2031   6.156   3.049   2.207
  378SOL     OW 2032   3.771   2.465   5.589
  378SOL    HW1 2033   3.781   2.554   5.635
  378SOL    HW2 2034   3.752   2.394   5.657
  379SOL     OW 2035   5.848   4.210   1.377
  379SOL    HW1 2036   5.885   4.290   1.425
  379SOL    HW2 2037   5.757   4.189   1.413
  380SOL     OW 2038   2.405   1.498   1.900
  380SOL    HW1 2039   2.324   1.491   1.841
  380SOL    HW2 2040   2.466   1.569   1.865
  381SOL     OW 2041   1.693   4.653   1.297
  381SOL    HW1 2042   1.597   4.641   1.325
  381SOL    HW2 2043   1.753   4.629   1.373
  382SOL     OW 2044   4.159   5.605   6.666
  382SOL    HW1 2045   4.198   5.541   6.599
  382SOL    HW2 2046   4.223   5.681   6.680
  383SOL     OW 2047   6.154   2.909   5.898
  383SOL    HW1 2048   6.063   2.925   5.859
  383SOL    HW2 2049   6.155   2.939   5.993
  384SOL     OW 2050   1.115   3.805   4.988
  384SOL    HW1 2051   1.076   3.775   5.075
  384SOL    HW2 2052   1.200   3.855   5.005
  385SOL     OW 2053   5.080   6.346   0.069
  385SOL    HW1 2054   4.985   6.379   0.074
  385SOL    HW2 2055   5.135   6.412   0.017
  386SOL     OW 2056   3.923   6.966   5.127
  386SOL    HW1 2057   4.015   7.004   5.131
  386SOL    HW2 2058   3.907   6.908   5.207
  387SOL     OW 2059   0.567   6.667   3.777
  387SOL    HW1 2060   0.517   6.589   3.813
  387SOL    HW2 2061   0.577   6.658   3.678
  388SOL     OW 2062   0.622   2.173   4.908
  388SOL    HW1 2063   0.547   2.161   4.973
  388SOL    HW2 2064   0.645   2.085   4.866
  389SOL     OW 2065   4.352   4.047   1.692
  389SOL    HW1 2066   4.357   3.949   1.713
  389SOL    HW2 2067   4.381   4.100   1.771
  390SOL     OW 2068   3.631   1.146   0.426
  390SOL    HW1 2069   3.672   1.236   0.433
  390SOL    HW2 2070   3.541   1.154   0.383
  391SOL     OW 2071   2.662   4.122   5.318
  391SOL    HW1 2072   2.612   4.168   5.391
  391SOL    HW2 2073   2.598   4.067   5.264
  392SOL     OW 2074   1.438   3.217   2.512
  392SOL    HW1 2075   1.359   3.274   2.534
  392SOL    HW2 2076   1.499   3.268   2.451
  393SOL     OW 2077   1.304   4.497   0.663
  393SOL    HW1 2078   1.347   4.495   0.753
  393SOL    HW2 2079   1.213   4.538   0.670
  394SOL     OW 2080   0.561   3.035   6.977
  394SOL    HW1 2081   0.468   3.006   6.953
  394SOL    HW2 2082   0.614   3.050   6.894
  395SOL     OW 2083   5.539   4.006   1.907
  395SOL    HW1 2084   5.516   4.090   1.955
  395SOL    HW2 2085   5.612   4.024   1.842
  396SOL     OW 2086   2.528   2.137   2.548
  396SOL    HW1 2087   2.537   2.229   2.508
  396SOL    HW2 2088   2.613   2.113   2.595
  397SOL     OW 2089   4.924   1.183   5.363
  397SOL    HW1 2090   4.946   1.128   5.444
  397SOL    HW2 2091   4.911   1.123   5.285
  398SOL     OW 2092   1.194   6.394   4.567
  398SOL    HW1 2093   1.293   6.380   4.561
  398SOL    HW2 2094   1.158   6.418   4.476
  399SOL     OW 2095   6.236   6.261   4.259
  399SOL    HW1 2096   6.187   6.193   4.204
  399SOL    HW2 2097   6.177   6.340   4.275
  400SOL     OW 2098   6.720   0.012   4.938
  400SOL    HW1 2099   6.745   6.981   4.856
  400SOL    HW2 2100   6.623   7.016   4.959
  401SOL     OW 2101   6.324   0.759   6.185
  401SOL    HW1 2102   6.354   0.835   6.128
  401SOL    HW2 2103   6.381   0.754   6.267
  402SOL     OW 2104   6.092   0.479   2.149
  402SOL    HW1 2105   6.075   0.573   2.176
  402SOL    HW2 2106   6.178   0.473   2.099
  403SOL     OW 2107   3.029   0.179   6.276
  403SOL    HW1 2108   2.991   0.124   6.202
  403SOL    HW2 2109   3.105   0.130   6.318
  404SOL     OW 2110   3.652   6.343   5.443
  404SOL    HW1 2111   3.743   6.311   5.416
  404SOL    HW2 2112   3.657   6.439   5.469
  405SOL     OW 2113   2.108   4.066   3.355
  405SOL    HW1 2114   2.169   4.020   3.291
  405SOL    HW2 2115   2.038   4.117   3.304
  406SOL     OW 2116   0.822   4.761   5.273
  406SOL    HW1 2117   0.814   4.760   5.373
  406SOL    HW2 2118   0.918   4.769   5.247
  407SOL     OW 2119   1.952   3.033   3.699
  407SOL    HW1 2120   1.901   3.119   3.696
  407SOL    HW2 2121   2.050   3.053   3.702
  408SOL     OW 2122   3.784   2.148   2.710
  408SOL    HW1 2123   3.811   2.159   2.615
  408SOL    HW2 2124   3.826   2.066   2.748
  409SOL     OW 2125   0.107   3.705   1.814
  409SOL    HW1 2126   0.127   3.704   1.716
  409SOL    HW2 2127   0.011   3.729   1.828
  410SOL     OW 2128   1.107   2.425   1.321
  410SOL    HW1 2129   1.033   2.463   1.376
  410SOL    HW2 2130   1.127   2.487   1.245
  411SOL     OW 2131   0.150   1.870   1.860
  411SOL    HW1 2132   0.247   1.845   1.856
  411SOL    HW2 2133   0.102   1.834   1.781
  412SOL     OW 2134   2.803   4.859   2.804
  412SOL    HW1 2135   2.842   4.797   2.872
  412SOL    HW2 2136   2.864   4.863   2.724
  413SOL     OW 2137   3.745   4.870   2.259
  413SOL    HW1 2138   3.689   4.825   2.189
  413SOL    HW2 2139   3.696   4.949   2.295
  414SOL     OW 2140   3.371   7.009   3.943
  414SOL    HW1 2141   3.410   6.972   3.859
  414SOL    HW2 2142   3.287   6.959   3.966
  415SOL     OW 2143   6.886   1.881   0.626
  415SOL    HW1 2144   6.940   1.941   0.567
  415SOL    HW2 2145   6.872   1.793   0.581
  416SOL     OW 2146   5.510   3.877   4.801
  416SOL    HW1 2147   5.478   3.959   4.755
  416SOL    HW2 2148   5.601   3.852   4.766
  417SOL     OW 2149   2.110   1.252   6.500
  417SOL    HW1 2150   2.016   1.244   6.533
  417SOL    HW2 2151   2.140   1.165   6.462
  418SOL     OW 2152   3.150   6.646   4.702
  418SOL    HW1 2153   3.208   6.656   4.783
  418SOL    HW2 2154   3.151   6.730   4.649
  419SOL     OW 2155   6.896   6.973   2.119
  419SOL    HW1 2156   6.893   6.907   2.195
  419SOL    HW2 2157   6.951   6.936   2.045
  420SOL     OW 2158   5.407   0.675   6.536
  420SOL    HW1 2159   5.376   0.589   6.578
  420SOL    HW2 2160   5.333   0.714   6.482
  421SOL     OW 2161   5.202   4.429   4.738
  421SOL    HW1 2162   5.180   4.517   4.781
  421SOL    HW2 2163   5.222   4.444   4.641
  422SOL     OW 2164   4.959   2.222   0.871
  422SOL    HW1 2165   4.923   2.128   0.878
  422SOL    HW2 2166   4.882   2.285   0.860
  423SOL     OW 2167   2.891   0.652   6.775
  423SOL    HW1 2168   2.852   0.743   6.787
  423SOL    HW2 2169   2.918   0.616   6.864
  424SOL     OW 2170   1.714   5.347   2.907
  424SOL    HW1 2171   1.812   5.344   2.929
  424SOL    HW2 2172   1.702   5.331   2.809
  425SOL     OW 2173   4.690   1.062   4.808
  425SOL    HW1 2174   4.643   1.131   4.754
  425SOL    HW2 2175   4.689   1.088   4.904
  426SOL     OW 2176   2.378   2.578   4.891
  426SOL    HW1 2177   2.336   2.642   4.827
  426SOL    HW2 2178   2.412   2.627   4.970
  427SOL     OW 2179   4.704   1.595   3.773
  427SOL    HW1 2180   4.741   1.543   3.851
  427SOL    HW2 2181   4.714   1.541   3.690
  428SOL     OW 2182   2.653   0.765   4.786
  428SOL    HW1 2183   2.668   0.820   4.704
  428SOL    HW2 2184   2.732   0.773   4.847
  429SOL     OW 2185   0.904   6.105   3.819
  429SOL    HW1 2186   0.935   6.052   3.898
  429SOL    HW2 2187   0.917   6.203   3.838
  430SOL     OW 2188   1.713   6.930   3.641
  430SOL    HW1 2189   1.668   6.848   3.676
  430SOL    HW2 2190   1.797   6.946   3.692
  431SOL     OW 2191   3.039   1.945   1.283
  431SOL    HW1 2192   3.061   1.855   1.322
  431SOL    HW2 2193   3.022   1.935   1.185
  432SOL     OW 2194   5.352   2.295   1.177
  432SOL    HW1 2195   5.258   2.305   1.145
  432SOL    HW2 2196   5.410   2.363   1.131
  433SOL     OW 2197   3.491   6.395   6.250
  433SOL    HW1 2198   3.407   6.370   6.299
  433SOL    HW2 2199   3.549   6.451   6.309
  434SOL     OW 2200   3.694   6.009   3.787
  434SOL    HW1 2201   3.673   5.930   3.845
  434SOL    HW2 2202   3.708   5.978   3.693
  435SOL     OW 2203   3.459   1.540   5.789
  435SOL    HW1 2204   3.499   1.462   5.836
  435SOL    HW2 2205   3.418   1.511   5.703
  436SOL     OW 2206   3.513   6.060   3.392
  436SOL    HW1 2207   3.421   6.033   3.421
  436SOL    HW2 2208   3.520   6.159   3.393
  437SOL     OW 2209   6.916   1.197   4.392
  437SOL    HW1 2210   6.964   1.283   4.372
  437SOL    HW2 2211   6.978   1.120   4.381
  438SOL     OW 2212   0.666   5.348   3.629
  438SOL    HW1 2213   0.671   5.441   3.593
  438SOL    HW2 2214   0.755   5.323   3.667
  439SOL     OW 2215   5.961   0.559   2.556
  439SOL    HW1 2216   5.916   0.553   2.646
  439SOL    HW2 2217   5.893   0.583   2.487
  440SOL     OW 2218   3.554   0.911   6.933
  440SOL    HW1 2219   3.565   0.860   6.848
  440SOL    HW2 2220   3.588   0.856   7.010
  441SOL     OW 2221   6.623   4.123   3.180
  441SOL    HW1 2222   6.543   4.183   3.174
  441SOL    HW2 2223   6.682   4.137   3.100
  442SOL     OW 2224   5.054   4.257   5.910
  442SOL    HW1 2225   4.992   4.199   5.964
  442SOL    HW2 2226   5.147   4.250   5.947
  443SOL     OW 2227   4.783   4.228   2.987
  443SOL    HW1 2228   4.730   4.308   3.018
  443SOL    HW2 2229   4.789   4.229   2.887
  444SOL     OW 2230   3.862   1.296   0.671
  444SOL    HW1 2231   3.901   1.245   0.594
  444SOL    HW2 2232   3.917   1.279   0.753
  445SOL     OW 2233   2.676   6.129   2.885
  445SOL    HW1 2234   2.681   6.030   2.898
  445SOL    HW2 2235   2.609   6.151   2.815
  446SOL     OW 2236   5.412   5.590   3.010
  446SOL    HW1 2237   5.412   5.644   2.925
  446SOL    HW2 2238   5.362   5.639   3.080
  447SOL     OW 2239   6.088   3.926   5.897
  447SOL    HW1 2240   6.113   3.942   5.993
  447SOL    HW2 2241   6.158   3.966   5.838
  448SOL     OW 2242   3.133   1.483   2.586
  448SOL    HW1 2243   3.205   1.549   2.608
  448SOL    HW2 2244   3.058   1.494   2.651
  449SOL     OW 2245   1.962   2.815   3.872
  449SOL    HW1 2246   1.951   2.885   3.802
  449SOL    HW2 2247   2.011   2.853   3.950
  450SOL     OW 2248   0.579   4.765   3.413
  450SOL    HW1 2249   0.550   4.860   3.399
  450SOL    HW2 2250   0.540   4.708   3.341
  451SOL     OW 2251   0.367   2.488   3.754
  451SOL    HW1 2252   0.277   2.446   3.745
  451SOL    HW2 2253   0.431   2.444   3.691
  452SOL     OW 2254   3.653   6.329   2.703
  452SOL    HW1 2255   3.672   6.232   2.717
  452SOL    HW2 2256   3.601   6.364   2.781
  453SOL     OW 2257   4.014   0.189   6.907
  453SOL    HW1 2258   4.079   0.134   6.960
  453SOL    HW2 2259   3.965   0.130   6.843
  454SOL     OW 2260   6.663   4.234   5.886
  454SOL    HW1 2261   6.606   4.294   5.830
  454SOL    HW2 2262   6.622   4.224   5.977
  455SOL     OW 2263   0.153   4.002   5.990
  455SOL    HW1 2264   0.212   4.076   5.960
  455SOL    HW2 2265   0.209   3.922   6.013
  456SOL     OW 2266   1.857   0.947   3.290
  456SOL    HW1 2267   1.919   0.924   3.215
  456SOL    HW2 2268   1.797   0.870   3.309
  457SOL     OW 2269   1.690   5.791   5.947
  457SOL    HW1 2270   1.741   5.706   5.940
  457SOL    HW2 2271   1.604   5.783   5.895
  458SOL     OW 2272   2.634   1.777   3.454
  458SOL    HW1 2273   2.715   1.765   3.513
  458SOL    HW2 2274   2.596   1.687   3.432
  459SOL     OW 2275   2.171   0.244   5.111
  459SOL    HW1 2276   2.214   0.168   5.063
  459SOL    HW2 2277   2.232   0.276   5.184
  460SOL     OW 2278   1.317   1.508   5.190
  460SOL    HW1 2279   1.371   1.567   5.131
  460SOL    HW2 2280   1.378   1.454   5.248
  461SOL     OW 2281   0.001   4.508   5.323
  461SOL    HW1 2282   6.938   4.500   5.266
  461SOL    HW2 2283   6.996   4.555   5.408
  462SOL     OW 2284   3.362   3.573   4.252
  462SOL    HW1 2285   3.323   3.635   4.185
  462SOL    HW2 2286   3.290   3.540   4.314
  463SOL     OW 2287   6.172   7.015   2.665
  463SOL    HW1 2288   6.210   0.072   2.613
  463SOL    HW2 2289   6.072   0.004   2.668
  464SOL     OW 2290   3.632   6.360   5.796
  464SOL    HW1 2291   3.659   6.283   5.854
  464SOL    HW2 2292   3.557   6.410   5.840
  465SOL     OW 2293   1.397   1.892   0.696
  465SOL    HW1 2294   1.325   1.857   0.636
  465SOL    HW2 2295   1.422   1.821   0.762
  466SOL     OW 2296   3.303   6.164   5.047
  466SOL    HW1 2297   3.325   6.236   4.981
  466SOL    HW2 2298   3.331   6.193   5.138
  467SOL     OW 2299   0.308   1.850   2.649
  467SOL    HW1 2300   0.283   1.905   2.569
  467SOL    HW2 2301   0.393   1.885   2.688
  468SOL     OW 2302   4.459   0.194   6.346
  468SOL    HW1 2303   4.509   0.112   6.318
  468SOL    HW2 2304   4.523   0.262   6.381
  469SOL     OW 2305   2.791   4.763   5.617
  469SOL    HW1 2306   2.852   4.800   5.687
  469SOL    HW2 2307   2.700   4.803   5.628
  470SOL     OW 2308   2.509   5.408   3.162
  470SOL    HW1 2309   2.560   5.334   3.205
  470SOL    HW2 2310   2.559   5.441   3.082
  471SOL     OW 2311   2.626   2.470   3.914
  471SOL    HW1 2312   2.556   2.398   3.909
  471SOL    HW2 2313   2.701   2.439   3.971
  472SOL     OW 2314   6.106   4.336   6.352
  472SOL    HW1 2315   6.079   4.294   6.439
  472SOL    HW2 2316   6.053   4.294   6.277
  473SOL     OW 2317   6.825   2.324   2.666
  473SOL    HW1 2318   6.822   2.388   2.743
  473SOL    HW2 2319   6.740   2.333   2.613
  474SOL     OW 2320   6.244   6.077   4.727
  474SOL    HW1 2321   6.302   6.009   4.771
  474SOL    HW2 2322   6.294   6.119   4.651
  475SOL     OW 2323   5.815   2.424   0.448
  475SOL    HW1 2324   5.845   2.494   0.512
  475SOL    HW2 2325   5.894   2.369   0.420
  476SOL     OW 2326   0.920   4.187   2.025
  476SOL    HW1 2327   0.948   4.127   1.950
  476SOL    HW2 2328   0.834   4.152   2.064
  477SOL     OW 2329   2.722   6.124   3.849
  477SOL    HW1 2330   2.639   6.180   3.852
  477SOL    HW2 2331   2.704   6.035   3.892
  478SOL     OW 2332   4.654   5.906   2.484
  478SOL    HW1 2333   4.616   5.826   2.439
  478SOL    HW2 2334   4.610   5.920   2.572
  479SOL     OW 2335   4.081   3.541   3.962
  479SOL    HW1 2336   4.130   3.460   3.928
  479SOL    HW2 2337   4.038   3.519   4.050
  480SOL     OW 2338   1.314   6.662   2.934
  480SOL    HW1 2339   1.271   6.723   3.001
  480SOL    HW2 2340   1.403   6.632   2.970
  481SOL     OW 2341   0.753   6.117   0.789
  481SOL    HW1 2342   0.755   6.146   0.693
  481SOL    HW2 2343   0.784   6.022   0.796
  482SOL     OW 2344   5.357   4.355   2.467
  482SOL    HW1 2345   5.314   4.342   2.378
  482SOL    HW2 2346   5.413   4.437   2.465
  483SOL     OW 2347   5.785   2.043   2.846
  483SOL    HW1 2348   5.741   1.978   2.784
  483SOL    HW2 2349   5.717   2.079   2.910
  484SOL     OW 2350   2.305   4.416   4.668
  484SOL    HW1 2351   2.327   4.379   4.758
  484SOL    HW2 2352   2.274   4.511   4.677
  485SOL     OW 2353   5.709   3.477   2.966
  485SOL    HW1 2354   5.728   3.404   2.899
  485SOL    HW2 2355   5.769   3.466   3.045
  486SOL     OW 2356   6.180   6.919   6.117
  486SOL    HW1 2357   6.215   6.853   6.183
  486SOL    HW2 2358   6.215   7.010   6.139
  487SOL     OW 2359   0.277   6.539   3.921
  487SOL    HW1 2360   0.291   6.557   3.824
  487SOL    HW2 2361   0.184   6.505   3.936
  488SOL     OW 2362   2.057   6.394   3.560
  488SOL    HW1 2363   2.043   6.404   3.461
  488SOL    HW2 2364   2.143   6.347   3.578
  489SOL     OW 2365   6.600   6.075   4.673
  489SOL    HW1 2366   6.565   6.016   4.600
  489SOL    HW2 2367   6.559   6.049   4.760
  490SOL     OW 2368   1.401   5.185   6.214
  490SOL    HW1 2369   1.443   5.094   6.212
  490SOL    HW2 2370   1.396   5.222   6.121
  491SOL     OW 2371   0.178   2.923   0.430
  491SOL    HW1 2372   0.105   2.981   0.465
  491SOL    HW2 2373   0.146   2.872   0.350
  492SOL     OW 2374   1.141   1.681   5.785
  492SOL    HW1 2375   1.103   1.594   5.817
  492SOL    HW2 2376   1.241   1.675   5.784
  493SOL     OW 2377   2.410   6.607   5.166
  493SOL    HW1 2378   2.360   6.535   5.213
  493SOL    HW2 2379   2.442   6.574   5.077
  494SOL     OW 2380   2.357   0.365   5.548
  494SOL    HW1 2381   2.396   0.306   5.618
  494SOL    HW2 2382   2.311   0.443   5.591
  495SOL     OW 2383   4.290   6.342   5.386
  495SOL    HW1 2384   4.259   6.385   5.471
  495SOL    HW2 2385   4.288   6.243   5.395
  496SOL     OW 2386   6.092   2.337   2.802
  496SOL    HW1 2387   6.091   2.426   2.847
  496SOL    HW2 2388   6.119   2.266   2.868
  497SOL     OW 2389   3.585   0.853   6.274
  497SOL    HW1 2390   3.581   0.792   6.195
  497SOL    HW2 2391   3.681   0.869   6.298
  498SOL     OW 2392   0.428   5.370   2.111
  498SOL    HW1 2393   0.404   5.275   2.129
  498SOL    HW2 2394   0.347   5.428   2.120
  499SOL     OW 2395   3.502   4.618   6.315
  499SOL    HW1 2396   3.521   4.532   6.268
  499SOL    HW2 2397   3.444   4.600   6.395
  500SOL     OW 2398   5.980   2.230   6.787
  500SOL    HW1 2399   5.945   2.318   6.754
  500SOL    HW2 2400   5.933   2.156   6.740
  501SOL     OW 2401   1.577   6.961   2.787
  501SOL    HW1 2402   1.616   6.896   2.722
  501SOL    HW2 2403   1.617   0.032   2.772
  502SOL     OW 2404   2.135   4.540   6.425
  502SOL    HW1 2405   2.174   4.451   6.399
  502SOL    HW2 2406   2.127   4.598   6.343
  503SOL     OW 2407   3.701   4.777   6.385
  503SOL    HW1 2408   3.625   4.718   6.356
  503SOL    HW2 2409   3.788   4.730   6.371
  504SOL     OW 2410   6.352   6.092   2.259
  504SOL    HW1 2411   6.294   6.144   2.196
  504SOL    HW2 2412   6.380   6.150   2.335
  505SOL     OW 2413   4.898   6.756   5.124
  505SOL    HW1 2414   4.814   6.788   5.168
  505SOL    HW2 2415   4.965   6.830   5.123
  506SOL     OW 2416   3.060   5.679   3.004
  506SOL    HW1 2417   3.127   5.682   2.929
  506SOL    HW2 2418   3.108   5.672   3.091
  507SOL     OW 2419   4.043   1.027   1.958
  507SOL    HW1 2420   4.077   0.944   2.001
  507SOL    HW2 2421   3.992   1.081   2.025
  508SOL     OW 2422   0.041   4.297   4.355
  508SOL    HW1 2423   0.111   4.355   4.397
  508SOL    HW2 2424   0.043   4.206   4.397
  509SOL     OW 2425   4.879   0.553   6.676
  509SOL    HW1 2426   4.825   0.571   6.758
  509SOL    HW2 2427   4.923   0.637   6.646
  510SOL     OW 2428   6.306   4.277   5.953
  510SOL    HW1 2429   6.306   4.334   6.036
  510SOL    HW2 2430   6.378   4.207   5.961
  511SOL     OW 2431   1.627   1.479   0.044
  511SOL    HW1 2432   1.620   1.545   0.119
  511SOL    HW2 2433   1.620   1.386   0.080
  512SOL     OW 2434   5.422   2.667   0.157
  512SOL    HW1 2435   5.349   2.715   0.110
  512SOL    HW2 2436   5.382   2.599   0.219
  513SOL     OW 2437   5.688   0.317   2.539
  513SOL    HW1 2438   5.638   0.322   2.453
  513SOL    HW2 2439   5.653   0.386   2.603
  514SOL     OW 2440   6.998   0.104   4.406
  514SOL    HW1 2441   0.006   0.091   4.311
  514SOL    HW2 2442   0.043   0.055   4.466
  515SOL     OW 2443   3.029   0.691   6.519
  515SOL    HW1 2444   2.970   0.665   6.596
  515SOL    HW2 2445   3.031   0.616   6.453
  516SOL     OW 2446   2.824   4.564   1.176
  516SOL    HW1 2447   2.828   4.654   1.133
  516SOL    HW2 2448   2.870   4.497   1.117
  517SOL     OW 2449   2.952   5.072   2.385
  517SOL    HW1 2450   2.898   5.092   2.304
  517SOL    HW2 2451   2.940   5.145   2.452
  518SOL     OW 2452   2.055   3.320   3.580
  518SOL    HW1 2453   2.033   3.408   3.539
  518SOL    HW2 2454   2.058   3.249   3.510
  519SOL     OW 2455   6.452   6.323   3.753
  519SOL    HW1 2456   6.493   6.411   3.776
  519SOL    HW2 2457   6.506   6.249   3.792
  520SOL     OW 2458   1.397   3.326   0.144
  520SOL    HW1 2459   1.485   3.355   0.184
  520SOL    HW2 2460   1.406   3.234   0.106
  521SOL     OW 2461   4.929   5.036   4.527
  521SOL    HW1 2462   4.972   4.947   4.548
  521SOL    HW2 2463   4.830   5.024   4.523
  522SOL     OW 2464   4.503   3.810   1.070
  522SOL    HW1 2465   4.475   3.814   1.166
  522SOL    HW2 2466   4.433   3.853   1.013
  523SOL     OW 2467   0.169   6.279   1.573
  523SOL    HW1 2468   0.217   6.203   1.617
  523SOL    HW2 2469   0.125   6.246   1.488
  524SOL     OW 2470   0.395   2.739   1.997
  524SOL    HW1 2471   0.371   2.818   1.940
  524SOL    HW2 2472   0.369   2.757   2.091
  525SOL     OW 2473   0.917   3.202   6.921
  525SOL    HW1 2474   1.009   3.239   6.910
  525SOL    HW2 2475   0.909   3.162   7.013
  526SOL     OW 2476   3.712   6.721   4.462
  526SOL    HW1 2477   3.783   6.785   4.492
  526SOL    HW2 2478   3.674   6.675   4.543
  527SOL     OW 2479   1.336   1.956   0.147
  527SOL    HW1 2480   1.308   2.019   0.075
  527SOL    HW2 2481   1.260   1.942   0.210
  528SOL     OW 2482   0.168   4.088   3.908
  528SOL    HW1 2483   0.247   4.034   3.938
  528SOL    HW2 2484   0.195   4.145   3.830
  529SOL     OW 2485   2.787   6.998   5.539
  529SOL    HW1 2486   2.765   6.992   5.442
  529SOL    HW2 2487   2.800   6.906   5.576
  530SOL     OW 2488   3.689   3.323   1.830
  530SOL    HW1 2489   3.616   3.389   1.847
  530SOL    HW2 2490   3.655   3.231   1.852
  531SOL     OW 2491   2.609   1.041   2.537
  531SOL    HW1 2492   2.615   1.017   2.440
  531SOL    HW2 2493   2.673   0.986   2.590
  532SOL     OW 2494   2.225   3.239   0.114
  532SOL    HW1 2495   2.181   3.325   0.088
  532SOL    HW2 2496   2.322   3.242   0.090
  533SOL     OW 2497   4.688   0.331   3.544
  533SOL    HW1 2498   4.764   0.359   3.603
  533SOL    HW2 2499   4.611   0.303   3.601
  534SOL     OW 2500   0.897   5.554   1.088
  534SOL    HW1 2501   0.815   5.609   1.101
  534SOL    HW2 2502   0.949   5.550   1.174
  535SOL     OW 2503   6.126   4.051   2.935
  535SOL    HW1 2504   6.189   4.014   3.003
  535SOL    HW2 2505   6.146   4.010   2.846
  536SOL     OW 2506   6.811   6.035   3.043
  536SOL    HW1 2507   6.893   5.981   3.063
  536SOL    HW2 2508   6.763   6.055   3.129
  537SOL     OW 2509   3.555   6.850   4.254
  537SOL    HW1 2510   3.599   6.807   4.333
  537SOL    HW2 2511   3.507   6.780   4.201
  538SOL     OW 2512   2.270   4.922   5.716
  538SOL    HW1 2513   2.255   5.021   5.715
  538SOL    HW2 2514   2.302   4.892   5.627
  539SOL     OW 2515   1.336   5.372   1.104
  539SOL    HW1 2516   1.317   5.443   1.036
  539SOL    HW2 2517   1.314   5.406   1.195
  540SOL     OW 2518   1.964   0.928   4.258
  540SOL    HW1 2519   1.929   0.862   4.324
  540SOL    HW2 2520   1.989   0.880   4.173
  541SOL     OW 2521   4.450   6.121   4.111
  541SOL    HW1 2522   4.511   6.114   4.190
  541SOL    HW2 2523   4.355   6.109   4.142
  542SOL     OW 2524   3.616   5.487   6.709
  542SOL    HW1 2525   3.595   5.580   6.679
  542SOL    HW2 2526   3.601   5.423   6.633
  543SOL     OW 2527   5.960   3.651   4.065
  543SOL    HW1 2528   5.933   3.581   4.000
  543SOL    HW2 2529   5.957   3.614   4.158
  544SOL     OW 2530   0.363   4.726   6.928
  544SOL    HW1 2531   0.396   4.636   6.901
  544SOL    HW2 2532   0.318   4.719   7.018
  545SOL     OW 2533   5.616   1.747   1.271
  545SOL    HW1 2534   5.612   1.822   1.338
  545SOL    HW2 2535   5.667   1.671   1.310
  546SOL     OW 2536   0.349   4.594   2.314
  546SOL    HW1 2537   0.317   4.679   2.356
  546SOL    HW2 2538   0.273   4.552   2.263
  547SOL     OW 2539   3.333   1.990   0.544
  547SOL    HW1 2540   3.356   2.038   0.460
  547SOL    HW2 2541   3.387   1.906   0.551
  548SOL     OW 2542   3.504   3.119   0.654
  548SOL    HW1 2543   3.478   3.031   0.693
  548SOL    HW2 2544   3.491   3.191   0.722
  549SOL     OW 2545   5.422   2.606   0.613
  549SOL    HW1 2546   5.391   2.511   0.605
  549SOL    HW2 2547   5.510   2.608   0.662
  550SOL     OW 2548   6.983   4.345   3.071
  550SOL    HW1 2549   0.045   4.393   3.037
  550SOL    HW2 2550   6.986   4.343   3.171
  551SOL     OW 2551   6.906   0.705   0.873
  551SOL    HW1 2552   6.880   0.734   0.965
  551SOL    HW2 2553   6.962   0.623   0.878
  552SOL     OW 2554   5.334   5.311   5.085
  552SOL    HW1 2555   5.422   5.350   5.059
  552SOL    HW2 2556   5.340   5.273   5.177
  553SOL     OW 2557   3.497   0.343   4.599
  553SOL    HW1 2558   3.450   0.421   4.641
  553SOL    HW2 2559   3.445   0.312   4.519
  554SOL     OW 2560   5.692   5.690   0.089
  554SOL    HW1 2561   5.656   5.710   0.180
  554SOL    HW2 2562   5.625   5.636   0.038
  555SOL     OW 2563   3.536   5.803   5.418
  555SOL    HW1 2564   3.518   5.901   5.412
  555SOL    HW2 2565   3.535   5.763   5.327
  556SOL     OW 2566   5.499   2.167   4.143
  556SOL    HW1 2567   5.561   2.094   4.113
  556SOL    HW2 2568   5.490   2.163   4.243
  557SOL     OW 2569   6.919   4.269   5.995
  557SOL    HW1 2570   6.975   4.320   5.929
  557SOL    HW2 2571   6.825   4.263   5.960
  558SOL     OW 2572   4.155   3.578   3.307
  558SOL    HW1 2573   4.253   3.592   3.323
  558SOL    HW2 2574   4.106   3.663   3.323
  559SOL     OW 2575   6.346   5.553   5.179
  559SOL    HW1 2576   6.329   5.464   5.136
  559SOL    HW2 2577   6.258   5.598   5.199
  560SOL     OW 2578   6.554   3.140   4.108
  560SOL    HW1 2579   6.575   3.194   4.027
  560SOL    HW2 2580   6.482   3.074   4.086
  561SOL     OW 2581   0.002   3.399   6.412
  561SOL    HW1 2582   6.940   3.452   6.386
  561SOL    HW2 2583   7.013   3.306   6.377
  562SOL     OW 2584   5.137   6.560   5.482
  562SOL    HW1 2585   5.079   6.596   5.554
  562SOL    HW2 2586   5.186   6.635   5.437
  563SOL     OW 2587   1.544   1.680   4.265
  563SOL    HW1 2588   1.594   1.743   4.205
  563SOL    HW2 2589   1.505   1.731   4.342
  564SOL     OW 2590   0.239   1.575   6.615
  564SOL    HW1 2591   0.262   1.533   6.527
  564SOL    HW2 2592   0.207   1.505   6.678
  565SOL     OW 2593   3.147   3.035   3.803
  565SOL    HW1 2594   3.163   3.021   3.705
  565SOL    HW2 2595   3.150   2.946   3.850
  566SOL     OW 2596   2.494   4.909   2.671
  566SOL    HW1 2597   2.496   4.887   2.574
  566SOL    HW2 2598   2.575   4.961   2.696
  567SOL     OW 2599   2.769   2.605   0.527
  567SOL    HW1 2600   2.802   2.587   0.620
  567SOL    HW2 2601   2.684   2.554   0.512
  568SOL     OW 2602   5.452   6.838   0.485
  568SOL    HW1 2603   5.460   6.914   0.421
  568SOL    HW2 2604   5.538   6.826   0.535
  569SOL     OW 2605   0.789   2.406   0.114
  569SOL    HW1 2606   0.739   2.333   0.067
  569SOL    HW2 2607   0.848   2.453   0.048
  570SOL     OW 2608   2.696   0.148   6.095
  570SOL    HW1 2609   2.715   0.200   6.178
  570SOL    HW2 2610   2.651   0.206   6.028
  571SOL     OW 2611   2.378   4.865   3.561
  571SOL    HW1 2612   2.381   4.892   3.464
  571SOL    HW2 2613   2.387   4.766   3.569
  572SOL     OW 2614   1.759   5.621   4.946
  572SOL    HW1 2615   1.817   5.683   4.893
  572SOL    HW2 2616   1.669   5.661   4.958
  573SOL     OW 2617   6.688   1.741   5.275
  573SOL    HW1 2618   6.692   1.642   5.271
  573SOL    HW2 2619   6.649   1.769   5.363
  574SOL     OW 2620   3.466   1.044   4.939
  574SOL    HW1 2621   3.493   1.036   4.843
  574SOL    HW2 2622   3.547   1.062   4.995
  575SOL     OW 2623   3.919   2.816   1.095
  575SOL    HW1 2624   3.882   2.728   1.067
  575SOL    HW2 2625   3.915   2.824   1.195
  576SOL     OW 2626   1.973   2.889   2.847
  576SOL    HW1 2627   1.977   2.948   2.766
  576SOL    HW2 2628   1.941   2.943   2.926
  577SOL     OW 2629   0.698   0.531   2.272
  577SOL    HW1 2630   0.784   0.578   2.254
  577SOL    HW2 2631   0.625   0.574   2.218
  578SOL     OW 2632   1.178   5.601   0.243
  578SOL    HW1 2633   1.266   5.643   0.263
  578SOL    HW2 2634   1.193   5.509   0.206
  579SOL     OW 2635   2.241   4.714   2.257
  579SOL    HW1 2636   2.188   4.630   2.269
  579SOL    HW2 2637   2.323   4.710   2.315
  580SOL     OW 2638   4.421   5.094   4.920
  580SOL    HW1 2639   4.335   5.141   4.941
  580SOL    HW2 2640   4.432   5.016   4.982
  581SOL     OW 2641   0.893   3.505   3.797
  581SOL    HW1 2642   0.876   3.432   3.730
  581SOL    HW2 2643   0.905   3.466   3.888
  582SOL     OW 2644   4.865   5.734   3.410
  582SOL    HW1 2645   4.803   5.692   3.476
  582SOL    HW2 2646   4.817   5.749   3.324
  583SOL     OW 2647   3.070   5.512   5.501
  583SOL    HW1 2648   3.140   5.465   5.554
  583SOL    HW2 2649   2.989   5.526   5.558
  584SOL     OW 2650   3.172   6.889   6.343
  584SOL    HW1 2651   3.106   6.855   6.410
  584SOL    HW2 2652   3.264   6.858   6.367
  585SOL     OW 2653   4.121   7.000   1.580
  585SOL    HW1 2654   4.033   7.007   1.627
  585SOL    HW2 2655   4.110   6.944   1.497
  586SOL     OW 2656   3.703   0.275   1.018
  586SOL    HW1 2657   3.686   0.180   1.042
  586SOL    HW2 2658   3.735   0.280   0.923
  587SOL     OW 2659   5.585   2.131   1.986
  587SOL    HW1 2660   5.488   2.107   1.980
  587SOL    HW2 2661   5.623   2.138   1.894
  588SOL     OW 2662   1.608   5.199   0.911
  588SOL    HW1 2663   1.650   5.156   0.831
  588SOL    HW2 2664   1.573   5.128   0.972
  589SOL     OW 2665   3.277   5.489   1.268
  589SOL    HW1 2666   3.320   5.536   1.345
  589SOL    HW2 2667   3.275   5.391   1.285
  590SOL     OW 2668   5.534   1.439   0.675
  590SOL    HW1 2669   5.596   1.375   0.630
  590SOL    HW2 2670   5.560   1.532   0.652
  591SOL     OW 2671   4.461   5.768   3.793
  591SOL    HW1 2672   4.437   5.753   3.697
  591SOL    HW2 2673   4.430   5.859   3.821
  592SOL     OW 2674   4.919   0.906   3.830
  592SOL    HW1 2675   4.915   0.994   3.877
  592SOL    HW2 2676   4.913   0.922   3.731
  593SOL     OW 2677   3.913   2.134   4.723
  593SOL    HW1 2678   3.939   2.169   4.812
  593SOL    HW2 2679   3.985   2.153   4.656
  594SOL     OW 2680   6.052   1.798   0.855
  594SOL    HW1 2681   6.097   1.812   0.943
  594SOL    HW2 2682   5.967   1.747   0.868
  595SOL     OW 2683   5.206   6.365   3.451
  595SOL    HW1 2684   5.158   6.435   3.504
  595SOL    HW2 2685   5.240   6.294   3.512
  596SOL     OW 2686   0.124   4.557   3.438
  596SOL    HW1 2687   0.102   4.645   3.395
  596SOL    HW2 2688   0.132   4.569   3.537
  597SOL     OW 2689   3.594   0.391   6.002
  597SOL    HW1 2690   3.522   0.442   6.049
  597SOL    HW2 2691   3.684   0.422   6.034
  598SOL     OW 2692   2.995   3.928   4.869
  598SOL    HW1 2693   2.984   3.831   4.887
  598SOL    HW2 2694   2.914   3.978   4.902
  599SOL     OW 2695   1.718   6.715   1.713
  599SOL    HW1 2696   1.767   6.802   1.708
  599SOL    HW2 2697   1.736   6.671   1.801
  600SOL     OW 2698   0.245   3.576   5.810
  600SOL    HW1 2699   0.316   3.646   5.804
  600SOL    HW2 2700   0.157   3.619   5.831
  601SOL     OW 2701   1.812   0.911   5.515
  601SOL    HW1 2702   1.798   0.935   5.418
  601SOL    HW2 2703   1.886   0.844   5.522
  602SOL     OW 2704   3.152   0.213   5.746
  602SOL    HW1 2705   3.130   0.267   5.827
  602SOL    HW2 2706   3.245   0.233   5.717
  603SOL     OW 2707   1.913   1.292   5.660
  603SOL    HW1 2708   1.925   1.271   5.563
  603SOL    HW2 2709   1.998   1.273   5.709
  604SOL     OW 2710   0.420   2.251   1.604
  604SOL    HW1 2711   0.507   2.239   1.555
  604SOL    HW2 2712   0.347   2.208   1.551
  605SOL     OW 2713   0.023   4.955   2.525
  605SOL    HW1 2714   0.046   5.052   2.511
  605SOL    HW2 2715   6.947   4.939   2.501
  606SOL     OW 2716   4.639   6.817   5.216
  606SOL    HW1 2717   4.588   6.741   5.176
  606SOL    HW2 2718   4.577   6.892   5.237
  607SOL     OW 2719   0.795   4.916   5.785
  607SOL    HW1 2720   0.794   4.827   5.738
  607SOL    HW2 2721   0.829   4.986   5.724
  608SOL     OW 2722   3.848   0.023   6.709
  608SOL    HW1 2723   3.900   6.965   6.747
  608SOL    HW2 2724   3.753   0.016   6.739
  609SOL     OW 2725   3.741   2.517   1.683
  609SOL    HW1 2726   3.707   2.601   1.725
  609SOL    HW2 2727   3.704   2.438   1.732
  610SOL     OW 2728   4.072   1.914   0.187
  610SOL    HW1 2729   4.003   1.956   0.245
  610SOL    HW2 2730   4.126   1.985   0.143
  611SOL     OW 2731   4.190   6.866   2.942
  611SOL    HW1 2732   4.248   6.787   2.918
  611SOL    HW2 2733   4.143   6.899   2.860
  612SOL     OW 2734   2.749   5.063   5.140
  612SOL    HW1 2735   2.716   4.971   5.157
  612SOL    HW2 2736   2.840   5.059   5.098
  613SOL     OW 2737   5.420   4.632   5.004
  613SOL    HW1 2738   5.424   4.719   5.054
  613SOL    HW2 2739   5.365   4.645   4.922
  614SOL     OW 2740   5.046   4.862   5.149
  614SOL    HW1 2741   5.059   4.766   5.173
  614SOL    HW2 2742   4.980   4.903   5.212
  615SOL     OW 2743   6.634   3.880   0.636
  615SOL    HW1 2744   6.572   3.811   0.673
  615SOL    HW2 2745   6.652   3.950   0.705
  616SOL     OW 2746   6.425   2.956   2.872
  616SOL    HW1 2747   6.346   2.907   2.836
  616SOL    HW2 2748   6.480   2.990   2.795
  617SOL     OW 2749   1.309   5.088   6.836
  617SOL    HW1 2750   1.322   5.020   6.764
  617SOL    HW2 2751   1.253   5.050   6.909
  618SOL     OW 2752   1.857   2.491   1.526
  618SOL    HW1 2753   1.787   2.484   1.455
  618SOL    HW2 2754   1.833   2.564   1.589
  619SOL     OW 2755   1.668   1.904   1.093
  619SOL    HW1 2756   1.703   1.978   1.036
  619SOL    HW2 2757   1.661   1.934   1.188
  620SOL     OW 2758   4.394   1.845   0.777
  620SOL    HW1 2759   4.388   1.944   0.786
  620SOL    HW2 2760   4.303   1.805   0.787
  621SOL     OW 2761   5.947   5.035   6.357
  621SOL    HW1 2762   5.923   4.949   6.311
  621SOL    HW2 2763   6.025   5.077   6.311
  622SOL     OW 2764   1.788   1.081   0.250
  622SOL    HW1 2765   1.848   1.014   0.294
  622SOL    HW2 2766   1.812   1.173   0.280
  623SOL     OW 2767   0.635   6.229   5.477
  623SOL    HW1 2768   0.724   6.214   5.520
  623SOL    HW2 2769   0.635   6.317   5.429
  624SOL     OW 2770   0.289   2.847   2.250
  624SOL    HW1 2771   0.331   2.888   2.331
  624SOL    HW2 2772   0.211   2.903   2.221
  625SOL     OW 2773   3.122   1.907   1.629
  625SOL    HW1 2774   3.175   1.968   1.687
  625SOL    HW2 2775   3.157   1.912   1.535
  626SOL     OW 2776   2.052   5.801   3.471
  626SOL    HW1 2777   2.057   5.896   3.440
  626SOL    HW2 2778   2.145   5.766   3.485
  627SOL     OW 2779   5.307   0.506   0.591
  627SOL    HW1 2780   5.403   0.493   0.617
  627SOL    HW2 2781   5.270   0.583   0.642
  628SOL     OW 2782   4.764   4.899   4.857
  628SOL    HW1 2783   4.708   4.948   4.791
  628SOL    HW2 2784   4.854   4.942   4.862
  629SOL     OW 2785   0.378   0.114   1.510
  629SOL    HW1 2786   0.330   0.168   1.579
  629SOL    HW2 2787   0.318   0.043   1.475
  630SOL     OW 2788   5.278   2.663   2.354
  630SOL    HW1 2789   5.341   2.711   2.415
  630SOL    HW2 2790   5.294   2.565   2.360
  631SOL     OW 2791   3.280   0.700   5.059
  631SOL    HW1 2792   3.237   0.620   5.103
  631SOL    HW2 2793   3.378   0.684   5.049
  632SOL     OW 2794   2.311   1.116   0.497
  632SOL    HW1 2795   2.408   1.138   0.500
  632SOL    HW2 2796   2.277   1.123   0.404
  633SOL     OW 2797   3.168   5.142   0.361
  633SOL    HW1 2798   3.078   5.174   0.391
  633SOL    HW2 2799   3.184   5.172   0.267
  634SOL     OW 2800   4.305   4.727   1.681
  634SOL    HW1 2801   4.211   4.732   1.645
  634SOL    HW2 2802   4.327   4.632   1.702
  635SOL     OW 2803   4.549   6.634   3.376
  635SOL    HW1 2804   4.597   6.714   3.411
  635SOL    HW2 2805   4.614   6.578   3.324
  636SOL     OW 2806   5.279   5.447   6.576
  636SOL    HW1 2807   5.341   5.428   6.499
  636SOL    HW2 2808   5.303   5.389   6.653
  637SOL     OW 2809   5.372   5.013   1.932
  637SOL    HW1 2810   5.424   5.083   1.884
  637SOL    HW2 2811   5.323   4.956   1.866
  638SOL     OW 2812   5.037   1.207   2.368
  638SOL    HW1 2813   5.013   1.264   2.447
  638SOL    HW2 2814   4.956   1.195   2.311
  639SOL     OW 2815   4.835   5.102   2.233
  639SOL    HW1 2816   4.834   5.085   2.135
  639SOL    HW2 2817   4.769   5.042   2.278
  640SOL     OW 2818   2.882   4.518   5.712
  640SOL    HW1 2819   2.803   4.458   5.725
  640SOL    HW2 2820   2.850   4.610   5.688
  641SOL     OW 2821   0.766   5.432   4.262
  641SOL    HW1 2822   0.762   5.350   4.204
  641SOL    HW2 2823   0.754   5.406   4.358
  642SOL     OW 2824   0.584   4.161   4.181
  642SOL    HW1 2825   0.598   4.256   4.152
  642SOL    HW2 2826   0.497   4.153   4.230
  643SOL     OW 2827   5.989   5.788   4.378
  643SOL    HW1 2828   5.891   5.767   4.375
  643SOL    HW2 2829   6.031   5.760   4.292
  644SOL     OW 2830   0.731   6.074   3.010
  644SOL    HW1 2831   0.726   5.976   2.987
  644SOL    HW2 2832   0.752   6.126   2.928
  645SOL     OW 2833   4.673   2.747   4.559
  645SOL    HW1 2834   4.728   2.824   4.591
  645SOL    HW2 2835   4.678   2.672   4.625
  646SOL     OW 2836   2.031   2.010   3.350
  646SOL    HW1 2837   1.975   1.936   3.388
  646SOL    HW2 2838   2.050   1.992   3.253
  647SOL     OW 2839   6.040   2.686   6.815
  647SOL    HW1 2840   6.065   2.723   6.904
  647SOL    HW2 2841   6.116   2.632   6.778
  648SOL     OW 2842   6.253   3.461   2.771
  648SOL    HW1 2843   6.228   3.373   2.812
  648SOL    HW2 2844   6.188   3.484   2.698
  649SOL     OW 2845   4.422   4.237   0.428
  649SOL    HW1 2846   4.483   4.316   0.426
  649SOL    HW2 2847   4.398   4.215   0.523
  650SOL     OW 2848   4.783   4.643   0.532
  650SOL    HW1 2849   4.767   4.569   0.597
  650SOL    HW2 2850   4.772   4.610   0.439
  651SOL     OW 2851   0.564   6.170   1.008
  651SOL    HW1 2852   0.487   6.114   1.039
  651SOL    HW2 2853   0.604   6.130   0.926
  652SOL     OW 2854   4.812   6.993   3.509
  652SOL    HW1 2855   4.814   6.893   3.514
  652SOL    HW2 2856   4.720   0.004   3.485
  653SOL     OW 2857   3.315   5.373   5.194
  653SOL    HW1 2858   3.341   5.445   5.258
  653SOL    HW2 2859   3.383   5.300   5.196
  654SOL     OW 2860   6.822   4.963   5.918
  654SOL    HW1 2861   6.777   4.931   6.001
  654SOL    HW2 2862   6.917   4.988   5.939
  655SOL     OW 2863   0.839   6.957   1.813
  655SOL    HW1 2864   0.833   0.011   1.882
  655SOL    HW2 2865   0.911   6.979   1.748
  656SOL     OW 2866   2.170   6.016   1.762
  656SOL    HW1 2867   2.164   6.114   1.781
  656SOL    HW2 2868   2.172   6.001   1.663
  657SOL     OW 2869   2.223   2.034   1.730
  657SOL    HW1 2870   2.263   1.946   1.706
  657SOL    HW2 2871   2.238   2.100   1.656
  658SOL     OW 2872   3.475   3.443   6.977
  658SOL    HW1 2873   3.564   3.455   0.003
  658SOL    HW2 2874   3.402   3.448   0.027
  659SOL     OW 2875   3.158   6.380   6.353
  659SOL    HW1 2876   3.165   6.359   6.255
  659SOL    HW2 2877   3.134   6.298   6.403
  660SOL     OW 2878   3.900   5.700   1.871
  660SOL    HW1 2879   3.840   5.737   1.800
  660SOL    HW2 2880   3.950   5.621   1.835
  661SOL     OW 2881   4.365   6.268   3.761
  661SOL    HW1 2882   4.382   6.199   3.831
  661SOL    HW2 2883   4.267   6.283   3.752
  662SOL     OW 2884   3.557   0.770   5.060
  662SOL    HW1 2885   3.522   0.862   5.074
  662SOL    HW2 2886   3.552   0.748   4.962
  663SOL     OW 2887   2.055   4.020   5.301
  663SOL    HW1 2888   2.121   3.951   5.273
  663SOL    HW2 2889   1.964   3.979   5.309
  664SOL     OW 2890   6.750   6.651   6.222
  664SOL    HW1 2891   6.786   6.665   6.130
  664SOL    HW2 2892   6.815   6.597   6.276
  665SOL     OW 2893   3.588   5.169   3.358
  665SOL    HW1 2894   3.628   5.233   3.293
  665SOL    HW2 2895   3.654   5.098   3.380
  666SOL     OW 2896   4.172   0.552   1.791
  666SOL    HW1 2897   4.184   0.485   1.865
  666SOL    HW2 2898   4.203   0.642   1.821
  667SOL     OW 2899   0.628   5.250   1.735
  667SOL    HW1 2900   0.681   5.232   1.817
  667SOL    HW2 2901   0.531   5.233   1.754
  668SOL     OW 2902   5.525   5.835   5.757
  668SOL    HW1 2903   5.550   5.909   5.820
  668SOL    HW2 2904   5.602   5.772   5.748
  669SOL     OW 2905   5.740   0.807   3.033
  669SOL    HW1 2906   5.683   0.848   3.105
  669SOL    HW2 2907   5.770   0.879   2.970
  670SOL     OW 2908   2.466   1.626   2.341
  670SOL    HW1 2909   2.466   1.726   2.342
  670SOL    HW2 2910   2.538   1.593   2.280
  671SOL     OW 2911   3.597   5.866   1.448
  671SOL    HW1 2912   3.534   5.941   1.426
  671SOL    HW2 2913   3.639   5.833   1.364
  672SOL     OW 2914   6.806   5.452   2.076
  672SOL    HW1 2915   6.855   5.538   2.061
  672SOL    HW2 2916   6.800   5.433   2.174
  673SOL     OW 2917   5.356   0.126   1.094
  673SOL    HW1 2918   5.421   0.052   1.079
  673SOL    HW2 2919   5.264   0.088   1.107
  674SOL     OW 2920   0.797   1.910   4.897
  674SOL    HW1 2921   0.850   1.849   4.956
  674SOL    HW2 2922   0.858   1.978   4.856
  675SOL     OW 2923   5.972   2.542   2.257
  675SOL    HW1 2924   6.038   2.605   2.216
  675SOL    HW2 2925   5.948   2.471   2.190
  676SOL     OW 2926   2.261   4.710   4.653
  676SOL    HW1 2927   2.201   4.772   4.704
  676SOL    HW2 2928   2.240   4.716   4.555
  677SOL     OW 2929   5.053   1.164   1.586
  677SOL    HW1 2930   5.114   1.241   1.567
  677SOL    HW2 2931   4.983   1.160   1.515
  678SOL     OW 2932   2.438   4.626   4.872
  678SOL    HW1 2933   2.390   4.646   4.787
  678SOL    HW2 2934   2.537   4.638   4.859
  679SOL     OW 2935   5.196   1.802   4.785
  679SOL    HW1 2936   5.249   1.725   4.750
  679SOL    HW2 2937   5.257   1.877   4.809
  680SOL     OW 2938   4.873   6.262   4.545
  680SOL    HW1 2939   4.789   6.299   4.504
  680SOL    HW2 2940   4.892   6.311   4.630
  681SOL     OW 2941   4.355   5.748   2.068
  681SOL    HW1 2942   4.339   5.727   1.971
  681SOL    HW2 2943   4.301   5.687   2.125
  682SOL     OW 2944   6.499   1.341   1.555
  682SOL    HW1 2945   6.581   1.284   1.564
  682SOL    HW2 2946   6.506   1.395   1.471
  683SOL     OW 2947   4.668   3.052   0.900
  683SOL    HW1 2948   4.585   3.074   0.849
  683SOL    HW2 2949   4.694   3.131   0.956
  684SOL     OW 2950   5.987   0.896   6.850
  684SOL    HW1 2951   6.045   0.872   6.772
  684SOL    HW2 2952   5.951   0.988   6.838
  685SOL     OW 2953   2.997   2.213   3.895
  685SOL    HW1 2954   3.052   2.146   3.945
  685SOL    HW2 2955   3.036   2.227   3.804
  686SOL     OW 2956   4.507   1.506   4.263
  686SOL    HW1 2957   4.426   1.473   4.311
  686SOL    HW2 2958   4.478   1.553   4.179
  687SOL     OW 2959   0.755   1.889   4.569
  687SOL    HW1 2960   0.702   1.845   4.641
  687SOL    HW2 2961   0.826   1.947   4.610
  688SOL     OW 2962   0.117   1.115   5.984
  688SOL    HW1 2963   0.059   1.035   6.006
  688SOL    HW2 2964   0.061   1.185   5.941
  689SOL     OW 2965   2.393   4.445   6.074
  689SOL    HW1 2966   2.357   4.421   5.984
  689SOL    HW2 2967   2.340   4.521   6.112
  690SOL     OW 2968   6.868   3.947   3.601
  690SOL    HW1 2969   6.911   3.859   3.583
  690SOL    HW2 2970   6.848   3.993   3.514
  691SOL     OW 2971   3.277   1.598   0.962
  691SOL    HW1 2972   3.252   1.522   1.022
  691SOL    HW2 2973   3.305   1.562   0.873
  692SOL     OW 2974   3.673   1.295   5.279
  692SOL    HW1 2975   3.624   1.218   5.238
  692SOL    HW2 2976   3.717   1.265   5.363
  693SOL     OW 2977   5.108   6.358   3.805
  693SOL    HW1 2978   5.032   6.292   3.802
  693SOL    HW2 2979   5.087   6.435   3.745
  694SOL     OW 2980   4.200   5.785   4.078
  694SOL    HW1 2981   4.271   5.802   4.147
  694SOL    HW2 2982   4.114   5.762   4.123
  695SOL     OW 2983   3.255   5.634   4.662
  695SOL    HW1 2984   3.195   5.707   4.630
  695SOL    HW2 2985   3.327   5.672   4.721
  696SOL     OW 2986   5.089   4.092   3.515
  696SOL    HW1 2987   4.991   4.076   3.513
  696SOL    HW2 2988   5.106   4.186   3.546
  697SOL     OW 2989   1.254   2.873   2.564
  697SOL    HW1 2990   1.196   2.865   2.483
  697SOL    HW2 2991   1.197   2.892   2.644
  698SOL     OW 2992   5.039   6.180   1.139
  698SOL    HW1 2993   5.049   6.167   1.041
  698SOL    HW2 2994   5.125   6.215   1.178
  699SOL     OW 2995   2.093   3.041   6.634
  699SOL    HW1 2996   2.103   3.033   6.733
  699SOL    HW2 2997   2.043   3.125   6.613
  700SOL     OW 2998   3.421   0.150   2.163
  700SOL    HW1 2999   3.398   0.108   2.251
  700SOL    HW2 3000   3.343   0.204   2.131
  701SOL     OW 3001   6.865   4.454   0.618
  701SOL    HW1 3002   6.917   4.448   0.703
  701SOL    HW2 3003   6.829   4.364   0.594
  702SOL     OW 3004   2.090   0.111   4.283
  702SOL    HW1 3005   2.005   0.161   4.265
  702SOL    HW2 3006   2.168   0.166   4.253
  703SOL     OW 3007   3.274   3.435   5.518
  703SOL    HW1 3008   3.324   3.418   5.433
  703SOL    HW2 3009   3.186   3.477   5.497
  704SOL     OW 3010   2.218   2.375   6.005
  704SOL    HW1 3011   2.265   2.463   6.004
  704SOL    HW2 3012   2.211   2.341   6.099
  705SOL     OW 3013   6.598   6.017   3.239
  705SOL    HW1 3014   6.507   6.026   3.199
  705SOL    HW2 3015   6.599   5.940   3.303
  706SOL     OW 3016   4.071   1.597   5.294
  706SOL    HW1 3017   3.999   1.539   5.255
  706SOL    HW2 3018   4.155   1.586   5.240
  707SOL     OW 3019   3.861   5.495   3.361
  707SOL    HW1 3020   3.783   5.481   3.300
  707SOL    HW2 3021   3.870   5.593   3.383
  708SOL     OW 3022   2.485   2.063   3.740
  708SOL    HW1 3023   2.576   2.064   3.781
  708SOL    HW2 3024   2.428   1.995   3.787
  709SOL     OW 3025   1.159   6.592   1.180
  709SOL    HW1 3026   1.151   6.638   1.268
  709SOL    HW2 3027   1.086   6.624   1.119
  710SOL     OW 3028   5.011   2.607   2.017
  710SOL    HW1 3029   4.986   2.528   1.960
  710SOL    HW2 3030   4.935   2.671   2.019
  711SOL     OW 3031   6.833   2.856   6.346
  711SOL    HW1 3032   6.902   2.785   6.339
  711SOL    HW2 3033   6.742   2.816   6.335
  712SOL     OW 3034   5.149   2.361   0.993
  712SOL    HW1 3035   5.191   2.422   0.926
  712SOL    HW2 3036   5.092   2.294   0.947
  713SOL     OW 3037   4.238   2.686   5.342
  713SOL    HW1 3038   4.198   2.777   5.325
  713SOL    HW2 3039   4.188   2.618   5.288
  714SOL     OW 3040   5.652   5.281   4.027
  714SOL    HW1 3041   5.649   5.184   4.002
  714SOL    HW2 3042   5.591   5.298   4.104
  715SOL     OW 3043   6.618   5.306   5.357
  715SOL    HW1 3044   6.578   5.218   5.331
  715SOL    HW2 3045   6.699   5.323   5.301
  716SOL     OW 3046   1.926   1.181   3.502
  716SOL    HW1 3047   2.017   1.148   3.527
  716SOL    HW2 3048   1.887   1.121   3.432
  717SOL     OW 3049   6.254   4.651   4.049
  717SOL    HW1 3050   6.301   4.597   4.118
  717SOL    HW2 3051   6.305   4.735   4.030
  718SOL     OW 3052   4.861   3.010   4.996
  718SOL    HW1 3053   4.835   2.914   4.984
  718SOL    HW2 3054   4.815   3.047   5.077
  719SOL     OW 3055   5.564   0.321   2.258
  719SOL    HW1 3056   5.658   0.354   2.252
  719SOL    HW2 3057   5.502   0.397   2.239
  720SOL     OW 3058   2.575   0.372   5.970
  720SOL    HW1 3059   2.554   0.398   5.876
  720SOL    HW2 3060   2.622   0.447   6.016
  721SOL     OW 3061   1.164   1.534   2.153
  721SOL    HW1 3062   1.258   1.502   2.149
  721SOL    HW2 3063   1.154   1.617   2.098
  722SOL     OW 3064   3.289   0.788   6.551
  722SOL    HW1 3065   3.336   0.744   6.475
  722SOL    HW2 3066   3.196   0.754   6.559
  723SOL     OW 3067   1.726   6.165   3.509
  723SOL    HW1 3068   1.741   6.087   3.447
  723SOL    HW2 3069   1.748   6.250   3.462
  724SOL     OW 3070   0.124   1.171   3.937
  724SOL    HW1 3071   0.049   1.106   3.938
  724SOL    HW2 3072   0.211   1.123   3.935
  725SOL     OW 3073   2.029   4.378   2.553
  725SOL    HW1 3074   1.994   4.334   2.635
  725SOL    HW2 3075   2.128   4.389   2.561
  726SOL     OW 3076   2.371   4.917   0.827
  726SOL    HW1 3077   2.385   4.844   0.760
  726SOL    HW2 3078   2.274   4.943   0.827
  727SOL     OW 3079   4.920   5.437   6.031
  727SOL    HW1 3080   4.972   5.366   5.984
  727SOL    HW2 3081   4.860   5.484   5.966
  728SOL     OW 3082   6.897   2.978   4.353
  728SOL    HW1 3083   6.834   2.994   4.277
  728SOL    HW2 3084   6.931   2.884   4.349
  729SOL     OW 3085   0.529   2.742   1.489
  729SOL    HW1 3086   0.553   2.702   1.577
  729SOL    HW2 3087   0.480   2.828   1.504
  730SOL     OW 3088   5.635   0.917   3.253
  730SOL    HW1 3089   5.675   0.968   3.329
  730SOL    HW2 3090   5.547   0.880   3.282
  731SOL     OW 3091   4.851   4.497   6.637
  731SOL    HW1 3092   4.896   4.587   6.630
  731SOL    HW2 3093   4.826   4.480   6.733
  732SOL     OW 3094   5.694   2.474   2.349
  732SOL    HW1 3095   5.792   2.495   2.348
  732SOL    HW2 3096   5.651   2.518   2.270
  733SOL     OW 3097   5.838   0.632   4.338
  733SOL    HW1 3098   5.788   0.632   4.251
  733SOL    HW2 3099   5.879   0.721   4.353
  734SOL     OW 3100   6.384   4.541   2.806
  734SOL    HW1 3101   6.355   4.450   2.777
  734SOL    HW2 3102   6.425   4.536   2.897
  735SOL     OW 3103   4.531   1.103   1.461
  735SOL    HW1 3104   4.553   1.013   1.499
  735SOL    HW2 3105   4.538   1.172   1.533
  736SOL     OW 3106   1.232   1.797   3.713
  736SOL    HW1 3107   1.195   1.883   3.748
  736SOL    HW2 3108   1.241   1.803   3.613
  737SOL     OW 3109   5.848   1.562   5.999
  737SOL    HW1 3110   5.917   1.634   6.000
  737SOL    HW2 3111   5.797   1.564   6.085
  738SOL     OW 3112   2.631   4.149   1.393
  738SOL    HW1 3113   2.657   4.118   1.484
  738SOL    HW2 3114   2.700   4.120   1.326
  739SOL     OW 3115   3.637   0.269   5.241
  739SOL    HW1 3116   3.665   0.206   5.169
  739SOL    HW2 3117   3.703   0.264   5.316
  740SOL     OW 3118   5.949   2.059   2.639
  740SOL    HW1 3119   5.896   2.071   2.723
  740SOL    HW2 3120   5.904   1.993   2.580
  741SOL     OW 3121   1.899   1.006   4.733
  741SOL    HW1 3122   1.993   1.035   4.751
  741SOL    HW2 3123   1.837   1.084   4.745
  742SOL     OW 3124   2.169   5.924   1.506
  742SOL    HW1 3125   2.096   5.863   1.537
  742SOL    HW2 3126   2.172   5.926   1.406
  743SOL     OW 3127   0.426   6.257   3.037
  743SOL    HW1 3128   0.349   6.210   3.080
  743SOL    HW2 3129   0.511   6.236   3.086
  744SOL     OW 3130   6.301   0.706   0.358
  744SOL    HW1 3131   6.326   0.802   0.343
  744SOL    HW2 3132   6.363   0.666   0.425
  745SOL     OW 3133   2.127   6.177   5.403
  745SOL    HW1 3134   2.123   6.213   5.310
  745SOL    HW2 3135   2.088   6.085   5.406
  746SOL     OW 3136   5.958   4.413   5.532
  746SOL    HW1 3137   5.875   4.432   5.479
  746SOL    HW2 3138   5.937   4.414   5.629
  747SOL     OW 3139   5.423   5.998   4.274
  747SOL    HW1 3140   5.355   6.071   4.271
  747SOL    HW2 3141   5.377   5.910   4.279
  748SOL     OW 3142   4.835   5.039   2.568
  748SOL    HW1 3143   4.841   5.082   2.478
  748SOL    HW2 3144   4.877   4.948   2.566
  749SOL     OW 3145   5.354   3.712   3.782
  749SOL    HW1 3146   5.448   3.742   3.764
  749SOL    HW2 3147   5.290   3.773   3.736
  750SOL     OW 3148   3.370   0.789   1.147
  750SOL    HW1 3149   3.398   0.740   1.064
  750SOL    HW2 3150   3.279   0.828   1.134
  751SOL     OW 3151   5.200   1.885   1.153
  751SOL    HW1 3152   5.230   1.806   1.208
  751SOL    HW2 3153   5.232   1.969   1.196
  752SOL     OW 3154   3.214   2.620   6.319
  752SOL    HW1 3155   3.302   2.615   6.367
  752SOL    HW2 3156   3.154   2.547   6.351
  753SOL     OW 3157   2.983   3.522   5.453
  753SOL    HW1 3158   2.946   3.613   5.432
  753SOL    HW2 3159   2.909   3.461   5.480
  754SOL     OW 3160   4.653   1.047   0.353
  754SOL    HW1 3161   4.638   0.962   0.302
  754SOL    HW2 3162   4.587   1.116   0.322
  755SOL     OW 3163   2.862   4.284   5.320
  755SOL    HW1 3164   2.783   4.228   5.344
  755SOL    HW2 3165   2.834   4.357   5.258
  756SOL     OW 3166   3.046   4.631   6.954
  756SOL    HW1 3167   3.140   4.655   6.976
  756SOL    HW2 3168   2.995   4.715   6.932
  757SOL     OW 3169   2.475   7.015   2.474
  757SOL    HW1 3170   2.480   6.988   2.377
  757SOL    HW2 3171   2.483   0.095   2.481
  758SOL     OW 3172   3.686   1.149   3.959
  758SOL    HW1 3173   3.605   1.188   3.915
  758SOL    HW2 3174   3.731   1.087   3.895
  759SOL     OW 3175   0.328   2.447   3.024
  759SOL    HW1 3176   0.365   2.507   3.094
  759SOL    HW2 3177   0.238   2.414   3.052
  760SOL     OW 3178   6.401   6.775   4.017
  760SOL    HW1 3179   6.384   6.739   4.109
  760SOL    HW2 3180   6.364   6.868   4.010
  761SOL     OW 3181   5.820   4.684   5.571
  761SOL    HW1 3182   5.894   4.667   5.635
  761SOL    HW2 3183   5.846   4.652   5.480
  762SOL     OW 3184   2.273   6.788   5.895
  762SOL    HW1 3185   2.269   6.853   5.970
  762SOL    HW2 3186   2.242   6.832   5.811
  763SOL     OW 3187   5.096   0.211   6.128
  763SOL    HW1 3188   5.125   0.204   6.032
  763SOL    HW2 3189   5.024   0.144   6.146
  764SOL     OW 3190   6.084   1.310   5.210
  764SOL    HW1 3191   6.155   1.332   5.143
  764SOL    HW2 3192   6.127   1.289   5.298
  765SOL     OW 3193   1.292   6.426   0.669
  765SOL    HW1 3194   1.296   6.419   0.569
  765SOL    HW2 3195   1.353   6.498   0.700
  766SOL     OW 3196   2.684   1.931   5.216
  766SOL    HW1 3197   2.708   1.865   5.286
  766SOL    HW2 3198   2.659   2.018   5.258
  767SOL     OW 3199   6.609   6.586   3.840
  767SOL    HW1 3200   6.565   6.676   3.834
  767SOL    HW2 3201   6.603   6.552   3.934
  768SOL     OW 3202   2.223   6.899   3.228
  768SOL    HW1 3203   2.208   6.974   3.163
  768SOL    HW2 3204   2.239   6.937   3.319
  769SOL     OW 3205   3.628   1.519   4.919
  769SOL    HW1 3206   3.714   1.570   4.929
  769SOL    HW2 3207   3.551   1.583   4.916
  770SOL     OW 3208   2.067   4.642   4.399
  770SOL    HW1 3209   1.972   4.619   4.380
  770SOL    HW2 3210   2.127   4.575   4.354
  771SOL     OW 3211   1.414   5.430   3.155
  771SOL    HW1 3212   1.363   5.484   3.222
  771SOL    HW2 3213   1.512   5.442   3.171
  772SOL     OW 3214   5.600   4.979   6.230
  772SOL    HW1 3215   5.568   4.958   6.323
  772SOL    HW2 3216   5.678   4.920   6.208
  773SOL     OW 3217   1.468   3.892   2.752
  773SOL    HW1 3218   1.529   3.933   2.820
  773SOL    HW2 3219   1.502   3.911   2.660
  774SOL     OW 3220   2.663   1.395   3.222
  774SOL    HW1 3221   2.650   1.469   3.156
  774SOL    HW2 3222   2.752   1.405   3.266
  775SOL     OW 3223   1.904   2.615   4.370
  775SOL    HW1 3224   1.830   2.601   4.436
  775SOL    HW2 3225   1.868   2.606   4.277
  776SOL     OW 3226   6.807   0.179   6.805
  776SOL    HW1 3227   6.788   0.190   6.902
  776SOL    HW2 3228   6.753   0.104   6.768
  777SOL     OW 3229   1.478   3.303   0.952
  777SOL    HW1 3230   1.459   3.265   1.042
  777SOL    HW2 3231   1.538   3.383   0.961
  778SOL     OW 3232   2.703   6.992   1.721
  778SOL    HW1 3233   2.755   6.909   1.703
  778SOL    HW2 3234   2.760   0.053   1.705
  779SOL     OW 3235   0.295   2.652   1.734
  779SOL    HW1 3236   0.250   2.739   1.754
  779SOL    HW2 3237   0.375   2.641   1.794
  780SOL     OW 3238   1.101   2.878   4.395
  780SOL    HW1 3239   1.048   2.929   4.328
  780SOL    HW2 3240   1.190   2.854   4.356
  781SOL     OW 3241   6.580   5.147   6.581
  781SOL    HW1 3242   6.491   5.160   6.623
  781SOL    HW2 3243   6.603   5.226   6.525
  782SOL     OW 3244   2.201   4.238   5.712
  782SOL    HW1 3245   2.244   4.156   5.750
  782SOL    HW2 3246   2.112   4.213   5.673
  783SOL     OW 3247   5.357   5.468   0.402
  783SOL    HW1 3248   5.279   5.480   0.340
  783SOL    HW2 3249   5.333   5.502   0.493
  784SOL     OW 3250   2.748   5.715   2.288
  784SOL    HW1 3251   2.668   5.741   2.234
  784SOL    HW2 3252   2.738   5.750   2.381
  785SOL     OW 3253   0.234   1.021   3.678
  785SOL    HW1 3254   0.259   0.953   3.746
  785SOL    HW2 3255   0.264   1.111   3.709
  786SOL     OW 3256   6.421   0.979   3.081
  786SOL    HW1 3257   6.473   1.063   3.093
  786SOL    HW2 3258   6.334   1.001   3.036
  787SOL     OW 3259   2.149   0.017   0.291
  787SOL    HW1 3260   2.168   0.016   0.389
  787SOL    HW2 3261   2.156   6.943   0.254
  788SOL     OW 3262   3.903   2.837   1.633
  788SOL    HW1 3263   3.947   2.748   1.644
  788SOL    HW2 3264   3.805   2.828   1.650
  789SOL     OW 3265   4.265   5.595   2.281
  789SOL    HW1 3266   4.306   5.510   2.248
  789SOL    HW2 3267   4.249   5.588   2.380
  790SOL     OW 3268   1.786   1.412   2.074
  790SOL    HW1 3269   1.730   1.487   2.111
  790SOL    HW2 3270   1.881   1.441   2.068
  791SOL     OW 3271   2.731   6.462   5.655
  791SOL    HW1 3272   2.737   6.375   5.705
  791SOL    HW2 3273   2.635   6.487   5.644
  792SOL     OW 3274   0.840   1.042   1.153
  792SOL    HW1 3275   0.750   1.039   1.109
  792SOL    HW2 3276   0.839   0.983   1.234
  793SOL     OW 3277   4.657   5.761   4.976
  793SOL    HW1 3278   4.648   5.791   4.881
  793SOL    HW2 3279   4.588   5.691   4.995
  794SOL     OW 3280   3.581   3.397   5.169
  794SOL    HW1 3281   3.642   3.401   5.248
  794SOL    HW2 3282   3.585   3.306   5.128
  795SOL     OW 3283   4.254   0.550   5.882
  795SOL    HW1 3284   4.244   0.633   5.826
  795SOL    HW2 3285   4.174   0.491   5.869
  796SOL     OW 3286   1.991   2.828   6.894
  796SOL    HW1 3287   2.036   2.740   6.881
  796SOL    HW2 3288   2.057   2.894   6.931
  797SOL     OW 3289   3.836   0.213   0.797
  797SOL    HW1 3290   3.918   0.270   0.797
  797SOL    HW2 3291   3.811   0.190   0.703
  798SOL     OW 3292   3.068   6.026   1.246
  798SOL    HW1 3293   3.120   6.044   1.330
  798SOL    HW2 3294   2.979   6.071   1.252
  799SOL     OW 3295   0.046   1.806   6.136
  799SOL    HW1 3296   6.980   1.856   6.151
  799SOL    HW2 3297   0.037   1.714   6.174
  800SOL     OW 3298   0.049   1.681   2.372
  800SOL    HW1 3299   0.090   1.750   2.313
  800SOL    HW2 3300   6.969   1.696   2.378
  801SOL     OW 3301   2.262   4.857   5.441
  801SOL    HW1 3302   2.330   4.806   5.389
  801SOL    HW2 3303   2.175   4.808   5.440
  802SOL     OW 3304   4.177   2.199   6.511
  802SOL    HW1 3305   4.262   2.180   6.560
  802SOL    HW2 3306   4.119   2.117   6.513
  803SOL     OW 3307   2.401   0.229   5.782
  803SOL    HW1 3308   2.481   0.219   5.723
  803SOL    HW2 3309   2.426   0.278   5.865
  804SOL     OW 3310   6.370   6.544   1.528
  804SOL    HW1 3311   6.448   6.558   1.467
  804SOL    HW2 3312   6.386   6.594   1.614
  805SOL     OW 3313   1.966   6.991   3.776
  805SOL    HW1 3314   1.985   0.015   3.687
  805SOL    HW2 3315   2.042   6.931   3.800
  806SOL     OW 3316   0.296   0.429   5.538
  806SOL    HW1 3317   0.244   0.393   5.615
  806SOL    HW2 3318   0.392   0.440   5.564
  807SOL     OW 3319   0.728   0.050   4.378
  807SOL    HW1 3320   0.709   7.007   4.454
  807SOL    HW2 3321   0.806   0.107   4.400
  808SOL     OW 3322   5.891   3.164   0.110
  808SOL    HW1 3323   5.920   3.162   0.206
  808SOL    HW2 3324   5.860   3.074   0.082
  809SOL     OW 3325   0.363   5.254   6.958
  809SOL    HW1 3326   0.427   5.328   6.975
  809SOL    HW2 3327   0.396   5.197   6.882
  810SOL     OW 3328   2.838   3.492   0.740
  810SOL    HW1 3329   2.872   3.579   0.776
  810SOL    HW2 3330   2.886   3.471   0.654
  811SOL     OW 3331   5.501   5.318   4.519
  811SOL    HW1 3332   5.588   5.354   4.484
  811SOL    HW2 3333   5.481   5.360   4.607
  812SOL     OW 3334   0.324   2.359   2.768
  812SOL    HW1 3335   0.310   2.394   2.860
  812SOL    HW2 3336   0.250   2.296   2.744
  813SOL     OW 3337   2.646   0.475   3.949
  813SOL    HW1 3338   2.611   0.517   4.033
  813SOL    HW2 3339   2.578   0.411   3.913
  814SOL     OW 3340   6.610   5.962   2.243
  814SOL    HW1 3341   6.671   6.000   2.312
  814SOL    HW2 3342   6.519   6.001   2.254
  815SOL     OW 3343   5.057   3.036   3.725
  815SOL    HW1 3344   5.085   2.945   3.755
  815SOL    HW2 3345   5.105   3.105   3.779
  816SOL     OW 3346   4.764   4.275   0.537
  816SOL    HW1 3347   4.708   4.332   0.598
  816SOL    HW2 3348   4.761   4.313   0.445
  817SOL     OW 3349   1.165   5.087   1.383
  817SOL    HW1 3350   1.091   5.033   1.344
  817SOL    HW2 3351   1.241   5.094   1.317
  818SOL     OW 3352   5.488   2.788   3.844
  818SOL    HW1 3353   5.523   2.759   3.755
  818SOL    HW2 3354   5.440   2.712   3.887
  819SOL     OW 3355   5.510   2.975   1.377
  819SOL    HW1 3356   5.461   2.949   1.461
  819SOL    HW2 3357   5.445   3.005   1.308
  820SOL     OW 3358   3.208   2.200   4.426
  820SOL    HW1 3359   3.278   2.235   4.488
  820SOL    HW2 3360   3.121   2.246   4.444
  821SOL     OW 3361   5.743   5.006   4.787
  821SOL    HW1 3362   5.772   4.911   4.782
  821SOL    HW2 3363   5.643   5.012   4.781
  822SOL     OW 3364   0.457   4.387   3.231
  822SOL    HW1 3365   0.456   4.480   3.193
  822SOL    HW2 3366   0.392   4.330   3.180
  823SOL     OW 3367   6.951   3.972   5.821
  823SOL    HW1 3368   0.008   3.981   5.884
  823SOL    HW2 3369   6.946   4.052   5.761
  824SOL     OW 3370   5.838   1.438   5.173
  824SOL    HW1 3371   5.905   1.367   5.152
  824SOL    HW2 3372   5.865   1.524   5.128
  825SOL     OW 3373   6.441   5.677   1.025
  825SOL    HW1 3374   6.387   5.758   1.045
  825SOL    HW2 3375   6.384   5.595   1.036
  826SOL     OW 3376   3.815   2.320   6.164
  826SOL    HW1 3377   3.880   2.276   6.102
  826SOL    HW2 3378   3.798   2.261   6.243
  827SOL     OW 3379   3.156   4.281   5.263
  827SOL    HW1 3380   3.091   4.287   5.339
  827SOL    HW2 3381   3.135   4.352   5.196
  828SOL     OW 3382   6.263   5.326   5.071
  828SOL    HW1 3383   6.168   5.302   5.051
  828SOL    HW2 3384   6.324   5.255   5.036
  829SOL     OW 3385   3.445   2.881   2.285
  829SOL    HW1 3386   3.447   2.837   2.375
  829SOL    HW2 3387   3.538   2.907   2.259
  830SOL     OW 3388   6.128   4.896   6.510
  830SOL    HW1 3389   6.064   4.947   6.452
  830SOL    HW2 3390   6.125   4.799   6.486
  831SOL     OW 3391   5.782   6.658   1.120
  831SOL    HW1 3392   5.698   6.604   1.129
  831SOL    HW2 3393   5.761   6.755   1.136
  832SOL     OW 3394   4.473   1.171   4.299
  832SOL    HW1 3395   4.475   1.191   4.201
  832SOL    HW2 3396   4.436   1.250   4.348
  833SOL     OW 3397   1.370   3.994   6.808
  833SOL    HW1 3398   1.289   3.940   6.787
  833SOL    HW2 3399   1.451   3.935   6.804
  834SOL     OW 3400   4.946   3.418   6.932
  834SOL    HW1 3401   5.032   3.377   6.963
  834SOL    HW2 3402   4.948   3.516   6.950
  835SOL     OW 3403   2.172   0.675   5.272
  835SOL    HW1 3404   2.211   0.611   5.206
  835SOL    HW2 3405   2.132   0.753   5.224
  836SOL     OW 3406   3.035   1.291   5.750
  836SOL    HW1 3407   2.983   1.377   5.750
  836SOL    HW2 3408   3.036   1.253   5.657
  837SOL     OW 3409   1.092   0.024   1.641
  837SOL    HW1 3410   1.168   6.981   1.623
  837SOL    HW2 3411   1.045   0.046   1.555
  838SOL     OW 3412   1.962   6.116   4.428
  838SOL    HW1 3413   1.978   6.155   4.337
  838SOL    HW2 3414   1.996   6.022   4.430
  839SOL     OW 3415   2.545   1.570   1.550
  839SOL    HW1 3416   2.504   1.612   1.630
  839SOL    HW2 3417   2.582   1.641   1.489
  840SOL     OW 3418   6.034   5.636   0.234
  840SOL    HW1 3419   6.002   5.662   0.143
  840SOL    HW2 3420   5.969   5.572   0.275
  841SOL     OW 3421   3.832   5.718   6.209
  841SOL    HW1 3422   3.749   5.735   6.156
  841SOL    HW2 3423   3.813   5.651   6.281
  842SOL     OW 3424   3.077   6.181   0.086
  842SOL    HW1 3425   3.107   6.194   0.181
  842SOL    HW2 3426   3.155   6.194   0.025
  843SOL     OW 3427   2.645   1.976   2.133
  843SOL    HW1 3428   2.714   1.943   2.069
  843SOL    HW2 3429   2.623   2.071   2.113
  844SOL     OW 3430   7.017   6.699   1.021
  844SOL    HW1 3431   0.058   6.739   0.952
  844SOL    HW2 3432   0.015   6.601   1.027
  845SOL     OW 3433   4.645   2.291   3.278
  845SOL    HW1 3434   4.593   2.375   3.270
  845SOL    HW2 3435   4.685   2.268   3.188
  846SOL     OW 3436   2.836   0.888   6.400
  846SOL    HW1 3437   2.922   0.845   6.430
  846SOL    HW2 3438   2.849   0.930   6.311
  847SOL     OW 3439   2.089   3.293   1.814
  847SOL    HW1 3440   2.165   3.358   1.821
  847SOL    HW2 3441   2.048   3.281   1.904
  848SOL     OW 3442   6.648   6.704   5.926
  848SOL    HW1 3443   6.565   6.680   5.876
  848SOL    HW2 3444   6.624   6.754   6.009
  849SOL     OW 3445   5.843   3.631   0.024
  849SOL    HW1 3446   5.781   3.680   6.981
  849SOL    HW2 3447   5.936   3.664   0.012
  850SOL     OW 3448   0.550   0.490   4.864
  850SOL    HW1 3449   0.497   0.435   4.928
  850SOL    HW2 3450   0.617   0.545   4.914
  851SOL     OW 3451   6.668   3.219   0.086
  851SOL    HW1 3452   6.576   3.254   0.103
  851SOL    HW2 3453   6.726   3.240   0.164
  852SOL     OW 3454   0.332   4.936   0.585
  852SOL    HW1 3455   0.240   4.967   0.608
  852SOL    HW2 3456   0.399   4.993   0.632
  853SOL     OW 3457   2.547   4.174   6.381
  853SOL    HW1 3458   2.596   4.101   6.430
  853SOL    HW2 3459   2.484   4.133   6.315
  854SOL     OW 3460   5.439   6.753   0.133
  854SOL    HW1 3461   5.526   6.711   0.107
  854SOL    HW2 3462   5.453   6.850   0.150
  855SOL     OW 3463   6.363   0.618   0.068
  855SOL    HW1 3464   6.434   0.550   0.085
  855SOL    HW2 3465   6.352   0.676   0.149
  856SOL     OW 3466   1.086   6.503   5.705
  856SOL    HW1 3467   1.076   6.466   5.798
  856SOL    HW2 3468   1.120   6.431   5.644
  857SOL     OW 3469   0.084   5.000   2.931
  857SOL    HW1 3470   0.047   4.995   2.838
  857SOL    HW2 3471   0.017   5.044   2.991
  858SOL     OW 3472   2.971   3.472   1.176
  858SOL    HW1 3473   3.068   3.499   1.179
  858SOL    HW2 3474   2.915   3.553   1.160
  859SOL     OW 3475   5.070   5.823   5.591
  859SOL    HW1 3476   5.143   5.884   5.623
  859SOL    HW2 3477   4.998   5.818   5.660
  860SOL     OW 3478   5.602   2.823   6.492
  860SOL    HW1 3479   5.541   2.899   6.472
  860SOL    HW2 3480   5.566   2.739   6.452
  861SOL     OW 3481   2.151   5.698   3.150
  861SOL    HW1 3482   2.250   5.708   3.143
  861SOL    HW2 3483   2.115   5.764   3.216
  862SOL     OW 3484   1.932   5.002   3.937
  862SOL    HW1 3485   1.964   4.962   3.851
  862SOL    HW2 3486   1.832   5.005   3.936
  863SOL     OW 3487   5.995   1.167   5.933
  863SOL    HW1 3488   6.038   1.197   5.848
  863SOL    HW2 3489   6.010   1.069   5.946
  864SOL     OW 3490   5.027   6.989   5.067
  864SOL    HW1 3491   5.001   0.065   5.050
  864SOL    HW2 3492   5.066   6.950   4.984
  865SOL     OW 3493   1.643   6.932   5.597
  865SOL    HW1 3494   1.721   6.898   5.650
  865SOL    HW2 3495   1.658   0.008   5.573
  866SOL     OW 3496   3.635   6.551   0.847
  866SOL    HW1 3497   3.602   6.457   0.840
  866SOL    HW2 3498   3.569   6.613   0.802
  867SOL     OW 3499   5.484   3.126   0.303
  867SOL    HW1 3500   5.487   3.226   0.305
  867SOL    HW2 3501   5.526   3.093   0.218
  868SOL     OW 3502   0.092   2.248   2.707
  868SOL    HW1 3503   0.072   2.153   2.730
  868SOL    HW2 3504   0.016   2.285   2.653
  869SOL     OW 3505   6.765   3.664   3.804
  869SOL    HW1 3506   6.836   3.670   3.734
  869SOL    HW2 3507   6.679   3.699   3.768
  870SOL     OW 3508   4.227   4.395   0.918
  870SOL    HW1 3509   4.274   4.479   0.944
  870SOL    HW2 3510   4.253   4.321   0.980
  871SOL     OW 3511   5.177   2.251   4.218
  871SOL    HW1 3512   5.180   2.251   4.118
  871SOL    HW2 3513   5.128   2.332   4.250
  872SOL     OW 3514   0.388   2.471   4.876
  872SOL    HW1 3515   0.302   2.478   4.925
  872SOL    HW2 3516   0.425   2.563   4.859
  873SOL     OW 3517   4.214   6.175   5.758
  873SOL    HW1 3518   4.300   6.123   5.759
  873SOL    HW2 3519   4.234   6.272   5.768
  874SOL     OW 3520   5.993   4.309   6.960
  874SOL    HW1 3521   6.093   4.306   6.957
  874SOL    HW2 3522   5.958   4.226   7.004
  875SOL     OW 3523   4.965   5.866   0.489
  875SOL    HW1 3524   4.915   5.861   0.576
  875SOL    HW2 3525   5.054   5.909   0.504
  876SOL     OW 3526   0.678   5.360   2.212
  876SOL    HW1 3527   0.589   5.388   2.176
  876SOL    HW2 3528   0.666   5.321   2.303
  877SOL     OW 3529   3.413   4.196   6.102
  877SOL    HW1 3530   3.467   4.132   6.157
  877SOL    HW2 3531   3.349   4.145   6.045
  878SOL     OW 3532   4.955   6.899   3.937
  878SOL    HW1 3533   5.054   6.885   3.935
  878SOL    HW2 3534   4.935   6.995   3.916
  879SOL     OW 3535   3.548   0.510   1.358
  879SOL    HW1 3536   3.611   0.586   1.371
  879SOL    HW2 3537   3.490   0.499   1.439
  880SOL     OW 3538   3.867   3.974   4.218
  880SOL    HW1 3539   3.842   3.878   4.228
  880SOL    HW2 3540   3.809   4.031   4.277
  881SOL     OW 3541   4.960   3.161   4.802
  881SOL    HW1 3542   4.951   3.259   4.823
  881SOL    HW2 3543   4.904   3.108   4.865
  882SOL     OW 3544   1.052   3.127   3.795
  882SOL    HW1 3545   1.098   3.071   3.726
  882SOL    HW2 3546   1.002   3.201   3.750
  883SOL     OW 3547   3.620   0.869   1.245
  883SOL    HW1 3548   3.665   0.791   1.289
  883SOL    HW2 3549   3.531   0.841   1.210
  884SOL     OW 3550   5.331   3.730   5.913
  884SOL    HW1 3551   5.267   3.661   5.880
  884SOL    HW2 3552   5.307   3.819   5.876
  885SOL     OW 3553   3.422   1.346   5.042
  885SOL    HW1 3554   3.445   1.249   5.042
  885SOL    HW2 3555   3.498   1.399   5.004
  886SOL     OW 3556   3.834   0.221   0.126
  886SOL    HW1 3557   3.854   0.297   0.189
  886SOL    HW2 3558   3.915   0.201   0.071
  887SOL     OW 3559   3.863   6.429   3.536
  887SOL    HW1 3560   3.832   6.366   3.607
  887SOL    HW2 3561   3.930   6.492   3.576
  888SOL     OW 3562   6.875   6.295   3.235
  888SOL    HW1 3563   6.894   6.202   3.266
  888SOL    HW2 3564   6.871   6.297   3.135
  889SOL     OW 3565   6.883   3.642   0.898
  889SOL    HW1 3566   6.912   3.608   0.808
  889SOL    HW2 3567   6.962   3.679   0.946
  890SOL     OW 3568   1.139   5.584   2.825
  890SOL    HW1 3569   1.226   5.599   2.872
  890SOL    HW2 3570   1.156   5.554   2.732
  891SOL     OW 3571   5.875   5.049   0.482
  891SOL    HW1 3572   5.914   4.987   0.551
  891SOL    HW2 3573   5.775   5.044   0.487
  892SOL     OW 3574   2.444   3.915   5.481
  892SOL    HW1 3575   2.460   3.944   5.387
  892SOL    HW2 3576   2.436   3.815   5.485
  893SOL     OW 3577   2.196   6.463   2.963
  893SOL    HW1 3578   2.216   6.409   3.045
  893SOL    HW2 3579   2.274   6.459   2.901
  894SOL     OW 3580   0.944   2.689   2.226
  894SOL    HW1 3581   0.957   2.592   2.206
  894SOL    HW2 3582   0.954   2.742   2.142
  895SOL     OW 3583   0.504   4.595   3.651
  895SOL    HW1 3584   0.491   4.686   3.611
  895SOL    HW2 3585   0.452   4.588   3.736
  896SOL     OW 3586   5.498   5.118   0.824
  896SOL    HW1 3587   5.502   5.149   0.919
  896SOL    HW2 3588   5.517   5.195   0.763
  897SOL     OW 3589   3.957   1.362   6.778
  897SOL    HW1 3590   3.863   1.389   6.802
  897SOL    HW2 3591   3.991   1.297   6.846
  898SOL     OW 3592   2.975   6.389   3.035
  898SOL    HW1 3593   2.979   6.307   2.978
  898SOL    HW2 3594   3.056   6.393   3.093
  899SOL     OW 3595   0.169   6.532   7.004
  899SOL    HW1 3596   0.129   6.441   6.993
  899SOL    HW2 3597   0.096   6.599   7.019
  900SOL     OW 3598   5.646   6.799   0.664
  900SOL    HW1 3599   5.650   6.744   0.747
  900SOL    HW2 3600   5.739   6.819   0.633
  901SOL     OW 3601   2.402   6.736   2.940
  901SOL    HW1 3602   2.467   6.806   2.911
  901SOL    HW2 3603   2.417   6.716   3.037
  902SOL     OW 3604   0.636   2.262   0.692
  902SOL    HW1 3605   0.561   2.234   0.753
  902SOL    HW2 3606   0.692   2.331   0.738
  903SOL     OW 3607   0.116   2.305   6.881
  903SOL    HW1 3608   0.152   2.215   6.906
  903SOL    HW2 3609   0.170   2.376   6.925
  904SOL     OW 3610   2.505   1.988   2.898
  904SOL    HW1 3611   2.477   1.955   2.808
  904SOL    HW2 3612   2.604   2.002   2.899
  905SOL     OW 3613   4.999   1.894   6.996
  905SOL    HW1 3614   4.903   1.871   6.978
  905SOL    HW2 3615   5.040   1.822   0.032
  906SOL     OW 3616   6.860   1.963   6.185
  906SOL    HW1 3617   6.877   2.047   6.236
  906SOL    HW2 3618   6.795   1.980   6.111
  907SOL     OW 3619   5.204   3.433   0.643
  907SOL    HW1 3620   5.298   3.425   0.612
  907SOL    HW2 3621   5.153   3.351   0.617
  908SOL     OW 3622   2.410   4.372   2.397
  908SOL    HW1 3623   2.436   4.404   2.306
  908SOL    HW2 3624   2.468   4.417   2.465
  909SOL     OW 3625   4.548   5.660   1.080
  909SOL    HW1 3626   4.625   5.724   1.071
  909SOL    HW2 3627   4.464   5.711   1.093
  910SOL     OW 3628   2.834   1.972   0.846
  910SOL    HW1 3629   2.784   1.887   0.831
  910SOL    HW2 3630   2.863   2.009   0.757
  911SOL     OW 3631   0.661   6.363   6.408
  911SOL    HW1 3632   0.617   6.343   6.495
  911SOL    HW2 3633   0.621   6.307   6.335
  912SOL     OW 3634   6.145   2.140   2.974
  912SOL    HW1 3635   6.086   2.125   3.053
  912SOL    HW2 3636   6.199   2.058   2.957
  913SOL     OW 3637   4.437   6.730   3.071
  913SOL    HW1 3638   4.434   6.630   3.083
  913SOL    HW2 3639   4.468   6.772   3.156
  914SOL     OW 3640   2.635   6.752   6.233
  914SOL    HW1 3641   2.597   6.795   6.316
  914SOL    HW2 3642   2.612   6.808   6.154
  915SOL     OW 3643   6.167   4.443   6.704
  915SOL    HW1 3644   6.167   4.349   6.669
  915SOL    HW2 3645   6.087   4.491   6.668
  916SOL     OW 3646   1.779   2.648   1.719
  916SOL    HW1 3647   1.800   2.743   1.743
  916SOL    HW2 3648   1.683   2.628   1.739
  917SOL     OW 3649   0.427   6.593   0.679
  917SOL    HW1 3650   0.439   6.556   0.587
  917SOL    HW2 3651   0.454   6.524   0.746
  918SOL     OW 3652   3.150   0.443   0.534
  918SOL    HW1 3653   3.215   0.369   0.516
  918SOL    HW2 3654   3.067   0.428   0.481
  919SOL     OW 3655   5.573   1.607   2.783
  919SOL    HW1 3656   5.478   1.636   2.774
  919SOL    HW2 3657   5.583   1.552   2.866
  920SOL     OW 3658   2.619   3.845   1.701
  920SOL    HW1 3659   2.567   3.781   1.644
  920SOL    HW2 3660   2.558   3.916   1.735
  921SOL     OW 3661   5.082   5.960   4.315
  921SOL    HW1 3662   5.009   5.980   4.380
  921SOL    HW2 3663   5.053   5.887   4.253
  922SOL     OW 3664   3.976   3.807   4.760
  922SOL    HW1 3665   3.895   3.820   4.817
  922SOL    HW2 3666   3.962   3.854   4.672
  923SOL     OW 3667   2.468   3.278   0.018
  923SOL    HW1 3668   2.554   3.287   6.986
  923SOL    HW2 3669   2.474   3.331   0.102
  924SOL     OW 3670   6.117   4.261   1.663
  924SOL    HW1 3671   6.161   4.300   1.582
  924SOL    HW2 3672   6.067   4.179   1.637
  925SOL     OW 3673   0.181   2.630   0.068
  925SOL    HW1 3674   0.166   2.533   0.085
  925SOL    HW2 3675   0.232   2.641   7.001
  926SOL     OW 3676   6.864   0.802   1.131
  926SOL    HW1 3677   6.868   0.712   1.173
  926SOL    HW2 3678   6.794   0.857   1.177
  927SOL     OW 3679   5.490   3.835   4.083
  927SOL    HW1 3680   5.411   3.774   4.082
  927SOL    HW2 3681   5.519   3.853   3.989
  928SOL     OW 3682   2.548   5.727   0.554
  928SOL    HW1 3683   2.637   5.764   0.576
  928SOL    HW2 3684   2.533   5.642   0.605
  929SOL     OW 3685   0.147   0.913   6.974
  929SOL    HW1 3686   0.191   0.999   6.948
  929SOL    HW2 3687   0.079   0.930   0.026
  930SOL     OW 3688   5.047   5.878   6.318
  930SOL    HW1 3689   5.026   5.781   6.332
  930SOL    HW2 3690   5.125   5.903   6.376
  931SOL     OW 3691   6.862   1.596   4.848
  931SOL    HW1 3692   6.861   1.527   4.920
  931SOL    HW2 3693   6.807   1.566   4.771
  932SOL     OW 3694   2.614   1.593   3.024
  932SOL    HW1 3695   2.557   1.616   2.946
  932SOL    HW2 3696   2.640   1.677   3.072
  933SOL     OW 3697   1.397   5.609   2.947
  933SOL    HW1 3698   1.482   5.611   2.894
  933SOL    HW2 3699   1.388   5.522   2.994
  934SOL     OW 3700   2.792   5.741   5.880
  934SOL    HW1 3701   2.798   5.830   5.925
  934SOL    HW2 3702   2.697   5.721   5.857
  935SOL     OW 3703   4.889   4.403   4.078
  935SOL    HW1 3704   4.881   4.377   3.982
  935SOL    HW2 3705   4.981   4.380   4.110
  936SOL     OW 3706   1.097   6.455   6.159
  936SOL    HW1 3707   1.114   6.551   6.177
  936SOL    HW2 3708   1.162   6.399   6.211
  937SOL     OW 3709   5.392   1.810   5.673
  937SOL    HW1 3710   5.480   1.772   5.701
  937SOL    HW2 3711   5.375   1.895   5.722
  938SOL     OW 3712   6.385   5.702   4.458
  938SOL    HW1 3713   6.335   5.652   4.529
  938SOL    HW2 3714   6.359   5.667   4.368
  939SOL     OW 3715   0.344   0.050   4.110
  939SOL    HW1 3716   0.395   6.986   4.089
  939SOL    HW2 3717   0.350   0.114   4.033
  940SOL     OW 3718   0.612   3.905   0.675
  940SOL    HW1 3719   0.610   4.003   0.690
  940SOL    HW2 3720   0.703   3.869   0.694
  941SOL     OW 3721   5.141   0.586   6.411
  941SOL    HW1 3722   5.191   0.500   6.393
  941SOL    HW2 3723   5.063   0.592   6.350
  942SOL     OW 3724   6.286   6.748   1.301
  942SOL    HW1 3725   6.288   6.792   1.391
  942SOL    HW2 3726   6.202   6.696   1.291
  943SOL     OW 3727   1.657   4.924   2.552
  943SOL    HW1 3728   1.653   4.844   2.611
  943SOL    HW2 3729   1.711   4.904   2.470
  944SOL     OW 3730   0.474   5.411   4.985
  944SOL    HW1 3731   0.562   5.394   4.940
  944SOL    HW2 3732   0.420   5.475   4.929
  945SOL     OW 3733   0.217   4.660   5.153
  945SOL    HW1 3734   0.143   4.602   5.188
  945SOL    HW2 3735   0.305   4.617   5.171
  946SOL     OW 3736   4.637   4.784   4.327
  946SOL    HW1 3737   4.582   4.809   4.247
  946SOL    HW2 3738   4.682   4.866   4.363
  947SOL     OW 3739   3.571   3.193   3.857
  947SOL    HW1 3740   3.627   3.272   3.885
  947SOL    HW2 3741   3.627   3.132   3.800
  948SOL     OW 3742   4.707   1.346   2.618
  948SOL    HW1 3743   4.673   1.273   2.676
  948SOL    HW2 3744   4.683   1.435   2.658
  949SOL     OW 3745   3.156   5.933   0.493
  949SOL    HW1 3746   3.209   5.922   0.409
  949SOL    HW2 3747   3.160   5.848   0.546
  950SOL     OW 3748   5.725   5.465   2.571
  950SOL    HW1 3749   5.737   5.477   2.670
  950SOL    HW2 3750   5.653   5.398   2.554
  951SOL     OW 3751   1.161   0.377   3.635
  951SOL    HW1 3752   1.225   0.316   3.588
  951SOL    HW2 3753   1.207   0.420   3.712
  952SOL     OW 3754   4.151   2.273   2.932
  952SOL    HW1 3755   4.150   2.247   2.835
  952SOL    HW2 3756   4.066   2.242   2.975
  953SOL     OW 3757   5.940   5.901   4.908
  953SOL    HW1 3758   5.966   5.846   4.829
  953SOL    HW2 3759   5.911   5.840   4.982
  954SOL     OW 3760   3.759   6.222   2.437
  954SOL    HW1 3761   3.703   6.245   2.517
  954SOL    HW2 3762   3.788   6.307   2.392
  955SOL     OW 3763   1.854   4.598   0.000
  955SOL    HW1 3764   1.795   4.677   7.003
  955SOL    HW2 3765   1.804   4.529   0.051
  956SOL     OW 3766   6.496   0.646   1.431
  956SOL    HW1 3767   6.426   0.657   1.501
  956SOL    HW2 3768   6.534   0.735   1.407
  957SOL     OW 3769   6.125   1.623   1.605
  957SOL    HW1 3770   6.103   1.526   1.599
  957SOL    HW2 3771   6.189   1.647   1.532
  958SOL     OW 3772   4.353   5.989   1.911
  958SOL    HW1 3773   4.324   5.929   1.986
  958SOL    HW2 3774   4.272   6.026   1.866
  959SOL     OW 3775   3.496   6.447   4.451
  959SOL    HW1 3776   3.540   6.486   4.370
  959SOL    HW2 3777   3.548   6.473   4.533
  960SOL     OW 3778   1.558   0.323   0.914
  960SOL    HW1 3779   1.501   0.332   0.832
  960SOL    HW2 3780   1.619   0.244   0.903
  961SOL     OW 3781   4.066   6.589   3.379
  961SOL    HW1 3782   4.044   6.631   3.291
  961SOL    HW2 3783   4.030   6.495   3.381
  962SOL     OW 3784   6.506   1.323   3.962
  962SOL    HW1 3785   6.603   1.330   3.937
  962SOL    HW2 3786   6.482   1.227   3.974
  963SOL     OW 3787   4.444   1.218   0.647
  963SOL    HW1 3788   4.500   1.269   0.582
  963SOL    HW2 3789   4.456   1.256   0.739
  964SOL     OW 3790   4.597   5.172   5.538
  964SOL    HW1 3791   4.617   5.170   5.636
  964SOL    HW2 3792   4.646   5.249   5.496
  965SOL     OW 3793   6.104   1.717   2.098
  965SOL    HW1 3794   6.007   1.695   2.085
  965SOL    HW2 3795   6.158   1.633   2.099
  966SOL     OW 3796   5.182   2.735   3.511
  966SOL    HW1 3797   5.185   2.654   3.570
  966SOL    HW2 3798   5.109   2.796   3.540
  967SOL     OW 3799   2.852   5.268   7.017
  967SOL    HW1 3800   2.925   5.257   6.949
  967SOL    HW2 3801   2.763   5.253   6.973
  968SOL     OW 3802   3.898   6.462   1.562
  968SOL    HW1 3803   3.888   6.471   1.463
  968SOL    HW2 3804   3.813   6.489   1.607
  969SOL     OW 3805   2.323   5.348   5.237
  969SOL    HW1 3806   2.227   5.362   5.212
  969SOL    HW2 3807   2.382   5.389   5.167
  970SOL     OW 3808   5.708   0.625   5.964
  970SOL    HW1 3809   5.786   0.583   6.010
  970SOL    HW2 3810   5.633   0.637   6.029
  971SOL     OW 3811   0.042   3.233   2.730
  971SOL    HW1 3812   7.000   3.160   2.700
  971SOL    HW2 3813   0.125   3.193   2.769
  972SOL     OW 3814   6.860   2.770   2.006
  972SOL    HW1 3815   6.902   2.682   1.986
  972SOL    HW2 3816   6.765   2.755   2.035
  973SOL     OW 3817   0.401   4.917   6.484
  973SOL    HW1 3818   0.462   4.845   6.516
  973SOL    HW2 3819   0.368   4.894   6.393
  974SOL     OW 3820   0.837   5.440   2.498
  974SOL    HW1 3821   0.787   5.356   2.478
  974SOL    HW2 3822   0.788   5.493   2.566
  975SOL     OW 3823   2.733   6.937   0.475
  975SOL    HW1 3824   2.714   6.839   0.477
  975SOL    HW2 3825   2.787   6.959   0.393
  976SOL     OW 3826   0.030   4.058   1.236
  976SOL    HW1 3827   6.981   4.130   1.232
  976SOL    HW2 3828   7.005   3.970   1.253
  977SOL     OW 3829   0.510   0.877   2.287
  977SOL    HW1 3830   0.573   0.953   2.305
  977SOL    HW2 3831   0.416   0.911   2.287
  978SOL     OW 3832   5.486   1.711   1.014
  978SOL    HW1 3833   5.524   1.707   1.107
  978SOL    HW2 3834   5.400   1.661   1.011
  979SOL     OW 3835   0.650   2.924   6.385
  979SOL    HW1 3836   0.560   2.919   6.428
  979SOL    HW2 3837   0.678   3.020   6.379
  980SOL     OW 3838   4.332   1.346   4.471
  980SOL    HW1 3839   4.311   1.390   4.559
  980SOL    HW2 3840   4.251   1.298   4.438
  981SOL     OW 3841   0.855   6.999   5.063
  981SOL    HW1 3842   0.924   0.037   5.019
  981SOL    HW2 3843   0.900   6.919   5.104
  982SOL     OW 3844   0.813   1.555   5.537
  982SOL    HW1 3845   0.752   1.609   5.596
  982SOL    HW2 3846   0.857   1.616   5.471
  983SOL     OW 3847   0.046   3.331   3.027
  983SOL    HW1 3848   0.107   3.402   2.993
  983SOL    HW2 3849   0.076   3.242   2.993
  984SOL     OW 3850   1.479   2.118   2.715
  984SOL    HW1 3851   1.410   2.190   2.727
  984SOL    HW2 3852   1.566   2.159   2.690
  985SOL     OW 3853   6.578   4.248   4.583
  985SOL    HW1 3854   6.495   4.201   4.555
  985SOL    HW2 3855   6.658   4.200   4.546
  986SOL     OW 3856   4.618   5.262   1.082
  986SOL    HW1 3857   4.714   5.288   1.091
  986SOL    HW2 3858   4.572   5.277   1.170
  987SOL     OW 3859   5.549   6.469   2.768
  987SOL    HW1 3860   5.633   6.494   2.817
  987SOL    HW2 3861   5.472   6.469   2.831
  988SOL     OW 3862   3.276   3.816   2.368
  988SOL    HW1 3863   3.300   3.908   2.336
  988SOL    HW2 3864   3.177   3.803   2.361
  989SOL     OW 3865   6.655   2.008   0.303
  989SOL    HW1 3866   6.579   1.971   0.357
  989SOL    HW2 3867   6.639   2.105   0.283
  990SOL     OW 3868   3.644   0.075   2.705
  990SOL    HW1 3869   3.706   7.019   2.730
  990SOL    HW2 3870   3.621   0.127   2.787
  991SOL     OW 3871   6.697   4.400   3.414
  991SOL    HW1 3872   6.672   4.380   3.319
  991SOL    HW2 3873   6.658   4.330   3.474
  992SOL     OW 3874   0.974   3.214   1.429
  992SOL    HW1 3875   0.884   3.174   1.413
  992SOL    HW2 3876   0.977   3.306   1.389
  993SOL     OW 3877   0.615   4.045   1.047
  993SOL    HW1 3878   0.699   4.089   1.013
  993SOL    HW2 3879   0.602   3.958   1.000
  994SOL     OW 3880   3.386   5.302   0.897
  994SOL    HW1 3881   3.407   5.400   0.894
  994SOL    HW2 3882   3.368   5.269   0.805
  995SOL     OW 3883   4.301   3.095   5.489
  995SOL    HW1 3884   4.383   3.043   5.513
  995SOL    HW2 3885   4.321   3.156   5.413
  996SOL     OW 3886   3.642   5.408   5.234
  996SOL    HW1 3887   3.613   5.313   5.246
  996SOL    HW2 3888   3.638   5.433   5.137
  997SOL     OW 3889   1.304   0.169   3.518
  997SOL    HW1 3890   1.402   0.188   3.510
  997SOL    HW2 3891   1.259   0.190   3.431
  998SOL     OW 3892   6.599   0.093   6.338
  998SOL    HW1 3893   6.692   0.056   6.331
  998SOL    HW2 3894   6.544   0.058   6.262
  999SOL     OW 3895   5.040   3.868   1.529
  999SOL    HW1 3896   4.949   3.835   1.552
  999SOL    HW2 3897   5.068   3.936   1.596
 1000SOL     OW 3898   4.235   1.358   1.785
 1000SOL    HW1 3899   4.162   1.365   1.853
 1000SOL    HW2 3900   4.197   1.379   1.694
 1001SOL     OW 3901   3.304   5.794   2.206
 1001SOL    HW1 3902   3.225   5.782   2.146
 1001SOL    HW2 3903   3.344   5.885   2.191
 1002SOL     OW 3904   5.519   2.187   1.453
 1002SOL    HW1 3905   5.550   2.268   1.402
 1002SOL    HW2 3906   5.423   2.169   1.430
 1003SOL     OW 3907   1.776   5.754   2.562
 1003SOL    HW1 3908   1.868   5.789   2.543
 1003SOL    HW2 3909   1.712   5.791   2.495
 1004SOL     OW 3910   6.599   1.139   2.624
 1004SOL    HW1 3911   6.679   1.094   2.584
 1004SOL    HW2 3912   6.516   1.101   2.585
 1005SOL     OW 3913   1.531   4.478   3.993
 1005SOL    HW1 3914   1.601   4.525   3.940
 1005SOL    HW2 3915   1.446   4.475   3.941
 1006SOL     OW 3916   2.119   3.726   0.126
 1006SOL    HW1 3917   2.184   3.786   0.172
 1006SOL    HW2 3918   2.039   3.778   0.097
 1007SOL     OW 3919   4.284   1.390   6.376
 1007SOL    HW1 3920   4.241   1.480   6.372
 1007SOL    HW2 3921   4.257   1.344   6.460
 1008SOL     OW 3922   0.189   3.797   5.015
 1008SOL    HW1 3923   0.190   3.712   4.961
 1008SOL    HW2 3924   0.256   3.789   5.089
 1009SOL     OW 3925   6.329   4.785   5.569
 1009SOL    HW1 3926   6.246   4.813   5.619
 1009SOL    HW2 3927   6.370   4.706   5.616
 1010SOL     OW 3928   2.961   2.369   1.478
 1010SOL    HW1 3929   2.940   2.462   1.509
 1010SOL    HW2 3930   2.896   2.342   1.407
 1011SOL     OW 3931   0.272   5.720   3.355
 1011SOL    HW1 3932   0.339   5.794   3.344
 1011SOL    HW2 3933   0.309   5.636   3.315
 1012SOL     OW 3934   6.914   6.778   2.325
 1012SOL    HW1 3935   6.932   6.764   2.422
 1012SOL    HW2 3936   6.982   6.729   2.271
 1013SOL     OW 3937   6.762   1.217   6.292
 1013SOL    HW1 3938   6.709   1.205   6.209
 1013SOL    HW2 3939   6.714   1.175   6.369
 1014SOL     OW 3940   0.980   3.731   4.770
 1014SOL    HW1 3941   1.043   3.750   4.845
 1014SOL    HW2 3942   0.974   3.811   4.710
 1015SOL     OW 3943   2.681   0.678   6.531
 1015SOL    HW1 3944   2.764   0.654   6.582
 1015SOL    HW2 3945   2.706   0.726   6.447
 1016SOL     OW 3946   4.440   4.843   1.064
 1016SOL    HW1 3947   4.411   4.914   1.128
 1016SOL    HW2 3948   4.533   4.814   1.086
 1017SOL     OW 3949   2.734   1.756   1.433
 1017SOL    HW1 3950   2.761   1.768   1.529
 1017SOL    HW2 3951   2.789   1.684   1.392
 1018SOL     OW 3952   0.071   4.307   3.315
 1018SOL    HW1 3953   0.068   4.241   3.390
 1018SOL    HW2 3954   0.072   4.400   3.352
 1019SOL     OW 3955   6.754   4.970   0.281
 1019SOL    HW1 3956   6.735   4.993   0.186
 1019SOL    HW2 3957   6.793   4.878   0.286
 1020SOL     OW 3958   6.174   1.049   1.237
 1020SOL    HW1 3959   6.226   1.098   1.307
 1020SOL    HW2 3960   6.146   1.113   1.166
 1021SOL     OW 3961   6.475   6.239   2.457
 1021SOL    HW1 3962   6.473   6.146   2.495
 1021SOL    HW2 3963   6.570   6.272   2.458
 1022SOL     OW 3964   2.520   5.661   5.898
 1022SOL    HW1 3965   2.473   5.750   5.892
 1022SOL    HW2 3966   2.528   5.634   5.993
 1023SOL     OW 3967   0.226   0.432   2.671
 1023SOL    HW1 3968   0.303   0.382   2.630
 1023SOL    HW2 3969   0.253   0.527   2.686
 1024SOL     OW 3970   0.751   1.764   4.300
 1024SOL    HW1 3971   0.785   1.834   4.362
 1024SOL    HW2 3972   0.669   1.799   4.253
 1025SOL     OW 3973   4.804   2.795   0.454
 1025SOL    HW1 3974   4.708   2.825   0.448
 1025SOL    HW2 3975   4.850   2.846   0.526
 1026SOL     OW 3976   2.935   2.668   1.548
 1026SOL    HW1 3977   2.955   2.719   1.632
 1026SOL    HW2 3978   3.016   2.669   1.489
 1027SOL     OW 3979   1.841   0.047   1.681
 1027SOL    HW1 3980   1.868   0.114   1.749
 1027SOL    HW2 3981   1.874   0.076   1.591
 1028SOL     OW 3982   1.457   6.796   3.283
 1028SOL    HW1 3983   1.549   6.793   3.322
 1028SOL    HW2 3984   1.391   6.763   3.351
 1029SOL     OW 3985   1.242   2.194   6.068
 1029SOL    HW1 3986   1.205   2.258   6.000
 1029SOL    HW2 3987   1.305   2.243   6.128
 1030SOL     OW 3988   3.637   3.120   1.572
 1030SOL    HW1 3989   3.622   3.051   1.501
 1030SOL    HW2 3990   3.574   3.104   1.648
 1031SOL     OW 3991   4.573   3.133   1.405
 1031SOL    HW1 3992   4.670   3.158   1.401
 1031SOL    HW2 3993   4.553   3.092   1.495
 1032SOL     OW 3994   2.480   1.172   5.192
 1032SOL    HW1 3995   2.409   1.237   5.220
 1032SOL    HW2 3996   2.552   1.169   5.261
 1033SOL     OW 3997   1.809   6.078   2.315
 1033SOL    HW1 3998   1.829   5.991   2.270
 1033SOL    HW2 3999   1.841   6.153   2.257
 1034SOL     OW 4000   1.716   6.480   4.398
 1034SOL    HW1 4001   1.737   6.544   4.472
 1034SOL    HW2 4002   1.758   6.512   4.313
 1035SOL     OW 4003   0.379   2.133   5.934
 1035SOL    HW1 4004   0.379   2.119   5.835
 1035SOL    HW2 4005   0.284   2.138   5.967
 1036SOL     OW 4006   4.045   1.055   1.426
 1036SOL    HW1 4007   4.034   1.154   1.419
 1036SOL    HW2 4008   4.036   1.027   1.522
 1037SOL     OW 4009   1.411   1.702   3.106
 1037SOL    HW1 4010   1.379   1.698   3.012
 1037SOL    HW2 4011   1.489   1.641   3.118
 1038SOL     OW 4012   1.624   0.985   6.347
 1038SOL    HW1 4013   1.652   1.021   6.258
 1038SOL    HW2 4014   1.564   1.050   6.392
 1039SOL     OW 4015   3.045   3.265   3.996
 1039SOL    HW1 4016   3.074   3.214   4.077
 1039SOL    HW2 4017   3.095   3.232   3.916
 1040SOL     OW 4018   5.216   0.941   2.556
 1040SOL    HW1 4019   5.244   1.001   2.630
 1040SOL    HW2 4020   5.265   0.966   2.472
 1041SOL     OW 4021   6.990   0.060   3.663
 1041SOL    HW1 4022   6.954   0.069   3.756
 1041SOL    HW2 4023   0.033   0.136   3.644
 1042SOL     OW 4024   4.723   5.164   3.038
 1042SOL    HW1 4025   4.693   5.149   2.944
 1042SOL    HW2 4026   4.758   5.257   3.048
 1043SOL     OW 4027   4.157   1.960   3.513
 1043SOL    HW1 4028   4.220   2.017   3.566
 1043SOL    HW2 4029   4.141   2.001   3.423
 1044SOL     OW 4030   6.214   5.583   1.794
 1044SOL    HW1 4031   6.308   5.565   1.768
 1044SOL    HW2 4032   6.210   5.608   1.891
 1045SOL     OW 4033   3.474   0.244   3.122
 1045SOL    HW1 4034   3.434   0.331   3.150
 1045SOL    HW2 4035   3.509   0.196   3.202
 1046SOL     OW 4036   2.094   1.260   0.936
 1046SOL    HW1 4037   2.007   1.257   0.984
 1046SOL    HW2 4038   2.158   1.195   0.977
 1047SOL     OW 4039   3.338   0.350   4.097
 1047SOL    HW1 4040   3.248   0.306   4.095
 1047SOL    HW2 4041   3.370   0.364   4.003
 1048SOL     OW 4042   3.147   5.275   2.337
 1048SOL    HW1 4043   3.179   5.200   2.394
 1048SOL    HW2 4044   3.148   5.360   2.390
 1049SOL     OW 4045   5.017   0.082   3.645
 1049SOL    HW1 4046   4.936   0.029   3.619
 1049SOL    HW2 4047   5.096   0.051   3.592
 1050SOL     OW 4048   3.804   5.726   2.683
 1050SOL    HW1 4049   3.890   5.776   2.686
 1050SOL    HW2 4050   3.763   5.735   2.593
 1051SOL     OW 4051   0.143   6.025   0.309
 1051SOL    HW1 4052   0.122   6.113   0.352
 1051SOL    HW2 4053   0.225   5.985   0.352
 1052SOL     OW 4054   4.939   1.031   5.052
 1052SOL    HW1 4055   4.931   1.113   4.996
 1052SOL    HW2 4056   5.028   1.029   5.097
 1053SOL     OW 4057   5.744   4.008   2.594
 1053SOL    HW1 4058   5.669   3.959   2.549
 1053SOL    HW2 4059   5.791   3.947   2.658
 1054SOL     OW 4060   3.087   3.173   0.949
 1054SOL    HW1 4061   3.104   3.076   0.965
 1054SOL    HW2 4062   2.989   3.190   0.944
 1055SOL     OW 4063   4.812   6.597   6.526
 1055SOL    HW1 4064   4.850   6.600   6.619
 1055SOL    HW2 4065   4.790   6.503   6.502
 1056SOL     OW 4066   0.602   4.174   0.639
 1056SOL    HW1 4067   0.647   4.170   0.549
 1056SOL    HW2 4068   0.642   4.249   0.692
 1057SOL     OW 4069   3.818   2.183   1.637
 1057SOL    HW1 4070   3.791   2.225   1.551
 1057SOL    HW2 4071   3.756   2.213   1.710
 1058SOL     OW 4072   4.669   2.660   3.381
 1058SOL    HW1 4073   4.754   2.675   3.330
 1058SOL    HW2 4074   4.675   2.706   3.470
 1059SOL     OW 4075   2.021   6.875   1.945
 1059SOL    HW1 4076   2.073   6.823   2.013
 1059SOL    HW2 4077   1.981   6.956   1.988
 1060SOL     OW 4078   0.376   5.052   4.141
 1060SOL    HW1 4079   0.455   5.005   4.102
 1060SOL    HW2 4080   0.370   5.031   4.239
 1061SOL     OW 4081   6.568   3.458   6.767
 1061SOL    HW1 4082   6.650   3.489   6.719
 1061SOL    HW2 4083   6.576   3.479   6.864
 1062SOL     OW 4084   3.937   6.273   5.304
 1062SOL    HW1 4085   3.962   6.182   5.338
 1062SOL    HW2 4086   3.894   6.264   5.214
 1063SOL     OW 4087   0.057   6.976   6.878
 1063SOL    HW1 4088   0.009   0.012   6.946
 1063SOL    HW2 4089   0.145   7.017   6.858
 1064SOL     OW 4090   0.402   4.517   1.810
 1064SOL    HW1 4091   0.340   4.445   1.779
 1064SOL    HW2 4092   0.474   4.477   1.867
 1065SOL     OW 4093   3.352   0.454   3.826
 1065SOL    HW1 4094   3.278   0.436   3.761
 1065SOL    HW2 4095   3.367   0.553   3.832
 1066SOL     OW 4096   4.512   6.854   2.008
 1066SOL    HW1 4097   4.585   6.789   1.986
 1066SOL    HW2 4098   4.551   6.941   2.036
 1067SOL     OW 4099   2.147   0.769   0.252
 1067SOL    HW1 4100   2.061   0.726   0.226
 1067SOL    HW2 4101   2.164   0.753   0.350
 1068SOL     OW 4102   5.830   3.854   0.992
 1068SOL    HW1 4103   5.886   3.899   0.922
 1068SOL    HW2 4104   5.878   3.774   1.027
 1069SOL     OW 4105   5.332   5.356   0.894
 1069SOL    HW1 4106   5.401   5.308   0.948
 1069SOL    HW2 4107   5.271   5.407   0.955
 1070SOL     OW 4108   2.503   6.936   2.205
 1070SOL    HW1 4109   2.516   6.969   2.111
 1070SOL    HW2 4110   2.490   6.837   2.204
 1071SOL     OW 4111   1.138   2.013   4.616
 1071SOL    HW1 4112   1.208   2.065   4.664
 1071SOL    HW2 4113   1.169   1.995   4.522
 1072SOL     OW 4114   2.270   0.609   1.868
 1072SOL    HW1 4115   2.184   0.583   1.912
 1072SOL    HW2 4116   2.256   0.618   1.769
 1073SOL     OW 4117   5.600   2.074   3.033
 1073SOL    HW1 4118   5.597   2.025   3.121
 1073SOL    HW2 4119   5.512   2.063   2.986
 1074SOL     OW 4120   2.485   4.864   1.692
 1074SOL    HW1 4121   2.396   4.824   1.671
 1074SOL    HW2 4122   2.541   4.797   1.740
 1075SOL     OW 4123   6.157   1.814   3.944
 1075SOL    HW1 4124   6.121   1.865   4.022
 1075SOL    HW2 4125   6.257   1.812   3.948
 1076SOL     OW 4126   1.396   3.301   6.018
 1076SOL    HW1 4127   1.482   3.260   6.049
 1076SOL    HW2 4128   1.357   3.246   5.944
 1077SOL     OW 4129   0.060   6.776   0.067
 1077SOL    HW1 4130   0.131   6.770   0.137
 1077SOL    HW2 4131   0.091   6.836   7.012
 1078SOL     OW 4132   6.227   0.229   3.069
 1078SOL    HW1 4133   6.253   0.260   3.160
 1078SOL    HW2 4134   6.219   0.307   3.007
 1079SOL     OW 4135   1.622   5.325   2.021
 1079SOL    HW1 4136   1.579   5.329   1.931
 1079SOL    HW2 4137   1.624   5.417   2.061
 1080SOL     OW 4138   2.366   5.695   4.920
 1080SOL    HW1 4139   2.361   5.776   4.862
 1080SOL    HW2 4140   2.461   5.666   4.928
 1081SOL     OW 4141   6.955   5.518   4.479
 1081SOL    HW1 4142   6.924   5.436   4.431
 1081SOL    HW2 4143   6.986   5.586   4.412
 1082SOL     OW 4144   6.018   1.903   5.691
 1082SOL    HW1 4145   5.996   1.998   5.671
 1082SOL    HW2 4146   6.047   1.857   5.607
 1083SOL     OW 4147   4.818   3.112   0.266
 1083SOL    HW1 4148   4.825   3.200   0.220
 1083SOL    HW2 4149   4.741   3.114   0.331
 1084SOL     OW 4150   7.004   0.013   6.626
 1084SOL    HW1 4151   0.033   6.969   6.686
 1084SOL    HW2 4152   6.969   0.090   6.679
 1085SOL     OW 4153   2.029   3.575   3.517
 1085SOL    HW1 4154   1.945   3.626   3.497
 1085SOL    HW2 4155   2.061   3.599   3.609
 1086SOL     OW 4156   6.561   5.413   6.474
 1086SOL    HW1 4157   6.615   5.380   6.396
 1086SOL    HW2 4158   6.531   5.507   6.456
 1087SOL     OW 4159   1.064   1.415   5.435
 1087SOL    HW1 4160   0.983   1.397   5.379
 1087SOL    HW2 4161   1.040   1.476   5.510
 1088SOL     OW 4162   0.211   5.199   3.245
 1088SOL    HW1 4163   0.126   5.192   3.194
 1088SOL    HW2 4164   0.250   5.108   3.259
 1089SOL     OW 4165   0.815   5.475   5.007
 1089SOL    HW1 4166   0.911   5.448   5.015
 1089SOL    HW2 4167   0.772   5.473   5.097
 1090SOL     OW 4168   4.917   2.143   3.149
 1090SOL    HW1 4169   4.997   2.180   3.197
 1090SOL    HW2 4170   4.883   2.211   3.084
 1091SOL     OW 4171   1.790   3.681   3.436
 1091SOL    HW1 4172   1.713   3.667   3.374
 1091SOL    HW2 4173   1.830   3.771   3.419
 1092SOL     OW 4174   0.465   5.303   0.560
 1092SOL    HW1 4175   0.528   5.379   0.545
 1092SOL    HW2 4176   0.400   5.327   0.632
 1093SOL     OW 4177   2.786   6.705   1.789
 1093SOL    HW1 4178   2.704   6.652   1.812
 1093SOL    HW2 4179   2.829   6.666   1.708
 1094SOL     OW 4180   0.600   6.789   2.688
 1094SOL    HW1 4181   0.670   6.824   2.751
 1094SOL    HW2 4182   0.514   6.777   2.738
 1095SOL     OW 4183   0.446   2.222   6.742
 1095SOL    HW1 4184   0.498   2.222   6.656
 1095SOL    HW2 4185   0.352   2.251   6.725
 1096SOL     OW 4186   3.281   4.329   1.156
 1096SOL    HW1 4187   3.188   4.361   1.135
 1096SOL    HW2 4188   3.347   4.397   1.127
 1097SOL     OW 4189   1.953   5.626   2.860
 1097SOL    HW1 4190   1.882   5.693   2.882
 1097SOL    HW2 4191   1.951   5.607   2.762
 1098SOL     OW 4192   6.103   4.202   6.588
 1098SOL    HW1 4193   6.175   4.182   6.521
 1098SOL    HW2 4194   6.089   4.121   6.646
 1099SOL     OW 4195   4.567   1.376   6.813
 1099SOL    HW1 4196   4.482   1.421   6.841
 1099SOL    HW2 4197   4.628   1.443   6.772
 1100SOL     OW 4198   3.932   0.868   3.873
 1100SOL    HW1 4199   4.000   0.898   3.940
 1100SOL    HW2 4200   3.920   0.939   3.804
 1101SOL     OW 4201   5.421   3.835   5.062
 1101SOL    HW1 4202   5.324   3.811   5.055
 1101SOL    HW2 4203   5.466   3.824   4.973
 1102SOL     OW 4204   2.507   1.212   4.749
 1102SOL    HW1 4205   2.453   1.206   4.666
 1102SOL    HW2 4206   2.477   1.143   4.814
 1103SOL     OW 4207   2.447   1.171   0.118
 1103SOL    HW1 4208   2.444   1.090   0.176
 1103SOL    HW2 4209   2.442   1.253   0.174
 1104SOL     OW 4210   1.561   4.230   3.418
 1104SOL    HW1 4211   1.579   4.278   3.504
 1104SOL    HW2 4212   1.516   4.143   3.437
 1105SOL     OW 4213   4.809   2.977   4.651
 1105SOL    HW1 4214   4.723   2.959   4.699
 1105SOL    HW2 4215   4.854   3.056   4.693
 1106SOL     OW 4216   0.361   1.114   0.833
 1106SOL    HW1 4217   0.316   1.043   0.780
 1106SOL    HW2 4218   0.291   1.174   0.874
 1107SOL     OW 4219   0.913   0.821   0.182
 1107SOL    HW1 4220   0.974   0.847   0.108
 1107SOL    HW2 4221   0.901   0.722   0.182
 1108SOL     OW 4222   3.940   6.467   4.893
 1108SOL    HW1 4223   3.969   6.562   4.895
 1108SOL    HW2 4224   3.953   6.430   4.800
 1109SOL     OW 4225   5.852   1.626   4.207
 1109SOL    HW1 4226   5.831   1.608   4.303
 1109SOL    HW2 4227   5.773   1.601   4.151
 1110SOL     OW 4228   3.407   0.431   3.456
 1110SOL    HW1 4229   3.404   0.358   3.525
 1110SOL    HW2 4230   3.480   0.495   3.477
 1111SOL     OW 4231   5.642   4.169   6.343
 1111SOL    HW1 4232   5.705   4.227   6.395
 1111SOL    HW2 4233   5.694   4.114   6.278
 1112SOL     OW 4234   6.685   0.632   3.236
 1112SOL    HW1 4235   6.634   0.654   3.319
 1112SOL    HW2 4236   6.770   0.584   3.260
 1113SOL     OW 4237   6.247   4.326   1.459
 1113SOL    HW1 4238   6.197   4.270   1.393
 1113SOL    HW2 4239   6.340   4.290   1.470
 1114SOL     OW 4240   3.357   2.539   6.115
 1114SOL    HW1 4241   3.433   2.498   6.166
 1114SOL    HW2 4242   3.302   2.595   6.177
 1115SOL     OW 4243   4.282   4.122   5.328
 1115SOL    HW1 4244   4.281   4.068   5.412
 1115SOL    HW2 4245   4.359   4.185   5.329
 1116SOL     OW 4246   5.540   0.305   6.940
 1116SOL    HW1 4247   5.555   0.384   6.999
 1116SOL    HW2 4248   5.456   0.258   6.967
 1117SOL     OW 4249   0.946   1.977   1.569
 1117SOL    HW1 4250   0.875   1.962   1.637
 1117SOL    HW2 4251   0.907   1.967   1.477
 1118SOL     OW 4252   2.256   5.254   6.966
 1118SOL    HW1 4253   2.344   5.230   7.006
 1118SOL    HW2 4254   2.201   5.171   6.953
 1119SOL     OW 4255   4.312   4.440   1.777
 1119SOL    HW1 4256   4.287   4.435   1.680
 1119SOL    HW2 4257   4.372   4.363   1.800
 1120SOL     OW 4258   6.052   5.911   1.202
 1120SOL    HW1 4259   6.066   5.885   1.107
 1120SOL    HW2 4260   6.120   5.979   1.228
 1121SOL     OW 4261   0.466   4.589   5.211
 1121SOL    HW1 4262   0.540   4.634   5.162
 1121SOL    HW2 4263   0.481   4.490   5.210
 1122SOL     OW 4264   6.377   3.092   2.005
 1122SOL    HW1 4265   6.357   3.182   2.043
 1122SOL    HW2 4266   6.458   3.098   1.945
 1123SOL     OW 4267   4.552   2.377   3.867
 1123SOL    HW1 4268   4.545   2.429   3.952
 1123SOL    HW2 4269   4.479   2.309   3.864
 1124SOL     OW 4270   0.952   3.401   6.096
 1124SOL    HW1 4271   0.890   3.371   6.024
 1124SOL    HW2 4272   0.973   3.323   6.156
 1125SOL     OW 4273   1.639   3.118   4.382
 1125SOL    HW1 4274   1.597   3.101   4.472
 1125SOL    HW2 4275   1.693   3.202   4.386
 1126SOL     OW 4276   5.018   6.175   5.394
 1126SOL    HW1 4277   5.030   6.097   5.332
 1126SOL    HW2 4278   5.078   6.249   5.365
 1127SOL     OW 4279   5.337   6.650   4.813
 1127SOL    HW1 4280   5.378   6.683   4.898
 1127SOL    HW2 4281   5.394   6.577   4.775
 1128SOL     OW 4282   5.760   1.734   5.012
 1128SOL    HW1 4283   5.685   1.670   4.995
 1128SOL    HW2 4284   5.842   1.701   4.965
 1129SOL     OW 4285   1.913   6.742   0.523
 1129SOL    HW1 4286   1.926   6.818   0.460
 1129SOL    HW2 4287   1.817   6.714   0.521
 1130SOL     OW 4288   1.659   5.160   1.719
 1130SOL    HW1 4289   1.683   5.252   1.687
 1130SOL    HW2 4290   1.565   5.160   1.753
 1131SOL     OW 4291   1.784   0.751   4.832
 1131SOL    HW1 4292   1.827   0.841   4.825
 1131SOL    HW2 4293   1.700   0.750   4.778
 1132SOL     OW 4294   4.416   0.208   2.985
 1132SOL    HW1 4295   4.458   0.287   2.941
 1132SOL    HW2 4296   4.328   0.189   2.941
 1133SOL     OW 4297   0.632   0.702   0.261
 1133SOL    HW1 4298   0.632   0.799   0.286
 1133SOL    HW2 4299   0.725   0.667   0.263
 1134SOL     OW 4300   5.476   0.193   1.904
 1134SOL    HW1 4301   5.506   0.170   1.811
 1134SOL    HW2 4302   5.479   0.292   1.916
 1135SOL     OW 4303   2.448   6.915   3.799
 1135SOL    HW1 4304   2.483   6.828   3.766
 1135SOL    HW2 4305   2.521   6.984   3.797
 1136SOL     OW 4306   3.495   5.093   2.992
 1136SOL    HW1 4307   3.459   5.055   2.907
 1136SOL    HW2 4308   3.555   5.025   3.035
 1137SOL     OW 4309   0.491   6.253   6.614
 1137SOL    HW1 4310   0.412   6.257   6.553
 1137SOL    HW2 4311   0.467   6.293   6.702
 1138SOL     OW 4312   1.432   2.369   4.983
 1138SOL    HW1 4313   1.418   2.301   5.055
 1138SOL    HW2 4314   1.344   2.398   4.946
 1139SOL     OW 4315   2.443   4.501   4.026
 1139SOL    HW1 4316   2.460   4.520   4.122
 1139SOL    HW2 4317   2.350   4.465   4.015
 1140SOL     OW 4318   2.357   0.260   2.774
 1140SOL    HW1 4319   2.343   0.167   2.808
 1140SOL    HW2 4320   2.421   0.258   2.698
 1141SOL     OW 4321   6.405   5.652   6.422
 1141SOL    HW1 4322   6.426   5.684   6.330
 1141SOL    HW2 4323   6.327   5.704   6.457
 1142SOL     OW 4324   2.837   6.996   3.457
 1142SOL    HW1 4325   2.771   6.928   3.490
 1142SOL    HW2 4326   2.789   0.061   3.433
 1143SOL     OW 4327   1.473   2.709   2.512
 1143SOL    HW1 4328   1.406   2.781   2.526
 1143SOL    HW2 4329   1.532   2.702   2.593
 1144SOL     OW 4330   5.544   4.552   2.460
 1144SOL    HW1 4331   5.624   4.525   2.407
 1144SOL    HW2 4332   5.572   4.605   2.539
 1145SOL     OW 4333   1.155   2.631   0.475
 1145SOL    HW1 4334   1.121   2.724   0.485
 1145SOL    HW2 4335   1.228   2.615   0.541
 1146SOL     OW 4336   0.446   1.883   1.590
 1146SOL    HW1 4337   0.443   1.931   1.678
 1146SOL    HW2 4338   0.484   1.791   1.604
 1147SOL     OW 4339   3.044   5.330   0.681
 1147SOL    HW1 4340   3.136   5.311   0.648
 1147SOL    HW2 4341   2.977   5.315   0.608
 1148SOL     OW 4342   3.989   6.193   1.401
 1148SOL    HW1 4343   3.923   6.266   1.384
 1148SOL    HW2 4344   3.946   6.121   1.455
 1149SOL     OW 4345   5.840   3.197   1.267
 1149SOL    HW1 4346   5.879   3.241   1.348
 1149SOL    HW2 4347   5.802   3.108   1.293
 1150SOL     OW 4348   0.522   4.167   0.104
 1150SOL    HW1 4349   0.621   4.151   0.106
 1150SOL    HW2 4350   0.478   4.112   0.175
 1151SOL     OW 4351   6.090   4.934   4.736
 1151SOL    HW1 4352   6.174   4.901   4.779
 1151SOL    HW2 4353   6.019   4.863   4.741
 1152SOL     OW 4354   4.549   6.258   6.643
 1152SOL    HW1 4355   4.554   6.174   6.589
 1152SOL    HW2 4356   4.488   6.323   6.599
 1153SOL     OW 4357   6.726   6.909   1.408
 1153SOL    HW1 4358   6.686   6.982   1.463
 1153SOL    HW2 4359   6.669   6.827   1.414
 1154SOL     OW 4360   0.828   4.288   1.192
 1154SOL    HW1 4361   0.821   4.218   1.264
 1154SOL    HW2 4362   0.888   4.255   1.120
 1155SOL     OW 4363   2.064   6.188   5.664
 1155SOL    HW1 4364   2.104   6.254   5.728
 1155SOL    HW2 4365   2.104   6.200   5.573
 1156SOL     OW 4366   4.289   1.861   4.999
 1156SOL    HW1 4367   4.191   1.876   4.991
 1156SOL    HW2 4368   4.315   1.780   4.946
 1157SOL     OW 4369   5.187   1.047   5.780
 1157SOL    HW1 4370   5.278   1.033   5.818
 1157SOL    HW2 4371   5.124   0.981   5.819
 1158SOL     OW 4372   6.290   6.229   4.509
 1158SOL    HW1 4373   6.263   6.241   4.413
 1158SOL    HW2 4374   6.247   6.301   4.564
 1159SOL     OW 4375   5.848   6.823   3.256
 1159SOL    HW1 4376   5.862   6.921   3.269
 1159SOL    HW2 4377   5.882   6.774   3.336
 1160SOL     OW 4378   4.033   5.465   1.801
 1160SOL    HW1 4379   4.040   5.447   1.899
 1160SOL    HW2 4380   3.979   5.392   1.758
 1161SOL     OW 4381   6.912   5.391   6.400
 1161SOL    HW1 4382   6.938   5.477   6.355
 1161SOL    HW2 4383   6.890   5.408   6.496
 1162SOL     OW 4384   2.346   2.800   5.635
 1162SOL    HW1 4385   2.414   2.732   5.665
 1162SOL    HW2 4386   2.383   2.852   5.558
 1163SOL     OW 4387   6.018   4.595   1.991
 1163SOL    HW1 4388   6.002   4.671   1.928
 1163SOL    HW2 4389   5.948   4.597   2.062
 1164SOL     OW 4390   5.248   2.512   5.354
 1164SOL    HW1 4391   5.158   2.483   5.321
 1164SOL    HW2 4392   5.263   2.608   5.331
 1165SOL     OW 4393   4.159   5.920   3.088
 1165SOL    HW1 4394   4.118   6.010   3.071
 1165SOL    HW2 4395   4.251   5.918   3.050
 1166SOL     OW 4396   2.142   5.394   6.722
 1166SOL    HW1 4397   2.105   5.392   6.815
 1166SOL    HW2 4398   2.087   5.336   6.663
 1167SOL     OW 4399   5.088   4.752   1.285
 1167SOL    HW1 4400   5.154   4.693   1.332
 1167SOL    HW2 4401   5.137   4.817   1.227
 1168SOL     OW 4402   6.287   2.516   1.789
 1168SOL    HW1 4403   6.227   2.496   1.866
 1168SOL    HW2 4404   6.314   2.431   1.744
 1169SOL     OW 4405   5.168   1.706   5.209
 1169SOL    HW1 4406   5.126   1.622   5.241
 1169SOL    HW2 4407   5.267   1.693   5.199
 1170SOL     OW 4408   5.231   0.306   3.121
 1170SOL    HW1 4409   5.263   0.214   3.144
 1170SOL    HW2 4410   5.223   0.361   3.204
 1171SOL     OW 4411   2.653   6.983   0.125
 1171SOL    HW1 4412   2.589   6.923   0.173
 1171SOL    HW2 4413   2.623   6.993   0.030
 1172SOL     OW 4414   5.144   4.099   0.997
 1172SOL    HW1 4415   5.135   4.060   1.088
 1172SOL    HW2 4416   5.053   4.129   0.965
 1173SOL     OW 4417   2.817   1.459   1.597
 1173SOL    HW1 4418   2.735   1.516   1.591
 1173SOL    HW2 4419   2.823   1.400   1.516
 1174SOL     OW 4420   3.587   4.093   2.124
 1174SOL    HW1 4421   3.636   4.166   2.171
 1174SOL    HW2 4422   3.607   4.006   2.168
 1175SOL     OW 4423   4.755   3.538   6.163
 1175SOL    HW1 4424   4.693   3.470   6.201
 1175SOL    HW2 4425   4.849   3.507   6.172
 1176SOL     OW 4426   5.350   3.634   6.603
 1176SOL    HW1 4427   5.367   3.622   6.700
 1176SOL    HW2 4428   5.354   3.732   6.580
 1177SOL     OW 4429   6.911   3.850   5.056
 1177SOL    HW1 4430   6.997   3.845   5.005
 1177SOL    HW2 4431   6.839   3.805   5.004
 1178SOL     OW 4432   2.544   3.572   0.451
 1178SOL    HW1 4433   2.533   3.534   0.543
 1178SOL    HW2 4434   2.597   3.656   0.456
 1179SOL     OW 4435   2.821   5.511   0.327
 1179SOL    HW1 4436   2.758   5.478   0.257
 1179SOL    HW2 4437   2.801   5.607   0.347
 1180SOL     OW 4438   2.994   6.030   3.212
 1180SOL    HW1 4439   2.996   6.101   3.282
 1180SOL    HW2 4440   2.945   5.950   3.246
 1181SOL     OW 4441   0.264   5.431   6.053
 1181SOL    HW1 4442   0.195   5.492   6.014
 1181SOL    HW2 4443   0.240   5.411   6.148
 1182SOL     OW 4444   4.042   5.059   3.418
 1182SOL    HW1 4445   4.043   5.151   3.458
 1182SOL    HW2 4446   4.126   5.046   3.365
 1183SOL     OW 4447   2.277   3.864   6.942
 1183SOL    HW1 4448   2.221   3.791   6.980
 1183SOL    HW2 4449   2.217   3.938   6.908
 1184SOL     OW 4450   0.196   1.065   4.855
 1184SOL    HW1 4451   0.161   1.155   4.830
 1184SOL    HW2 4452   0.121   1.007   4.887
 1185SOL     OW 4453   0.547   1.280   0.456
 1185SOL    HW1 4454   0.635   1.324   0.472
 1185SOL    HW2 4455   0.547   1.189   0.497
 1186SOL     OW 4456   5.796   6.266   5.487
 1186SOL    HW1 4457   5.723   6.248   5.553
 1186SOL    HW2 4458   5.759   6.263   5.395
 1187SOL     OW 4459   6.136   6.613   6.868
 1187SOL    HW1 4460   6.131   6.607   6.768
 1187SOL    HW2 4461   6.208   6.678   6.893
 1188SOL     OW 4462   3.784   6.005   5.580
 1188SOL    HW1 4463   3.701   6.027   5.528
 1188SOL    HW2 4464   3.831   6.090   5.604
 1189SOL     OW 4465   6.343   2.445   2.137
 1189SOL    HW1 4466   6.270   2.407   2.080
 1189SOL    HW2 4467   6.431   2.408   2.107
 1190SOL     OW 4468   2.699   5.690   3.784
 1190SOL    HW1 4469   2.640   5.614   3.810
 1190SOL    HW2 4470   2.685   5.766   3.848
 1191SOL     OW 4471   4.716   5.106   4.109
 1191SOL    HW1 4472   4.768   5.191   4.112
 1191SOL    HW2 4473   4.771   5.035   4.065
 1192SOL     OW 4474   3.971   5.651   2.991
 1192SOL    HW1 4475   3.926   5.568   2.957
 1192SOL    HW2 4476   4.063   5.629   3.020
 1193SOL     OW 4477   6.328   3.168   5.288
 1193SOL    HW1 4478   6.356   3.263   5.278
 1193SOL    HW2 4479   6.405   3.115   5.325
 1194SOL     OW 4480   5.634   0.149   1.600
 1194SOL    HW1 4481   5.705   0.203   1.555
 1194SOL    HW2 4482   5.596   0.082   1.536
 1195SOL     OW 4483   6.677   4.242   0.493
 1195SOL    HW1 4484   6.672   4.218   0.396
 1195SOL    HW2 4485   6.605   4.307   0.516
 1196SOL     OW 4486   0.265   5.706   3.018
 1196SOL    HW1 4487   0.275   5.756   2.932
 1196SOL    HW2 4488   0.345   5.722   3.076
 1197SOL     OW 4489   4.529   0.675   5.238
 1197SOL    HW1 4490   4.473   0.690   5.319
 1197SOL    HW2 4491   4.610   0.734   5.242
 1198SOL     OW 4492   1.112   2.881   2.330
 1198SOL    HW1 4493   1.035   2.820   2.313
 1198SOL    HW2 4494   1.180   2.869   2.257
 1199SOL     OW 4495   3.924   4.478   1.374
 1199SOL    HW1 4496   3.933   4.379   1.361
 1199SOL    HW2 4497   3.885   4.496   1.465
 1200SOL     OW 4498   3.030   3.503   4.094
 1200SOL    HW1 4499   2.996   3.478   4.185
 1200SOL    HW2 4500   3.039   3.420   4.038
 1201SOL     OW 4501   0.924   0.930   4.321
 1201SOL    HW1 4502   0.952   0.862   4.255
 1201SOL    HW2 4503   0.905   1.017   4.274
 1202SOL     OW 4504   0.693   5.619   5.828
 1202SOL    HW1 4505   0.783   5.611   5.785
 1202SOL    HW2 4506   0.682   5.546   5.895
 1203SOL     OW 4507   5.963   6.470   0.470
 1203SOL    HW1 4508   5.872   6.496   0.437
 1203SOL    HW2 4509   5.958   6.443   0.566
 1204SOL     OW 4510   3.198   6.150   1.479
 1204SOL    HW1 4511   3.141   6.232   1.486
 1204SOL    HW2 4512   3.274   6.168   1.417
 1205SOL     OW 4513   4.960   3.688   1.314
 1205SOL    HW1 4514   5.027   3.628   1.270
 1205SOL    HW2 4515   5.000   3.726   1.398
 1206SOL     OW 4516   2.987   2.555   5.484
 1206SOL    HW1 4517   3.007   2.651   5.463
 1206SOL    HW2 4518   2.937   2.550   5.571
 1207SOL     OW 4519   1.877   6.106   1.544
 1207SOL    HW1 4520   1.922   6.032   1.594
 1207SOL    HW2 4521   1.908   6.106   1.449
 1208SOL     OW 4522   3.203   3.745   0.919
 1208SOL    HW1 4523   3.179   3.783   1.008
 1208SOL    HW2 4524   3.258   3.810   0.868
 1209SOL     OW 4525   4.844   1.321   4.611
 1209SOL    HW1 4526   4.942   1.300   4.620
 1209SOL    HW2 4527   4.825   1.408   4.656
 1210SOL     OW 4528   3.119   0.417   3.715
 1210SOL    HW1 4529   3.050   0.427   3.787
 1210SOL    HW2 4530   3.120   0.323   3.683
 1211SOL     OW 4531   0.772   3.653   1.994
 1211SOL    HW1 4532   0.828   3.654   1.912
 1211SOL    HW2 4533   0.767   3.559   2.030
 1212SOL     OW 4534   6.220   0.524   6.763
 1212SOL    HW1 4535   6.240   0.559   6.672
 1212SOL    HW2 4536   6.300   0.475   6.798
 1213SOL     OW 4537   6.698   2.085   0.604
 1213SOL    HW1 4538   6.732   1.991   0.603
 1213SOL    HW2 4539   6.770   2.146   0.569
 1214SOL     OW 4540   0.628   2.251   6.953
 1214SOL    HW1 4541   0.596   2.268   6.860
 1214SOL    HW2 4542   0.627   2.152   6.971
 1215SOL     OW 4543   1.194   4.426   3.692
 1215SOL    HW1 4544   1.186   4.459   3.598
 1215SOL    HW2 4545   1.246   4.340   3.693
 1216SOL     OW 4546   4.684   0.882   1.122
 1216SOL    HW1 4547   4.697   0.791   1.081
 1216SOL    HW2 4548   4.728   0.951   1.064
 1217SOL     OW 4549   1.719   4.614   0.667
 1217SOL    HW1 4550   1.651   4.645   0.600
 1217SOL    HW2 4551   1.810   4.644   0.637
 1218SOL     OW 4552   2.302   4.170   4.250
 1218SOL    HW1 4553   2.330   4.118   4.170
 1218SOL    HW2 4554   2.273   4.107   4.322
 1219SOL     OW 4555   5.769   6.202   1.463
 1219SOL    HW1 4556   5.851   6.147   1.453
 1219SOL    HW2 4557   5.703   6.154   1.522
 1220SOL     OW 4558   0.948   5.100   3.340
 1220SOL    HW1 4559   1.035   5.145   3.324
 1220SOL    HW2 4560   0.910   5.130   3.428
 1221SOL     OW 4561   5.637   3.397   6.068
 1221SOL    HW1 4562   5.617   3.350   5.982
 1221SOL    HW2 4563   5.630   3.496   6.054
 1222SOL     OW 4564   6.343   7.019   6.489
 1222SOL    HW1 4565   6.249   6.986   6.480
 1222SOL    HW2 4566   6.406   6.950   6.453
 1223SOL     OW 4567   3.962   0.509   1.029
 1223SOL    HW1 4568   3.941   0.604   1.007
 1223SOL    HW2 4569   3.877   0.457   1.036
 1224SOL     OW 4570   2.946   5.948   0.067
 1224SOL    HW1 4571   2.856   5.950   0.109
 1224SOL    HW2 4572   2.989   6.038   0.075
 1225SOL     OW 4573   3.771   3.691   6.526
 1225SOL    HW1 4574   3.738   3.783   6.546
 1225SOL    HW2 4575   3.752   3.632   6.605
 1226SOL     OW 4576   2.435   5.228   1.007
 1226SOL    HW1 4577   2.357   5.188   1.054
 1226SOL    HW2 4578   2.477   5.298   1.065
 1227SOL     OW 4579   6.072   3.772   0.013
 1227SOL    HW1 4580   6.109   3.855   6.990
 1227SOL    HW2 4581   6.098   3.769   0.110
 1228SOL     OW 4582   4.622   2.973   0.130
 1228SOL    HW1 4583   4.712   2.986   0.171
 1228SOL    HW2 4584   4.580   3.062   0.112
 1229SOL     OW 4585   3.796   5.124   6.123
 1229SOL    HW1 4586   3.886   5.083   6.135
 1229SOL    HW2 4587   3.728   5.071   6.173
 1230SOL     OW 4588   4.888   0.345   3.788
 1230SOL    HW1 4589   4.806   0.326   3.842
 1230SOL    HW2 4590   4.942   0.261   3.780
 1231SOL     OW 4591   1.464   3.640   4.510
 1231SOL    HW1 4592   1.422   3.680   4.428
 1231SOL    HW2 4593   1.397   3.582   4.557
 1232SOL     OW 4594   0.805   2.443   6.410
 1232SOL    HW1 4595   0.768   2.451   6.317
 1232SOL    HW2 4596   0.840   2.532   6.440
 1233SOL     OW 4597   1.080   3.141   4.092
 1233SOL    HW1 4598   1.111   3.154   3.998
 1233SOL    HW2 4599   1.132   3.201   4.153
 1234SOL     OW 4600   6.181   4.335   4.714
 1234SOL    HW1 4601   6.110   4.277   4.673
 1234SOL    HW2 4602   6.239   4.280   4.773
 1235SOL     OW 4603   0.150   5.481   2.684
 1235SOL    HW1 4604   0.156   5.471   2.783
 1235SOL    HW2 4605   0.097   5.563   2.662
 1236SOL     OW 4606   5.186   1.401   0.379
 1236SOL    HW1 4607   5.219   1.395   0.285
 1236SOL    HW2 4608   5.161   1.496   0.400
 1237SOL     OW 4609   2.662   4.897   5.911
 1237SOL    HW1 4610   2.745   4.952   5.901
 1237SOL    HW2 4611   2.684   4.812   5.960
 1238SOL     OW 4612   2.094   0.767   0.684
 1238SOL    HW1 4613   2.012   0.723   0.647
 1238SOL    HW2 4614   2.175   0.729   0.641
 1239SOL     OW 4615   0.271   6.905   6.247
 1239SOL    HW1 4616   0.329   6.911   6.328
 1239SOL    HW2 4617   0.176   6.894   6.276
 1240SOL     OW 4618   5.504   5.650   1.912
 1240SOL    HW1 4619   5.541   5.606   1.831
 1240SOL    HW2 4620   5.414   5.689   1.890
 1241SOL     OW 4621   6.426   3.804   3.907
 1241SOL    HW1 4622   6.391   3.863   3.835
 1241SOL    HW2 4623   6.363   3.806   3.985
 1242SOL     OW 4624   0.466   3.545   1.807
 1242SOL    HW1 4625   0.409   3.523   1.886
 1242SOL    HW2 4626   0.475   3.645   1.799
 1243SOL     OW 4627   0.611   6.737   5.197
 1243SOL    HW1 4628   0.513   6.723   5.184
 1243SOL    HW2 4629   0.662   6.667   5.146
 1244SOL     OW 4630   6.815   6.585   3.638
 1244SOL    HW1 4631   6.743   6.575   3.707
 1244SOL    HW2 4632   6.797   6.524   3.562
 1245SOL     OW 4633   4.951   4.142   6.581
 1245SOL    HW1 4634   4.865   4.147   6.632
 1245SOL    HW2 4635   4.988   4.235   6.569
 1246SOL     OW 4636   2.129   6.306   1.779
 1246SOL    HW1 4637   2.059   6.351   1.723
 1246SOL    HW2 4638   2.152   6.364   1.857
 1247SOL     OW 4639   2.799   0.125   6.744
 1247SOL    HW1 4640   2.771   0.035   6.710
 1247SOL    HW2 4641   2.718   0.178   6.769
 1248SOL     OW 4642   2.415   6.979   4.542
 1248SOL    HW1 4643   2.330   6.984   4.489
 1248SOL    HW2 4644   2.488   6.942   4.485
 1249SOL     OW 4645   5.839   2.336   2.141
 1249SOL    HW1 4646   5.857   2.241   2.116
 1249SOL    HW2 4647   5.771   2.375   2.079
 1250SOL     OW 4648   6.771   4.736   4.497
 1250SOL    HW1 4649   6.757   4.664   4.428
 1250SOL    HW2 4650   6.837   4.704   4.565
 1251SOL     OW 4651   3.430   6.749   4.582
 1251SOL    HW1 4652   3.347   6.794   4.549
 1251SOL    HW2 4653   3.407   6.686   4.656
 1252SOL     OW 4654   3.908   3.619   5.689
 1252SOL    HW1 4655   3.835   3.637   5.755
 1252SOL    HW2 4656   3.961   3.540   5.719
 1253SOL     OW 4657   3.289   4.958   1.505
 1253SOL    HW1 4658   3.214   4.902   1.541
 1253SOL    HW2 4659   3.326   5.015   1.579
 1254SOL     OW 4660   6.516   3.201   2.558
 1254SOL    HW1 4661   6.523   3.190   2.658
 1254SOL    HW2 4662   6.596   3.251   2.525
 1255SOL     OW 4663   6.719   1.554   4.614
 1255SOL    HW1 4664   6.796   1.506   4.572
 1255SOL    HW2 4665   6.658   1.587   4.542
 1256SOL     OW 4666   0.128   7.001   3.065
 1256SOL    HW1 4667   0.054   6.951   3.110
 1256SOL    HW2 4668   0.211   6.997   3.121
 1257SOL     OW 4669   6.553   0.174   3.749
 1257SOL    HW1 4670   6.541   0.077   3.727
 1257SOL    HW2 4671   6.636   0.208   3.705
 1258SOL     OW 4672   1.280   5.026   3.637
 1258SOL    HW1 4673   1.249   4.969   3.713
 1258SOL    HW2 4674   1.233   4.999   3.553
 1259SOL     OW 4675   3.608   2.071   4.338
 1259SOL    HW1 4676   3.700   2.106   4.354
 1259SOL    HW2 4677   3.566   2.046   4.426
 1260SOL     OW 4678   1.155   1.464   6.884
 1260SOL    HW1 4679   1.231   1.439   6.823
 1260SOL    HW2 4680   1.139   1.563   6.878
 1261SOL     OW 4681   6.898   5.709   6.612
 1261SOL    HW1 4682   6.800   5.691   6.616
 1261SOL    HW2 4683   6.915   5.805   6.634
 1262SOL     OW 4684   5.162   5.241   1.279
 1262SOL    HW1 4685   5.177   5.329   1.234
 1262SOL    HW2 4686   5.160   5.254   1.378
 1263SOL     OW 4687   0.598   0.859   2.688
 1263SOL    HW1 4688   0.641   0.780   2.645
 1263SOL    HW2 4689   0.645   0.882   2.773
 1264SOL     OW 4690   0.535   4.087   6.428
 1264SOL    HW1 4691   0.526   4.139   6.342
 1264SOL    HW2 4692   0.474   4.126   6.496
 1265SOL     OW 4693   6.346   5.189   4.541
 1265SOL    HW1 4694   6.420   5.221   4.600
 1265SOL    HW2 4695   6.283   5.264   4.523
 1266SOL     OW 4696   0.744   0.657   4.204
 1266SOL    HW1 4697   0.680   0.595   4.158
 1266SOL    HW2 4698   0.697   0.743   4.226
 1267SOL     OW 4699   4.665   0.899   1.586
 1267SOL    HW1 4700   4.612   0.819   1.615
 1267SOL    HW2 4701   4.733   0.922   1.656
 1268SOL     OW 4702   2.989   2.808   6.459
 1268SOL    HW1 4703   2.955   2.723   6.500
 1268SOL    HW2 4704   2.976   2.805   6.360
 1269SOL     OW 4705   5.693   3.093   3.896
 1269SOL    HW1 4706   5.692   3.036   3.813
 1269SOL    HW2 4707   5.620   3.064   3.958
 1270SOL     OW 4708   2.079   4.470   2.242
 1270SOL    HW1 4709   2.013   4.492   2.313
 1270SOL    HW2 4710   2.143   4.401   2.277
 1271SOL     OW 4711   3.196   0.742   1.975
 1271SOL    HW1 4712   3.245   0.726   1.890
 1271SOL    HW2 4713   3.190   0.840   1.992
 1272SOL     OW 4714   6.352   4.652   6.627
 1272SOL    HW1 4715   6.273   4.591   6.631
 1272SOL    HW2 4716   6.328   4.739   6.670
 1273SOL     OW 4717   1.667   3.602   5.279
 1273SOL    HW1 4718   1.568   3.608   5.291
 1273SOL    HW2 4719   1.687   3.569   5.187
 1274SOL     OW 4720   0.218   4.629   1.334
 1274SOL    HW1 4721   0.306   4.620   1.381
 1274SOL    HW2 4722   0.221   4.580   1.247
 1275SOL     OW 4723   2.998   0.247   3.327
 1275SOL    HW1 4724   3.010   0.342   3.357
 1275SOL    HW2 4725   2.929   0.243   3.255
 1276SOL     OW 4726   5.407   5.050   4.398
 1276SOL    HW1 4727   5.459   5.101   4.466
 1276SOL    HW2 4728   5.404   4.953   4.424
 1277SOL     OW 4729   1.291   5.351   0.234
 1277SOL    HW1 4730   1.371   5.384   0.184
 1277SOL    HW2 4731   1.320   5.286   0.305
 1278SOL     OW 4732   1.453   0.029   4.097
 1278SOL    HW1 4733   1.433   6.961   4.144
 1278SOL    HW2 4734   1.502   0.010   4.012
 1279SOL     OW 4735   2.356   4.018   6.240
 1279SOL    HW1 4736   2.386   3.987   6.150
 1279SOL    HW2 4737   2.256   4.027   6.241
 1280SOL     OW 4738   4.168   0.294   3.771
 1280SOL    HW1 4739   4.130   0.271   3.681
 1280SOL    HW2 4740   4.095   0.298   3.838
 1281SOL     OW 4741   2.758   5.387   3.711
 1281SOL    HW1 4742   2.724   5.432   3.794
 1281SOL    HW2 4743   2.843   5.339   3.731
 1282SOL     OW 4744   0.043   2.777   0.245
 1282SOL    HW1 4745   0.014   2.863   0.202
 1282SOL    HW2 4746   0.102   2.727   0.182
 1283SOL     OW 4747   6.505   4.015   5.522
 1283SOL    HW1 4748   6.504   3.973   5.431
 1283SOL    HW2 4749   6.550   3.953   5.586
 1284SOL     OW 4750   3.918   0.790   1.018
 1284SOL    HW1 4751   3.856   0.868   1.011
 1284SOL    HW2 4752   3.949   0.780   1.112
 1285SOL     OW 4753   3.939   1.228   5.854
 1285SOL    HW1 4754   3.980   1.254   5.766
 1285SOL    HW2 4755   3.857   1.282   5.870
 1286SOL     OW 4756   4.834   2.538   0.945
 1286SOL    HW1 4757   4.811   2.502   1.035
 1286SOL    HW2 4758   4.810   2.635   0.941
 1287SOL     OW 4759   5.580   4.458   5.486
 1287SOL    HW1 4760   5.615   4.419   5.401
 1287SOL    HW2 4761   5.566   4.556   5.474
 1288SOL     OW 4762   4.480   4.942   5.509
 1288SOL    HW1 4763   4.382   4.954   5.520
 1288SOL    HW2 4764   4.527   5.028   5.532
 1289SOL     OW 4765   6.977   0.828   2.075
 1289SOL    HW1 4766   6.926   0.756   2.028
 1289SOL    HW2 4767   6.914   0.882   2.131
 1290SOL     OW 4768   1.304   6.941   1.511
 1290SOL    HW1 4769   1.272   7.010   1.446
 1290SOL    HW2 4770   1.398   6.961   1.538
 1291SOL     OW 4771   6.497   4.963   4.252
 1291SOL    HW1 4772   6.489   5.057   4.218
 1291SOL    HW2 4773   6.436   4.952   4.331
 1292SOL     OW 4774   0.696   5.644   2.041
 1292SOL    HW1 4775   0.694   5.544   2.037
 1292SOL    HW2 4776   0.695   5.681   1.948
 1293SOL     OW 4777   2.443   1.993   0.399
 1293SOL    HW1 4778   2.497   1.926   0.450
 1293SOL    HW2 4779   2.362   1.948   0.361
 1294SOL     OW 4780   1.584   4.397   6.610
 1294SOL    HW1 4781   1.553   4.446   6.692
 1294SOL    HW2 4782   1.552   4.445   6.529
 1295SOL     OW 4783   0.152   3.519   1.259
 1295SOL    HW1 4784   0.098   3.531   1.342
 1295SOL    HW2 4785   0.249   3.533   1.280
 1296SOL     OW 4786   4.688   0.242   5.250
 1296SOL    HW1 4787   4.622   0.263   5.178
 1296SOL    HW2 4788   4.642   0.190   5.323
 1297SOL     OW 4789   1.061   6.014   1.413
 1297SOL    HW1 4790   1.093   6.044   1.503
 1297SOL    HW2 4791   1.013   6.089   1.368
 1298SOL     OW 4792   5.016   6.270   3.283
 1298SOL    HW1 4793   5.071   6.318   3.350
 1298SOL    HW2 4794   4.923   6.258   3.319
 1299SOL     OW 4795   2.169   3.181   4.088
 1299SOL    HW1 4796   2.179   3.216   3.995
 1299SOL    HW2 4797   2.173   3.081   4.087
 1300SOL     OW 4798   1.914   3.418   1.441
 1300SOL    HW1 4799   1.897   3.475   1.361
 1300SOL    HW2 4800   2.000   3.444   1.483
 1301SOL     OW 4801   0.717   6.759   2.015
 1301SOL    HW1 4802   0.728   6.838   1.956
 1301SOL    HW2 4803   0.756   6.779   2.106
 1302SOL     OW 4804   5.300   0.771   5.173
 1302SOL    HW1 4805   5.296   0.692   5.234
 1302SOL    HW2 4806   5.283   0.742   5.079
 1303SOL     OW 4807   4.292   0.449   1.448
 1303SOL    HW1 4808   4.253   0.470   1.359
 1303SOL    HW2 4809   4.324   0.533   1.491
 1304SOL     OW 4810   1.956   1.163   1.590
 1304SOL    HW1 4811   2.010   1.240   1.557
 1304SOL    HW2 4812   1.887   1.138   1.522
 1305SOL     OW 4813   6.171   4.586   5.746
 1305SOL    HW1 4814   6.197   4.555   5.655
 1305SOL    HW2 4815   6.095   4.530   5.780
 1306SOL     OW 4816   1.151   5.637   4.487
 1306SOL    HW1 4817   1.088   5.624   4.411
 1306SOL    HW2 4818   1.227   5.696   4.457
 1307SOL     OW 4819   2.137   3.757   4.024
 1307SOL    HW1 4820   2.052   3.808   4.031
 1307SOL    HW2 4821   2.153   3.706   4.109
 1308SOL     OW 4822   6.807   7.005   6.197
 1308SOL    HW1 4823   6.849   0.065   6.152
 1308SOL    HW2 4824   6.735   6.968   6.139
 1309SOL     OW 4825   5.500   4.665   5.885
 1309SOL    HW1 4826   5.487   4.760   5.855
 1309SOL    HW2 4827   5.433   4.644   5.957
 1310SOL     OW 4828   0.425   4.368   3.529
 1310SOL    HW1 4829   0.417   4.369   3.429
 1310SOL    HW2 4830   0.437   4.461   3.563
 1311SOL     OW 4831   6.673   5.682   6.223
 1311SOL    HW1 4832   6.642   5.605   6.279
 1311SOL    HW2 4833   6.680   5.764   6.281
 1312SOL     OW 4834   1.669   0.170   0.062
 1312SOL    HW1 4835   1.671   0.264   0.096
 1312SOL    HW2 4836   1.752   0.123   0.092
 1313SOL     OW 4837   6.633   5.268   3.086
 1313SOL    HW1 4838   6.608   5.290   3.180
 1313SOL    HW2 4839   6.642   5.169   3.076
 1314SOL     OW 4840   3.649   1.662   4.440
 1314SOL    HW1 4841   3.573   1.600   4.422
 1314SOL    HW2 4842   3.635   1.707   4.529
 1315SOL     OW 4843   7.019   0.902   4.010
 1315SOL    HW1 4844   0.055   0.833   4.057
 1315SOL    HW2 4845   6.976   0.862   3.929
 1316SOL     OW 4846   3.620   6.945   4.941
 1316SOL    HW1 4847   3.688   7.018   4.949
 1316SOL    HW2 4848   3.547   6.974   4.879
 1317SOL     OW 4849   1.726   4.424   4.995
 1317SOL    HW1 4850   1.735   4.335   5.039
 1317SOL    HW2 4851   1.764   4.495   5.055
 1318SOL     OW 4852   1.315   2.682   6.839
 1318SOL    HW1 4853   1.311   2.588   6.874
 1318SOL    HW2 4854   1.403   2.696   6.793
 1319SOL     OW 4855   0.126   5.821   6.888
 1319SOL    HW1 4856   0.191   5.816   6.964
 1319SOL    HW2 4857   0.120   5.732   6.843
 1320SOL     OW 4858   2.691   2.979   6.784
 1320SOL    HW1 4859   2.783   2.981   6.747
 1320SOL    HW2 4860   2.625   2.999   6.712
 1321SOL     OW 4861   4.683   2.585   6.383
 1321SOL    HW1 4862   4.699   2.514   6.314
 1321SOL    HW2 4863   4.673   2.542   6.472
 1322SOL     OW 4864   3.726   1.394   4.080
 1322SOL    HW1 4865   3.730   1.314   4.020
 1322SOL    HW2 4866   3.651   1.453   4.051
 1323SOL     OW 4867   3.698   6.091   0.552
 1323SOL    HW1 4868   3.676   6.008   0.604
 1323SOL    HW2 4869   3.753   6.067   0.472
 1324SOL     OW 4870   0.720   3.578   0.427
 1324SOL    HW1 4871   0.811   3.596   0.390
 1324SOL    HW2 4872   0.701   3.642   0.501
 1325SOL     OW 4873   4.323   6.387   5.101
 1325SOL    HW1 4874   4.254   6.330   5.056
 1325SOL    HW2 4875   4.296   6.405   5.195
 1326SOL     OW 4876   4.927   4.209   5.274
 1326SOL    HW1 4877   4.971   4.283   5.324
 1326SOL    HW2 4878   4.992   4.169   5.210
 1327SOL     OW 4879   0.344   6.586   1.303
 1327SOL    HW1 4880   0.356   6.624   1.211
 1327SOL    HW2 4881   0.339   6.661   1.369
 1328SOL     OW 4882   1.797   2.955   6.691
 1328SOL    HW1 4883   1.853   2.898   6.751
 1328SOL    HW2 4884   1.778   3.042   6.736
 1329SOL     OW 4885   6.951   2.175   3.202
 1329SOL    HW1 4886   6.892   2.155   3.123
 1329SOL    HW2 4887   0.024   2.140   3.185
 1330SOL     OW 4888   0.425   2.124   0.988
 1330SOL    HW1 4889   0.434   2.191   1.062
 1330SOL    HW2 4890   0.355   2.057   1.012
 1331SOL     OW 4891   4.625   2.678   2.676
 1331SOL    HW1 4892   4.572   2.666   2.760
 1331SOL    HW2 4893   4.704   2.736   2.694
 1332SOL     OW 4894   2.184   6.511   0.193
 1332SOL    HW1 4895   2.275   6.481   0.222
 1332SOL    HW2 4896   2.115   6.457   0.240
 1333SOL     OW 4897   2.954   3.760   3.153
 1333SOL    HW1 4898   2.937   3.763   3.055
 1333SOL    HW2 4899   2.940   3.667   3.187
 1334SOL     OW 4900   6.082   1.898   3.472
 1334SOL    HW1 4901   6.167   1.951   3.464
 1334SOL    HW2 4902   6.068   1.870   3.566
 1335SOL     OW 4903   1.962   1.840   1.920
 1335SOL    HW1 4904   1.963   1.759   1.860
 1335SOL    HW2 4905   1.986   1.921   1.866
 1336SOL     OW 4906   3.862   1.601   5.488
 1336SOL    HW1 4907   3.776   1.617   5.440
 1336SOL    HW2 4908   3.933   1.573   5.423
 1337SOL     OW 4909   6.785   1.885   3.174
 1337SOL    HW1 4910   6.791   1.935   3.088
 1337SOL    HW2 4911   6.723   1.807   3.164
 1338SOL     OW 4912   0.148   4.310   4.103
 1338SOL    HW1 4913   0.083   4.301   4.027
 1338SOL    HW2 4914   0.098   4.318   4.189
 1339SOL     OW 4915   6.873   0.945   0.362
 1339SOL    HW1 4916   6.835   1.028   0.402
 1339SOL    HW2 4917   6.872   0.952   0.263
 1340SOL     OW 4918   5.204   1.585   2.733
 1340SOL    HW1 4919   5.267   1.662   2.726
 1340SOL    HW2 4920   5.134   1.591   2.662
 1341SOL     OW 4921   4.091   6.256   0.044
 1341SOL    HW1 4922   4.002   6.221   0.076
 1341SOL    HW2 4923   4.096   6.354   0.062
 1342SOL     OW 4924   3.248   5.214   6.439
 1342SOL    HW1 4925   3.181   5.150   6.403
 1342SOL    HW2 4926   3.319   5.164   6.488
 1343SOL     OW 4927   5.468   5.257   2.627
 1343SOL    HW1 4928   5.521   5.225   2.706
 1343SOL    HW2 4929   5.381   5.296   2.658
 1344SOL     OW 4930   0.305   6.217   4.301
 1344SOL    HW1 4931   0.389   6.272   4.308
 1344SOL    HW2 4932   0.257   6.241   4.216
 1345SOL     OW 4933   0.839   4.665   2.318
 1345SOL    HW1 4934   0.765   4.622   2.370
 1345SOL    HW2 4935   0.876   4.741   2.370
 1346SOL     OW 4936   1.711   5.126   6.358
 1346SOL    HW1 4937   1.696   5.223   6.339
 1346SOL    HW2 4938   1.750   5.082   6.277
 1347SOL     OW 4939   1.407   6.490   6.704
 1347SOL    HW1 4940   1.471   6.495   6.780
 1347SOL    HW2 4941   1.354   6.575   6.698
 1348SOL     OW 4942   6.952   6.548   5.329
 1348SOL    HW1 4943   6.901   6.633   5.313
 1348SOL    HW2 4944   0.014   6.567   5.384
 1349SOL     OW 4945   5.209   2.746   4.395
 1349SOL    HW1 4946   5.138   2.799   4.441
 1349SOL    HW2 4947   5.211   2.654   4.432
 1350SOL     OW 4948   4.367   4.970   6.159
 1350SOL    HW1 4949   4.464   4.945   6.160
 1350SOL    HW2 4950   4.352   5.044   6.225
 1351SOL     OW 4951   5.964   2.685   4.318
 1351SOL    HW1 4952   6.027   2.753   4.279
 1351SOL    HW2 4953   5.915   2.725   4.395
 1352SOL     OW 4954   6.775   6.394   3.468
 1352SOL    HW1 4955   6.805   6.366   3.377
 1352SOL    HW2 4956   6.806   6.327   3.536
 1353SOL     OW 4957   1.520   2.080   0.499
 1353SOL    HW1 4958   1.432   2.127   0.491
 1353SOL    HW2 4959   1.515   2.013   0.573
 1354SOL     OW 4960   0.068   4.057   1.950
 1354SOL    HW1 4961   0.134   4.130   1.972
 1354SOL    HW2 4962   0.069   3.989   2.023
 1355SOL     OW 4963   6.266   3.785   4.127
 1355SOL    HW1 4964   6.236   3.696   4.160
 1355SOL    HW2 4965   6.197   3.854   4.150
 1356SOL     OW 4966   3.487   3.042   1.790
 1356SOL    HW1 4967   3.556   3.014   1.858
 1356SOL    HW2 4968   3.420   2.968   1.779
 1357SOL     OW 4969   6.823   4.066   6.165
 1357SOL    HW1 4970   6.869   4.118   6.093
 1357SOL    HW2 4971   6.837   4.113   6.253
 1358SOL     OW 4972   6.080   6.722   0.155
 1358SOL    HW1 4973   5.991   6.684   0.179
 1358SOL    HW2 4974   6.145   6.647   0.141
 1359SOL     OW 4975   6.638   4.903   2.066
 1359SOL    HW1 4976   6.649   4.955   2.151
 1359SOL    HW2 4977   6.542   4.876   2.055
 1360SOL     OW 4978   3.231   3.371   0.114
 1360SOL    HW1 4979   3.161   3.315   0.069
 1360SOL    HW2 4980   3.211   3.375   0.212
 1361SOL     OW 4981   6.990   4.623   4.643
 1361SOL    HW1 4982   0.052   4.593   4.592
 1361SOL    HW2 4983   6.948   4.544   4.687
 1362SOL     OW 4984   3.847   4.009   2.993
 1362SOL    HW1 4985   3.857   3.929   3.051
 1362SOL    HW2 4986   3.909   4.000   2.914
 1363SOL     OW 4987   0.403   5.480   4.327
 1363SOL    HW1 4988   0.358   5.391   4.325
 1363SOL    HW2 4989   0.406   5.518   4.234
 1364SOL     OW 4990   4.449   4.021   0.040
 1364SOL    HW1 4991   4.460   3.980   6.969
 1364SOL    HW2 4992   4.501   4.105   0.046
 1365SOL     OW 4993   0.439   4.269   6.681
 1365SOL    HW1 4994   0.360   4.291   6.737
 1365SOL    HW2 4995   0.506   4.219   6.736
 1366SOL     OW 4996   1.615   6.241   5.722
 1366SOL    HW1 4997   1.656   6.230   5.631
 1366SOL    HW2 4998   1.683   6.280   5.784
 1367SOL     OW 4999   1.991   0.540   2.418
 1367SOL    HW1 5000   1.965   0.609   2.351
 1367SOL    HW2 5001   1.912   0.515   2.474
 1368SOL     OW 5002   5.605   6.760   5.249
 1368SOL    HW1 5003   5.523   6.816   5.234
 1368SOL    HW2 5004   5.601   6.679   5.192
 1369SOL     OW 5005   1.765   6.099   2.848
 1369SOL    HW1 5006   1.793   6.164   2.919
 1369SOL    HW2 5007   1.800   6.129   2.760
 1370SOL     OW 5008   3.702   0.688   2.005
 1370SOL    HW1 5009   3.655   0.600   2.015
 1370SOL    HW2 5010   3.782   0.676   1.946
 1371SOL     OW 5011   4.574   1.216   4.587
 1371SOL    HW1 5012   4.511   1.271   4.533
 1371SOL    HW2 5013   4.654   1.271   4.613
 1372SOL     OW 5014   1.956   2.602   1.198
 1372SOL    HW1 5015   1.870   2.606   1.147
 1372SOL    HW2 5016   1.941   2.636   1.291
 1373SOL     OW 5017   6.482   4.738   0.383
 1373SOL    HW1 5018   6.389   4.725   0.418
 1373SOL    HW2 5019   6.478   4.785   0.295
 1374SOL     OW 5020   4.700   2.416   0.750
 1374SOL    HW1 5021   4.750   2.463   0.823
 1374SOL    HW2 5022   4.686   2.321   0.775
 1375SOL     OW 5023   6.943   5.110   5.260
 1375SOL    HW1 5024   7.017   5.042   5.260
 1375SOL    HW2 5025   6.976   5.195   5.219
 1376SOL     OW 5026   4.711   2.680   4.085
 1376SOL    HW1 5027   4.636   2.617   4.104
 1376SOL    HW2 5028   4.688   2.737   4.006
 1377SOL     OW 5029   0.568   4.416   6.038
 1377SOL    HW1 5030   0.667   4.409   6.050
 1377SOL    HW2 5031   0.536   4.503   6.075
 1378SOL     OW 5032   0.945   2.556   6.034
 1378SOL    HW1 5033   0.987   2.509   6.112
 1378SOL    HW2 5034   0.901   2.640   6.066
 1379SOL     OW 5035   3.456   6.060   2.876
 1379SOL    HW1 5036   3.435   6.156   2.894
 1379SOL    HW2 5037   3.504   6.021   2.955
 1380SOL     OW 5038   6.836   0.056   2.455
 1380SOL    HW1 5039   6.873   6.982   2.457
 1380SOL    HW2 5040   6.754   0.058   2.399
 1381SOL     OW 5041   5.797   2.913   0.053
 1381SOL    HW1 5042   5.833   2.936   6.982
 1381SOL    HW2 5043   5.774   2.816   0.056
 1382SOL     OW 5044   6.143   5.160   5.685
 1382SOL    HW1 5045   6.238   5.186   5.666
 1382SOL    HW2 5046   6.135   5.061   5.686
 1383SOL     OW 5047   0.772   1.026   0.258
 1383SOL    HW1 5048   0.840   0.958   0.230
 1383SOL    HW2 5049   0.704   0.984   0.317
 1384SOL     OW 5050   3.125   1.555   3.678
 1384SOL    HW1 5051   3.037   1.555   3.631
 1384SOL    HW2 5052   3.144   1.463   3.712
 1385SOL     OW 5053   6.496   2.617   3.160
 1385SOL    HW1 5054   6.435   2.696   3.168
 1385SOL    HW2 5055   6.445   2.537   3.132
 1386SOL     OW 5056   2.173   3.106   4.731
 1386SOL    HW1 5057   2.105   3.050   4.685
 1386SOL    HW2 5058   2.207   3.176   4.668
 1387SOL     OW 5059   3.665   0.228   4.420
 1387SOL    HW1 5060   3.618   0.297   4.475
 1387SOL    HW2 5061   3.643   0.137   4.455
 1388SOL     OW 5062   6.754   0.592   4.165
 1388SOL    HW1 5063   6.807   0.512   4.137
 1388SOL    HW2 5064   6.690   0.616   4.092
 1389SOL     OW 5065   6.756   0.232   4.282
 1389SOL    HW1 5066   6.842   0.222   4.332
 1389SOL    HW2 5067   6.747   0.327   4.250
 1390SOL     OW 5068   4.285   1.724   1.085
 1390SOL    HW1 5069   4.327   1.814   1.070
 1390SOL    HW2 5070   4.324   1.658   1.021
 1391SOL     OW 5071   5.956   0.949   5.510
 1391SOL    HW1 5072   6.000   0.972   5.597
 1391SOL    HW2 5073   5.944   0.850   5.503
 1392SOL     OW 5074   4.470   6.040   6.341
 1392SOL    HW1 5075   4.433   6.032   6.248
 1392SOL    HW2 5076   4.396   6.043   6.407
 1393SOL     OW 5077   6.315   1.665   6.344
 1393SOL    HW1 5078   6.295   1.649   6.247
 1393SOL    HW2 5079   6.287   1.586   6.398
 1394SOL     OW 5080   4.541   6.337   3.563
 1394SOL    HW1 5081   4.515   6.271   3.633
 1394SOL    HW2 5082   4.468   6.405   3.552
 1395SOL     OW 5083   0.802   5.016   3.123
 1395SOL    HW1 5084   0.816   5.072   3.041
 1395SOL    HW2 5085   0.859   5.051   3.197
 1396SOL     OW 5086   1.794   1.302   4.487
 1396SOL    HW1 5087   1.807   1.387   4.436
 1396SOL    HW2 5088   1.767   1.323   4.581
 1397SOL     OW 5089   0.490   5.019   4.821
 1397SOL    HW1 5090   0.404   5.042   4.775
 1397SOL    HW2 5091   0.530   4.938   4.778
 1398SOL     OW 5092   1.400   1.189   0.774
 1398SOL    HW1 5093   1.411   1.200   0.675
 1398SOL    HW2 5094   1.434   1.099   0.802
 1399SOL     OW 5095   4.040   7.011   0.340
 1399SOL    HW1 5096   3.958   0.032   0.380
 1399SOL    HW2 5097   4.031   6.912   0.336
 1400SOL     OW 5098   6.832   0.511   4.469
 1400SOL    HW1 5099   6.825   0.419   4.508
 1400SOL    HW2 5100   6.743   0.539   4.432
 1401SOL     OW 5101   5.467   0.878   3.933
 1401SOL    HW1 5102   5.373   0.911   3.923
 1401SOL    HW2 5103   5.478   0.792   3.884
 1402SOL     OW 5104   5.612   4.118   1.467
 1402SOL    HW1 5105   5.584   4.037   1.519
 1402SOL    HW2 5106   5.540   4.141   1.401
 1403SOL     OW 5107   3.987   3.522   6.911
 1403SOL    HW1 5108   3.982   3.505   7.009
 1403SOL    HW2 5109   4.083   3.533   6.884
 1404SOL     OW 5110   4.594   0.079   0.811
 1404SOL    HW1 5111   4.596   0.149   0.882
 1404SOL    HW2 5112   4.581   7.008   0.853
 1405SOL     OW 5113   2.085   3.513   0.965
 1405SOL    HW1 5114   2.149   3.454   1.015
 1405SOL    HW2 5115   2.128   3.543   0.880
 1406SOL     OW 5116   2.171   3.337   1.325
 1406SOL    HW1 5117   2.151   3.433   1.346
 1406SOL    HW2 5118   2.181   3.286   1.410
 1407SOL     OW 5119   0.748   2.882   1.802
 1407SOL    HW1 5120   0.738   2.783   1.810
 1407SOL    HW2 5121   0.660   2.921   1.773
 1408SOL     OW 5122   5.685   5.884   6.133
 1408SOL    HW1 5123   5.780   5.852   6.130
 1408SOL    HW2 5124   5.625   5.809   6.158
 1409SOL     OW 5125   7.005   0.870   6.161
 1409SOL    HW1 5126   6.909   0.897   6.150
 1409SOL    HW2 5127   0.025   0.918   6.240
 1410SOL     OW 5128   3.331   2.858   6.000
 1410SOL    HW1 5129   3.298   2.918   6.073
 1410SOL    HW2 5130   3.256   2.838   5.937
 1411SOL     OW 5131   3.994   5.757   0.196
 1411SOL    HW1 5132   4.018   5.758   0.293
 1411SOL    HW2 5133   3.894   5.752   0.187
 1412SOL     OW 5134   1.363   2.634   0.639
 1412SOL    HW1 5135   1.430   2.572   0.679
 1412SOL    HW2 5136   1.352   2.715   0.697
 1413SOL     OW 5137   2.034   1.540   5.014
 1413SOL    HW1 5138   2.074   1.449   5.003
 1413SOL    HW2 5139   2.045   1.570   5.109
 1414SOL     OW 5140   0.691   3.159   2.483
 1414SOL    HW1 5141   0.770   3.099   2.469
 1414SOL    HW2 5142   0.720   3.240   2.533
 1415SOL     OW 5143   2.669   2.241   4.409
 1415SOL    HW1 5144   2.594   2.261   4.473
 1415SOL    HW2 5145   2.754   2.228   4.461
 1416SOL     OW 5146   4.093   0.006   5.650
 1416SOL    HW1 5147   4.030   6.981   5.586
 1416SOL    HW2 5148   4.074   6.991   5.743
 1417SOL     OW 5149   3.234   3.006   6.359
 1417SOL    HW1 5150   3.329   2.976   6.348
 1417SOL    HW2 5151   3.176   2.925   6.374
 1418SOL     OW 5152   3.998   3.419   0.160
 1418SOL    HW1 5153   4.003   3.330   0.205
 1418SOL    HW2 5154   3.949   3.483   0.219
 1419SOL     OW 5155   1.968   5.002   3.507
 1419SOL    HW1 5156   1.879   5.042   3.530
 1419SOL    HW2 5157   1.998   5.035   3.418
 1420SOL     OW 5158   3.877   5.475   2.802
 1420SOL    HW1 5159   3.820   5.544   2.757
 1420SOL    HW2 5160   3.819   5.402   2.837
 1421SOL     OW 5161   1.032   5.168   5.547
 1421SOL    HW1 5162   1.033   5.235   5.621
 1421SOL    HW2 5163   0.939   5.134   5.534
 1422SOL     OW 5164   2.867   3.919   6.001
 1422SOL    HW1 5165   2.888   3.823   5.983
 1422SOL    HW2 5166   2.922   3.977   5.941
 1423SOL     OW 5167   4.419   0.938   4.754
 1423SOL    HW1 5168   4.490   0.874   4.725
 1423SOL    HW2 5169   4.372   0.902   4.835
 1424SOL     OW 5170   5.760   3.239   6.420
 1424SOL    HW1 5171   5.815   3.295   6.358
 1424SOL    HW2 5172   5.685   3.294   6.457
 1425SOL     OW 5173   3.747   6.308   4.382
 1425SOL    HW1 5174   3.753   6.362   4.298
 1425SOL    HW2 5175   3.651   6.297   4.408
 1426SOL     OW 5176   2.331   1.697   6.683
 1426SOL    HW1 5177   2.236   1.671   6.667
 1426SOL    HW2 5178   2.376   1.627   6.738
 1427SOL     OW 5179   1.259   1.227   3.138
 1427SOL    HW1 5180   1.268   1.216   3.237
 1427SOL    HW2 5181   1.171   1.189   3.108
 1428SOL     OW 5182   6.620   3.183   2.821
 1428SOL    HW1 5183   6.672   3.251   2.873
 1428SOL    HW2 5184   6.673   3.099   2.813
 1429SOL     OW 5185   6.305   1.480   0.853
 1429SOL    HW1 5186   6.261   1.511   0.769
 1429SOL    HW2 5187   6.246   1.499   0.931
 1430SOL     OW 5188   2.092   3.413   3.009
 1430SOL    HW1 5189   2.090   3.454   3.101
 1430SOL    HW2 5190   2.145   3.329   3.011
 1431SOL     OW 5191   2.639   1.391   6.304
 1431SOL    HW1 5192   2.667   1.298   6.326
 1431SOL    HW2 5193   2.558   1.389   6.246
 1432SOL     OW 5194   2.281   1.110   1.039
 1432SOL    HW1 5195   2.292   1.017   1.003
 1432SOL    HW2 5196   2.290   1.107   1.139
 1433SOL     OW 5197   3.059   0.247   4.398
 1433SOL    HW1 5198   3.057   0.151   4.369
 1433SOL    HW2 5199   3.012   0.303   4.330
 1434SOL     OW 5200   0.309   2.709   6.824
 1434SOL    HW1 5201   0.370   2.672   6.754
 1434SOL    HW2 5202   0.326   2.807   6.835
 1435SOL     OW 5203   0.673   0.174   4.146
 1435SOL    HW1 5204   0.754   0.167   4.088
 1435SOL    HW2 5205   0.690   0.127   4.233
 1436SOL     OW 5206   5.831   2.198   0.771
 1436SOL    HW1 5207   5.837   2.153   0.860
 1436SOL    HW2 5208   5.829   2.297   0.784
 1437SOL     OW 5209   4.023   1.698   6.113
 1437SOL    HW1 5210   3.972   1.643   6.178
 1437SOL    HW2 5211   4.017   1.795   6.139
 1438SOL     OW 5212   2.407   1.079   2.107
 1438SOL    HW1 5213   2.487   1.031   2.071
 1438SOL    HW2 5214   2.435   1.168   2.144
 1439SOL     OW 5215   6.579   5.540   6.836
 1439SOL    HW1 5216   6.559   5.554   6.933
 1439SOL    HW2 5217   6.494   5.521   6.787
 1440SOL     OW 5218   3.664   2.966   3.486
 1440SOL    HW1 5219   3.752   2.978   3.533
 1440SOL    HW2 5220   3.681   2.937   3.392
 1441SOL     OW 5221   0.360   3.073   4.693
 1441SOL    HW1 5222   0.294   3.096   4.764
 1441SOL    HW2 5223   0.316   3.016   4.623
 1442SOL     OW 5224   4.850   4.277   0.230
 1442SOL    HW1 5225   4.939   4.304   0.266
 1442SOL    HW2 5226   4.857   4.261   0.132
 1443SOL     OW 5227   0.793   1.305   3.353
 1443SOL    HW1 5228   0.746   1.372   3.410
 1443SOL    HW2 5229   0.734   1.225   3.341
 1444SOL     OW 5230   4.259   0.417   3.456
 1444SOL    HW1 5231   4.331   0.436   3.523
 1444SOL    HW2 5232   4.177   0.469   3.481
 1445SOL     OW 5233   0.043   2.260   1.496
 1445SOL    HW1 5234   0.064   2.228   1.588
 1445SOL    HW2 5235   0.027   2.358   1.498
 1446SOL     OW 5236   4.510   2.069   1.269
 1446SOL    HW1 5237   4.539   2.116   1.353
 1446SOL    HW2 5238   4.415   2.041   1.278
 1447SOL     OW 5239   6.531   1.363   5.088
 1447SOL    HW1 5240   6.505   1.342   4.994
 1447SOL    HW2 5241   6.505   1.457   5.109
 1448SOL     OW 5242   5.291   1.378   6.874
 1448SOL    HW1 5243   5.293   1.421   6.965
 1448SOL    HW2 5244   5.247   1.440   6.809
 1449SOL     OW 5245   4.810   6.473   0.664
 1449SOL    HW1 5246   4.879   6.424   0.611
 1449SOL    HW2 5247   4.786   6.558   0.616
 1450SOL     OW 5248   5.769   3.228   2.816
 1450SOL    HW1 5249   5.768   3.214   2.717
 1450SOL    HW2 5250   5.848   3.180   2.856
 1451SOL     OW 5251   1.880   6.800   2.884
 1451SOL    HW1 5252   1.827   6.795   2.799
 1451SOL    HW2 5253   1.977   6.795   2.863
 1452SOL     OW 5254   5.374   0.774   4.877
 1452SOL    HW1 5255   5.439   0.744   4.807
 1452SOL    HW2 5256   5.383   0.872   4.891
 1453SOL     OW 5257   5.168   4.178   4.853
 1453SOL    HW1 5258   5.173   4.147   4.758
 1453SOL    HW2 5259   5.176   4.278   4.856
 1454SOL     OW 5260   5.082   2.943   1.605
 1454SOL    HW1 5261   5.024   2.996   1.667
 1454SOL    HW2 5262   5.036   2.857   1.581
 1455SOL     OW 5263   0.882   0.745   1.797
 1455SOL    HW1 5264   0.933   0.692   1.729
 1455SOL    HW2 5265   0.937   0.822   1.829
 1456SOL     OW 5266   6.817   0.267   4.565
 1456SOL    HW1 5267   6.823   0.253   4.664
 1456SOL    HW2 5268   6.889   0.215   4.519
 1457SOL     OW 5269   1.949   0.738   4.056
 1457SOL    HW1 5270   1.902   0.653   4.078
 1457SOL    HW2 5271   2.037   0.718   4.012
 1458SOL     OW 5272   5.073   6.655   5.872
 1458SOL    HW1 5273   5.026   6.710   5.803
 1458SOL    HW2 5274   5.040   6.680   5.963
 1459SOL     OW 5275   2.686   5.971   6.771
 1459SOL    HW1 5276   2.654   5.883   6.805
 1459SOL    HW2 5277   2.779   5.989   6.805
 1460SOL     OW 5278   1.170   6.390   0.038
 1460SOL    HW1 5279   1.222   6.355   6.979
 1460SOL    HW2 5280   1.179   6.327   0.116
 1461SOL     OW 5281   5.897   4.396   3.005
 1461SOL    HW1 5282   5.829   4.463   3.036
 1461SOL    HW2 5283   5.864   4.304   3.025
 1462SOL     OW 5284   6.358   0.742   0.752
 1462SOL    HW1 5285   6.271   0.712   0.792
 1462SOL    HW2 5286   6.425   0.754   0.825
 1463SOL     OW 5287   1.179   0.559   4.748
 1463SOL    HW1 5288   1.214   0.644   4.710
 1463SOL    HW2 5289   1.079   0.557   4.740
 1464SOL     OW 5290   0.002   6.457   0.444
 1464SOL    HW1 5291   6.947   6.512   0.405
 1464SOL    HW2 5292   0.062   6.425   0.371
 1465SOL     OW 5293   0.223   0.337   4.265
 1465SOL    HW1 5294   0.251   0.387   4.183
 1465SOL    HW2 5295   0.297   0.277   4.294
 1466SOL     OW 5296   6.145   5.833   2.772
 1466SOL    HW1 5297   6.195   5.746   2.779
 1466SOL    HW2 5298   6.057   5.816   2.729
 1467SOL     OW 5299   1.290   1.155   3.401
 1467SOL    HW1 5300   1.218   1.164   3.470
 1467SOL    HW2 5301   1.357   1.087   3.432
 1468SOL     OW 5302   5.486   5.723   3.752
 1468SOL    HW1 5303   5.553   5.679   3.812
 1468SOL    HW2 5304   5.423   5.653   3.716
 1469SOL     OW 5305   0.669   0.054   2.604
 1469SOL    HW1 5306   0.707   0.105   2.681
 1469SOL    HW2 5307   0.599   7.010   2.636
 1470SOL     OW 5308   1.238   0.729   3.020
 1470SOL    HW1 5309   1.319   0.713   3.078
 1470SOL    HW2 5310   1.259   0.801   2.954
 1471SOL     OW 5311   7.004   0.337   0.394
 1471SOL    HW1 5312   6.911   0.363   0.420
 1471SOL    HW2 5313   0.035   0.419   0.366
 1472SOL     OW 5314   4.936   0.290   5.791
 1472SOL    HW1 5315   4.945   0.372   5.847
 1472SOL    HW2 5316   4.914   0.316   5.697
 1473SOL     OW 5317   6.242   5.551   2.829
 1473SOL    HW1 5318   6.251   5.483   2.756
 1473SOL    HW2 5319   6.327   5.553   2.883
 1474SOL     OW 5320   6.069   5.413   4.255
 1474SOL    HW1 5321   6.004   5.425   4.181
 1474SOL    HW2 5322   6.020   5.402   4.342
 1475SOL     OW 5323   6.816   0.699   2.630
 1475SOL    HW1 5324   6.846   0.617   2.581
 1475SOL    HW2 5325   6.717   0.694   2.646
 1476SOL     OW 5326   1.449   1.657   2.181
 1476SOL    HW1 5327   1.393   1.739   2.190
 1476SOL    HW2 5328   1.533   1.668   2.233
 1477SOL     OW 5329   3.234   6.953   5.167
 1477SOL    HW1 5330   3.222   6.992   5.259
 1477SOL    HW2 5331   3.204   6.858   5.167
 1478SOL     OW 5332   6.416   4.913   1.326
 1478SOL    HW1 5333   6.327   4.914   1.281
 1478SOL    HW2 5334   6.412   4.855   1.408
 1479SOL     OW 5335   1.896   4.371   0.536
 1479SOL    HW1 5336   1.942   4.377   0.625
 1479SOL    HW2 5337   1.926   4.447   0.479
 1480SOL     OW 5338   2.016   1.089   0.013
 1480SOL    HW1 5339   2.070   1.046   6.959
 1480SOL    HW2 5340   1.925   1.049   0.015
 1481SOL     OW 5341   6.052   1.788   5.936
 1481SOL    HW1 5342   6.044   1.842   5.852
 1481SOL    HW2 5343   6.121   1.829   5.996
 1482SOL     OW 5344   5.426   0.904   0.206
 1482SOL    HW1 5345   5.345   0.957   0.180
 1482SOL    HW2 5346   5.507   0.962   0.200
 1483SOL     OW 5347   6.591   2.770   0.478
 1483SOL    HW1 5348   6.576   2.857   0.432
 1483SOL    HW2 5349   6.605   2.698   0.410
 1484SOL     OW 5350   6.779   4.767   2.523
 1484SOL    HW1 5351   6.788   4.677   2.480
 1484SOL    HW2 5352   6.806   4.761   2.619
 1485SOL     OW 5353   5.455   3.042   3.696
 1485SOL    HW1 5354   5.446   2.946   3.720
 1485SOL    HW2 5355   5.536   3.055   3.638
 1486SOL     OW 5356   4.809   2.649   3.053
 1486SOL    HW1 5357   4.813   2.684   3.147
 1486SOL    HW2 5358   4.854   2.715   2.992
 1487SOL     OW 5359   5.924   1.576   5.515
 1487SOL    HW1 5360   5.915   1.616   5.423
 1487SOL    HW2 5361   5.861   1.621   5.578
 1488SOL     OW 5362   4.869   1.030   3.495
 1488SOL    HW1 5363   4.782   0.983   3.482
 1488SOL    HW2 5364   4.881   1.098   3.422
 1489SOL     OW 5365   3.917   5.014   4.688
 1489SOL    HW1 5366   3.914   5.108   4.656
 1489SOL    HW2 5367   3.964   4.957   4.621
 1490SOL     OW 5368   1.205   1.777   0.529
 1490SOL    HW1 5369   1.233   1.713   0.457
 1490SOL    HW2 5370   1.124   1.828   0.499
 1491SOL     OW 5371   0.259   3.484   3.915
 1491SOL    HW1 5372   0.160   3.477   3.926
 1491SOL    HW2 5373   0.291   3.408   3.859
 1492SOL     OW 5374   5.247   2.217   1.721
 1492SOL    HW1 5375   5.237   2.255   1.629
 1492SOL    HW2 5376   5.157   2.188   1.754
 1493SOL     OW 5377   4.458   0.305   5.112
 1493SOL    HW1 5378   4.458   0.313   5.012
 1493SOL    HW2 5379   4.398   0.375   5.150
 1494SOL     OW 5380   4.022   2.381   5.857
 1494SOL    HW1 5381   4.065   2.291   5.849
 1494SOL    HW2 5382   3.938   2.383   5.804
 1495SOL     OW 5383   0.743   3.113   3.133
 1495SOL    HW1 5384   0.728   3.118   3.034
 1495SOL    HW2 5385   0.819   3.172   3.158
 1496SOL     OW 5386   6.487   0.468   2.201
 1496SOL    HW1 5387   6.579   0.432   2.183
 1496SOL    HW2 5388   6.426   0.441   2.126
 1497SOL     OW 5389   6.652   5.247   4.081
 1497SOL    HW1 5390   6.566   5.233   4.131
 1497SOL    HW2 5391   6.725   5.195   4.125
 1498SOL     OW 5392   2.522   4.606   6.378
 1498SOL    HW1 5393   2.582   4.548   6.432
 1498SOL    HW2 5394   2.492   4.557   6.296
 1499SOL     OW 5395   1.092   3.613   5.201
 1499SOL    HW1 5396   1.031   3.564   5.139
 1499SOL    HW2 5397   1.088   3.571   5.291
 1500SOL     OW 5398   5.418   0.228   0.210
 1500SOL    HW1 5399   5.369   0.218   0.123
 1500SOL    HW2 5400   5.460   0.318   0.214
 1501SOL     OW 5401   4.350   0.173   6.674
 1501SOL    HW1 5402   4.339   0.121   6.589
 1501SOL    HW2 5403   4.365   0.109   6.750
 1502SOL     OW 5404   6.235   6.495   0.119
 1502SOL    HW1 5405   6.165   6.424   0.123
 1502SOL    HW2 5406   6.306   6.476   0.186
 1503SOL     OW 5407   2.415   2.835   6.885
 1503SOL    HW1 5408   2.441   2.780   6.965
 1503SOL    HW2 5409   2.494   2.888   6.854
 1504SOL     OW 5410   3.532   6.920   5.203
 1504SOL    HW1 5411   3.438   6.941   5.176
 1504SOL    HW2 5412   3.591   6.924   5.123
 1505SOL     OW 5413   5.895   6.861   5.372
 1505SOL    HW1 5414   5.888   6.837   5.276
 1505SOL    HW2 5415   5.840   6.798   5.427
 1506SOL     OW 5416   1.007   5.526   3.801
 1506SOL    HW1 5417   0.979   5.610   3.848
 1506SOL    HW2 5418   0.974   5.447   3.853
 1507SOL     OW 5419   1.907   1.580   5.568
 1507SOL    HW1 5420   1.907   1.483   5.595
 1507SOL    HW2 5421   1.924   1.636   5.649
 1508SOL     OW 5422   4.128   6.930   0.830
 1508SOL    HW1 5423   4.031   6.954   0.836
 1508SOL    HW2 5424   4.155   6.926   0.734
 1509SOL     OW 5425   4.381   3.099   6.580
 1509SOL    HW1 5426   4.463   3.073   6.630
 1509SOL    HW2 5427   4.397   3.092   6.482
 1510SOL     OW 5428   0.330   2.309   4.649
 1510SOL    HW1 5429   0.329   2.346   4.742
 1510SOL    HW2 5430   0.363   2.379   4.585
 1511SOL     OW 5431   2.521   1.523   6.804
 1511SOL    HW1 5432   2.559   1.489   6.718
 1511SOL    HW2 5433   2.582   1.500   6.880
 1512SOL     OW 5434   6.828   0.411   1.495
 1512SOL    HW1 5435   6.738   0.379   1.526
 1512SOL    HW2 5436   6.875   0.456   1.570
 1513SOL     OW 5437   3.564   0.094   4.144
 1513SOL    HW1 5438   3.579   0.003   4.182
 1513SOL    HW2 5439   3.472   0.099   4.104
 1514SOL     OW 5440   5.614   1.964   5.286
 1514SOL    HW1 5441   5.526   1.926   5.315
 1514SOL    HW2 5442   5.619   1.965   5.186
 1515SOL     OW 5443   0.271   4.516   5.433
 1515SOL    HW1 5444   0.336   4.533   5.360
 1515SOL    HW2 5445   0.181   4.495   5.394
 1516SOL     OW 5446   0.646   1.573   0.825
 1516SOL    HW1 5447   0.595   1.653   0.856
 1516SOL    HW2 5448   0.744   1.594   0.823
 1517SOL     OW 5449   4.337   6.272   3.334
 1517SOL    HW1 5450   4.403   6.323   3.390
 1517SOL    HW2 5451   4.353   6.174   3.347
 1518SOL     OW 5452   6.531   4.336   0.073
 1518SOL    HW1 5453   6.448   4.286   0.047
 1518SOL    HW2 5454   6.574   4.291   0.151
 1519SOL     OW 5455   6.346   4.583   1.092
 1519SOL    HW1 5456   6.361   4.488   1.064
 1519SOL    HW2 5457   6.325   4.586   1.190
 1520SOL     OW 5458   2.069   3.448   2.395
 1520SOL    HW1 5459   1.980   3.425   2.355
 1520SOL    HW2 5460   2.116   3.513   2.335
 1521SOL     OW 5461   1.651   3.408   0.206
 1521SOL    HW1 5462   1.719   3.377   0.139
 1521SOL    HW2 5463   1.690   3.484   0.258
 1522SOL     OW 5464   6.246   1.858   6.110
 1522SOL    HW1 5465   6.298   1.869   6.195
 1522SOL    HW2 5466   6.307   1.864   6.032
 1523SOL     OW 5467   6.248   2.574   1.237
 1523SOL    HW1 5468   6.251   2.520   1.153
 1523SOL    HW2 5469   6.254   2.671   1.214
 1524SOL     OW 5470   0.185   1.442   1.176
 1524SOL    HW1 5471   0.208   1.345   1.166
 1524SOL    HW2 5472   0.202   1.471   1.270
 1525SOL     OW 5473   3.655   1.784   5.849
 1525SOL    HW1 5474   3.694   1.702   5.807
 1525SOL    HW2 5475   3.586   1.823   5.787
 1526SOL     OW 5476   0.264   1.905   1.398
 1526SOL    HW1 5477   0.293   1.949   1.313
 1526SOL    HW2 5478   0.338   1.907   1.464
 1527SOL     OW 5479   3.413   1.697   4.865
 1527SOL    HW1 5480   3.334   1.707   4.805
 1527SOL    HW2 5481   3.390   1.730   4.957
 1528SOL     OW 5482   4.398   6.464   3.112
 1528SOL    HW1 5483   4.346   6.430   3.034
 1528SOL    HW2 5484   4.370   6.415   3.195
 1529SOL     OW 5485   3.975   0.641   6.168
 1529SOL    HW1 5486   3.901   0.575   6.151
 1529SOL    HW2 5487   4.063   0.596   6.152
 1530SOL     OW 5488   2.935   6.568   2.128
 1530SOL    HW1 5489   3.035   6.576   2.126
 1530SOL    HW2 5490   2.904   6.515   2.050
 1531SOL     OW 5491   6.880   0.144   3.931
 1531SOL    HW1 5492   6.907   0.139   4.027
 1531SOL    HW2 5493   6.900   0.235   3.895
 1532SOL     OW 5494   3.316   2.173   5.300
 1532SOL    HW1 5495   3.252   2.226   5.244
 1532SOL    HW2 5496   3.370   2.235   5.357
 1533SOL     OW 5497   6.284   3.585   6.895
 1533SOL    HW1 5498   6.250   3.514   6.956
 1533SOL    HW2 5499   6.209   3.619   6.838
 1534SOL     OW 5500   0.943   5.453   0.515
 1534SOL    HW1 5501   0.980   5.545   0.503
 1534SOL    HW2 5502   1.004   5.386   0.471
 1535SOL     OW 5503   5.463   4.777   4.377
 1535SOL    HW1 5504   5.445   4.714   4.452
 1535SOL    HW2 5505   5.480   4.725   4.293
 1536SOL     OW 5506   2.076   5.878   4.461
 1536SOL    HW1 5507   2.157   5.878   4.402
 1536SOL    HW2 5508   2.062   5.786   4.498
 1537SOL     OW 5509   2.370   5.788   4.133
 1537SOL    HW1 5510   2.288   5.821   4.086
 1537SOL    HW2 5511   2.414   5.717   4.078
 1538SOL     OW 5512   2.486   4.564   6.764
 1538SOL    HW1 5513   2.524   4.508   6.691
 1538SOL    HW2 5514   2.508   4.524   6.853
 1539SOL     OW 5515   3.454   4.490   1.690
 1539SOL    HW1 5516   3.475   4.397   1.720
 1539SOL    HW2 5517   3.511   4.554   1.740
 1540SOL     OW 5518   0.869   0.233   4.741
 1540SOL    HW1 5519   0.777   0.205   4.770
 1540SOL    HW2 5520   0.896   0.179   4.661
 1541SOL     OW 5521   4.216   2.647   1.387
 1541SOL    HW1 5522   4.146   2.579   1.408
 1541SOL    HW2 5523   4.285   2.648   1.459
 1542SOL     OW 5524   0.421   6.029   1.358
 1542SOL    HW1 5525   0.388   6.119   1.331
 1542SOL    HW2 5526   0.497   6.038   1.422
 1543SOL     OW 5527   3.254   3.587   3.824
 1543SOL    HW1 5528   3.291   3.613   3.735
 1543SOL    HW2 5529   3.171   3.534   3.812
 1544SOL     OW 5530   3.184   4.068   2.571
 1544SOL    HW1 5531   3.116   4.047   2.642
 1544SOL    HW2 5532   3.260   4.118   2.611
 1545SOL     OW 5533   6.251   1.104   5.078
 1545SOL    HW1 5534   6.259   1.023   5.019
 1545SOL    HW2 5535   6.183   1.166   5.039
 1546SOL     OW 5536   6.302   6.706   6.272
 1546SOL    HW1 5537   6.275   6.615   6.242
 1546SOL    HW2 5538   6.384   6.699   6.329
 1547SOL     OW 5539   2.929   4.741   3.042
 1547SOL    HW1 5540   3.027   4.758   3.037
 1547SOL    HW2 5541   2.903   4.718   3.135
 1548SOL     OW 5542   4.184   4.635   5.317
 1548SOL    HW1 5543   4.165   4.645   5.415
 1548SOL    HW2 5544   4.171   4.539   5.290
 1549SOL     OW 5545   6.758   2.634   1.637
 1549SOL    HW1 5546   6.758   2.576   1.719
 1549SOL    HW2 5547   6.798   2.723   1.659
 1550SOL     OW 5548   2.031   6.188   5.092
 1550SOL    HW1 5549   1.964   6.244   5.140
 1550SOL    HW2 5550   1.993   6.099   5.071
 1551SOL     OW 5551   1.509   3.029   1.328
 1551SOL    HW1 5552   1.527   2.931   1.333
 1551SOL    HW2 5553   1.516   3.069   1.419
 1552SOL     OW 5554   1.284   0.359   1.204
 1552SOL    HW1 5555   1.252   0.359   1.109
 1552SOL    HW2 5556   1.361   0.423   1.212
 1553SOL     OW 5557   6.032   1.991   0.139
 1553SOL    HW1 5558   6.119   1.943   0.140
 1553SOL    HW2 5559   5.978   1.960   0.061
 1554SOL     OW 5560   4.383   2.436   2.865
 1554SOL    HW1 5561   4.306   2.374   2.885
 1554SOL    HW2 5562   4.416   2.418   2.773
 1555SOL     OW 5563   4.786   1.530   4.832
 1555SOL    HW1 5564   4.845   1.564   4.905
 1555SOL    HW2 5565   4.719   1.467   4.870
 1556SOL     OW 5566   3.347   0.256   0.855
 1556SOL    HW1 5567   3.252   0.278   0.835
 1556SOL    HW2 5568   3.380   0.314   0.929
 1557SOL     OW 5569   1.664   2.008   1.382
 1557SOL    HW1 5570   1.761   2.029   1.389
 1557SOL    HW2 5571   1.626   1.995   1.473
 1558SOL     OW 5572   6.475   3.433   5.450
 1558SOL    HW1 5573   6.490   3.335   5.453
 1558SOL    HW2 5574   6.385   3.454   5.489
 1559SOL     OW 5575   1.077   4.176   2.252
 1559SOL    HW1 5576   1.114   4.086   2.227
 1559SOL    HW2 5577   1.045   4.223   2.170
 1560SOL     OW 5578   4.159   1.214   0.779
 1560SOL    HW1 5579   4.217   1.208   0.698
 1560SOL    HW2 5580   4.185   1.143   0.844
 1561SOL     OW 5581   5.324   6.198   2.059
 1561SOL    HW1 5582   5.361   6.273   2.115
 1561SOL    HW2 5583   5.394   6.167   1.995
 1562SOL     OW 5584   3.103   0.096   2.302
 1562SOL    HW1 5585   3.079   0.078   2.207
 1562SOL    HW2 5586   3.034   0.055   2.363
 1563SOL     OW 5587   3.135   2.123   4.751
 1563SOL    HW1 5588   3.233   2.107   4.739
 1563SOL    HW2 5589   3.120   2.187   4.827
 1564SOL     OW 5590   1.112   1.613   2.407
 1564SOL    HW1 5591   1.140   1.702   2.445
 1564SOL    HW2 5592   1.143   1.606   2.312
 1565SOL     OW 5593   3.529   6.310   4.160
 1565SOL    HW1 5594   3.572   6.398   4.177
 1565SOL    HW2 5595   3.433   6.324   4.133
 1566SOL     OW 5596   5.020   4.596   3.445
 1566SOL    HW1 5597   5.108   4.555   3.469
 1566SOL    HW2 5598   5.023   4.695   3.463
 1567SOL     OW 5599   5.899   5.705   5.693
 1567SOL    HW1 5600   5.980   5.665   5.736
 1567SOL    HW2 5601   5.819   5.647   5.710
 1568SOL     OW 5602   2.293   6.343   3.187
 1568SOL    HW1 5603   2.323   6.270   3.125
 1568SOL    HW2 5604   2.216   6.310   3.242
 1569SOL     OW 5605   2.907   0.235   2.834
 1569SOL    HW1 5606   2.980   0.207   2.772
 1569SOL    HW2 5607   2.931   0.211   2.928
 1570SOL     OW 5608   3.299   0.020   0.044
 1570SOL    HW1 5609   3.382   6.985   0.031
 1570SOL    HW2 5610   3.269   0.057   6.975
 1571SOL     OW 5611   1.404   2.776   3.633
 1571SOL    HW1 5612   1.413   2.777   3.732
 1571SOL    HW2 5613   1.466   2.707   3.594
 1572SOL     OW 5614   1.689   4.802   1.657
 1572SOL    HW1 5615   1.607   4.744   1.656
 1572SOL    HW2 5616   1.668   4.889   1.702
 1573SOL     OW 5617   4.331   5.061   1.231
 1573SOL    HW1 5618   4.281   5.143   1.203
 1573SOL    HW2 5619   4.331   5.054   1.331
 1574SOL     OW 5620   6.241   3.722   1.635
 1574SOL    HW1 5621   6.299   3.786   1.585
 1574SOL    HW2 5622   6.267   3.722   1.732
 1575SOL     OW 5623   1.369   1.272   1.262
 1575SOL    HW1 5624   1.423   1.305   1.340
 1575SOL    HW2 5625   1.275   1.304   1.270
 1576SOL     OW 5626   0.250   6.056   2.136
 1576SOL    HW1 5627   0.335   6.098   2.170
 1576SOL    HW2 5628   0.271   5.968   2.094
 1577SOL     OW 5629   3.341   0.302   6.297
 1577SOL    HW1 5630   3.328   0.217   6.244
 1577SOL    HW2 5631   3.317   0.285   6.392
 1578SOL     OW 5632   4.305   0.855   0.378
 1578SOL    HW1 5633   4.318   0.905   0.464
 1578SOL    HW2 5634   4.358   0.771   0.380
 1579SOL     OW 5635   1.586   2.555   1.879
 1579SOL    HW1 5636   1.511   2.505   1.923
 1579SOL    HW2 5637   1.601   2.642   1.926
 1580SOL     OW 5638   3.011   3.949   2.753
 1580SOL    HW1 5639   3.039   4.011   2.826
 1580SOL    HW2 5640   3.011   3.855   2.787
 1581SOL     OW 5641   0.480   4.190   6.186
 1581SOL    HW1 5642   0.528   4.130   6.122
 1581SOL    HW2 5643   0.472   4.282   6.146
 1582SOL     OW 5644   4.722   6.439   5.629
 1582SOL    HW1 5645   4.654   6.452   5.557
 1582SOL    HW2 5646   4.753   6.344   5.629
 1583SOL     OW 5647   0.732   5.680   4.855
 1583SOL    HW1 5648   0.754   5.598   4.907
 1583SOL    HW2 5649   0.789   5.684   4.773
 1584SOL     OW 5650   0.585   5.753   6.530
 1584SOL    HW1 5651   0.573   5.848   6.555
 1584SOL    HW2 5652   0.515   5.727   6.462
 1585SOL     OW 5653   4.010   0.750   3.332
 1585SOL    HW1 5654   4.058   0.702   3.404
 1585SOL    HW2 5655   4.056   0.735   3.244
 1586SOL     OW 5656   2.614   5.466   3.930
 1586SOL    HW1 5657   2.643   5.444   4.022
 1586SOL    HW2 5658   2.514   5.472   3.927
 1587SOL     OW 5659   1.405   6.079   5.724
 1587SOL    HW1 5660   1.426   5.984   5.747
 1587SOL    HW2 5661   1.489   6.129   5.704
 1588SOL     OW 5662   5.152   0.532   2.254
 1588SOL    HW1 5663   5.110   0.446   2.280
 1588SOL    HW2 5664   5.217   0.560   2.324
 1589SOL     OW 5665   6.646   4.089   2.593
 1589SOL    HW1 5666   6.687   4.178   2.571
 1589SOL    HW2 5667   6.619   4.088   2.689
 1590SOL     OW 5668   5.717   2.262   3.452
 1590SOL    HW1 5669   5.658   2.200   3.502
 1590SOL    HW2 5670   5.808   2.221   3.440
 1591SOL     OW 5671   0.046   5.929   1.600
 1591SOL    HW1 5672   0.099   5.887   1.526
 1591SOL    HW2 5673   6.989   5.981   1.562
 1592SOL     OW 5674   1.551   4.116   0.151
 1592SOL    HW1 5675   1.493   4.034   0.152
 1592SOL    HW2 5676   1.647   4.088   0.147
 1593SOL     OW 5677   1.177   0.086   6.597
 1593SOL    HW1 5678   1.176   0.126   6.689
 1593SOL    HW2 5679   1.092   0.107   6.550
 1594SOL     OW 5680   0.156   0.714   2.304
 1594SOL    HW1 5681   0.127   0.696   2.210
 1594SOL    HW2 5682   0.119   0.644   2.364
 1595SOL     OW 5683   1.438   4.318   0.002
 1595SOL    HW1 5684   1.511   4.379   6.989
 1595SOL    HW2 5685   1.473   4.263   0.078
 1596SOL     OW 5686   5.939   4.166   2.471
 1596SOL    HW1 5687   5.877   4.104   2.520
 1596SOL    HW2 5688   6.007   4.202   2.535
 1597SOL     OW 5689   2.991   5.296   1.257
 1597SOL    HW1 5690   2.935   5.217   1.280
 1597SOL    HW2 5691   3.085   5.282   1.290
 1598SOL     OW 5692   1.934   5.620   6.858
 1598SOL    HW1 5693   2.014   5.672   6.886
 1598SOL    HW2 5694   1.874   5.606   6.936
 1599SOL     OW 5695   3.697   5.243   3.986
 1599SOL    HW1 5696   3.765   5.208   4.051
 1599SOL    HW2 5697   3.609   5.251   4.032
 1600SOL     OW 5698   3.509   0.552   2.814
 1600SOL    HW1 5699   3.555   0.635   2.845
 1600SOL    HW2 5700   3.542   0.527   2.723
 1601SOL     OW 5701   6.311   6.599   4.241
 1601SOL    HW1 5702   6.308   6.519   4.181
 1601SOL    HW2 5703   6.323   6.570   4.336
 1602SOL     OW 5704   4.583   5.600   4.268
 1602SOL    HW1 5705   4.502   5.584   4.212
 1602SOL    HW2 5706   4.594   5.698   4.283
 1603SOL     OW 5707   2.887   5.774   4.690
 1603SOL    HW1 5708   2.952   5.783   4.615
 1603SOL    HW2 5709   2.832   5.692   4.677
 1604SOL     OW 5710   4.134   4.683   2.240
 1604SOL    HW1 5711   4.126   4.663   2.142
 1604SOL    HW2 5712   4.206   4.625   2.280
 1605SOL     OW 5713   5.439   5.492   1.673
 1605SOL    HW1 5714   5.530   5.471   1.710
 1605SOL    HW2 5715   5.448   5.536   1.584
 1606SOL     OW 5716   4.346   6.015   3.874
 1606SOL    HW1 5717   4.257   6.026   3.917
 1606SOL    HW2 5718   4.418   6.038   3.939
 1607SOL     OW 5719   4.096   6.916   2.319
 1607SOL    HW1 5720   4.053   6.968   2.245
 1607SOL    HW2 5721   4.195   6.924   2.313
 1608SOL     OW 5722   6.907   1.455   3.062
 1608SOL    HW1 5723   6.887   1.553   3.063
 1608SOL    HW2 5724   6.841   1.408   3.003
 1609SOL     OW 5725   3.333   6.127   0.609
 1609SOL    HW1 5726   3.331   6.032   0.578
 1609SOL    HW2 5727   3.419   6.169   0.581
 1610SOL     OW 5728   3.825   6.174   0.056
 1610SOL    HW1 5729   3.740   6.191   0.007
 1610SOL    HW2 5730   3.817   6.209   0.150
 1611SOL     OW 5731   1.435   3.964   1.474
 1611SOL    HW1 5732   1.479   4.012   1.551
 1611SOL    HW2 5733   1.497   3.894   1.439
 1612SOL     OW 5734   2.875   5.490   1.106
 1612SOL    HW1 5735   2.926   5.562   1.152
 1612SOL    HW2 5736   2.917   5.401   1.128
 1613SOL     OW 5737   0.727   5.952   2.618
 1613SOL    HW1 5738   0.823   5.974   2.600
 1613SOL    HW2 5739   0.672   5.974   2.538
 1614SOL     OW 5740   5.815   2.177   6.519
 1614SOL    HW1 5741   5.750   2.251   6.535
 1614SOL    HW2 5742   5.874   2.201   6.442
 1615SOL     OW 5743   0.212   5.356   6.637
 1615SOL    HW1 5744   0.185   5.272   6.683
 1615SOL    HW2 5745   0.233   5.337   6.541
 1616SOL     OW 5746   3.639   1.027   5.155
 1616SOL    HW1 5747   3.594   1.010   5.243
 1616SOL    HW2 5748   3.729   1.068   5.171
 1617SOL     OW 5749   4.757   6.734   3.816
 1617SOL    HW1 5750   4.810   6.788   3.881
 1617SOL    HW2 5751   4.809   6.722   3.732
 1618SOL     OW 5752   1.881   6.142   2.595
 1618SOL    HW1 5753   1.858   6.162   2.500
 1618SOL    HW2 5754   1.967   6.188   2.619
 1619SOL     OW 5755   0.854   5.283   6.889
 1619SOL    HW1 5756   0.827   5.224   6.966
 1619SOL    HW2 5757   0.833   5.236   6.803
 1620SOL     OW 5758   3.007   5.192   0.937
 1620SOL    HW1 5759   3.029   5.254   0.862
 1620SOL    HW2 5760   3.090   5.142   0.963
 1621SOL     OW 5761   5.713   6.274   1.187
 1621SOL    HW1 5762   5.704   6.178   1.213
 1621SOL    HW2 5763   5.717   6.281   1.087
 1622SOL     OW 5764   0.767   4.286   5.684
 1622SOL    HW1 5765   0.704   4.278   5.762
 1622SOL    HW2 5766   0.736   4.227   5.610
 1623SOL     OW 5767   1.171   2.400   4.879
 1623SOL    HW1 5768   1.098   2.333   4.889
 1623SOL    HW2 5769   1.153   2.458   4.799
 1624SOL     OW 5770   3.203   0.799   0.368
 1624SOL    HW1 5771   3.210   0.883   0.315
 1624SOL    HW2 5772   3.235   0.816   0.461
 1625SOL     OW 5773   2.250   5.123   0.295
 1625SOL    HW1 5774   2.324   5.105   0.360
 1625SOL    HW2 5775   2.246   5.222   0.277
 1626SOL     OW 5776   3.167   1.779   2.259
 1626SOL    HW1 5777   3.164   1.878   2.252
 1626SOL    HW2 5778   3.146   1.752   2.353
 1627SOL     OW 5779   5.209   2.503   4.553
 1627SOL    HW1 5780   5.170   2.551   4.632
 1627SOL    HW2 5781   5.140   2.441   4.514
 1628SOL     OW 5782   5.120   5.606   6.786
 1628SOL    HW1 5783   5.061   5.645   6.716
 1628SOL    HW2 5784   5.184   5.542   6.744
 1629SOL     OW 5785   3.092   2.179   3.355
 1629SOL    HW1 5786   3.024   2.234   3.307
 1629SOL    HW2 5787   3.061   2.084   3.359
 1630SOL     OW 5788   0.395   4.045   6.927
 1630SOL    HW1 5789   0.366   4.104   6.851
 1630SOL    HW2 5790   0.446   4.100   6.993
 1631SOL     OW 5791   0.033   3.708   1.088
 1631SOL    HW1 5792   6.975   3.726   1.149
 1631SOL    HW2 5793   0.090   3.636   1.126
 1632SOL     OW 5794   5.385   4.732   2.321
 1632SOL    HW1 5795   5.325   4.679   2.261
 1632SOL    HW2 5796   5.453   4.672   2.363
 1633SOL     OW 5797   4.945   3.847   3.826
 1633SOL    HW1 5798   4.924   3.874   3.920
 1633SOL    HW2 5799   4.923   3.750   3.813
 1634SOL     OW 5800   3.967   0.487   4.592
 1634SOL    HW1 5801   3.929   0.419   4.656
 1634SOL    HW2 5802   3.930   0.471   4.501
 1635SOL     OW 5803   3.700   4.954   5.780
 1635SOL    HW1 5804   3.614   4.913   5.749
 1635SOL    HW2 5805   3.689   5.053   5.787
 1636SOL     OW 5806   3.947   6.001   1.215
 1636SOL    HW1 5807   3.943   6.084   1.271
 1636SOL    HW2 5808   3.860   5.952   1.221
 1637SOL     OW 5809   6.781   0.028   3.291
 1637SOL    HW1 5810   6.776   6.994   3.207
 1637SOL    HW2 5811   6.859   7.016   3.345
 1638SOL     OW 5812   7.008   3.293   1.476
 1638SOL    HW1 5813   6.944   3.223   1.506
 1638SOL    HW2 5814   7.015   3.292   1.376
 1639SOL     OW 5815   6.502   4.191   1.521
 1639SOL    HW1 5816   6.510   4.229   1.613
 1639SOL    HW2 5817   6.547   4.102   1.518
 1640SOL     OW 5818   5.814   6.958   1.157
 1640SOL    HW1 5819   5.776   0.021   1.115
 1640SOL    HW2 5820   5.914   6.967   1.163
 1641SOL     OW 5821   0.113   2.436   3.995
 1641SOL    HW1 5822   0.024   2.469   4.028
 1641SOL    HW2 5823   0.166   2.401   4.072
 1642SOL     OW 5824   6.507   2.401   6.501
 1642SOL    HW1 5825   6.479   2.443   6.414
 1642SOL    HW2 5826   6.466   2.451   6.577
 1643SOL     OW 5827   3.366   4.939   3.777
 1643SOL    HW1 5828   3.289   5.003   3.770
 1643SOL    HW2 5829   3.343   4.868   3.844
 1644SOL     OW 5830   5.945   2.799   0.616
 1644SOL    HW1 5831   5.984   2.709   0.635
 1644SOL    HW2 5832   5.865   2.788   0.557
 1645SOL     OW 5833   2.979   0.457   5.982
 1645SOL    HW1 5834   2.907   0.410   5.931
 1645SOL    HW2 5835   3.054   0.394   6.000
 1646SOL     OW 5836   1.781   5.446   6.663
 1646SOL    HW1 5837   1.821   5.513   6.726
 1646SOL    HW2 5838   1.770   5.488   6.573
 1647SOL     OW 5839   5.955   3.182   3.904
 1647SOL    HW1 5840   5.871   3.132   3.925
 1647SOL    HW2 5841   6.011   3.128   3.841
 1648SOL     OW 5842   4.884   6.028   0.281
 1648SOL    HW1 5843   4.910   5.984   0.367
 1648SOL    HW2 5844   4.963   6.031   0.220
 1649SOL     OW 5845   3.296   0.070   3.646
 1649SOL    HW1 5846   3.201   0.079   3.614
 1649SOL    HW2 5847   3.340   7.014   3.598
 1650SOL     OW 5848   1.780   5.001   6.121
 1650SOL    HW1 5849   1.784   4.912   6.076
 1650SOL    HW2 5850   1.706   5.056   6.082
 1651SOL     OW 5851   0.758   2.635   3.584
 1651SOL    HW1 5852   0.857   2.636   3.569
 1651SOL    HW2 5853   0.732   2.715   3.639
 1652SOL     OW 5854   1.135   2.705   1.819
 1652SOL    HW1 5855   1.126   2.606   1.810
 1652SOL    HW2 5856   1.094   2.750   1.739
 1653SOL     OW 5857   0.352   5.373   2.509
 1653SOL    HW1 5858   0.348   5.420   2.421
 1653SOL    HW2 5859   0.287   5.414   2.572
 1654SOL     OW 5860   0.911   2.585   1.481
 1654SOL    HW1 5861   0.998   2.620   1.518
 1654SOL    HW2 5862   0.891   2.632   1.395
 1655SOL     OW 5863   6.985   1.468   4.248
 1655SOL    HW1 5864   6.891   1.472   4.216
 1655SOL    HW2 5865   0.017   1.547   4.213
 1656SOL     OW 5866   2.275   5.653   4.353
 1656SOL    HW1 5867   2.316   5.695   4.272
 1656SOL    HW2 5868   2.325   5.569   4.376
 1657SOL     OW 5869   6.980   0.942   4.937
 1657SOL    HW1 5870   6.938   0.851   4.934
 1657SOL    HW2 5871   6.910   1.011   4.919
 1658SOL     OW 5872   6.774   6.862   0.131
 1658SOL    HW1 5873   6.858   6.901   0.169
 1658SOL    HW2 5874   6.774   6.871   0.032
 1659SOL     OW 5875   4.067   6.894   6.809
 1659SOL    HW1 5876   4.154   6.942   6.822
 1659SOL    HW2 5877   4.084   6.809   6.758
 1660SOL     OW 5878   1.752   6.626   1.958
 1660SOL    HW1 5879   1.788   6.545   2.004
 1660SOL    HW2 5880   1.731   6.696   2.026
 1661SOL     OW 5881   2.527   4.548   2.149
 1661SOL    HW1 5882   2.498   4.615   2.081
 1661SOL    HW2 5883   2.624   4.562   2.171
 1662SOL     OW 5884   0.000   1.348   5.323
 1662SOL    HW1 5885   0.006   1.295   5.408
 1662SOL    HW2 5886   6.955   1.303   5.261
 1663SOL     OW 5887   4.946   4.973   1.913
 1663SOL    HW1 5888   5.013   4.964   1.986
 1663SOL    HW2 5889   4.978   5.041   1.847
 1664SOL     OW 5890   1.094   0.585   5.216
 1664SOL    HW1 5891   1.008   0.543   5.186
 1664SOL    HW2 5892   1.171   0.543   5.168
 1665SOL     OW 5893   1.396   3.309   1.582
 1665SOL    HW1 5894   1.311   3.271   1.617
 1665SOL    HW2 5895   1.460   3.235   1.561
 1666SOL     OW 5896   5.469   6.790   6.105
 1666SOL    HW1 5897   5.564   6.817   6.093
 1666SOL    HW2 5898   5.434   6.829   6.191
 1667SOL     OW 5899   6.770   6.716   1.180
 1667SOL    HW1 5900   6.864   6.682   1.172
 1667SOL    HW2 5901   6.771   6.804   1.227
 1668SOL     OW 5902   5.274   5.062   3.761
 1668SOL    HW1 5903   5.212   5.010   3.702
 1668SOL    HW2 5904   5.221   5.125   3.818
 1669SOL     OW 5905   0.040   4.418   5.776
 1669SOL    HW1 5906   0.009   4.494   5.718
 1669SOL    HW2 5907   0.137   4.402   5.760
 1670SOL     OW 5908   1.262   5.003   5.829
 1670SOL    HW1 5909   1.292   5.063   5.903
 1670SOL    HW2 5910   1.286   4.908   5.851
 1671SOL     OW 5911   4.780   1.939   2.795
 1671SOL    HW1 5912   4.718   1.871   2.834
 1671SOL    HW2 5913   4.793   1.921   2.698
 1672SOL     OW 5914   1.179   3.442   0.248
 1672SOL    HW1 5915   1.251   3.406   0.189
 1672SOL    HW2 5916   1.107   3.484   0.192
 1673SOL     OW 5917   1.935   2.046   4.524
 1673SOL    HW1 5918   1.929   1.948   4.510
 1673SOL    HW2 5919   2.018   2.068   4.575
 1674SOL     OW 5920   5.933   2.889   2.206
 1674SOL    HW1 5921   5.980   2.805   2.178
 1674SOL    HW2 5922   5.914   2.945   2.125
 1675SOL     OW 5923   4.881   0.884   1.355
 1675SOL    HW1 5924   4.789   0.878   1.396
 1675SOL    HW2 5925   4.873   0.920   1.262
 1676SOL     OW 5926   2.269   2.472   2.781
 1676SOL    HW1 5927   2.183   2.520   2.764
 1676SOL    HW2 5928   2.251   2.376   2.800
 1677SOL     OW 5929   3.845   4.047   3.280
 1677SOL    HW1 5930   3.853   4.057   3.181
 1677SOL    HW2 5931   3.751   4.021   3.303
 1678SOL     OW 5932   0.774   6.331   1.137
 1678SOL    HW1 5933   0.843   6.259   1.148
 1678SOL    HW2 5934   0.707   6.303   1.068
 1679SOL     OW 5935   1.796   1.021   5.271
 1679SOL    HW1 5936   1.866   1.068   5.218
 1679SOL    HW2 5937   1.756   0.947   5.217
 1680SOL     OW 5938   5.453   3.294   4.339
 1680SOL    HW1 5939   5.456   3.361   4.413
 1680SOL    HW2 5940   5.495   3.209   4.369
 1681SOL     OW 5941   1.538   5.658   4.711
 1681SOL    HW1 5942   1.604   5.685   4.641
 1681SOL    HW2 5943   1.519   5.560   4.703
 1682SOL     OW 5944   3.062   0.488   6.317
 1682SOL    HW1 5945   3.034   0.394   6.296
 1682SOL    HW2 5946   3.079   0.538   6.232
 1683SOL     OW 5947   5.584   5.388   3.056
 1683SOL    HW1 5948   5.515   5.445   3.012
 1683SOL    HW2 5949   5.657   5.367   2.991
 1684SOL     OW 5950   1.328   4.465   1.921
 1684SOL    HW1 5951   1.246   4.444   1.975
 1684SOL    HW2 5952   1.343   4.391   1.855
 1685SOL     OW 5953   1.691   1.643   5.788
 1685SOL    HW1 5954   1.694   1.590   5.703
 1685SOL    HW2 5955   1.781   1.684   5.805
 1686SOL     OW 5956   4.664   6.024   3.371
 1686SOL    HW1 5957   4.566   6.014   3.385
 1686SOL    HW2 5958   4.708   5.934   3.378
 1687SOL     OW 5959   0.353   4.208   2.070
 1687SOL    HW1 5960   0.443   4.249   2.080
 1687SOL    HW2 5961   0.345   4.130   2.133
 1688SOL     OW 5962   1.960   2.228   3.478
 1688SOL    HW1 5963   2.005   2.147   3.439
 1688SOL    HW2 5964   1.875   2.200   3.524
 1689SOL     OW 5965   6.355   1.350   2.364
 1689SOL    HW1 5966   6.367   1.303   2.276
 1689SOL    HW2 5967   6.437   1.402   2.386
 1690SOL     OW 5968   1.142   3.558   4.231
 1690SOL    HW1 5969   1.053   3.521   4.203
 1690SOL    HW2 5970   1.129   3.643   4.280
 1691SOL     OW 5971   4.949   3.728   4.280
 1691SOL    HW1 5972   4.940   3.699   4.185
 1691SOL    HW2 5973   5.009   3.664   4.329
 1692SOL     OW 5974   5.427   5.627   1.429
 1692SOL    HW1 5975   5.339   5.628   1.381
 1692SOL    HW2 5976   5.495   5.581   1.373
 1693SOL     OW 5977   0.146   1.928   4.844
 1693SOL    HW1 5978   0.115   1.945   4.751
 1693SOL    HW2 5979   0.128   1.832   4.868
 1694SOL     OW 5980   6.134   1.274   4.585
 1694SOL    HW1 5981   6.211   1.220   4.619
 1694SOL    HW2 5982   6.107   1.240   4.495
 1695SOL     OW 5983   3.720   0.686   6.734
 1695SOL    HW1 5984   3.751   0.607   6.682
 1695SOL    HW2 5985   3.621   0.681   6.746
 1696SOL     OW 5986   3.956   5.521   0.597
 1696SOL    HW1 5987   4.044   5.476   0.581
 1696SOL    HW2 5988   3.955   5.560   0.689
 1697SOL     OW 5989   6.158   2.290   0.660
 1697SOL    HW1 5990   6.226   2.219   0.681
 1697SOL    HW2 5991   6.066   2.250   0.666
 1698SOL     OW 5992   3.713   1.058   1.435
 1698SOL    HW1 5993   3.689   1.154   1.450
 1698SOL    HW2 5994   3.659   1.022   1.359
 1699SOL     OW 5995   2.726   1.722   6.286
 1699SOL    HW1 5996   2.642   1.667   6.291
 1699SOL    HW2 5997   2.805   1.664   6.305
 1700SOL     OW 5998   5.926   3.444   3.824
 1700SOL    HW1 5999   5.925   3.362   3.881
 1700SOL    HW2 6000   6.020   3.476   3.813
 1701SOL     OW 6001   6.531   5.265   4.740
 1701SOL    HW1 6002   6.571   5.336   4.797
 1701SOL    HW2 6003   6.481   5.200   4.798
 1702SOL     OW 6004   1.854   0.887   6.448
 1702SOL    HW1 6005   1.928   0.898   6.381
 1702SOL    HW2 6006   1.777   0.945   6.421
 1703SOL     OW 6007   3.496   1.759   6.070
 1703SOL    HW1 6008   3.555   1.763   5.990
 1703SOL    HW2 6009   3.512   1.673   6.119
 1704SOL     OW 6010   1.746   1.361   0.308
 1704SOL    HW1 6011   1.799   1.443   0.329
 1704SOL    HW2 6012   1.649   1.383   0.308
 1705SOL     OW 6013   4.159   2.023   1.873
 1705SOL    HW1 6014   4.202   2.068   1.951
 1705SOL    HW2 6015   4.061   2.044   1.873
 1706SOL     OW 6016   4.099   1.511   1.197
 1706SOL    HW1 6017   4.065   1.456   1.121
 1706SOL    HW2 6018   4.178   1.565   1.167
 1707SOL     OW 6019   4.755   1.909   3.206
 1707SOL    HW1 6020   4.798   1.988   3.163
 1707SOL    HW2 6021   4.698   1.861   3.139
 1708SOL     OW 6022   3.529   5.536   1.817
 1708SOL    HW1 6023   3.445   5.492   1.783
 1708SOL    HW2 6024   3.556   5.494   1.903
 1709SOL     OW 6025   4.867   6.098   0.671
 1709SOL    HW1 6026   4.905   6.165   0.608
 1709SOL    HW2 6027   4.767   6.103   0.669
 1710SOL     OW 6028   4.298   5.465   3.460
 1710SOL    HW1 6029   4.234   5.391   3.481
 1710SOL    HW2 6030   4.387   5.427   3.436
 1711SOL     OW 6031   2.797   5.532   5.660
 1711SOL    HW1 6032   2.813   5.434   5.671
 1711SOL    HW2 6033   2.794   5.575   5.750
 1712SOL     OW 6034   0.526   2.439   5.161
 1712SOL    HW1 6035   0.566   2.364   5.214
 1712SOL    HW2 6036   0.585   2.460   5.083
 1713SOL     OW 6037   3.875   0.957   2.939
 1713SOL    HW1 6038   3.792   1.013   2.938
 1713SOL    HW2 6039   3.936   0.988   3.012
 1714SOL     OW 6040   3.136   2.148   6.770
 1714SOL    HW1 6041   3.181   2.237   6.770
 1714SOL    HW2 6042   3.188   2.084   6.826
 1715SOL     OW 6043   1.546   6.095   2.178
 1715SOL    HW1 6044   1.614   6.092   2.252
 1715SOL    HW2 6045   1.593   6.100   2.090
 1716SOL     OW 6046   4.416   0.359   3.936
 1716SOL    HW1 6047   4.355   0.293   3.979
 1716SOL    HW2 6048   4.477   0.398   4.004
 1717SOL     OW 6049   4.069   6.259   5.002
 1717SOL    HW1 6050   4.010   6.185   5.035
 1717SOL    HW2 6051   4.021   6.347   5.010
 1718SOL     OW 6052   2.253   2.173   2.550
 1718SOL    HW1 6053   2.212   2.090   2.588
 1718SOL    HW2 6054   2.346   2.153   2.520
 1719SOL     OW 6055   1.457   4.706   1.422
 1719SOL    HW1 6056   1.453   4.640   1.497
 1719SOL    HW2 6057   1.385   4.775   1.433
 1720SOL     OW 6058   0.145   2.932   6.003
 1720SOL    HW1 6059   0.100   2.853   6.043
 1720SOL    HW2 6060   0.196   2.981   6.073
 1721SOL     OW 6061   1.259   0.396   2.284
 1721SOL    HW1 6062   1.239   0.459   2.209
 1721SOL    HW2 6063   1.311   0.318   2.249
 1722SOL     OW 6064   3.264   1.919   2.866
 1722SOL    HW1 6065   3.242   2.007   2.823
 1722SOL    HW2 6066   3.361   1.917   2.890
 1723SOL     OW 6067   4.697   2.284   0.090
 1723SOL    HW1 6068   4.627   2.338   0.137
 1723SOL    HW2 6069   4.786   2.299   0.134
 1724SOL     OW 6070   6.358   2.254   1.678
 1724SOL    HW1 6071   6.355   2.264   1.579
 1724SOL    HW2 6072   6.436   2.196   1.703
 1725SOL     OW 6073   1.957   4.838   6.813
 1725SOL    HW1 6074   1.960   4.755   6.757
 1725SOL    HW2 6075   1.888   4.900   6.778
 1726SOL     OW 6076   5.903   4.454   3.724
 1726SOL    HW1 6077   5.987   4.491   3.766
 1726SOL    HW2 6078   5.902   4.477   3.627
 1727SOL     OW 6079   3.577   3.500   3.382
 1727SOL    HW1 6080   3.548   3.404   3.380
 1727SOL    HW2 6081   3.629   3.517   3.466
 1728SOL     OW 6082   5.018   4.448   5.427
 1728SOL    HW1 6083   5.118   4.458   5.425
 1728SOL    HW2 6084   4.991   4.407   5.514
 1729SOL     OW 6085   1.645   3.607   1.755
 1729SOL    HW1 6086   1.707   3.639   1.683
 1729SOL    HW2 6087   1.618   3.685   1.812
 1730SOL     OW 6088   2.102   5.902   5.105
 1730SOL    HW1 6089   2.142   5.815   5.132
 1730SOL    HW2 6090   2.006   5.889   5.080
 1731SOL     OW 6091   5.138   4.904   4.041
 1731SOL    HW1 6092   5.134   4.977   3.974
 1731SOL    HW2 6093   5.113   4.817   3.998
 1732SOL     OW 6094   2.217   4.300   6.337
 1732SOL    HW1 6095   2.304   4.280   6.292
 1732SOL    HW2 6096   2.145   4.244   6.298
 1733SOL     OW 6097   2.841   3.869   0.120
 1733SOL    HW1 6098   2.770   3.820   0.071
 1733SOL    HW2 6099   2.912   3.805   0.150
 1734SOL     OW 6100   6.408   3.240   1.176
 1734SOL    HW1 6101   6.444   3.333   1.186
 1734SOL    HW2 6102   6.318   3.244   1.133
 1735SOL     OW 6103   4.517   5.583   0.166
 1735SOL    HW1 6104   4.522   5.488   0.139
 1735SOL    HW2 6105   4.498   5.640   0.087
 1736SOL     OW 6106   4.425   3.829   1.337
 1736SOL    HW1 6107   4.346   3.889   1.323
 1736SOL    HW2 6108   4.395   3.741   1.372
 1737SOL     OW 6109   5.146   0.717   4.329
 1737SOL    HW1 6110   5.154   0.745   4.425
 1737SOL    HW2 6111   5.134   0.797   4.271
 1738SOL     OW 6112   2.000   4.101   4.235
 1738SOL    HW1 6113   1.992   4.010   4.194
 1738SOL    HW2 6114   2.061   4.097   4.314
 1739SOL     OW 6115   5.619   0.226   3.220
 1739SOL    HW1 6116   5.587   0.238   3.126
 1739SOL    HW2 6117   5.613   0.313   3.269
 1740SOL     OW 6118   0.095   2.149   5.030
 1740SOL    HW1 6119   0.184   2.189   5.052
 1740SOL    HW2 6120   0.109   2.068   4.972
 1741SOL     OW 6121   1.447   1.878   4.414
 1741SOL    HW1 6122   1.375   1.939   4.379
 1741SOL    HW2 6123   1.528   1.933   4.436
 1742SOL     OW 6124   6.315   0.141   6.129
 1742SOL    HW1 6125   6.246   0.165   6.061
 1742SOL    HW2 6126   6.347   0.224   6.175
 1743SOL     OW 6127   1.048   1.386   3.286
 1743SOL    HW1 6128   0.970   1.372   3.348
 1743SOL    HW2 6129   1.024   1.355   3.194
 1744SOL     OW 6130   5.199   2.468   3.602
 1744SOL    HW1 6131   5.281   2.479   3.545
 1744SOL    HW2 6132   5.130   2.415   3.551
 1745SOL     OW 6133   6.009   6.136   1.000
 1745SOL    HW1 6134   5.921   6.181   0.982
 1745SOL    HW2 6135   6.056   6.185   1.074
 1746SOL     OW 6136   1.495   3.815   3.792
 1746SOL    HW1 6137   1.591   3.804   3.815
 1746SOL    HW2 6138   1.445   3.848   3.872
 1747SOL     OW 6139   3.688   1.640   1.729
 1747SOL    HW1 6140   3.665   1.573   1.799
 1747SOL    HW2 6141   3.657   1.731   1.758
 1748SOL     OW 6142   6.533   1.548   4.411
 1748SOL    HW1 6143   6.483   1.534   4.326
 1748SOL    HW2 6144   6.553   1.459   4.453
 1749SOL     OW 6145   2.621   5.774   0.989
 1749SOL    HW1 6146   2.712   5.815   1.001
 1749SOL    HW2 6147   2.569   5.828   0.923
 1750SOL     OW 6148   4.426   0.900   5.049
 1750SOL    HW1 6149   4.508   0.844   5.060
 1750SOL    HW2 6150   4.406   0.948   5.134
 1751SOL     OW 6151   6.392   2.368   5.204
 1751SOL    HW1 6152   6.462   2.419   5.254
 1751SOL    HW2 6153   6.433   2.326   5.123
 1752SOL     OW 6154   6.598   1.497   1.115
 1752SOL    HW1 6155   6.576   1.458   1.026
 1752SOL    HW2 6156   6.529   1.470   1.181
 1753SOL     OW 6157   6.892   1.590   1.527
 1753SOL    HW1 6158   6.838   1.670   1.500
 1753SOL    HW2 6159   6.895   1.525   1.451
 1754SOL     OW 6160   3.366   5.850   5.899
 1754SOL    HW1 6161   3.398   5.815   5.811
 1754SOL    HW2 6162   3.272   5.821   5.915
 1755SOL     OW 6163   6.461   6.972   5.051
 1755SOL    HW1 6164   6.431   6.879   5.030
 1755SOL    HW2 6165   6.479   6.980   5.149
 1756SOL     OW 6166   5.335   0.347   5.917
 1756SOL    HW1 6167   5.283   0.262   5.912
 1756SOL    HW2 6168   5.425   0.334   5.875
 1757SOL     OW 6169   2.531   5.176   3.908
 1757SOL    HW1 6170   2.542   5.082   3.875
 1757SOL    HW2 6171   2.617   5.225   3.899
 1758SOL     OW 6172   2.199   6.836   5.419
 1758SOL    HW1 6173   2.177   6.933   5.418
 1758SOL    HW2 6174   2.203   6.802   5.325
 1759SOL     OW 6175   1.117   5.895   6.535
 1759SOL    HW1 6176   1.167   5.910   6.620
 1759SOL    HW2 6177   1.022   5.873   6.556
 1760SOL     OW 6178   6.266   0.763   4.681
 1760SOL    HW1 6179   6.177   0.718   4.689
 1760SOL    HW2 6180   6.310   0.734   4.596
 1761SOL     OW 6181   6.973   1.715   1.163
 1761SOL    HW1 6182   6.927   1.748   1.080
 1761SOL    HW2 6183   0.008   1.633   1.140
 1762SOL     OW 6184   1.113   1.694   5.225
 1762SOL    HW1 6185   1.127   1.734   5.315
 1762SOL    HW2 6186   1.186   1.628   5.206
 1763SOL     OW 6187   1.488   3.767   4.975
 1763SOL    HW1 6188   1.561   3.777   4.908
 1763SOL    HW2 6189   1.450   3.858   4.996
 1764SOL     OW 6190   1.621   4.109   1.858
 1764SOL    HW1 6191   1.624   4.112   1.758
 1764SOL    HW2 6192   1.693   4.048   1.891
 1765SOL     OW 6193   4.886   3.133   1.811
 1765SOL    HW1 6194   4.828   3.077   1.869
 1765SOL    HW2 6195   4.949   3.187   1.868
 1766SOL     OW 6196   4.497   4.762   3.716
 1766SOL    HW1 6197   4.526   4.857   3.699
 1766SOL    HW2 6198   4.524   4.735   3.808
 1767SOL     OW 6199   6.895   5.679   2.249
 1767SOL    HW1 6200   6.799   5.706   2.250
 1767SOL    HW2 6201   6.928   5.668   2.342
 1768SOL     OW 6202   4.640   6.049   1.834
 1768SOL    HW1 6203   4.554   6.014   1.872
 1768SOL    HW2 6204   4.716   6.020   1.892
 1769SOL     OW 6205   6.060   0.808   6.607
 1769SOL    HW1 6206   5.974   0.756   6.605
 1769SOL    HW2 6207   6.137   0.745   6.598
 1770SOL     OW 6208   1.334   4.786   5.381
 1770SOL    HW1 6209   1.259   4.722   5.368
 1770SOL    HW2 6210   1.306   4.859   5.443
 1771SOL     OW 6211   1.021   4.061   6.976
 1771SOL    HW1 6212   1.011   4.117   6.894
 1771SOL    HW2 6213   1.063   3.974   6.951
 1772SOL     OW 6214   2.950   4.842   3.766
 1772SOL    HW1 6215   3.007   4.919   3.735
 1772SOL    HW2 6216   2.953   4.836   3.865
 1773SOL     OW 6217   1.356   0.364   4.707
 1773SOL    HW1 6218   1.444   0.405   4.732
 1773SOL    HW2 6219   1.284   0.434   4.711
 1774SOL     OW 6220   6.073   6.564   1.617
 1774SOL    HW1 6221   6.133   6.510   1.676
 1774SOL    HW2 6222   6.090   6.540   1.522
 1775SOL     OW 6223   1.532   5.249   6.850
 1775SOL    HW1 6224   1.453   5.198   6.884
 1775SOL    HW2 6225   1.501   5.323   6.791
 1776SOL     OW 6226   4.451   1.059   5.483
 1776SOL    HW1 6227   4.475   1.113   5.564
 1776SOL    HW2 6228   4.530   1.005   5.455
 1777SOL     OW 6229   4.126   6.345   6.483
 1777SOL    HW1 6230   4.221   6.335   6.512
 1777SOL    HW2 6231   4.106   6.442   6.467
 1778SOL     OW 6232   5.381   1.166   3.821
 1778SOL    HW1 6233   5.427   1.247   3.857
 1778SOL    HW2 6234   5.443   1.117   3.760
 1779SOL     OW 6235   5.571   0.069   4.570
 1779SOL    HW1 6236   5.584   0.065   4.670
 1779SOL    HW2 6237   5.562   6.996   4.534
 1780SOL     OW 6238   1.379   5.018   4.936
 1780SOL    HW1 6239   1.332   5.046   5.020
 1780SOL    HW2 6240   1.374   5.093   4.869
 1781SOL     OW 6241   4.271   0.152   4.083
 1781SOL    HW1 6242   4.358   0.102   4.089
 1781SOL    HW2 6243   4.233   0.164   4.174
 1782SOL     OW 6244   1.789   2.017   2.405
 1782SOL    HW1 6245   1.860   1.996   2.337
 1782SOL    HW2 6246   1.832   2.041   2.492
 1783SOL     OW 6247   2.050   3.873   5.627
 1783SOL    HW1 6248   2.059   3.822   5.542
 1783SOL    HW2 6249   2.141   3.898   5.660
 1784SOL     OW 6250   2.379   0.490   0.828
 1784SOL    HW1 6251   2.333   0.435   0.898
 1784SOL    HW2 6252   2.324   0.571   0.808
 1785SOL     OW 6253   0.696   6.895   4.566
 1785SOL    HW1 6254   0.608   6.905   4.614
 1785SOL    HW2 6255   0.771   6.913   4.630
 1786SOL     OW 6256   1.931   5.435   0.820
 1786SOL    HW1 6257   1.879   5.520   0.810
 1786SOL    HW2 6258   1.920   5.400   0.912
 1787SOL     OW 6259   1.979   3.039   5.705
 1787SOL    HW1 6260   2.066   3.029   5.753
 1787SOL    HW2 6261   1.979   2.982   5.623
 1788SOL     OW 6262   4.940   4.208   0.829
 1788SOL    HW1 6263   4.861   4.183   0.885
 1788SOL    HW2 6264   4.910   4.222   0.734
 1789SOL     OW 6265   6.867   3.737   1.600
 1789SOL    HW1 6266   6.870   3.784   1.688
 1789SOL    HW2 6267   6.779   3.691   1.590
 1790SOL     OW 6268   2.955   1.981   4.482
 1790SOL    HW1 6269   2.878   1.934   4.524
 1790SOL    HW2 6270   2.925   2.027   4.399
 1791SOL     OW 6271   6.120   0.907   3.866
 1791SOL    HW1 6272   6.054   0.838   3.896
 1791SOL    HW2 6273   6.213   0.873   3.881
 1792SOL     OW 6274   6.915   2.250   5.255
 1792SOL    HW1 6275   6.918   2.150   5.260
 1792SOL    HW2 6276   6.963   2.280   5.173
 1793SOL     OW 6277   0.567   1.219   5.153
 1793SOL    HW1 6278   0.556   1.170   5.066
 1793SOL    HW2 6279   0.647   1.184   5.202
 1794SOL     OW 6280   6.911   0.451   6.362
 1794SOL    HW1 6281   6.942   0.497   6.446
 1794SOL    HW2 6282   6.943   0.501   6.282
 1795SOL     OW 6283   6.098   4.595   0.309
 1795SOL    HW1 6284   6.171   4.614   0.243
 1795SOL    HW2 6285   6.118   4.640   0.395
 1796SOL     OW 6286   1.310   0.012   5.039
 1796SOL    HW1 6287   1.316   0.034   4.941
 1796SOL    HW2 6288   1.348   6.940   5.054
 1797SOL     OW 6289   2.181   6.121   4.879
 1797SOL    HW1 6290   2.264   6.177   4.880
 1797SOL    HW2 6291   2.119   6.153   4.950
 1798SOL     OW 6292   3.403   3.607   4.743
 1798SOL    HW1 6293   3.349   3.523   4.740
 1798SOL    HW2 6294   3.362   3.676   4.684
 1799SOL     OW 6295   3.241   0.492   6.971
 1799SOL    HW1 6296   3.196   0.579   6.991
 1799SOL    HW2 6297   3.270   0.449   0.037
 1800SOL     OW 6298   4.895   3.998   4.098
 1800SOL    HW1 6299   4.990   4.031   4.101
 1800SOL    HW2 6300   4.833   4.076   4.092
 1801SOL     OW 6301   1.250   1.217   1.959
 1801SOL    HW1 6302   1.276   1.309   1.989
 1801SOL    HW2 6303   1.191   1.223   1.878
 1802SOL     OW 6304   6.175   5.015   3.654
 1802SOL    HW1 6305   6.095   4.966   3.687
 1802SOL    HW2 6306   6.147   5.083   3.586
 1803SOL     OW 6307   0.265   6.061   2.829
 1803SOL    HW1 6308   0.319   6.135   2.869
 1803SOL    HW2 6309   0.168   6.086   2.830
 1804SOL     OW 6310   3.102   3.854   6.201
 1804SOL    HW1 6311   3.164   3.792   6.249
 1804SOL    HW2 6312   3.044   3.802   6.138
 1805SOL     OW 6313   0.302   6.479   6.465
 1805SOL    HW1 6314   0.246   6.430   6.532
 1805SOL    HW2 6315   0.365   6.540   6.513
 1806SOL     OW 6316   6.971   2.589   2.335
 1806SOL    HW1 6317   6.971   2.499   2.290
 1806SOL    HW2 6318   0.043   2.608   2.372
 1807SOL     OW 6319   6.202   3.966   1.419
 1807SOL    HW1 6320   6.214   4.037   1.350
 1807SOL    HW2 6321   6.133   3.996   1.486
 1808SOL     OW 6322   5.072   2.440   5.861
 1808SOL    HW1 6323   4.985   2.400   5.829
 1808SOL    HW2 6324   5.127   2.465   5.782
 1809SOL     OW 6325   3.643   2.084   5.126
 1809SOL    HW1 6326   3.726   2.110   5.175
 1809SOL    HW2 6327   3.663   2.076   5.028
 1810SOL     OW 6328   0.483   6.859   3.990
 1810SOL    HW1 6329   0.512   6.803   4.067
 1810SOL    HW2 6330   0.500   6.811   3.905
 1811SOL     OW 6331   3.781   5.183   2.355
 1811SOL    HW1 6332   3.854   5.176   2.288
 1811SOL    HW2 6333   3.776   5.276   2.390
 1812SOL     OW 6334   4.442   0.517   6.497
 1812SOL    HW1 6335   4.521   0.458   6.503
 1812SOL    HW2 6336   4.373   0.489   6.565
 1813SOL     OW 6337   4.439   4.983   2.984
 1813SOL    HW1 6338   4.505   4.966   2.911
 1813SOL    HW2 6339   4.363   5.038   2.949
 1814SOL     OW 6340   0.727   6.634   0.683
 1814SOL    HW1 6341   0.635   6.674   0.690
 1814SOL    HW2 6342   0.726   6.542   0.722
 1815SOL     OW 6343   5.781   5.823   2.269
 1815SOL    HW1 6344   5.875   5.852   2.251
 1815SOL    HW2 6345   5.741   5.884   2.338
 1816SOL     OW 6346   4.188   5.860   5.597
 1816SOL    HW1 6347   4.264   5.900   5.648
 1816SOL    HW2 6348   4.127   5.811   5.659
 1817SOL     OW 6349   2.475   1.544   3.389
 1817SOL    HW1 6350   2.559   1.489   3.388
 1817SOL    HW2 6351   2.439   1.553   3.296
 1818SOL     OW 6352   2.224   6.437   6.951
 1818SOL    HW1 6353   2.181   6.445   0.022
 1818SOL    HW2 6354   2.324   6.437   6.962
 1819SOL     OW 6355   1.643   4.954   2.946
 1819SOL    HW1 6356   1.593   5.041   2.948
 1819SOL    HW2 6357   1.681   4.936   3.037
 1820SOL     OW 6358   4.289   7.019   3.383
 1820SOL    HW1 6359   4.216   0.049   3.334
 1820SOL    HW2 6360   4.248   6.958   3.451
 1821SOL     OW 6361   4.224   1.153   2.161
 1821SOL    HW1 6362   4.208   1.055   2.168
 1821SOL    HW2 6363   4.246   1.176   2.066
 1822SOL     OW 6364   0.638   2.884   2.127
 1822SOL    HW1 6365   0.559   2.920   2.077
 1822SOL    HW2 6366   0.662   2.794   2.090
 1823SOL     OW 6367   3.683   6.916   2.473
 1823SOL    HW1 6368   3.616   6.975   2.517
 1823SOL    HW2 6369   3.660   6.903   2.377
 1824SOL     OW 6370   4.241   3.869   0.932
 1824SOL    HW1 6371   4.169   3.875   1.001
 1824SOL    HW2 6372   4.208   3.906   0.846
 1825SOL     OW 6373   1.658   2.186   5.350
 1825SOL    HW1 6374   1.662   2.175   5.251
 1825SOL    HW2 6375   1.722   2.122   5.393
 1826SOL     OW 6376   3.292   2.100   2.067
 1826SOL    HW1 6377   3.300   2.163   2.144
 1826SOL    HW2 6378   3.383   2.069   2.040
 1827SOL     OW 6379   5.878   4.770   0.159
 1827SOL    HW1 6380   5.806   4.811   0.216
 1827SOL    HW2 6381   5.902   4.680   0.195
 1828SOL     OW 6382   1.388   3.500   5.840
 1828SOL    HW1 6383   1.350   3.449   5.917
 1828SOL    HW2 6384   1.484   3.477   5.828
 1829SOL     OW 6385   3.713   0.551   3.964
 1829SOL    HW1 6386   3.701   0.641   4.007
 1829SOL    HW2 6387   3.659   0.483   4.014
 1830SOL     OW 6388   5.839   6.941   4.728
 1830SOL    HW1 6389   5.841   6.980   4.636
 1830SOL    HW2 6390   5.787   7.000   4.789
 1831SOL     OW 6391   5.102   5.429   2.970
 1831SOL    HW1 6392   5.030   5.370   2.933
 1831SOL    HW2 6393   5.063   5.490   3.038
 1832SOL     OW 6394   2.471   3.597   0.856
 1832SOL    HW1 6395   2.501   3.508   0.824
 1832SOL    HW2 6396   2.377   3.613   0.828
 1833SOL     OW 6397   4.744   0.325   1.539
 1833SOL    HW1 6398   4.719   0.247   1.482
 1833SOL    HW2 6399   4.798   0.293   1.617
 1834SOL     OW 6400   2.088   2.438   0.083
 1834SOL    HW1 6401   2.010   2.426   0.145
 1834SOL    HW2 6402   2.153   2.364   0.098
 1835SOL     OW 6403   6.945   5.057   1.603
 1835SOL    HW1 6404   6.994   5.048   1.689
 1835SOL    HW2 6405   6.949   4.971   1.553
 1836SOL     OW 6406   5.301   1.894   1.729
 1836SOL    HW1 6407   5.203   1.877   1.720
 1836SOL    HW2 6408   5.317   1.991   1.749
 1837SOL     OW 6409   2.784   1.027   6.150
 1837SOL    HW1 6410   2.823   1.114   6.118
 1837SOL    HW2 6411   2.684   1.033   6.147
 1838SOL     OW 6412   6.116   1.522   0.654
 1838SOL    HW1 6413   6.069   1.489   0.736
 1838SOL    HW2 6414   6.048   1.545   0.584
 1839SOL     OW 6415   5.636   1.877   0.196
 1839SOL    HW1 6416   5.579   1.802   0.163
 1839SOL    HW2 6417   5.653   1.942   0.122
 1840SOL     OW 6418   4.490   6.976   2.931
 1840SOL    HW1 6419   4.468   0.050   2.962
 1840SOL    HW2 6420   4.422   6.912   2.969
 1841SOL     OW 6421   2.218   0.575   2.565
 1841SOL    HW1 6422   2.304   0.571   2.514
 1841SOL    HW2 6423   2.142   0.577   2.501
 1842SOL     OW 6424   1.535   4.904   0.508
 1842SOL    HW1 6425   1.563   4.952   0.425
 1842SOL    HW2 6426   1.536   4.805   0.492
 1843SOL     OW 6427   3.414   1.279   4.575
 1843SOL    HW1 6428   3.507   1.308   4.598
 1843SOL    HW2 6429   3.349   1.336   4.625
 1844SOL     OW 6430   4.458   1.825   6.940
 1844SOL    HW1 6431   4.385   1.757   6.948
 1844SOL    HW2 6432   4.494   1.845   0.012
 1845SOL     OW 6433   2.440   1.180   3.138
 1845SOL    HW1 6434   2.351   1.184   3.185
 1845SOL    HW2 6435   2.510   1.222   3.196
 1846SOL     OW 6436   4.621   1.152   2.786
 1846SOL    HW1 6437   4.687   1.078   2.797
 1846SOL    HW2 6438   4.562   1.156   2.867
 1847SOL     OW 6439   2.099   0.206   4.629
 1847SOL    HW1 6440   2.146   0.280   4.581
 1847SOL    HW2 6441   2.126   0.118   4.589
 1848SOL     OW 6442   2.024   5.649   4.187
 1848SOL    HW1 6443   2.042   5.627   4.091
 1848SOL    HW2 6444   2.107   5.635   4.241
 1849SOL     OW 6445   4.569   2.447   2.508
 1849SOL    HW1 6446   4.655   2.445   2.456
 1849SOL    HW2 6447   4.560   2.535   2.555
 1850SOL     OW 6448   5.259   2.453   2.040
 1850SOL    HW1 6449   5.193   2.526   2.024
 1850SOL    HW2 6450   5.302   2.466   2.130
 1851SOL     OW 6451   0.139   3.206   5.935
 1851SOL    HW1 6452   0.158   3.109   5.920
 1851SOL    HW2 6453   0.050   3.215   5.981
 1852SOL     OW 6454   1.581   4.920   1.893
 1852SOL    HW1 6455   1.495   4.898   1.939
 1852SOL    HW2 6456   1.621   5.003   1.935
 1853SOL     OW 6457   0.757   3.179   4.706
 1853SOL    HW1 6458   0.807   3.185   4.792
 1853SOL    HW2 6459   0.690   3.253   4.701
 1854SOL     OW 6460   0.449   5.933   3.279
 1854SOL    HW1 6461   0.532   5.941   3.334
 1854SOL    HW2 6462   0.471   5.891   3.191
 1855SOL     OW 6463   4.998   3.438   4.912
 1855SOL    HW1 6464   4.948   3.518   4.946
 1855SOL    HW2 6465   5.008   3.372   4.986
 1856SOL     OW 6466   3.958   3.942   7.009
 1856SOL    HW1 6467   4.012   3.911   6.931
 1856SOL    HW2 6468   3.882   3.878   0.005
 1857SOL     OW 6469   5.134   0.927   0.198
 1857SOL    HW1 6470   5.161   0.866   0.124
 1857SOL    HW2 6471   5.051   0.976   0.173
 1858SOL     OW 6472   4.535   2.561   4.395
 1858SOL    HW1 6473   4.568   2.647   4.434
 1858SOL    HW2 6474   4.584   2.485   4.437
 1859SOL     OW 6475   6.081   2.185   4.731
 1859SOL    HW1 6476   6.074   2.157   4.635
 1859SOL    HW2 6477   6.056   2.282   4.739
 1860SOL     OW 6478   1.331   1.627   4.863
 1860SOL    HW1 6479   1.372   1.537   4.879
 1860SOL    HW2 6480   1.266   1.622   4.787
 1861SOL     OW 6481   6.715   0.861   3.079
 1861SOL    HW1 6482   6.690   0.779   3.130
 1861SOL    HW2 6483   6.635   0.919   3.066
 1862SOL     OW 6484   2.008   6.258   6.610
 1862SOL    HW1 6485   1.984   6.191   6.680
 1862SOL    HW2 6486   2.107   6.259   6.597
 1863SOL     OW 6487   0.251   3.163   1.532
 1863SOL    HW1 6488   0.272   3.242   1.589
 1863SOL    HW2 6489   0.166   3.179   1.482
 1864SOL     OW 6490   3.245   6.406   3.171
 1864SOL    HW1 6491   3.271   6.340   3.242
 1864SOL    HW2 6492   3.252   6.499   3.208
 1865SOL     OW 6493   5.015   1.257   6.909
 1865SOL    HW1 6494   5.081   1.189   6.940
 1865SOL    HW2 6495   4.997   1.323   6.981
 1866SOL     OW 6496   0.883   4.484   4.061
 1866SOL    HW1 6497   0.885   4.543   3.980
 1866SOL    HW2 6498   0.942   4.405   4.045
 1867SOL     OW 6499   2.439   2.147   1.143
 1867SOL    HW1 6500   2.489   2.199   1.212
 1867SOL    HW2 6501   2.371   2.207   1.100
 1868SOL     OW 6502   5.694   4.313   5.700
 1868SOL    HW1 6503   5.643   4.366   5.633
 1868SOL    HW2 6504   5.750   4.374   5.756
 1869SOL     OW 6505   4.633   2.184   4.140
 1869SOL    HW1 6506   4.707   2.134   4.185
 1869SOL    HW2 6507   4.672   2.248   4.074
 1870SOL     OW 6508   1.531   4.284   4.173
 1870SOL    HW1 6509   1.619   4.267   4.218
 1870SOL    HW2 6510   1.540   4.362   4.111
 1871SOL     OW 6511   0.908   6.325   0.560
 1871SOL    HW1 6512   0.951   6.332   0.650
 1871SOL    HW2 6513   0.974   6.348   0.489
 1872SOL     OW 6514   2.891   2.178   0.644
 1872SOL    HW1 6515   2.795   2.166   0.668
 1872SOL    HW2 6516   2.898   2.222   0.555
 1873SOL     OW 6517   6.239   0.967   0.032
 1873SOL    HW1 6518   6.218   0.887   6.995
 1873SOL    HW2 6519   6.174   1.040   0.011
 1874SOL     OW 6520   1.232   6.190   6.534
 1874SOL    HW1 6521   1.162   6.254   6.501
 1874SOL    HW2 6522   1.252   6.123   6.463
 1875SOL     OW 6523   6.133   5.345   0.023
 1875SOL    HW1 6524   6.109   5.432   7.000
 1875SOL    HW2 6525   6.061   5.279   0.006
 1876SOL     OW 6526   5.790   6.625   6.406
 1876SOL    HW1 6527   5.881   6.649   6.439
 1876SOL    HW2 6528   5.790   6.530   6.375
 1877SOL     OW 6529   0.236   1.170   2.462
 1877SOL    HW1 6530   0.226   1.125   2.373
 1877SOL    HW2 6531   0.323   1.143   2.503
 1878SOL     OW 6532   0.410   4.650   3.186
 1878SOL    HW1 6533   0.325   4.692   3.217
 1878SOL    HW2 6534   0.460   4.714   3.128
 1879SOL     OW 6535   3.584   5.704   5.134
 1879SOL    HW1 6536   3.628   5.721   5.046
 1879SOL    HW2 6537   3.522   5.626   5.126
 1880SOL     OW 6538   0.055   2.098   3.604
 1880SOL    HW1 6539   0.006   2.032   3.660
 1880SOL    HW2 6540   0.030   2.085   3.508
 1881SOL     OW 6541   0.674   2.117   3.928
 1881SOL    HW1 6542   0.764   2.158   3.938
 1881SOL    HW2 6543   0.682   2.017   3.929
 1882SOL     OW 6544   1.366   6.039   7.017
 1882SOL    HW1 6545   1.294   6.085   0.052
 1882SOL    HW2 6546   1.398   6.101   6.946
 1883SOL     OW 6547   1.376   3.633   2.815
 1883SOL    HW1 6548   1.417   3.720   2.790
 1883SOL    HW2 6549   1.311   3.647   2.890
 1884SOL     OW 6550   2.866   0.694   0.734
 1884SOL    HW1 6551   2.862   0.599   0.704
 1884SOL    HW2 6552   2.923   0.747   0.671
 1885SOL     OW 6553   0.137   2.880   0.879
 1885SOL    HW1 6554   0.192   2.867   0.962
 1885SOL    HW2 6555   0.139   2.796   0.825
 1886SOL     OW 6556   2.135   2.017   6.926
 1886SOL    HW1 6557   2.152   2.086   6.856
 1886SOL    HW2 6558   2.087   1.939   6.886
 1887SOL     OW 6559   1.038   5.817   5.588
 1887SOL    HW1 6560   0.986   5.815   5.503
 1887SOL    HW2 6561   1.031   5.729   5.634
 1888SOL     OW 6562   2.352   1.886   6.447
 1888SOL    HW1 6563   2.336   1.849   6.538
 1888SOL    HW2 6564   2.417   1.962   6.453
 1889SOL     OW 6565   4.220   2.889   0.194
 1889SOL    HW1 6566   4.163   2.889   0.277
 1889SOL    HW2 6567   4.296   2.826   0.206
 1890SOL     OW 6568   0.379   5.765   6.342
 1890SOL    HW1 6569   0.387   5.752   6.243
 1890SOL    HW2 6570   0.286   5.745   6.371
 1891SOL     OW 6571   5.408   3.576   5.448
 1891SOL    HW1 6572   5.466   3.530   5.380
 1891SOL    HW2 6573   5.404   3.673   5.427
 1892SOL     OW 6574   3.596   5.083   1.536
 1892SOL    HW1 6575   3.588   5.122   1.628
 1892SOL    HW2 6576   3.520   5.115   1.479
 1893SOL     OW 6577   3.785   2.126   3.616
 1893SOL    HW1 6578   3.813   2.181   3.538
 1893SOL    HW2 6579   3.858   2.125   3.685
 1894SOL     OW 6580   4.666   3.831   1.466
 1894SOL    HW1 6581   4.698   3.737   1.472
 1894SOL    HW2 6582   4.571   3.832   1.435
 1895SOL     OW 6583   6.159   1.107   2.994
 1895SOL    HW1 6584   6.061   1.126   3.002
 1895SOL    HW2 6585   6.178   1.066   2.904
 1896SOL     OW 6586   6.341   1.653   4.584
 1896SOL    HW1 6587   6.268   1.717   4.556
 1896SOL    HW2 6588   6.391   1.624   4.502
 1897SOL     OW 6589   5.682   4.845   2.970
 1897SOL    HW1 6590   5.722   4.931   3.001
 1897SOL    HW2 6591   5.589   4.861   2.938
 1898SOL     OW 6592   5.201   5.674   1.259
 1898SOL    HW1 6593   5.106   5.684   1.288
 1898SOL    HW2 6594   5.248   5.761   1.267
 1899SOL     OW 6595   0.169   2.979   3.072
 1899SOL    HW1 6596   0.259   3.002   3.108
 1899SOL    HW2 6597   0.171   2.888   3.030
 1900SOL     OW 6598   1.528   5.976   6.149
 1900SOL    HW1 6599   1.561   5.946   6.238
 1900SOL    HW2 6600   1.581   5.931   6.077
 1901SOL     OW 6601   1.419   0.147   7.004
 1901SOL    HW1 6602   1.440   0.069   6.946
 1901SOL    HW2 6603   1.500   0.174   0.037
 1902SOL     OW 6604   0.576   2.897   4.368
 1902SOL    HW1 6605   0.590   2.950   4.284
 1902SOL    HW2 6606   0.593   2.956   4.447
 1903SOL     OW 6607   6.342   3.979   3.115
 1903SOL    HW1 6608   6.346   3.933   3.204
 1903SOL    HW2 6609   6.381   3.919   3.045
 1904SOL     OW 6610   6.873   0.398   3.787
 1904SOL    HW1 6611   6.834   0.488   3.772
 1904SOL    HW2 6612   6.844   0.336   3.714
 1905SOL     OW 6613   0.506   2.470   4.242
 1905SOL    HW1 6614   0.558   2.436   4.320
 1905SOL    HW2 6615   0.565   2.474   4.162
 1906SOL     OW 6616   2.182   6.404   6.067
 1906SOL    HW1 6617   2.275   6.388   6.100
 1906SOL    HW2 6618   2.123   6.429   6.145
 1907SOL     OW 6619   3.229   6.598   3.360
 1907SOL    HW1 6620   3.289   6.678   3.352
 1907SOL    HW2 6621   3.231   6.566   3.455
 1908SOL     OW 6622   4.115   1.540   5.885
 1908SOL    HW1 6623   4.153   1.455   5.923
 1908SOL    HW2 6624   4.078   1.595   5.959
 1909SOL     OW 6625   1.982   4.599   4.690
 1909SOL    HW1 6626   2.037   4.602   4.606
 1909SOL    HW2 6627   1.994   4.511   4.735
 1910SOL     OW 6628   5.108   2.279   6.218
 1910SOL    HW1 6629   5.017   2.290   6.258
 1910SOL    HW2 6630   5.140   2.367   6.183
 1911SOL     OW 6631   6.606   2.477   5.314
 1911SOL    HW1 6632   6.659   2.403   5.355
 1911SOL    HW2 6633   6.653   2.564   5.328
 1912SOL     OW 6634   3.022   6.782   2.553
 1912SOL    HW1 6635   3.031   6.871   2.510
 1912SOL    HW2 6636   3.084   6.776   2.631
 1913SOL     OW 6637   1.481   5.722   4.986
 1913SOL    HW1 6638   1.390   5.720   5.028
 1913SOL    HW2 6639   1.471   5.722   4.886
 1914SOL     OW 6640   2.618   2.543   6.126
 1914SOL    HW1 6641   2.677   2.614   6.088
 1914SOL    HW2 6642   2.539   2.528   6.066
 1915SOL     OW 6643   4.238   0.490   6.147
 1915SOL    HW1 6644   4.256   0.493   6.048
 1915SOL    HW2 6645   4.257   0.399   6.182
 1916SOL     OW 6646   3.185   5.660   1.982
 1916SOL    HW1 6647   3.271   5.618   2.014
 1916SOL    HW2 6648   3.108   5.606   2.015
 1917SOL     OW 6649   2.939   3.615   4.479
 1917SOL    HW1 6650   2.943   3.576   4.572
 1917SOL    HW2 6651   2.935   3.714   4.485
 1918SOL     OW 6652   5.823   5.973   5.731
 1918SOL    HW1 6653   5.898   6.024   5.691
 1918SOL    HW2 6654   5.852   5.878   5.747
 1919SOL     OW 6655   0.801   6.172   2.207
 1919SOL    HW1 6656   0.830   6.076   2.206
 1919SOL    HW2 6657   0.746   6.190   2.289
 1920SOL     OW 6658   0.259   5.607   3.685
 1920SOL    HW1 6659   0.253   5.579   3.781
 1920SOL    HW2 6660   0.327   5.680   3.675
 1921SOL     OW 6661   1.398   5.730   6.680
 1921SOL    HW1 6662   1.465   5.770   6.617
 1921SOL    HW2 6663   1.345   5.802   6.724
 1922SOL     OW 6664   3.794   3.354   1.568
 1922SOL    HW1 6665   3.731   3.278   1.588
 1922SOL    HW2 6666   3.829   3.392   1.653
 1923SOL     OW 6667   2.310   0.983   1.299
 1923SOL    HW1 6668   2.263   1.003   1.384
 1923SOL    HW2 6669   2.397   1.032   1.296
 1924SOL     OW 6670   6.649   4.490   2.134
 1924SOL    HW1 6671   6.682   4.396   2.126
 1924SOL    HW2 6672   6.581   4.495   2.207
 1925SOL     OW 6673   3.240   3.901   1.635
 1925SOL    HW1 6674   3.327   3.872   1.676
 1925SOL    HW2 6675   3.220   3.995   1.664
 1926SOL     OW 6676   1.574   0.083   4.581
 1926SOL    HW1 6677   1.575   0.161   4.519
 1926SOL    HW2 6678   1.511   0.014   4.546
 1927SOL     OW 6679   4.266   3.623   6.880
 1927SOL    HW1 6680   4.344   3.686   6.888
 1927SOL    HW2 6681   4.299   3.533   6.852
 1928SOL     OW 6682   6.719   3.557   5.736
 1928SOL    HW1 6683   6.630   3.510   5.736
 1928SOL    HW2 6684   6.787   3.499   5.781
 1929SOL     OW 6685   1.289   6.005   1.242
 1929SOL    HW1 6686   1.214   6.002   1.308
 1929SOL    HW2 6687   1.296   6.097   1.204
 1930SOL     OW 6688   6.383   4.360   6.302
 1930SOL    HW1 6689   6.425   4.383   6.390
 1930SOL    HW2 6690   6.290   4.328   6.317
 1931SOL     OW 6691   0.726   3.507   3.356
 1931SOL    HW1 6692   0.778   3.591   3.359
 1931SOL    HW2 6693   0.692   3.486   3.448
 1932SOL     OW 6694   4.906   4.040   1.943
 1932SOL    HW1 6695   4.861   3.970   1.887
 1932SOL    HW2 6696   4.855   4.052   2.028
 1933SOL     OW 6697   2.990   4.266   0.630
 1933SOL    HW1 6698   3.022   4.326   0.556
 1933SOL    HW2 6699   2.941   4.188   0.590
 1934SOL     OW 6700   1.039   6.992   5.757
 1934SOL    HW1 6701   1.042   6.906   5.809
 1934SOL    HW2 6702   1.059   6.973   5.661
 1935SOL     OW 6703   2.298   6.764   4.161
 1935SOL    HW1 6704   2.392   6.796   4.169
 1935SOL    HW2 6705   2.235   6.837   4.187
 1936SOL     OW 6706   5.481   5.958   4.915
 1936SOL    HW1 6707   5.414   6.032   4.925
 1936SOL    HW2 6708   5.456   5.901   4.837
 1937SOL     OW 6709   4.195   6.512   1.594
 1937SOL    HW1 6710   4.163   6.551   1.680
 1937SOL    HW2 6711   4.117   6.479   1.541
 1938SOL     OW 6712   4.107   1.360   3.449
 1938SOL    HW1 6713   4.087   1.398   3.539
 1938SOL    HW2 6714   4.154   1.272   3.458
 1939SOL     OW 6715   1.749   1.117   4.233
 1939SOL    HW1 6716   1.688   1.073   4.167
 1939SOL    HW2 6717   1.828   1.058   4.249
 1940SOL     OW 6718   6.118   5.272   6.630
 1940SOL    HW1 6719   6.032   5.231   6.661
 1940SOL    HW2 6720   6.191   5.249   6.695
 1941SOL     OW 6721   6.171   3.872   2.734
 1941SOL    HW1 6722   6.153   3.906   2.642
 1941SOL    HW2 6723   6.269   3.882   2.754
 1942SOL     OW 6724   6.092   5.769   2.264
 1942SOL    HW1 6725   6.032   5.723   2.330
 1942SOL    HW2 6726   6.073   5.867   2.264
 1943SOL     OW 6727   2.756   5.151   2.694
 1943SOL    HW1 6728   2.798   5.067   2.727
 1943SOL    HW2 6729   2.825   5.207   2.649
 1944SOL     OW 6730   5.541   1.595   6.577
 1944SOL    HW1 6731   5.489   1.589   6.492
 1944SOL    HW2 6732   5.543   1.690   6.609
 1945SOL     OW 6733   4.401   5.296   2.899
 1945SOL    HW1 6734   4.308   5.264   2.915
 1945SOL    HW2 6735   4.444   5.321   2.986
 1946SOL     OW 6736   1.599   6.831   0.701
 1946SOL    HW1 6737   1.509   6.861   0.733
 1946SOL    HW2 6738   1.589   6.778   0.617
 1947SOL     OW 6739   5.497   6.456   4.692
 1947SOL    HW1 6740   5.533   6.528   4.632
 1947SOL    HW2 6741   5.546   6.370   4.674
 1948SOL     OW 6742   0.199   5.295   4.545
 1948SOL    HW1 6743   0.127   5.315   4.612
 1948SOL    HW2 6744   0.167   5.317   4.453
 1949SOL     OW 6745   4.587   4.723   5.689
 1949SOL    HW1 6746   4.609   4.629   5.663
 1949SOL    HW2 6747   4.530   4.765   5.618
 1950SOL     OW 6748   4.014   3.569   6.541
 1950SOL    HW1 6749   3.923   3.600   6.515
 1950SOL    HW2 6750   4.009   3.476   6.577
 1951SOL     OW 6751   5.347   2.044   0.200
 1951SOL    HW1 6752   5.329   2.131   0.155
 1951SOL    HW2 6753   5.322   1.968   0.139
 1952SOL     OW 6754   3.834   1.606   1.214
 1952SOL    HW1 6755   3.806   1.581   1.306
 1952SOL    HW2 6756   3.933   1.601   1.205
 1953SOL     OW 6757   6.881   1.913   6.752
 1953SOL    HW1 6758   6.863   1.854   6.673
 1953SOL    HW2 6759   6.804   1.975   6.766
 1954SOL     OW 6760   5.105   2.047   3.468
 1954SOL    HW1 6761   5.087   2.145   3.477
 1954SOL    HW2 6762   5.056   1.998   3.539
 1955SOL     OW 6763   1.271   6.960   2.318
 1955SOL    HW1 6764   1.214   6.895   2.268
 1955SOL    HW2 6765   1.279   0.025   2.265
 1956SOL     OW 6766   5.084   5.874   3.030
 1956SOL    HW1 6767   5.039   5.916   2.951
 1956SOL    HW2 6768   5.137   5.795   2.999
 1957SOL     OW 6769   0.245   5.780   4.671
 1957SOL    HW1 6770   0.260   5.836   4.753
 1957SOL    HW2 6771   0.232   5.840   4.592
 1958SOL     OW 6772   5.477   3.318   5.038
 1958SOL    HW1 6773   5.559   3.309   4.982
 1958SOL    HW2 6774   5.398   3.336   4.979
 1959SOL     OW 6775   1.100   2.807   5.940
 1959SOL    HW1 6776   1.088   2.709   5.956
 1959SOL    HW2 6777   1.023   2.842   5.887
 1960SOL     OW 6778   6.389   4.979   0.784
 1960SOL    HW1 6779   6.428   4.953   0.695
 1960SOL    HW2 6780   6.347   4.898   0.826
 1961SOL     OW 6781   5.810   4.774   3.936
 1961SOL    HW1 6782   5.757   4.842   3.985
 1961SOL    HW2 6783   5.860   4.717   4.001
 1962SOL     OW 6784   1.452   6.198   3.627
 1962SOL    HW1 6785   1.486   6.241   3.711
 1962SOL    HW2 6786   1.530   6.170   3.570
 1963SOL     OW 6787   0.529   0.682   2.097
 1963SOL    HW1 6788   0.618   0.708   2.059
 1963SOL    HW2 6789   0.502   0.747   2.168
 1964SOL     OW 6790   4.722   2.845   1.658
 1964SOL    HW1 6791   4.630   2.814   1.632
 1964SOL    HW2 6792   4.715   2.929   1.711
 1965SOL     OW 6793   0.114   3.118   2.342
 1965SOL    HW1 6794   0.041   3.082   2.399
 1965SOL    HW2 6795   0.152   3.201   2.385
 1966SOL     OW 6796   0.274   5.004   4.625
 1966SOL    HW1 6797   0.268   5.102   4.609
 1966SOL    HW2 6798   0.340   4.964   4.561
 1967SOL     OW 6799   5.333   2.650   5.888
 1967SOL    HW1 6800   5.331   2.574   5.823
 1967SOL    HW2 6801   5.239   2.680   5.906
 1968SOL     OW 6802   2.609   5.298   6.898
 1968SOL    HW1 6803   2.570   5.364   6.833
 1968SOL    HW2 6804   2.588   5.205   6.867
 1969SOL     OW 6805   0.011   2.565   1.895
 1969SOL    HW1 6806   0.066   2.589   1.816
 1969SOL    HW2 6807   6.940   2.534   1.865
 1970SOL     OW 6808   1.708   0.627   5.953
 1970SOL    HW1 6809   1.620   0.633   5.906
 1970SOL    HW2 6810   1.776   0.682   5.904
 1971SOL     OW 6811   0.125   0.208   6.393
 1971SOL    HW1 6812   0.075   0.197   6.307
 1971SOL    HW2 6813   0.104   0.131   6.454
 1972SOL     OW 6814   0.478   3.785   3.705
 1972SOL    HW1 6815   0.500   3.723   3.781
 1972SOL    HW2 6816   0.382   3.772   3.679
 1973SOL     OW 6817   3.649   2.770   1.784
 1973SOL    HW1 6818   3.664   2.794   1.880
 1973SOL    HW2 6819   3.552   2.780   1.762
 1974SOL     OW 6820   5.891   6.210   4.285
 1974SOL    HW1 6821   5.875   6.287   4.223
 1974SOL    HW2 6822   5.932   6.243   4.370
 1975SOL     OW 6823   2.226   0.447   4.500
 1975SOL    HW1 6824   2.306   0.409   4.453
 1975SOL    HW2 6825   2.255   0.524   4.557
 1976SOL     OW 6826   0.418   6.191   0.612
 1976SOL    HW1 6827   0.469   6.106   0.605
 1976SOL    HW2 6828   0.320   6.172   0.601
 1977SOL     OW 6829   0.809   3.062   3.921
 1977SOL    HW1 6830   0.770   3.153   3.939
 1977SOL    HW2 6831   0.904   3.071   3.894
 1978SOL     OW 6832   0.959   1.568   4.251
 1978SOL    HW1 6833   0.883   1.633   4.247
 1978SOL    HW2 6834   0.970   1.525   4.161
 1979SOL     OW 6835   6.872   4.813   5.019
 1979SOL    HW1 6836   6.876   4.745   5.092
 1979SOL    HW2 6837   6.779   4.849   5.011
 1980SOL     OW 6838   3.096   0.298   0.841
 1980SOL    HW1 6839   3.096   0.199   0.851
 1980SOL    HW2 6840   3.053   0.322   0.753
 1981SOL     OW 6841   5.149   2.230   2.948
 1981SOL    HW1 6842   5.160   2.317   2.899
 1981SOL    HW2 6843   5.173   2.243   3.044
 1982SOL     OW 6844   5.905   5.323   5.166
 1982SOL    HW1 6845   5.880   5.416   5.139
 1982SOL    HW2 6846   5.941   5.273   5.087
 1983SOL     OW 6847   1.794   2.109   3.116
 1983SOL    HW1 6848   1.860   2.042   3.084
 1983SOL    HW2 6849   1.711   2.063   3.148
 1984SOL     OW 6850   4.502   1.573   6.136
 1984SOL    HW1 6851   4.450   1.521   6.068
 1984SOL    HW2 6852   4.471   1.548   6.228
 1985SOL     OW 6853   0.805   1.212   2.170
 1985SOL    HW1 6854   0.903   1.219   2.186
 1985SOL    HW2 6855   0.787   1.217   2.072
 1986SOL     OW 6856   1.186   1.947   6.763
 1986SOL    HW1 6857   1.127   1.885   6.814
 1986SOL    HW2 6858   1.218   1.901   6.680
 1987SOL     OW 6859   2.888   3.060   1.782
 1987SOL    HW1 6860   2.939   3.057   1.868
 1987SOL    HW2 6861   2.952   3.069   1.706
 1988SOL     OW 6862   4.924   4.229   6.975
 1988SOL    HW1 6863   5.021   4.238   6.953
 1988SOL    HW2 6864   4.896   4.134   6.961
 1989SOL     OW 6865   2.319   0.417   4.845
 1989SOL    HW1 6866   2.409   0.451   4.819
 1989SOL    HW2 6867   2.296   0.338   4.788
 1990SOL     OW 6868   2.879   0.648   1.675
 1990SOL    HW1 6869   2.929   0.563   1.696
 1990SOL    HW2 6870   2.788   0.644   1.716
 1991SOL     OW 6871   3.827   5.433   5.786
 1991SOL    HW1 6872   3.805   5.502   5.717
 1991SOL    HW2 6873   3.926   5.435   5.805
 1992SOL     OW 6874   2.888   0.242   5.280
 1992SOL    HW1 6875   2.977   0.233   5.325
 1992SOL    HW2 6876   2.852   0.334   5.295
 1993SOL     OW 6877   3.724   3.559   5.504
 1993SOL    HW1 6878   3.723   3.637   5.441
 1993SOL    HW2 6879   3.803   3.568   5.566
 1994SOL     OW 6880   0.361   2.217   2.195
 1994SOL    HW1 6881   0.394   2.172   2.112
 1994SOL    HW2 6882   0.380   2.315   2.190
 1995SOL     OW 6883   6.239   2.097   2.158
 1995SOL    HW1 6884   6.333   2.125   2.177
 1995SOL    HW2 6885   6.238   2.027   2.087
 1996SOL     OW 6886   3.427   2.778   0.965
 1996SOL    HW1 6887   3.515   2.787   0.918
 1996SOL    HW2 6888   3.423   2.689   1.010
 1997SOL     OW 6889   5.805   1.467   4.844
 1997SOL    HW1 6890   5.887   1.500   4.798
 1997SOL    HW2 6891   5.782   1.376   4.810
 1998SOL     OW 6892   2.990   3.799   6.674
 1998SOL    HW1 6893   2.986   3.892   6.637
 1998SOL    HW2 6894   3.062   3.747   6.628
 1999SOL     OW 6895   2.333   0.351   2.321
 1999SOL    HW1 6896   2.235   0.340   2.306
 1999SOL    HW2 6897   2.359   0.446   2.306
 2000SOL     OW 6898   4.188   1.440   4.706
 2000SOL    HW1 6899   4.165   1.344   4.718
 2000SOL    HW2 6900   4.104   1.492   4.687
 2001SOL     OW 6901   3.451   2.240   1.680
 2001SOL    HW1 6902   3.523   2.238   1.749
 2001SOL    HW2 6903   3.371   2.191   1.715
 2002SOL     OW 6904   1.497   6.218   6.009
 2002SOL    HW1 6905   1.506   6.136   6.067
 2002SOL    HW2 6906   1.571   6.220   5.942
 2003SOL     OW 6907   5.168   0.200   3.870
 2003SOL    HW1 6908   5.229   0.167   3.798
 2003SOL    HW2 6909   5.082   0.150   3.866
 2004SOL     OW 6910   4.650   0.962   4.460
 2004SOL    HW1 6911   4.717   1.004   4.398
 2004SOL    HW2 6912   4.616   1.032   4.523
 2005SOL     OW 6913   1.474   5.477   6.664
 2005SOL    HW1 6914   1.465   5.575   6.683
 2005SOL    HW2 6915   1.571   5.454   6.654
 2006SOL     OW 6916   4.840   4.359   3.807
 2006SOL    HW1 6917   4.842   4.268   3.764
 2006SOL    HW2 6918   4.768   4.414   3.764
 2007SOL     OW 6919   5.026   5.101   6.861
 2007SOL    HW1 6920   5.022   5.192   6.903
 2007SOL    HW2 6921   4.980   5.035   6.921
 2008SOL     OW 6922   0.136   5.860   3.918
 2008SOL    HW1 6923   0.101   5.945   3.878
 2008SOL    HW2 6924   0.060   5.807   3.956
 2009SOL     OW 6925   5.983   0.345   1.745
 2009SOL    HW1 6926   5.944   0.334   1.836
 2009SOL    HW2 6927   6.065   0.403   1.750
 2010SOL     OW 6928   1.653   0.758   1.143
 2010SOL    HW1 6929   1.656   0.857   1.128
 2010SOL    HW2 6930   1.744   0.719   1.130
 2011SOL     OW 6931   6.979   2.584   5.202
 2011SOL    HW1 6932   7.017   2.543   5.284
 2011SOL    HW2 6933   6.972   2.683   5.214
 2012SOL     OW 6934   0.872   3.664   1.751
 2012SOL    HW1 6935   0.851   3.733   1.683
 2012SOL    HW2 6936   0.952   3.611   1.723
 2013SOL     OW 6937   5.043   1.832   2.959
 2013SOL    HW1 6938   5.014   1.908   2.901
 2013SOL    HW2 6939   5.013   1.849   3.053
 2014SOL     OW 6940   1.169   5.834   3.262
 2014SOL    HW1 6941   1.095   5.895   3.235
 2014SOL    HW2 6942   1.238   5.829   3.190
 2015SOL     OW 6943   3.269   1.183   0.035
 2015SOL    HW1 6944   3.209   1.253   7.016
 2015SOL    HW2 6945   3.307   1.128   6.979
 2016SOL     OW 6946   0.903   5.069   4.455
 2016SOL    HW1 6947   0.999   5.067   4.427
 2016SOL    HW2 6948   0.883   5.156   4.500
 2017SOL     OW 6949   3.207   6.472   3.606
 2017SOL    HW1 6950   3.232   6.380   3.636
 2017SOL    HW2 6951   3.209   6.535   3.684
 2018SOL     OW 6952   0.079   5.573   5.446
 2018SOL    HW1 6953   0.109   5.478   5.436
 2018SOL    HW2 6954   0.043   5.606   5.359
 2019SOL     OW 6955   5.467   2.792   0.931
 2019SOL    HW1 6956   5.395   2.820   0.867
 2019SOL    HW2 6957   5.519   2.872   0.959
 2020SOL     OW 6958   1.549   4.999   5.190
 2020SOL    HW1 6959   1.559   4.994   5.091
 2020SOL    HW2 6960   1.470   5.057   5.212
 2021SOL     OW 6961   1.901   0.476   2.878
 2021SOL    HW1 6962   1.997   0.465   2.852
 2021SOL    HW2 6963   1.895   0.514   2.970
 2022SOL     OW 6964   1.799   3.810   1.953
 2022SOL    HW1 6965   1.712   3.830   1.908
 2022SOL    HW2 6966   1.782   3.756   2.035
 2023SOL     OW 6967   0.133   1.329   6.697
 2023SOL    HW1 6968   0.050   1.351   6.748
 2023SOL    HW2 6969   0.109   1.283   6.611
 2024SOL     OW 6970   6.935   1.025   2.914
 2024SOL    HW1 6971   6.962   0.969   2.835
 2024SOL    HW2 6972   6.892   0.966   2.983
 2025SOL     OW 6973   1.407   2.183   1.705
 2025SOL    HW1 6974   1.409   2.274   1.663
 2025SOL    HW2 6975   1.484   2.129   1.671
 2026SOL     OW 6976   2.206   1.798   6.153
 2026SOL    HW1 6977   2.259   1.883   6.147
 2026SOL    HW2 6978   2.219   1.758   6.244
 2027SOL     OW 6979   0.591   1.067   1.958
 2027SOL    HW1 6980   0.670   1.117   1.923
 2027SOL    HW2 6981   0.621   0.979   1.995
 2028SOL     OW 6982   3.627   1.381   0.737
 2028SOL    HW1 6983   3.712   1.357   0.691
 2028SOL    HW2 6984   3.647   1.438   0.817
 2029SOL     OW 6985   0.830   0.549   6.732
 2029SOL    HW1 6986   0.749   0.497   6.759
 2029SOL    HW2 6987   0.816   0.646   6.754
 2030SOL     OW 6988   1.939   2.230   3.791
 2030SOL    HW1 6989   1.957   2.307   3.729
 2030SOL    HW2 6990   1.994   2.241   3.874
 2031SOL     OW 6991   5.475   5.883   2.143
 2031SOL    HW1 6992   5.429   5.910   2.227
 2031SOL    HW2 6993   5.420   5.911   2.064
 2032SOL     OW 6994   5.219   6.461   0.857
 2032SOL    HW1 6995   5.194   6.369   0.889
 2032SOL    HW2 6996   5.204   6.527   0.931
 2033SOL     OW 6997   4.394   4.552   6.001
 2033SOL    HW1 6998   4.469   4.618   5.989
 2033SOL    HW2 6999   4.363   4.520   5.912
 2034SOL     OW 7000   2.109   6.182   3.321
 2034SOL    HW1 7001   2.080   6.102   3.269
 2034SOL    HW2 7002   2.146   6.154   3.409
 2035SOL     OW 7003   6.539   1.937   2.466
 2035SOL    HW1 7004   6.600   1.990   2.407
 2035SOL    HW2 7005   6.448   1.932   2.425
 2036SOL     OW 7006   0.199   5.842   1.401
 2036SOL    HW1 7007   0.204   5.742   1.398
 2036SOL    HW2 7008   0.291   5.880   1.399
 2037SOL     OW 7009   6.693   2.454   5.774
 2037SOL    HW1 7010   6.662   2.484   5.864
 2037SOL    HW2 7011   6.768   2.389   5.784
 2038SOL     OW 7012   1.099   1.770   6.159
 2038SOL    HW1 7013   1.091   1.670   6.158
 2038SOL    HW2 7014   1.022   1.809   6.210
 2039SOL     OW 7015   0.340   6.092   3.639
 2039SOL    HW1 7016   0.337   6.186   3.674
 2039SOL    HW2 7017   0.435   6.061   3.636
 2040SOL     OW 7018   3.808   3.014   4.458
 2040SOL    HW1 7019   3.741   3.022   4.384
 2040SOL    HW2 7020   3.881   3.080   4.445
 2041SOL     OW 7021   6.082   5.621   6.277
 2041SOL    HW1 7022   6.177   5.634   6.250
 2041SOL    HW2 7023   6.060   5.523   6.276
 2042SOL     OW 7024   5.763   5.276   0.685
 2042SOL    HW1 7025   5.685   5.259   0.626
 2042SOL    HW2 7026   5.848   5.255   0.636
 2043SOL     OW 7027   6.475   5.338   2.191
 2043SOL    HW1 7028   6.548   5.322   2.259
 2043SOL    HW2 7029   6.510   5.395   2.117
 2044SOL     OW 7030   5.384   0.560   1.651
 2044SOL    HW1 7031   5.364   0.488   1.584
 2044SOL    HW2 7032   5.328   0.545   1.732
 2045SOL     OW 7033   1.800   4.554   5.343
 2045SOL    HW1 7034   1.703   4.558   5.317
 2045SOL    HW2 7035   1.829   4.459   5.352
 2046SOL     OW 7036   6.571   0.654   4.645
 2046SOL    HW1 7037   6.595   0.746   4.616
 2046SOL    HW2 7038   6.550   0.598   4.565
 2047SOL     OW 7039   4.658   2.168   0.823
 2047SOL    HW1 7040   4.617   2.186   0.913
 2047SOL    HW2 7041   4.658   2.069   0.806
 2048SOL     OW 7042   3.578   6.214   6.982
 2048SOL    HW1 7043   3.482   6.201   7.008
 2048SOL    HW2 7044   3.586   6.297   6.927
 2049SOL     OW 7045   4.690   2.408   6.619
 2049SOL    HW1 7046   4.651   2.471   6.686
 2049SOL    HW2 7047   4.750   2.343   6.665
 2050SOL     OW 7048   6.176   2.859   3.891
 2050SOL    HW1 7049   6.102   2.802   3.925
 2050SOL    HW2 7050   6.145   2.911   3.812
 2051SOL     OW 7051   6.953   4.930   6.490
 2051SOL    HW1 7052   6.885   4.869   6.530
 2051SOL    HW2 7053   6.945   5.020   6.533
 2052SOL     OW 7054   0.427   3.376   6.854
 2052SOL    HW1 7055   0.370   3.327   6.788
 2052SOL    HW2 7056   0.523   3.369   6.827
 2053SOL     OW 7057   5.950   0.566   0.517
 2053SOL    HW1 7058   6.005   0.566   0.433
 2053SOL    HW2 7059   5.886   0.490   0.515
 2054SOL     OW 7060   5.536   3.080   1.064
 2054SOL    HW1 7061   5.601   3.048   1.132
 2054SOL    HW2 7062   5.515   3.177   1.080
 2055SOL     OW 7063   5.578   3.078   2.926
 2055SOL    HW1 7064   5.626   3.010   2.982
 2055SOL    HW2 7065   5.645   3.136   2.880
 2056SOL     OW 7066   1.938   1.630   2.711
 2056SOL    HW1 7067   1.919   1.613   2.614
 2056SOL    HW2 7068   1.970   1.546   2.755
 2057SOL     OW 7069   5.467   2.331   3.754
 2057SOL    HW1 7070   5.466   2.239   3.715
 2057SOL    HW2 7071   5.516   2.393   3.693
 2058SOL     OW 7072   1.033   1.817   2.876
 2058SOL    HW1 7073   0.965   1.826   2.803
 2058SOL    HW2 7074   1.041   1.720   2.902
 2059SOL     OW 7075   2.268   6.774   6.612
 2059SOL    HW1 7076   2.299   6.857   6.658
 2059SOL    HW2 7077   2.196   6.798   6.547
 2060SOL     OW 7078   6.936   4.394   0.874
 2060SOL    HW1 7079   7.000   4.325   0.907
 2060SOL    HW2 7080   6.843   4.359   0.880
 2061SOL     OW 7081   0.430   1.410   2.655
 2061SOL    HW1 7082   0.399   1.316   2.643
 2061SOL    HW2 7083   0.354   1.472   2.634
 2062SOL     OW 7084   5.450   0.152   3.409
 2062SOL    HW1 7085   5.380   0.222   3.395
 2062SOL    HW2 7086   5.518   0.158   3.336
 2063SOL     OW 7087   0.666   1.019   6.629
 2063SOL    HW1 7088   0.573   0.983   6.631
 2063SOL    HW2 7089   0.664   1.118   6.647
 2064SOL     OW 7090   0.667   2.024   5.743
 2064SOL    HW1 7091   0.632   2.023   5.649
 2064SOL    HW2 7092   0.666   2.117   5.779
 2065SOL     OW 7093   5.932   3.515   1.953
 2065SOL    HW1 7094   5.846   3.554   1.921
 2065SOL    HW2 7095   5.928   3.501   2.052
 2066SOL     OW 7096   0.875   5.688   4.214
 2066SOL    HW1 7097   0.869   5.751   4.291
 2066SOL    HW2 7098   0.817   5.608   4.232
 2067SOL     OW 7099   7.007   6.576   0.718
 2067SOL    HW1 7100   7.013   6.516   0.638
 2067SOL    HW2 7101   6.931   6.640   0.705
 2068SOL     OW 7102   1.778   1.243   5.388
 2068SOL    HW1 7103   1.791   1.160   5.333
 2068SOL    HW2 7104   1.681   1.259   5.403
 2069SOL     OW 7105   0.506   2.729   3.074
 2069SOL    HW1 7106   0.519   2.670   3.154
 2069SOL    HW2 7107   0.584   2.720   3.013
 2070SOL     OW 7108   1.872   0.213   2.391
 2070SOL    HW1 7109   1.801   0.275   2.356
 2070SOL    HW2 7110   1.961   0.242   2.356
 2071SOL     OW 7111   0.571   6.628   4.686
 2071SOL    HW1 7112   0.515   6.710   4.686
 2071SOL    HW2 7113   0.666   6.652   4.709
 2072SOL     OW 7114   4.114   5.990   1.689
 2072SOL    HW1 7115   4.195   6.041   1.658
 2072SOL    HW2 7116   4.098   5.914   1.627
 2073SOL     OW 7117   4.024   6.444   4.350
 2073SOL    HW1 7118   3.938   6.398   4.367
 2073SOL    HW2 7119   4.088   6.425   4.424
 2074SOL     OW 7120   0.720   1.967   6.588
 2074SOL    HW1 7121   0.794   2.005   6.643
 2074SOL    HW2 7122   0.648   2.036   6.578
 2075SOL     OW 7123   5.186   3.102   1.415
 2075SOL    HW1 7124   5.133   3.037   1.470
 2075SOL    HW2 7125   5.149   3.105   1.322
 2076SOL     OW 7126   5.411   6.192   6.926
 2076SOL    HW1 7127   5.392   6.279   6.972
 2076SOL    HW2 7128   5.325   6.155   6.889
 2077SOL     OW 7129   5.180   2.776   2.127
 2077SOL    HW1 7130   5.191   2.734   2.217
 2077SOL    HW2 7131   5.116   2.722   2.072
 2078SOL     OW 7132   2.294   5.807   6.278
 2078SOL    HW1 7133   2.286   5.906   6.285
 2078SOL    HW2 7134   2.242   5.774   6.199
 2079SOL     OW 7135   5.526   1.431   3.375
 2079SOL    HW1 7136   5.460   1.431   3.450
 2079SOL    HW2 7137   5.480   1.400   3.291
 2080SOL     OW 7138   2.393   1.057   4.950
 2080SOL    HW1 7139   2.428   1.111   5.027
 2080SOL    HW2 7140   2.418   0.961   4.962
 2081SOL     OW 7141   1.224   5.793   5.117
 2081SOL    HW1 7142   1.246   5.884   5.152
 2081SOL    HW2 7143   1.126   5.786   5.102
 2082SOL     OW 7144   5.814   0.442   2.127
 2082SOL    HW1 7145   5.913   0.448   2.139
 2082SOL    HW2 7146   5.794   0.397   2.040
 2083SOL     OW 7147   3.912   4.096   6.350
 2083SOL    HW1 7148   3.927   4.059   6.442
 2083SOL    HW2 7149   3.995   4.084   6.296
 2084SOL     OW 7150   6.980   3.320   4.114
 2084SOL    HW1 7151   0.054   3.284   4.124
 2084SOL    HW2 7152   6.979   3.389   4.041
 2085SOL     OW 7153   5.199   0.808   6.924
 2085SOL    HW1 7154   5.238   0.899   6.920
 2085SOL    HW2 7155   5.158   0.784   6.836
 2086SOL     OW 7156   2.712   5.769   6.220
 2086SOL    HW1 7157   2.710   5.839   6.148
 2086SOL    HW2 7158   2.623   5.723   6.224
 2087SOL     OW 7159   4.793   6.659   1.615
 2087SOL    HW1 7160   4.817   6.743   1.568
 2087SOL    HW2 7161   4.873   6.623   1.663
 2088SOL     OW 7162   3.294   5.548   0.521
 2088SOL    HW1 7163   3.282   5.595   0.609
 2088SOL    HW2 7164   3.216   5.569   0.462
 2089SOL     OW 7165   3.978   1.410   0.274
 2089SOL    HW1 7166   3.887   1.407   0.232
 2089SOL    HW2 7167   3.985   1.338   0.343
 2090SOL     OW 7168   4.100   3.317   4.626
 2090SOL    HW1 7169   4.181   3.302   4.682
 2090SOL    HW2 7170   4.070   3.411   4.636
 2091SOL     OW 7171   0.426   6.598   6.932
 2091SOL    HW1 7172   0.352   6.565   6.990
 2091SOL    HW2 7173   0.510   6.604   6.986
 2092SOL     OW 7174   5.031   5.511   0.644
 2092SOL    HW1 7175   4.937   5.494   0.673
 2092SOL    HW2 7176   5.077   5.568   0.712
 2093SOL     OW 7177   1.561   1.958   1.623
 2093SOL    HW1 7178   1.555   1.911   1.711
 2093SOL    HW2 7179   1.502   1.911   1.557
 2094SOL     OW 7180   6.023   1.336   1.588
 2094SOL    HW1 7181   6.013   1.356   1.491
 2094SOL    HW2 7182   5.933   1.334   1.631
 2095SOL     OW 7183   5.960   0.302   3.851
 2095SOL    HW1 7184   5.887   0.281   3.916
 2095SOL    HW2 7185   6.043   0.329   3.901
 2096SOL     OW 7186   4.843   3.699   2.627
 2096SOL    HW1 7187   4.814   3.742   2.541
 2096SOL    HW2 7188   4.876   3.770   2.690
 2097SOL     OW 7189   1.358   2.731   6.336
 2097SOL    HW1 7190   1.268   2.746   6.296
 2097SOL    HW2 7191   1.424   2.711   6.264
 2098SOL     OW 7192   3.662   5.693   3.586
 2098SOL    HW1 7193   3.567   5.686   3.616
 2098SOL    HW2 7194   3.682   5.786   3.556
 2099SOL     OW 7195   2.372   1.994   4.749
 2099SOL    HW1 7196   2.332   2.082   4.775
 2099SOL    HW2 7197   2.437   2.007   4.675
 2100SOL     OW 7198   3.624   4.070   6.221
 2100SOL    HW1 7199   3.702   4.087   6.281
 2100SOL    HW2 7200   3.625   3.974   6.192
 2101SOL     OW 7201   1.502   6.584   2.165
 2101SOL    HW1 7202   1.509   6.639   2.082
 2101SOL    HW2 7203   1.453   6.499   2.146
 2102SOL     OW 7204   0.696   5.111   1.974
 2102SOL    HW1 7205   0.751   5.040   2.016
 2102SOL    HW2 7206   0.609   5.119   2.024
 2103SOL     OW 7207   3.147   3.748   6.922
 2103SOL    HW1 7208   3.245   3.769   6.929
 2103SOL    HW2 7209   3.104   3.813   6.858
 2104SOL     OW 7210   1.393   3.685   0.149
 2104SOL    HW1 7211   1.462   3.666   0.219
 2104SOL    HW2 7212   1.368   3.600   0.103
 2105SOL     OW 7213   5.710   5.299   3.670
 2105SOL    HW1 7214   5.628   5.250   3.702
 2105SOL    HW2 7215   5.790   5.265   3.720
 2106SOL     OW 7216   3.810   4.746   0.204
 2106SOL    HW1 7217   3.809   4.704   0.295
 2106SOL    HW2 7218   3.852   4.837   0.210
 2107SOL     OW 7219   4.497   2.877   5.555
 2107SOL    HW1 7220   4.480   2.791   5.605
 2107SOL    HW2 7221   4.561   2.934   5.608
 2108SOL     OW 7222   6.457   6.632   5.727
 2108SOL    HW1 7223   6.520   6.559   5.702
 2108SOL    HW2 7224   6.363   6.600   5.718
 2109SOL     OW 7225   5.185   6.809   3.635
 2109SOL    HW1 7226   5.181   6.886   3.571
 2109SOL    HW2 7227   5.279   6.775   3.641
 2110SOL     OW 7228   3.257   3.701   5.986
 2110SOL    HW1 7229   3.161   3.715   6.010
 2110SOL    HW2 7230   3.274   3.736   5.894
 2111SOL     OW 7231   0.167   1.963   6.449
 2111SOL    HW1 7232   0.218   1.955   6.534
 2111SOL    HW2 7233   0.114   1.879   6.434
 2112SOL     OW 7234   4.604   1.779   1.197
 2112SOL    HW1 7235   4.676   1.724   1.240
 2112SOL    HW2 7236   4.548   1.822   1.268
 2113SOL     OW 7237   1.205   0.133   4.091
 2113SOL    HW1 7238   1.301   0.103   4.096
 2113SOL    HW2 7239   1.184   0.187   4.172
 2114SOL     OW 7240   1.656   2.682   0.757
 2114SOL    HW1 7241   1.736   2.651   0.706
 2114SOL    HW2 7242   1.642   2.779   0.741
 2115SOL     OW 7243   2.210   4.549   3.005
 2115SOL    HW1 7244   2.274   4.473   3.015
 2115SOL    HW2 7245   2.197   4.569   2.908
 2116SOL     OW 7246   0.244   4.205   3.130
 2116SOL    HW1 7247   0.203   4.230   3.043
 2116SOL    HW2 7248   0.190   4.243   3.205
 2117SOL     OW 7249   6.894   4.818   1.471
 2117SOL    HW1 7250   6.903   4.760   1.390
 2117SOL    HW2 7251   6.797   4.824   1.497
 2118SOL     OW 7252   0.172   3.337   2.516
 2118SOL    HW1 7253   0.123   3.313   2.600
 2118SOL    HW2 7254   0.259   3.288   2.512
 2119SOL     OW 7255   2.208   5.565   0.876
 2119SOL    HW1 7256   2.123   5.537   0.830
 2119SOL    HW2 7257   2.206   5.533   0.971
 2120SOL     OW 7258   6.666   5.494   3.602
 2120SOL    HW1 7259   6.705   5.542   3.523
 2120SOL    HW2 7260   6.622   5.561   3.663
 2121SOL     OW 7261   1.457   4.367   5.856
 2121SOL    HW1 7262   1.387   4.300   5.830
 2121SOL    HW2 7263   1.414   4.455   5.872
 2122SOL     OW 7264   6.209   4.420   5.178
 2122SOL    HW1 7265   6.207   4.320   5.184
 2122SOL    HW2 7266   6.117   4.454   5.159
 2123SOL     OW 7267   0.499   4.387   2.906
 2123SOL    HW1 7268   0.507   4.476   2.860
 2123SOL    HW2 7269   0.404   4.372   2.933
 2124SOL     OW 7270   2.416   1.091   1.627
 2124SOL    HW1 7271   2.415   1.181   1.585
 2124SOL    HW2 7272   2.326   1.048   1.616
 2125SOL     OW 7273   1.474   0.019   0.398
 2125SOL    HW1 7274   1.479   0.118   0.384
 2125SOL    HW2 7275   1.485   6.991   0.311
 2126SOL     OW 7276   3.238   0.697   1.410
 2126SOL    HW1 7277   3.159   0.648   1.373
 2126SOL    HW2 7278   3.299   0.723   1.335
 2127SOL     OW 7279   6.173   3.486   4.781
 2127SOL    HW1 7280   6.088   3.450   4.819
 2127SOL    HW2 7281   6.165   3.492   4.681
 2128SOL     OW 7282   0.129   4.055   4.476
 2128SOL    HW1 7283   0.143   4.054   4.575
 2128SOL    HW2 7284   0.122   3.962   4.442
 2129SOL     OW 7285   4.472   2.940   5.299
 2129SOL    HW1 7286   4.379   2.920   5.269
 2129SOL    HW2 7287   4.483   2.916   5.395
 2130SOL     OW 7288   4.958   6.895   2.640
 2130SOL    HW1 7289   4.941   6.801   2.670
 2130SOL    HW2 7290   5.035   6.933   2.692
 2131SOL     OW 7291   7.006   1.050   1.230
 2131SOL    HW1 7292   6.992   1.104   1.147
 2131SOL    HW2 7293   6.982   0.954   1.212
 2132SOL     OW 7294   4.457   2.443   1.202
 2132SOL    HW1 7295   4.507   2.505   1.262
 2132SOL    HW2 7296   4.361   2.440   1.229
 2133SOL     OW 7297   3.124   2.763   5.810
 2133SOL    HW1 7298   3.097   2.841   5.754
 2133SOL    HW2 7299   3.050   2.696   5.812
 2134SOL     OW 7300   0.263   2.250   0.662
 2134SOL    HW1 7301   0.202   2.326   0.639
 2134SOL    HW2 7302   0.269   2.187   0.585
 2135SOL     OW 7303   0.788   4.126   4.365
 2135SOL    HW1 7304   0.719   4.141   4.294
 2135SOL    HW2 7305   0.768   4.184   4.443
 2136SOL     OW 7306   2.563   5.010   2.274
 2136SOL    HW1 7307   2.505   5.090   2.287
 2136SOL    HW2 7308   2.638   5.031   2.212
 2137SOL     OW 7309   2.613   5.297   5.139
 2137SOL    HW1 7310   2.596   5.313   5.236
 2137SOL    HW2 7311   2.667   5.214   5.127
 2138SOL     OW 7312   5.853   0.569   2.817
 2138SOL    HW1 7313   5.835   0.641   2.884
 2138SOL    HW2 7314   5.857   0.480   2.862
 2139SOL     OW 7315   3.725   0.693   4.542
 2139SOL    HW1 7316   3.811   0.743   4.551
 2139SOL    HW2 7317   3.717   0.654   4.451
 2140SOL     OW 7318   3.206   6.509   4.461
 2140SOL    HW1 7319   3.290   6.455   4.457
 2140SOL    HW2 7320   3.198   6.552   4.551
 2141SOL     OW 7321   6.497   3.539   1.869
 2141SOL    HW1 7322   6.538   3.539   1.960
 2141SOL    HW2 7323   6.436   3.618   1.860
 2142SOL     OW 7324   0.624   1.647   3.734
 2142SOL    HW1 7325   0.566   1.628   3.813
 2142SOL    HW2 7326   0.568   1.681   3.659
 2143SOL     OW 7327   2.155   5.115   1.055
 2143SOL    HW1 7328   2.102   5.035   1.083
 2143SOL    HW2 7329   2.170   5.112   0.957
 2144SOL     OW 7330   0.453   4.977   4.401
 2144SOL    HW1 7331   0.500   5.064   4.418
 2144SOL    HW2 7332   0.520   4.906   4.381
 2145SOL     OW 7333   3.896   6.307   4.128
 2145SOL    HW1 7334   3.910   6.211   4.102
 2145SOL    HW2 7335   3.981   6.358   4.112
 2146SOL     OW 7336   1.905   2.126   1.193
 2146SOL    HW1 7337   1.955   2.210   1.210
 2146SOL    HW2 7338   1.953   2.049   1.234
 2147SOL     OW 7339   6.278   1.748   6.673
 2147SOL    HW1 7340   6.270   1.650   6.654
 2147SOL    HW2 7341   6.370   1.779   6.651
 2148SOL     OW 7342   6.641   3.195   6.396
 2148SOL    HW1 7343   6.651   3.102   6.432
 2148SOL    HW2 7344   6.549   3.207   6.360
 2149SOL     OW 7345   1.572   1.293   1.058
 2149SOL    HW1 7346   1.500   1.267   1.123
 2149SOL    HW2 7347   1.559   1.243   0.972
 2150SOL     OW 7348   2.603   2.207   1.576
 2150SOL    HW1 7349   2.640   2.254   1.657
 2150SOL    HW2 7350   2.667   2.136   1.547
 2151SOL     OW 7351   0.900   6.237   6.682
 2151SOL    HW1 7352   0.872   6.310   6.745
 2151SOL    HW2 7353   0.819   6.186   6.652
 2152SOL     OW 7354   3.969   4.767   2.434
 2152SOL    HW1 7355   3.892   4.795   2.376
 2152SOL    HW2 7356   4.046   4.739   2.376
 2153SOL     OW 7357   4.692   1.872   2.241
 2153SOL    HW1 7358   4.764   1.879   2.310
 2153SOL    HW2 7359   4.663   1.777   2.232
 2154SOL     OW 7360   2.648   6.958   4.410
 2154SOL    HW1 7361   2.708   6.906   4.348
 2154SOL    HW2 7362   2.704   7.014   4.471
 2155SOL     OW 7363   4.264   6.793   1.034
 2155SOL    HW1 7364   4.204   6.718   1.058
 2155SOL    HW2 7365   4.222   6.848   0.961
 2156SOL     OW 7366   6.757   0.245   4.836
 2156SOL    HW1 7367   6.724   0.163   4.882
 2156SOL    HW2 7368   6.783   0.314   4.903
 2157SOL     OW 7369   4.700   5.751   3.921
 2157SOL    HW1 7370   4.701   5.781   4.016
 2157SOL    HW2 7371   4.607   5.758   3.885
 2158SOL     OW 7372   3.885   6.030   0.380
 2158SOL    HW1 7373   3.968   6.073   0.344
 2158SOL    HW2 7374   3.910   5.945   0.428
 2159SOL     OW 7375   1.367   0.825   5.013
 2159SOL    HW1 7376   1.363   0.740   5.065
 2159SOL    HW2 7377   1.338   0.901   5.071
 2160SOL     OW 7378   5.165   4.903   6.558
 2160SOL    HW1 7379   5.224   4.825   6.539
 2160SOL    HW2 7380   5.199   4.983   6.509
 2161SOL     OW 7381   6.579   4.095   1.883
 2161SOL    HW1 7382   6.565   4.019   1.820
 2161SOL    HW2 7383   6.656   4.151   1.852
 2162SOL     OW 7384   2.664   0.226   2.935
 2162SOL    HW1 7385   2.609   0.145   2.915
 2162SOL    HW2 7386   2.736   0.235   2.866
 2163SOL     OW 7387   1.321   4.018   0.432
 2163SOL    HW1 7388   1.373   3.984   0.510
 2163SOL    HW2 7389   1.348   3.968   0.350
 2164SOL     OW 7390   2.190   2.264   6.772
 2164SOL    HW1 7391   2.152   2.314   6.694
 2164SOL    HW2 7392   2.259   2.320   6.818
 2165SOL     OW 7393   0.701   1.865   3.882
 2165SOL    HW1 7394   0.712   1.849   3.784
 2165SOL    HW2 7395   0.668   1.781   3.926
 2166SOL     OW 7396   0.937   3.479   4.614
 2166SOL    HW1 7397   0.962   3.384   4.632
 2166SOL    HW2 7398   0.945   3.532   4.699
 2167SOL     OW 7399   0.707   2.823   3.793
 2167SOL    HW1 7400   0.745   2.908   3.829
 2167SOL    HW2 7401   0.685   2.761   3.868
 2168SOL     OW 7402   0.717   1.674   2.616
 2168SOL    HW1 7403   0.747   1.765   2.646
 2168SOL    HW2 7404   0.732   1.665   2.517
 2169SOL     OW 7405   6.985   0.352   1.116
 2169SOL    HW1 7406   6.983   0.338   1.017
 2169SOL    HW2 7407   0.027   0.285   1.158
 2170SOL     OW 7408   6.870   4.097   4.629
 2170SOL    HW1 7409   6.955   4.145   4.652
 2170SOL    HW2 7410   6.805   4.108   4.704
 2171SOL     OW 7411   0.316   5.579   1.415
 2171SOL    HW1 7412   0.408   5.547   1.391
 2171SOL    HW2 7413   0.279   5.523   1.488
 2172SOL     OW 7414   2.137   1.989   5.754
 2172SOL    HW1 7415   2.088   2.073   5.731
 2172SOL    HW2 7416   2.081   1.935   5.818
 2173SOL     OW 7417   4.776   0.099   5.909
 2173SOL    HW1 7418   4.827   0.165   5.854
 2173SOL    HW2 7419   4.691   0.075   5.862
 2174SOL     OW 7420   6.698   6.651   5.064
 2174SOL    HW1 7421   6.735   6.693   5.147
 2174SOL    HW2 7422   6.768   6.591   5.024
 2175SOL     OW 7423   1.956   2.606   5.112
 2175SOL    HW1 7424   1.864   2.575   5.086
 2175SOL    HW2 7425   2.009   2.625   5.030
 2176SOL     OW 7426   5.267   1.659   1.288
 2176SOL    HW1 7427   5.255   1.645   1.386
 2176SOL    HW2 7428   5.330   1.591   1.252
 2177SOL     OW 7429   6.517   0.834   2.115
 2177SOL    HW1 7430   6.543   0.756   2.059
 2177SOL    HW2 7431   6.464   0.899   2.059
 2178SOL     OW 7432   1.077   1.184   2.191
 2178SOL    HW1 7433   1.155   1.128   2.221
 2178SOL    HW2 7434   1.079   1.193   2.092
 2179SOL     OW 7435   2.102   3.506   6.264
 2179SOL    HW1 7436   2.002   3.514   6.255
 2179SOL    HW2 7437   2.133   3.428   6.209
 2180SOL     OW 7438   1.447   2.980   2.151
 2180SOL    HW1 7439   1.503   2.953   2.229
 2180SOL    HW2 7440   1.374   2.913   2.138
 2181SOL     OW 7441   4.497   5.145   4.251
 2181SOL    HW1 7442   4.571   5.096   4.204
 2181SOL    HW2 7443   4.521   5.242   4.257
 2182SOL     OW 7444   0.858   4.975   3.940
 2182SOL    HW1 7445   0.873   4.917   3.860
 2182SOL    HW2 7446   0.916   4.943   4.015
 2183SOL     OW 7447   2.454   3.899   0.165
 2183SOL    HW1 7448   2.422   3.814   0.205
 2183SOL    HW2 7449   2.430   3.902   0.068
 2184SOL     OW 7450   4.587   6.946   6.505
 2184SOL    HW1 7451   4.596   6.968   6.408
 2184SOL    HW2 7452   4.490   6.931   6.527
 2185SOL     OW 7453   1.261   1.121   6.604
 2185SOL    HW1 7454   1.265   1.103   6.703
 2185SOL    HW2 7455   1.203   1.054   6.560
 2186SOL     OW 7456   6.257   6.019   6.144
 2186SOL    HW1 7457   6.257   6.098   6.205
 2186SOL    HW2 7458   6.185   6.030   6.075
 2187SOL     OW 7459   0.041   6.251   2.553
 2187SOL    HW1 7460   0.001   6.342   2.566
 2187SOL    HW2 7461   7.012   6.203   2.480
 2188SOL     OW 7462   1.998   5.286   5.496
 2188SOL    HW1 7463   2.089   5.327   5.504
 2188SOL    HW2 7464   1.944   5.309   5.577
 2189SOL     OW 7465   1.641   0.480   2.120
 2189SOL    HW1 7466   1.560   0.474   2.061
 2189SOL    HW2 7467   1.699   0.556   2.089
 2190SOL     OW 7468   6.720   3.379   1.712
 2190SOL    HW1 7469   6.803   3.373   1.767
 2190SOL    HW2 7470   6.641   3.393   1.771
 2191SOL     OW 7471   2.733   1.045   5.593
 2191SOL    HW1 7472   2.828   1.014   5.585
 2191SOL    HW2 7473   2.708   1.099   5.513
 2192SOL     OW 7474   4.962   0.470   2.706
 2192SOL    HW1 7475   5.038   0.528   2.677
 2192SOL    HW2 7476   4.977   0.439   2.800
 2193SOL     OW 7477   6.906   0.174   5.989
 2193SOL    HW1 7478   6.993   0.208   6.027
 2193SOL    HW2 7479   6.887   0.220   5.903
 2194SOL     OW 7480   1.250   4.036   6.271
 2194SOL    HW1 7481   1.215   4.105   6.333
 2194SOL    HW2 7482   1.240   3.945   6.312
 2195SOL     OW 7483   6.849   6.304   5.263
 2195SOL    HW1 7484   6.872   6.400   5.282
 2195SOL    HW2 7485   6.846   6.290   5.164
 2196SOL     OW 7486   3.091   6.410   4.971
 2196SOL    HW1 7487   3.043   6.495   4.949
 2196SOL    HW2 7488   3.171   6.400   4.912
 2197SOL     OW 7489   2.838   3.614   6.487
 2197SOL    HW1 7490   2.747   3.620   6.528
 2197SOL    HW2 7491   2.903   3.666   6.542
 2198SOL     OW 7492   6.143   6.794   1.006
 2198SOL    HW1 7493   6.170   6.740   0.926
 2198SOL    HW2 7494   6.141   6.735   1.087
 2199SOL     OW 7495   5.443   0.409   4.613
 2199SOL    HW1 7496   5.499   0.453   4.683
 2199SOL    HW2 7497   5.390   0.335   4.655
 2200SOL     OW 7498   2.348   1.323   3.876
 2200SOL    HW1 7499   2.429   1.269   3.900
 2200SOL    HW2 7500   2.347   1.407   3.929
 2201SOL     OW 7501   6.266   2.794   2.716
 2201SOL    HW1 7502   6.188   2.742   2.752
 2201SOL    HW2 7503   6.258   2.802   2.617
 2202SOL     OW 7504   3.370   5.478   2.072
 2202SOL    HW1 7505   3.333   5.428   1.994
 2202SOL    HW2 7506   3.425   5.416   2.128
 2203SOL     OW 7507   2.580   3.264   1.400
 2203SOL    HW1 7508   2.499   3.208   1.385
 2203SOL    HW2 7509   2.571   3.313   1.487
 2204SOL     OW 7510   4.178   2.618   1.045
 2204SOL    HW1 7511   4.140   2.553   1.110
 2204SOL    HW2 7512   4.144   2.709   1.065
 2205SOL     OW 7513   1.076   0.026   0.071
 2205SOL    HW1 7514   1.093   0.111   0.021
 2205SOL    HW2 7515   1.124   6.970   0.027
 2206SOL     OW 7516   2.470   4.646   5.861
 2206SOL    HW1 7517   2.553   4.641   5.916
 2206SOL    HW2 7518   2.390   4.643   5.920
 2207SOL     OW 7519   3.311   4.687   6.971
 2207SOL    HW1 7520   3.324   4.786   6.970
 2207SOL    HW2 7521   3.393   4.643   7.008
 2208SOL     OW 7522   0.812   5.284   2.996
 2208SOL    HW1 7523   0.748   5.284   2.919
 2208SOL    HW2 7524   0.878   5.358   2.984
 2209SOL     OW 7525   2.467   6.556   4.869
 2209SOL    HW1 7526   2.558   6.550   4.826
 2209SOL    HW2 7527   2.415   6.629   4.825
 2210SOL     OW 7528   6.656   5.364   3.328
 2210SOL    HW1 7529   6.597   5.340   3.406
 2210SOL    HW2 7530   6.681   5.460   3.334
 2211SOL     OW 7531   6.523   0.687   0.547
 2211SOL    HW1 7532   6.592   0.630   0.590
 2211SOL    HW2 7533   6.456   0.716   0.615
 2212SOL     OW 7534   1.381   5.612   0.011
 2212SOL    HW1 7535   1.373   5.663   0.096
 2212SOL    HW2 7536   1.459   5.548   0.017
 2213SOL     OW 7537   4.201   2.620   5.603
 2213SOL    HW1 7538   4.228   2.638   5.509
 2213SOL    HW2 7539   4.146   2.697   5.637
 2214SOL     OW 7540   3.194   3.426   5.049
 2214SOL    HW1 7541   3.115   3.400   5.103
 2214SOL    HW2 7542   3.205   3.362   4.973
 2215SOL     OW 7543   5.832   1.136   6.774
 2215SOL    HW1 7544   5.742   1.157   6.812
 2215SOL    HW2 7545   5.821   1.094   6.684
 2216SOL     OW 7546   0.131   0.273   6.072
 2216SOL    HW1 7547   0.221   0.228   6.070
 2216SOL    HW2 7548   0.136   0.358   6.020
 2217SOL     OW 7549   4.741   0.193   3.025
 2217SOL    HW1 7550   4.735   0.220   3.121
 2217SOL    HW2 7551   4.650   0.199   2.982
 2218SOL     OW 7552   6.638   4.971   0.031
 2218SOL    HW1 7553   6.714   4.986   6.987
 2218SOL    HW2 7554   6.581   5.053   0.035
 2219SOL     OW 7555   6.231   2.213   1.192
 2219SOL    HW1 7556   6.285   2.189   1.111
 2219SOL    HW2 7557   6.165   2.140   1.210
 2220SOL     OW 7558   1.650   5.522   5.503
 2220SOL    HW1 7559   1.584   5.584   5.459
 2220SOL    HW2 7560   1.724   5.577   5.543
 2221SOL     OW 7561   6.412   1.624   5.087
 2221SOL    HW1 7562   6.344   1.672   5.143
 2221SOL    HW2 7563   6.407   1.658   4.993
 2222SOL     OW 7564   6.018   0.274   0.917
 2222SOL    HW1 7565   6.062   0.185   0.925
 2222SOL    HW2 7566   6.067   0.330   0.851
 2223SOL     OW 7567   5.666   1.133   6.535
 2223SOL    HW1 7568   5.672   1.042   6.575
 2223SOL    HW2 7569   5.590   1.137   6.470
 2224SOL     OW 7570   6.074   3.412   1.269
 2224SOL    HW1 7571   6.113   3.479   1.331
 2224SOL    HW2 7572   6.015   3.458   1.202
 2225SOL     OW 7573   6.647   7.009   3.571
 2225SOL    HW1 7574   6.732   6.965   3.599
 2225SOL    HW2 7575   6.636   7.001   3.472
 2226SOL     OW 7576   3.418   5.641   0.867
 2226SOL    HW1 7577   3.424   5.736   0.899
 2226SOL    HW2 7578   3.507   5.614   0.829
 2227SOL     OW 7579   4.950   2.566   1.419
 2227SOL    HW1 7580   5.004   2.497   1.370
 2227SOL    HW2 7581   4.913   2.632   1.353
 2228SOL     OW 7582   3.388   4.989   0.271
 2228SOL    HW1 7583   3.398   4.911   0.332
 2228SOL    HW2 7584   3.296   5.026   0.279
 2229SOL     OW 7585   4.003   3.128   5.113
 2229SOL    HW1 7586   3.990   3.221   5.147
 2229SOL    HW2 7587   4.014   3.130   5.014
 2230SOL     OW 7588   5.400   6.876   1.040
 2230SOL    HW1 7589   5.393   6.821   1.124
 2230SOL    HW2 7590   5.357   6.827   0.965
 2231SOL     OW 7591   0.115   0.552   0.272
 2231SOL    HW1 7592   0.090   0.638   0.316
 2231SOL    HW2 7593   0.119   0.564   0.173
 2232SOL     OW 7594   1.414   1.379   4.838
 2232SOL    HW1 7595   1.459   1.344   4.755
 2232SOL    HW2 7596   1.325   1.334   4.849
 2233SOL     OW 7597   2.517   2.846   0.605
 2233SOL    HW1 7598   2.444   2.778   0.612
 2233SOL    HW2 7599   2.525   2.896   0.691
 2234SOL     OW 7600   3.355   1.476   0.746
 2234SOL    HW1 7601   3.442   1.435   0.773
 2234SOL    HW2 7602   3.283   1.408   0.752
 2235SOL     OW 7603   2.469   0.080   1.573
 2235SOL    HW1 7604   2.530   0.032   1.635
 2235SOL    HW2 7605   2.402   0.132   1.626
 2236SOL     OW 7606   1.708   3.666   6.415
 2236SOL    HW1 7607   1.770   3.742   6.394
 2236SOL    HW2 7608   1.615   3.692   6.390
 2237SOL     OW 7609   5.934   4.519   4.387
 2237SOL    HW1 7610   5.941   4.559   4.296
 2237SOL    HW2 7611   6.025   4.497   4.421
 2238SOL     OW 7612   4.369   5.074   2.448
 2238SOL    HW1 7613   4.411   5.123   2.524
 2238SOL    HW2 7614   4.426   5.083   2.366
 2239SOL     OW 7615   4.870   6.224   3.784
 2239SOL    HW1 7616   4.894   6.141   3.735
 2239SOL    HW2 7617   4.775   6.218   3.816
 2240SOL     OW 7618   3.575   5.458   2.717
 2240SOL    HW1 7619   3.531   5.546   2.698
 2240SOL    HW2 7620   3.506   5.391   2.743
 2241SOL     OW 7621   6.865   6.411   2.240
 2241SOL    HW1 7622   6.840   6.459   2.324
 2241SOL    HW2 7623   6.798   6.340   2.221
 2242SOL     OW 7624   5.022   3.245   2.529
 2242SOL    HW1 7625   4.951   3.306   2.495
 2242SOL    HW2 7626   5.004   3.152   2.497
 2243SOL     OW 7627   2.017   6.804   6.805
 2243SOL    HW1 7628   1.941   6.836   6.748
 2243SOL    HW2 7629   2.073   6.740   6.753
 2244SOL     OW 7630   3.113   6.854   2.078
 2244SOL    HW1 7631   3.161   6.922   2.134
 2244SOL    HW2 7632   3.016   6.878   2.074
 2245SOL     OW 7633   0.470   1.532   1.210
 2245SOL    HW1 7634   0.383   1.543   1.163
 2245SOL    HW2 7635   0.507   1.441   1.191
 2246SOL     OW 7636   2.680   0.561   4.341
 2246SOL    HW1 7637   2.707   0.657   4.336
 2246SOL    HW2 7638   2.679   0.532   4.436
 2247SOL     OW 7639   3.160   2.960   3.190
 2247SOL    HW1 7640   3.111   3.042   3.221
 2247SOL    HW2 7641   3.247   2.952   3.240
 2248SOL     OW 7642   6.270   3.926   4.670
 2248SOL    HW1 7643   6.294   4.013   4.626
 2248SOL    HW2 7644   6.222   3.867   4.605
 2249SOL     OW 7645   5.688   6.422   3.924
 2249SOL    HW1 7646   5.716   6.330   3.950
 2249SOL    HW2 7647   5.663   6.423   3.827
 2250SOL     OW 7648   3.295   3.978   5.162
 2250SOL    HW1 7649   3.292   3.908   5.233
 2250SOL    HW2 7650   3.345   3.943   5.083
 2251SOL     OW 7651   5.377   0.082   6.259
 2251SOL    HW1 7652   5.303   0.147   6.240
 2251SOL    HW2 7653   5.413   0.099   6.351
 2252SOL     OW 7654   4.835   1.551   3.169
 2252SOL    HW1 7655   4.811   1.618   3.099
 2252SOL    HW2 7656   4.854   1.597   3.255
 2253SOL     OW 7657   0.092   3.179   6.996
 2253SOL    HW1 7658   0.110   3.277   6.998
 2253SOL    HW2 7659   0.016   3.160   6.935
 2254SOL     OW 7660   3.370   2.946   4.383
 2254SOL    HW1 7661   3.277   2.920   4.408
 2254SOL    HW2 7662   3.369   3.035   4.338
 2255SOL     OW 7663   3.778   3.591   5.964
 2255SOL    HW1 7664   3.693   3.634   5.994
 2255SOL    HW2 7665   3.855   3.652   5.981
 2256SOL     OW 7666   5.182   6.498   2.168
 2256SOL    HW1 7667   5.139   6.438   2.235
 2256SOL    HW2 7668   5.276   6.468   2.151
 2257SOL     OW 7669   0.625   1.628   4.702
 2257SOL    HW1 7670   0.633   1.601   4.606
 2257SOL    HW2 7671   0.687   1.572   4.758
 2258SOL     OW 7672   1.211   5.718   4.809
 2258SOL    HW1 7673   1.280   5.771   4.760
 2258SOL    HW2 7674   1.129   5.774   4.822
 2259SOL     OW 7675   5.659   2.705   5.309
 2259SOL    HW1 7676   5.755   2.686   5.330
 2259SOL    HW2 7677   5.602   2.635   5.351
 2260SOL     OW 7678   0.346   3.688   1.088
 2260SOL    HW1 7679   0.277   3.616   1.091
 2260SOL    HW2 7680   0.351   3.734   1.177
 2261SOL     OW 7681   6.547   5.141   0.941
 2261SOL    HW1 7682   6.595   5.112   1.024
 2261SOL    HW2 7683   6.490   5.066   0.907
 2262SOL     OW 7684   6.201   6.965   2.931
 2262SOL    HW1 7685   6.207   6.968   2.831
 2262SOL    HW2 7686   6.209   0.039   2.967
 2263SOL     OW 7687   2.580   5.696   6.876
 2263SOL    HW1 7688   2.666   5.663   6.836
 2263SOL    HW2 7689   2.579   5.678   6.974
 2264SOL     OW 7690   3.292   6.086   6.022
 2264SOL    HW1 7691   3.202   6.077   6.066
 2264SOL    HW2 7692   3.308   6.008   5.962
 2265SOL     OW 7693   2.101   0.918   4.549
 2265SOL    HW1 7694   2.169   0.864   4.500
 2265SOL    HW2 7695   2.014   0.870   4.551
 2266SOL     OW 7696   5.308   1.448   6.457
 2266SOL    HW1 7697   5.258   1.518   6.406
 2266SOL    HW2 7698   5.337   1.376   6.394
 2267SOL     OW 7699   5.091   3.191   5.189
 2267SOL    HW1 7700   5.156   3.244   5.244
 2267SOL    HW2 7701   5.007   3.244   5.177
 2268SOL     OW 7702   5.976   4.226   6.113
 2268SOL    HW1 7703   6.010   4.211   6.021
 2268SOL    HW2 7704   5.914   4.151   6.139
 2269SOL     OW 7705   0.726   4.080   5.496
 2269SOL    HW1 7706   0.633   4.068   5.532
 2269SOL    HW2 7707   0.740   4.019   5.419
 2270SOL     OW 7708   4.181   2.566   5.991
 2270SOL    HW1 7709   4.133   2.522   5.916
 2270SOL    HW2 7710   4.156   2.663   5.995
 2271SOL     OW 7711   5.953   4.753   6.916
 2271SOL    HW1 7712   5.903   4.760   7.003
 2271SOL    HW2 7713   6.047   4.724   6.935
 2272SOL     OW 7714   5.618   1.562   0.085
 2272SOL    HW1 7715   5.560   1.614   0.022
 2272SOL    HW2 7716   5.713   1.589   0.073
 2273SOL     OW 7717   1.445   1.422   2.426
 2273SOL    HW1 7718   1.393   1.426   2.341
 2273SOL    HW2 7719   1.541   1.403   2.405
 2274SOL     OW 7720   0.721   1.434   5.959
 2274SOL    HW1 7721   0.784   1.379   6.014
 2274SOL    HW2 7722   0.735   1.531   5.979
 2275SOL     OW 7723   6.359   0.087   3.338
 2275SOL    HW1 7724   6.275   0.098   3.390
 2275SOL    HW2 7725   6.388   7.010   3.339
 2276SOL     OW 7726   2.271   5.555   1.734
 2276SOL    HW1 7727   2.296   5.541   1.638
 2276SOL    HW2 7728   2.348   5.597   1.783
 2277SOL     OW 7729   3.416   3.999   4.231
 2277SOL    HW1 7730   3.317   4.013   4.226
 2277SOL    HW2 7731   3.436   3.919   4.288
 2278SOL     OW 7732   6.018   3.110   4.171
 2278SOL    HW1 7733   5.962   3.039   4.214
 2278SOL    HW2 7734   5.971   3.146   4.091
 2279SOL     OW 7735   5.884   0.230   5.057
 2279SOL    HW1 7736   5.884   0.132   5.078
 2279SOL    HW2 7737   5.924   0.281   5.133
 2280SOL     OW 7738   6.579   0.105   4.561
 2280SOL    HW1 7739   6.632   0.189   4.563
 2280SOL    HW2 7740   6.541   0.087   4.652
 2281SOL     OW 7741   3.519   0.465   1.985
 2281SOL    HW1 7742   3.526   0.399   2.059
 2281SOL    HW2 7743   3.460   0.429   1.913
 2282SOL     OW 7744   5.718   6.697   5.497
 2282SOL    HW1 7745   5.675   6.708   5.407
 2282SOL    HW2 7746   5.772   6.613   5.498
 2283SOL     OW 7747   1.592   0.069   2.018
 2283SOL    HW1 7748   1.650   0.137   1.974
 2283SOL    HW2 7749   1.635   0.038   2.103
 2284SOL     OW 7750   1.414   2.966   6.619
 2284SOL    HW1 7751   1.475   2.918   6.682
 2284SOL    HW2 7752   1.454   3.054   6.594
 2285SOL     OW 7753   1.022   2.885   0.557
 2285SOL    HW1 7754   1.047   2.950   0.629
 2285SOL    HW2 7755   0.945   2.830   0.588
 2286SOL     OW 7756   5.876   0.087   3.317
 2286SOL    HW1 7757   5.923   0.170   3.288
 2286SOL    HW2 7758   5.790   0.111   3.361
 2287SOL     OW 7759   2.299   0.345   4.090
 2287SOL    HW1 7760   2.203   0.368   4.074
 2287SOL    HW2 7761   2.347   0.425   4.126
 2288SOL     OW 7762   5.953   5.149   3.468
 2288SOL    HW1 7763   5.921   5.243   3.478
 2288SOL    HW2 7764   5.874   5.088   3.462
 2289SOL     OW 7765   0.006   5.178   0.918
 2289SOL    HW1 7766   6.975   5.119   0.982
 2289SOL    HW2 7767   0.048   5.122   0.846
 2290SOL     OW 7768   0.811   3.682   1.050
 2290SOL    HW1 7769   0.730   3.710   0.999
 2290SOL    HW2 7770   0.820   3.582   1.045
 2291SOL     OW 7771   1.987   2.427   5.834
 2291SOL    HW1 7772   2.076   2.424   5.879
 2291SOL    HW2 7773   1.987   2.498   5.763
 2292SOL     OW 7774   1.198   1.966   4.328
 2292SOL    HW1 7775   1.168   1.874   4.355
 2292SOL    HW2 7776   1.131   2.006   4.266
 2293SOL     OW 7777   5.080   6.870   1.050
 2293SOL    HW1 7778   5.029   6.871   1.135
 2293SOL    HW2 7779   5.069   6.958   1.003
 2294SOL     OW 7780   3.160   0.567   0.223
 2294SOL    HW1 7781   3.189   0.486   0.274
 2294SOL    HW2 7782   3.154   0.645   0.286
 2295SOL     OW 7783   0.506   2.002   2.758
 2295SOL    HW1 7784   0.448   2.043   2.828
 2295SOL    HW2 7785   0.598   2.041   2.765
 2296SOL     OW 7786   3.794   5.512   0.380
 2296SOL    HW1 7787   3.865   5.494   0.312
 2296SOL    HW2 7788   3.837   5.536   0.467
 2297SOL     OW 7789   3.645   4.223   5.066
 2297SOL    HW1 7790   3.558   4.242   5.112
 2297SOL    HW2 7791   3.692   4.309   5.046
 2298SOL     OW 7792   4.184   3.182   1.935
 2298SOL    HW1 7793   4.240   3.139   2.006
 2298SOL    HW2 7794   4.235   3.183   1.849
 2299SOL     OW 7795   5.122   6.667   6.385
 2299SOL    HW1 7796   5.030   6.698   6.408
 2299SOL    HW2 7797   5.141   6.581   6.432
 2300SOL     OW 7798   2.598   4.639   1.803
 2300SOL    HW1 7799   2.673   4.637   1.869
 2300SOL    HW2 7800   2.622   4.581   1.725
 2301SOL     OW 7801   3.165   2.982   3.548
 2301SOL    HW1 7802   3.116   3.027   3.473
 2301SOL    HW2 7803   3.238   2.925   3.511
 2302SOL     OW 7804   3.716   6.759   1.790
 2302SOL    HW1 7805   3.772   6.698   1.846
 2302SOL    HW2 7806   3.678   6.831   1.848
 2303SOL     OW 7807   1.767   3.534   6.640
 2303SOL    HW1 7808   1.836   3.576   6.699
 2303SOL    HW2 7809   1.731   3.601   6.576
 2304SOL     OW 7810   3.626   0.175   3.331
 2304SOL    HW1 7811   3.694   0.206   3.265
 2304SOL    HW2 7812   3.669   0.167   3.421
 2305SOL     OW 7813   2.774   6.613   2.857
 2305SOL    HW1 7814   2.721   6.570   2.783
 2305SOL    HW2 7815   2.833   6.544   2.900
 2306SOL     OW 7816   2.204   5.131   1.801
 2306SOL    HW1 7817   2.105   5.121   1.807
 2306SOL    HW2 7818   2.244   5.046   1.765
 2307SOL     OW 7819   1.486   3.627   2.431
 2307SOL    HW1 7820   1.482   3.659   2.336
 2307SOL    HW2 7821   1.575   3.652   2.470
 2308SOL     OW 7822   1.541   6.679   0.035
 2308SOL    HW1 7823   1.526   6.595   0.087
 2308SOL    HW2 7824   1.614   6.664   6.988
 2309SOL     OW 7825   3.110   6.455   6.927
 2309SOL    HW1 7826   3.130   6.399   6.847
 2309SOL    HW2 7827   3.026   6.508   6.911
 2310SOL     OW 7828   5.554   6.662   1.508
 2310SOL    HW1 7829   5.635   6.668   1.566
 2310SOL    HW2 7830   5.567   6.589   1.441
 2311SOL     OW 7831   2.460   6.318   2.286
 2311SOL    HW1 7832   2.508   6.355   2.208
 2311SOL    HW2 7833   2.480   6.220   2.294
 2312SOL     OW 7834   3.483   6.056   4.232
 2312SOL    HW1 7835   3.548   5.985   4.205
 2312SOL    HW2 7836   3.520   6.146   4.208
 2313SOL     OW 7837   5.247   5.707   1.905
 2313SOL    HW1 7838   5.194   5.660   1.975
 2313SOL    HW2 7839   5.194   5.714   1.821
 2314SOL     OW 7840   5.903   1.017   4.717
 2314SOL    HW1 7841   5.969   0.982   4.784
 2314SOL    HW2 7842   5.932   0.991   4.625
 2315SOL     OW 7843   5.075   3.802   5.347
 2315SOL    HW1 7844   5.008   3.868   5.314
 2315SOL    HW2 7845   5.163   3.849   5.362
 2316SOL     OW 7846   3.144   6.896   4.604
 2316SOL    HW1 7847   3.214   6.953   4.562
 2316SOL    HW2 7848   3.091   6.951   4.669
 2317SOL     OW 7849   6.363   6.264   3.170
 2317SOL    HW1 7850   6.438   6.233   3.112
 2317SOL    HW2 7851   6.399   6.321   3.244
 2318SOL     OW 7852   2.218   3.165   4.429
 2318SOL    HW1 7853   2.211   3.066   4.436
 2318SOL    HW2 7854   2.267   3.189   4.345
 2319SOL     OW 7855   3.000   5.242   4.710
 2319SOL    HW1 7856   2.998   5.229   4.611
 2319SOL    HW2 7857   3.080   5.196   4.748
 2320SOL     OW 7858   1.316   2.822   4.964
 2320SOL    HW1 7859   1.352   2.768   4.888
 2320SOL    HW2 7860   1.312   2.764   5.046
 2321SOL     OW 7861   1.403   5.170   0.566
 2321SOL    HW1 7862   1.501   5.169   0.548
 2321SOL    HW2 7863   1.376   5.259   0.604
 2322SOL     OW 7864   1.761   4.419   2.822
 2322SOL    HW1 7865   1.682   4.367   2.854
 2322SOL    HW2 7866   1.841   4.360   2.817
 2323SOL     OW 7867   3.042   4.664   1.601
 2323SOL    HW1 7868   3.057   4.569   1.627
 2323SOL    HW2 7869   3.068   4.677   1.505
 2324SOL     OW 7870   6.464   5.780   0.652
 2324SOL    HW1 7871   6.481   5.869   0.695
 2324SOL    HW2 7872   6.526   5.712   0.691
 2325SOL     OW 7873   0.815   4.514   1.473
 2325SOL    HW1 7874   0.720   4.483   1.466
 2325SOL    HW2 7875   0.871   4.443   1.515
 2326SOL     OW 7876   2.188   6.126   6.888
 2326SOL    HW1 7877   2.113   6.076   6.847
 2326SOL    HW2 7878   2.154   6.182   6.964
 2327SOL     OW 7879   6.957   1.955   3.861
 2327SOL    HW1 7880   6.886   1.919   3.799
 2327SOL    HW2 7881   6.914   2.001   3.938
 2328SOL     OW 7882   1.625   1.393   2.717
 2328SOL    HW1 7883   1.550   1.348   2.766
 2328SOL    HW2 7884   1.598   1.487   2.695
 2329SOL     OW 7885   1.410   4.291   4.990
 2329SOL    HW1 7886   1.319   4.320   4.961
 2329SOL    HW2 7887   1.479   4.353   4.952
 2330SOL     OW 7888   0.473   3.011   1.602
 2330SOL    HW1 7889   0.531   3.079   1.646
 2330SOL    HW2 7890   0.388   3.054   1.571
 2331SOL     OW 7891   4.083   5.294   6.782
 2331SOL    HW1 7892   4.011   5.355   6.815
 2331SOL    HW2 7893   4.139   5.343   6.714
 2332SOL     OW 7894   6.421   0.689   5.395
 2332SOL    HW1 7895   6.406   0.784   5.424
 2332SOL    HW2 7896   6.419   0.684   5.296
 2333SOL     OW 7897   7.014   3.899   2.898
 2333SOL    HW1 7898   0.072   3.953   2.864
 2333SOL    HW2 7899   6.952   3.880   2.822
 2334SOL     OW 7900   1.872   0.622   6.573
 2334SOL    HW1 7901   1.936   0.626   6.650
 2334SOL    HW2 7902   1.854   0.714   6.540
 2335SOL     OW 7903   6.457   1.133   4.291
 2335SOL    HW1 7904   6.512   1.205   4.248
 2335SOL    HW2 7905   6.388   1.102   4.225
 2336SOL     OW 7906   3.857   1.497   4.448
 2336SOL    HW1 7907   3.785   1.564   4.428
 2336SOL    HW2 7908   3.910   1.481   4.365
 2337SOL     OW 7909   3.995   0.309   1.717
 2337SOL    HW1 7910   3.949   0.358   1.791
 2337SOL    HW2 7911   4.085   0.279   1.748
 2338SOL     OW 7912   0.729   2.905   5.236
 2338SOL    HW1 7913   0.793   2.866   5.170
 2338SOL    HW2 7914   0.754   2.873   5.328
 2339SOL     OW 7915   2.907   3.406   3.592
 2339SOL    HW1 7916   2.883   3.431   3.686
 2339SOL    HW2 7917   2.880   3.480   3.530
 2340SOL     OW 7918   6.576   4.239   6.154
 2340SOL    HW1 7919   6.492   4.284   6.185
 2340SOL    HW2 7920   6.643   4.237   6.228
 2341SOL     OW 7921   3.212   4.842   1.991
 2341SOL    HW1 7922   3.251   4.804   1.907
 2341SOL    HW2 7923   3.182   4.768   2.051
 2342SOL     OW 7924   0.749   6.717   5.915
 2342SOL    HW1 7925   0.700   6.786   5.969
 2342SOL    HW2 7926   0.842   6.749   5.896
 2343SOL     OW 7927   1.970   5.384   2.998
 2343SOL    HW1 7928   1.994   5.472   2.959
 2343SOL    HW2 7929   1.991   5.384   3.096
 2344SOL     OW 7930   0.843   5.861   6.605
 2344SOL    HW1 7931   0.782   5.831   6.532
 2344SOL    HW2 7932   0.811   5.948   6.642
 2345SOL     OW 7933   3.388   5.545   5.004
 2345SOL    HW1 7934   3.349   5.459   5.036
 2345SOL    HW2 7935   3.318   5.596   4.952
 2346SOL     OW 7936   4.019   3.674   5.341
 2346SOL    HW1 7937   3.931   3.650   5.299
 2346SOL    HW2 7938   4.034   3.773   5.334
 2347SOL     OW 7939   3.391   2.278   1.432
 2347SOL    HW1 7940   3.299   2.244   1.412
 2347SOL    HW2 7941   3.407   2.274   1.531
 2348SOL     OW 7942   2.511   6.919   4.138
 2348SOL    HW1 7943   2.571   6.953   4.066
 2348SOL    HW2 7944   2.555   6.931   4.227
 2349SOL     OW 7945   0.533   4.701   6.085
 2349SOL    HW1 7946   0.458   4.702   6.151
 2349SOL    HW2 7947   0.525   4.779   6.023
 2350SOL     OW 7948   6.247   0.380   6.414
 2350SOL    HW1 7949   6.331   0.329   6.433
 2350SOL    HW2 7950   6.171   0.340   6.465
 2351SOL     OW 7951   2.645   5.507   4.230
 2351SOL    HW1 7952   2.563   5.489   4.285
 2351SOL    HW2 7953   2.701   5.424   4.225
 2352SOL     OW 7954   0.668   4.621   2.640
 2352SOL    HW1 7955   0.604   4.629   2.564
 2352SOL    HW2 7956   0.749   4.571   2.611
 2353SOL     OW 7957   3.077   5.204   5.258
 2353SOL    HW1 7958   3.066   5.125   5.197
 2353SOL    HW2 7959   3.145   5.267   5.220
 2354SOL     OW 7960   2.934   1.513   6.016
 2354SOL    HW1 7961   2.886   1.591   5.975
 2354SOL    HW2 7962   3.031   1.517   5.992
 2355SOL     OW 7963   2.270   5.852   0.183
 2355SOL    HW1 7964   2.342   5.842   0.114
 2355SOL    HW2 7965   2.309   5.893   0.265
 2356SOL     OW 7966   1.296   3.306   6.670
 2356SOL    HW1 7967   1.394   3.291   6.683
 2356SOL    HW2 7968   1.263   3.247   6.596
 2357SOL     OW 7969   4.975   7.018   3.041
 2357SOL    HW1 7970   4.976   6.930   2.994
 2357SOL    HW2 7971   4.892   0.049   3.015
 2358SOL     OW 7972   3.657   4.939   4.669
 2358SOL    HW1 7973   3.746   4.975   4.698
 2358SOL    HW2 7974   3.626   4.869   4.734
 2359SOL     OW 7975   6.421   0.417   5.506
 2359SOL    HW1 7976   6.417   0.513   5.481
 2359SOL    HW2 7977   6.488   0.403   5.579
 2360SOL     OW 7978   5.108   4.132   0.231
 2360SOL    HW1 7979   5.197   4.089   0.247
 2360SOL    HW2 7980   5.037   4.062   0.226
 2361SOL     OW 7981   2.863   0.896   5.245
 2361SOL    HW1 7982   2.907   0.828   5.304
 2361SOL    HW2 7983   2.796   0.947   5.298
 2362SOL     OW 7984   2.430   6.375   4.015
 2362SOL    HW1 7985   2.356   6.440   4.031
 2362SOL    HW2 7986   2.449   6.325   4.100
 2363SOL     OW 7987   4.596   2.430   5.191
 2363SOL    HW1 7988   4.690   2.407   5.216
 2363SOL    HW2 7989   4.547   2.462   5.271
 2364SOL     OW 7990   0.894   2.261   3.013
 2364SOL    HW1 7991   0.814   2.275   3.073
 2364SOL    HW2 7992   0.930   2.350   2.986
 2365SOL     OW 7993   6.129   2.419   6.618
 2365SOL    HW1 7994   6.217   2.465   6.629
 2365SOL    HW2 7995   6.130   2.333   6.669
 2366SOL     OW 7996   2.175   5.086   6.619
 2366SOL    HW1 7997   2.173   4.993   6.582
 2366SOL    HW2 7998   2.105   5.141   6.573
 2367SOL     OW 7999   2.195   3.981   0.282
 2367SOL    HW1 8000   2.159   4.066   0.241
 2367SOL    HW2 8001   2.295   3.980   0.273
 2368SOL     OW 8002   4.106   0.700   4.279
 2368SOL    HW1 8003   4.066   0.642   4.208
 2368SOL    HW2 8004   4.159   0.644   4.342
 2369SOL     OW 8005   1.357   1.405   5.817
 2369SOL    HW1 8006   1.436   1.400   5.757
 2369SOL    HW2 8007   1.341   1.501   5.843
 2370SOL     OW 8008   4.813   3.383   0.200
 2370SOL    HW1 8009   4.793   3.478   0.175
 2370SOL    HW2 8010   4.867   3.382   0.284
 2371SOL     OW 8011   0.337   0.097   2.485
 2371SOL    HW1 8012   0.334   0.015   2.428
 2371SOL    HW2 8013   0.393   0.167   2.440
 2372SOL     OW 8014   0.088   2.719   2.919
 2372SOL    HW1 8015   0.055   2.694   3.010
 2372SOL    HW2 8016   0.010   2.738   2.860
 2373SOL     OW 8017   0.314   1.883   6.673
 2373SOL    HW1 8018   0.362   1.910   6.757
 2373SOL    HW2 8019   0.331   1.786   6.655
 2374SOL     OW 8020   5.880   1.528   3.129
 2374SOL    HW1 8021   5.801   1.583   3.157
 2374SOL    HW2 8022   5.959   1.553   3.184
 2375SOL     OW 8023   2.986   6.646   4.948
 2375SOL    HW1 8024   2.902   6.684   4.987
 2375SOL    HW2 8025   2.981   6.650   4.848
 2376SOL     OW 8026   6.959   2.460   4.832
 2376SOL    HW1 8027   0.011   2.519   4.872
 2376SOL    HW2 8028   6.881   2.455   4.893
 2377SOL     OW 8029   3.429   4.146   3.120
 2377SOL    HW1 8030   3.374   4.191   3.190
 2377SOL    HW2 8031   3.487   4.076   3.162
 2378SOL     OW 8032   5.083   1.649   0.539
 2378SOL    HW1 8033   5.006   1.594   0.569
 2378SOL    HW2 8034   5.137   1.677   0.618
 2379SOL     OW 8035   5.690   2.267   0.093
 2379SOL    HW1 8036   5.620   2.238   0.159
 2379SOL    HW2 8037   5.695   2.200   0.019
 2380SOL     OW 8038   1.042   1.156   6.857
 2380SOL    HW1 8039   0.970   1.206   6.904
 2380SOL    HW2 8040   1.027   1.161   6.758
 2381SOL     OW 8041   2.123   4.140   4.692
 2381SOL    HW1 8042   2.041   4.137   4.749
 2381SOL    HW2 8043   2.197   4.184   4.743
 2382SOL     OW 8044   2.455   4.434   3.753
 2382SOL    HW1 8045   2.503   4.498   3.692
 2382SOL    HW2 8046   2.475   4.458   3.848
 2383SOL     OW 8047   5.156   6.871   1.479
 2383SOL    HW1 8048   5.170   6.970   1.483
 2383SOL    HW2 8049   5.126   6.838   1.569
 2384SOL     OW 8050   5.591   0.536   2.740
 2384SOL    HW1 8051   5.684   0.562   2.766
 2384SOL    HW2 8052   5.549   0.610   2.689
 2385SOL     OW 8053   1.283   6.801   0.904
 2385SOL    HW1 8054   1.243   6.867   0.840
 2385SOL    HW2 8055   1.300   6.847   0.992
 2386SOL     OW 8056   6.103   5.778   4.119
 2386SOL    HW1 8057   6.019   5.751   4.072
 2386SOL    HW2 8058   6.181   5.729   4.079
 2387SOL     OW 8059   1.739   2.053   3.494
 2387SOL    HW1 8060   1.698   2.089   3.410
 2387SOL    HW2 8061   1.667   2.013   3.551
 2388SOL     OW 8062   0.763   2.616   4.752
 2388SOL    HW1 8063   0.836   2.667   4.707
 2388SOL    HW2 8064   0.682   2.674   4.762
 2389SOL     OW 8065   4.969   3.848   2.820
 2389SOL    HW1 8066   4.937   3.850   2.914
 2389SOL    HW2 8067   5.066   3.873   2.817
 2390SOL     OW 8068   3.913   3.108   3.057
 2390SOL    HW1 8069   3.905   3.008   3.057
 2390SOL    HW2 8070   3.851   3.146   3.126
 2391SOL     OW 8071   5.305   4.216   6.014
 2391SOL    HW1 8072   5.320   4.204   6.112
 2391SOL    HW2 8073   5.393   4.230   5.968
 2392SOL     OW 8074   4.518   6.591   5.096
 2392SOL    HW1 8075   4.554   6.596   5.003
 2392SOL    HW2 8076   4.439   6.530   5.098
 2393SOL     OW 8077   5.516   3.718   6.134
 2393SOL    HW1 8078   5.489   3.645   6.196
 2393SOL    HW2 8079   5.453   3.719   6.056
 2394SOL     OW 8080   1.503   3.074   4.629
 2394SOL    HW1 8081   1.432   3.125   4.581
 2394SOL    HW2 8082   1.541   3.130   4.703
 2395SOL     OW 8083   5.541   2.576   6.397
 2395SOL    HW1 8084   5.449   2.589   6.434
 2395SOL    HW2 8085   5.537   2.568   6.298
 2396SOL     OW 8086   3.611   4.610   1.365
 2396SOL    HW1 8087   3.532   4.558   1.397
 2396SOL    HW2 8088   3.649   4.663   1.441
 2397SOL     OW 8089   0.254   4.236   6.362
 2397SOL    HW1 8090   0.184   4.269   6.299
 2397SOL    HW2 8091   0.334   4.205   6.310
 2398SOL     OW 8092   2.867   3.049   6.991
 2398SOL    HW1 8093   2.842   2.983   0.043
 2398SOL    HW2 8094   2.795   3.054   6.923
 2399SOL     OW 8095   4.624   1.838   1.772
 2399SOL    HW1 8096   4.564   1.873   1.700
 2399SOL    HW2 8097   4.630   1.739   1.764
 2400SOL     OW 8098   2.954   3.955   0.594
 2400SOL    HW1 8099   3.004   4.007   0.525
 2400SOL    HW2 8100   2.911   3.875   0.550
 2401SOL     OW 8101   4.297   5.868   6.139
 2401SOL    HW1 8102   4.258   5.958   6.120
 2401SOL    HW2 8103   4.226   5.798   6.128
 2402SOL     OW 8104   6.717   0.997   3.563
 2402SOL    HW1 8105   6.708   1.008   3.464
 2402SOL    HW2 8106   6.780   0.922   3.582
 2403SOL     OW 8107   2.063   2.566   6.860
 2403SOL    HW1 8108   2.155   2.574   6.821
 2403SOL    HW2 8109   2.065   2.504   6.938
 2404SOL     OW 8110   3.506   1.063   0.682
 2404SOL    HW1 8111   3.545   1.107   0.602
 2404SOL    HW2 8112   3.571   0.997   0.719
 2405SOL     OW 8113   3.917   3.399   2.776
 2405SOL    HW1 8114   3.833   3.348   2.796
 2405SOL    HW2 8115   3.895   3.481   2.724
 2406SOL     OW 8116   2.787   6.681   2.522
 2406SOL    HW1 8117   2.779   6.622   2.441
 2406SOL    HW2 8118   2.883   6.700   2.539
 2407SOL     OW 8119   5.516   1.792   2.111
 2407SOL    HW1 8120   5.434   1.807   2.167
 2407SOL    HW2 8121   5.493   1.730   2.035
 2408SOL     OW 8122   3.646   4.880   3.139
 2408SOL    HW1 8123   3.650   4.824   3.056
 2408SOL    HW2 8124   3.722   4.856   3.199
 2409SOL     OW 8125   1.647   4.640   1.951
 2409SOL    HW1 8126   1.591   4.710   1.905
 2409SOL    HW2 8127   1.616   4.549   1.923
 2410SOL     OW 8128   4.042   2.825   5.690
 2410SOL    HW1 8129   3.958   2.771   5.695
 2410SOL    HW2 8130   4.020   2.917   5.658
 2411SOL     OW 8131   3.908   5.485   4.923
 2411SOL    HW1 8132   3.884   5.582   4.927
 2411SOL    HW2 8133   3.825   5.431   4.909
 2412SOL     OW 8134   4.918   5.263   1.153
 2412SOL    HW1 8135   4.913   5.165   1.134
 2412SOL    HW2 8136   5.006   5.283   1.196
 2413SOL     OW 8137   6.032   2.354   0.954
 2413SOL    HW1 8138   5.964   2.356   1.027
 2413SOL    HW2 8139   6.081   2.441   0.951
 2414SOL     OW 8140   4.976   4.591   2.651
 2414SOL    HW1 8141   5.059   4.536   2.656
 2414SOL    HW2 8142   4.970   4.649   2.733
 2415SOL     OW 8143   6.952   0.460   2.683
 2415SOL    HW1 8144   6.895   0.432   2.760
 2415SOL    HW2 8145   0.029   0.459   2.712
 2416SOL     OW 8146   4.163   1.891   5.620
 2416SOL    HW1 8147   4.209   1.805   5.643
 2416SOL    HW2 8148   4.067   1.871   5.599
 2417SOL     OW 8149   3.697   2.932   5.775
 2417SOL    HW1 8150   3.678   2.998   5.703
 2417SOL    HW2 8151   3.679   2.975   5.864
 2418SOL     OW 8152   3.025   3.236   4.453
 2418SOL    HW1 8153   2.960   3.295   4.404
 2418SOL    HW2 8154   3.013   3.249   4.551
 2419SOL     OW 8155   6.967   0.151   5.001
 2419SOL    HW1 8156   6.897   0.100   4.952
 2419SOL    HW2 8157   0.028   0.093   5.014
 2420SOL     OW 8158   2.715   1.360   2.518
 2420SOL    HW1 8159   2.710   1.260   2.514
 2420SOL    HW2 8160   2.622   1.397   2.517
 2421SOL     OW 8161   2.706   1.781   4.516
 2421SOL    HW1 8162   2.719   1.785   4.615
 2421SOL    HW2 8163   2.750   1.699   4.480
 2422SOL     OW 8164   5.823   1.589   0.938
 2422SOL    HW1 8165   5.868   1.510   0.896
 2422SOL    HW2 8166   5.762   1.558   1.011
 2423SOL     OW 8167   1.455   5.917   2.732
 2423SOL    HW1 8168   1.397   5.950   2.806
 2423SOL    HW2 8169   1.505   5.994   2.693
 2424SOL     OW 8170   6.178   0.242   5.896
 2424SOL    HW1 8171   6.172   0.341   5.885
 2424SOL    HW2 8172   6.273   0.213   5.883
 2425SOL     OW 8173   5.492   0.633   3.786
 2425SOL    HW1 8174   5.542   0.553   3.754
 2425SOL    HW2 8175   5.394   0.614   3.783
 2426SOL     OW 8176   0.994   6.439   5.024
 2426SOL    HW1 8177   1.034   6.381   5.095
 2426SOL    HW2 8178   1.049   6.434   4.941
 2427SOL     OW 8179   6.001   6.145   5.620
 2427SOL    HW1 8180   6.082   6.124   5.565
 2427SOL    HW2 8181   5.929   6.183   5.562
 2428SOL     OW 8182   6.160   0.421   2.431
 2428SOL    HW1 8183   6.076   0.451   2.476
 2428SOL    HW2 8184   6.146   0.417   2.332
 2429SOL     OW 8185   5.254   5.629   3.613
 2429SOL    HW1 8186   5.222   5.683   3.535
 2429SOL    HW2 8187   5.176   5.588   3.660
 2430SOL     OW 8188   5.728   1.547   1.442
 2430SOL    HW1 8189   5.735   1.466   1.500
 2430SOL    HW2 8190   5.797   1.614   1.470
 2431SOL     OW 8191   4.253   0.854   2.625
 2431SOL    HW1 8192   4.312   0.850   2.545
 2431SOL    HW2 8193   4.203   0.768   2.634
 2432SOL     OW 8194   3.134   6.443   2.717
 2432SOL    HW1 8195   3.175   6.477   2.633
 2432SOL    HW2 8196   3.092   6.354   2.700
 2433SOL     OW 8197   3.512   1.148   0.986
 2433SOL    HW1 8198   3.473   1.229   1.031
 2433SOL    HW2 8199   3.488   1.148   0.889
 2434SOL     OW 8200   3.876   1.223   5.476
 2434SOL    HW1 8201   3.813   1.192   5.547
 2434SOL    HW2 8202   3.932   1.298   5.513
 2435SOL     OW 8203   4.735   4.561   6.398
 2435SOL    HW1 8204   4.789   4.596   6.322
 2435SOL    HW2 8205   4.794   4.546   6.477
 2436SOL     OW 8206   1.195   5.309   0.703
 2436SOL    HW1 8207   1.164   5.276   0.614
 2436SOL    HW2 8208   1.149   5.257   0.775
 2437SOL     OW 8209   5.167   6.401   6.488
 2437SOL    HW1 8210   5.140   6.364   6.578
 2437SOL    HW2 8211   5.238   6.345   6.448
 2438SOL     OW 8212   3.316   1.023   6.837
 2438SOL    HW1 8213   3.403   0.987   6.871
 2438SOL    HW2 8214   3.241   0.966   6.871
 2439SOL     OW 8215   1.622   4.509   6.864
 2439SOL    HW1 8216   1.720   4.489   6.873
 2439SOL    HW2 8217   1.609   4.608   6.855
 2440SOL     OW 8218   4.805   6.168   5.602
 2440SOL    HW1 8219   4.763   6.078   5.596
 2440SOL    HW2 8220   4.874   6.178   5.529
 2441SOL     OW 8221   0.578   1.134   0.683
 2441SOL    HW1 8222   0.659   1.166   0.731
 2441SOL    HW2 8223   0.502   1.124   0.748
 2442SOL     OW 8224   0.973   3.232   6.311
 2442SOL    HW1 8225   1.064   3.194   6.293
 2442SOL    HW2 8226   0.977   3.293   6.390
 2443SOL     OW 8227   3.723   5.400   6.143
 2443SOL    HW1 8228   3.756   5.445   6.060
 2443SOL    HW2 8229   3.716   5.302   6.127
 2444SOL     OW 8230   3.082   4.056   6.402
 2444SOL    HW1 8231   3.008   4.016   6.348
 2444SOL    HW2 8232   3.169   4.041   6.354
 2445SOL     OW 8233   6.964   1.431   1.307
 2445SOL    HW1 8234   7.012   1.375   1.375
 2445SOL    HW2 8235   7.003   1.415   1.217
 2446SOL     OW 8236   6.126   4.584   3.816
 2446SOL    HW1 8237   6.168   4.627   3.896
 2446SOL    HW2 8238   6.195   4.572   3.744
 2447SOL     OW 8239   2.125   2.500   0.505
 2447SOL    HW1 8240   2.116   2.535   0.598
 2447SOL    HW2 8241   2.167   2.570   0.447
 2448SOL     OW 8242   0.252   0.903   4.635
 2448SOL    HW1 8243   0.228   0.976   4.699
 2448SOL    HW2 8244   0.281   0.822   4.687
 2449SOL     OW 8245   6.971   4.761   6.771
 2449SOL    HW1 8246   6.886   4.749   6.719
 2449SOL    HW2 8247   0.023   4.800   6.713
 2450SOL     OW 8248   2.545   4.649   2.805
 2450SOL    HW1 8249   2.537   4.589   2.726
 2450SOL    HW2 8250   2.572   4.741   2.775
 2451SOL     OW 8251   1.757   0.858   3.869
 2451SOL    HW1 8252   1.781   0.943   3.821
 2451SOL    HW2 8253   1.837   0.826   3.920
 2452SOL     OW 8254   2.004   3.759   2.665
 2452SOL    HW1 8255   2.025   3.664   2.684
 2452SOL    HW2 8256   2.069   3.795   2.598
 2453SOL     OW 8257   6.256   4.806   1.521
 2453SOL    HW1 8258   6.288   4.886   1.572
 2453SOL    HW2 8259   6.159   4.792   1.539
 2454SOL     OW 8260   3.306   0.731   1.664
 2454SOL    HW1 8261   3.281   0.736   1.567
 2454SOL    HW2 8262   3.358   0.813   1.688
 2455SOL     OW 8263   5.164   6.279   0.321
 2455SOL    HW1 8264   5.149   6.284   0.222
 2455SOL    HW2 8265   5.239   6.340   0.347
 2456SOL     OW 8266   5.397   6.340   1.738
 2456SOL    HW1 8267   5.483   6.310   1.779
 2456SOL    HW2 8268   5.323   6.281   1.769
 2457SOL     OW 8269   5.209   6.708   0.424
 2457SOL    HW1 8270   5.301   6.737   0.452
 2457SOL    HW2 8271   5.148   6.707   0.503
 2458SOL     OW 8272   2.642   5.896   3.344
 2458SOL    HW1 8273   2.624   5.978   3.289
 2458SOL    HW2 8274   2.736   5.867   3.330
 2459SOL     OW 8275   1.962   6.655   0.792
 2459SOL    HW1 8276   1.885   6.676   0.852
 2459SOL    HW2 8277   1.938   6.681   0.698
 2460SOL     OW 8278   2.048   0.348   1.694
 2460SOL    HW1 8279   2.055   0.297   1.608
 2460SOL    HW2 8280   1.962   0.399   1.696
 2461SOL     OW 8281   5.589   0.704   1.949
 2461SOL    HW1 8282   5.603   0.724   2.046
 2461SOL    HW2 8283   5.498   0.735   1.921
 2462SOL     OW 8284   2.666   5.444   0.103
 2462SOL    HW1 8285   2.588   5.407   0.052
 2462SOL    HW2 8286   2.743   5.381   0.095
 2463SOL     OW 8287   6.851   2.089   4.431
 2463SOL    HW1 8288   6.900   2.063   4.514
 2463SOL    HW2 8289   6.779   2.155   4.454
 2464SOL     OW 8290   0.611   4.700   1.260
 2464SOL    HW1 8291   0.557   4.766   1.206
 2464SOL    HW2 8292   0.614   4.730   1.355
 2465SOL     OW 8293   0.173   6.106   1.810
 2465SOL    HW1 8294   0.271   6.094   1.826
 2465SOL    HW2 8295   0.144   6.045   1.736
 2466SOL     OW 8296   4.199   1.513   2.230
 2466SOL    HW1 8297   4.231   1.456   2.306
 2466SOL    HW2 8298   4.106   1.544   2.248
 2467SOL     OW 8299   6.046   1.443   5.869
 2467SOL    HW1 8300   6.012   1.396   5.787
 2467SOL    HW2 8301   5.969   1.461   5.931
 2468SOL     OW 8302   6.586   6.294   2.160
 2468SOL    HW1 8303   6.626   6.216   2.113
 2468SOL    HW2 8304   6.517   6.262   2.225
 2469SOL     OW 8305   3.355   3.821   5.756
 2469SOL    HW1 8306   3.318   3.853   5.669
 2469SOL    HW2 8307   3.451   3.850   5.764
 2470SOL     OW 8308   3.003   4.069   5.794
 2470SOL    HW1 8309   3.014   3.990   5.734
 2470SOL    HW2 8310   2.997   4.153   5.739
 2471SOL     OW 8311   0.634   6.012   1.547
 2471SOL    HW1 8312   0.679   6.097   1.574
 2471SOL    HW2 8313   0.703   5.941   1.533
 2472SOL     OW 8314   5.767   2.141   4.362
 2472SOL    HW1 8315   5.679   2.150   4.409
 2472SOL    HW2 8316   5.773   2.050   4.320
 2473SOL     OW 8317   1.161   5.072   4.371
 2473SOL    HW1 8318   1.169   5.166   4.339
 2473SOL    HW2 8319   1.242   5.047   4.423
 2474SOL     OW 8320   6.938   5.271   5.733
 2474SOL    HW1 8321   6.867   5.206   5.706
 2474SOL    HW2 8322   6.899   5.339   5.795
 2475SOL     OW 8323   4.131   2.485   0.820
 2475SOL    HW1 8324   4.218   2.444   0.792
 2475SOL    HW2 8325   4.147   2.543   0.900
 2476SOL     OW 8326   1.059   2.013   3.760
 2476SOL    HW1 8327   0.974   1.976   3.724
 2476SOL    HW2 8328   1.059   2.006   3.860
 2477SOL     OW 8329   5.985   6.387   1.366
 2477SOL    HW1 8330   6.041   6.338   1.434
 2477SOL    HW2 8331   5.891   6.351   1.369
 2478SOL     OW 8332   6.044   6.485   2.645
 2478SOL    HW1 8333   6.053   6.397   2.692
 2478SOL    HW2 8334   6.129   6.505   2.596
 2479SOL     OW 8335   0.290   2.617   1.458
 2479SOL    HW1 8336   0.380   2.656   1.440
 2479SOL    HW2 8337   0.276   2.611   1.557
 2480SOL     OW 8338   0.119   3.159   0.797
 2480SOL    HW1 8339   0.129   3.060   0.796
 2480SOL    HW2 8340   0.023   3.183   0.815
 2481SOL     OW 8341   3.671   5.906   1.150
 2481SOL    HW1 8342   3.734   5.830   1.165
 2481SOL    HW2 8343   3.697   5.954   1.066
 2482SOL     OW 8344   4.791   3.605   5.654
 2482SOL    HW1 8345   4.811   3.611   5.556
 2482SOL    HW2 8346   4.721   3.672   5.678
 2483SOL     OW 8347   1.440   0.897   0.861
 2483SOL    HW1 8348   1.379   0.915   0.939
 2483SOL    HW2 8349   1.496   0.817   0.881
 2484SOL     OW 8350   2.041   0.352   0.772
 2484SOL    HW1 8351   1.967   0.399   0.726
 2484SOL    HW2 8352   2.109   0.322   0.705
 2485SOL     OW 8353   6.839   5.325   2.350
 2485SOL    HW1 8354   6.810   5.266   2.425
 2485SOL    HW2 8355   6.821   5.421   2.375
 2486SOL     OW 8356   1.956   5.848   3.749
 2486SOL    HW1 8357   1.981   5.786   3.675
 2486SOL    HW2 8358   2.003   5.820   3.833
 2487SOL     OW 8359   3.946   6.470   0.314
 2487SOL    HW1 8360   3.864   6.412   0.314
 2487SOL    HW2 8361   4.004   6.446   0.237
 2488SOL     OW 8362   2.854   4.167   1.191
 2488SOL    HW1 8363   2.890   4.130   1.276
 2488SOL    HW2 8364   2.845   4.093   1.124
 2489SOL     OW 8365   1.915   5.659   5.176
 2489SOL    HW1 8366   1.991   5.596   5.191
 2489SOL    HW2 8367   1.863   5.630   5.095
 2490SOL     OW 8368   6.861   4.715   0.265
 2490SOL    HW1 8369   6.795   4.651   0.224
 2490SOL    HW2 8370   6.932   4.737   0.198
 2491SOL     OW 8371   2.908   5.636   2.645
 2491SOL    HW1 8372   2.847   5.608   2.572
 2491SOL    HW2 8373   2.972   5.563   2.666
 2492SOL     OW 8374   4.600   3.310   6.241
 2492SOL    HW1 8375   4.639   3.269   6.159
 2492SOL    HW2 8376   4.635   3.262   6.322
 2493SOL     OW 8377   5.519   0.882   2.463
 2493SOL    HW1 8378   5.508   0.972   2.421
 2493SOL    HW2 8379   5.566   0.892   2.551
 2494SOL     OW 8380   4.709   2.747   2.408
 2494SOL    HW1 8381   4.711   2.822   2.341
 2494SOL    HW2 8382   4.654   2.774   2.486
 2495SOL     OW 8383   4.816   1.480   5.125
 2495SOL    HW1 8384   4.849   1.472   5.220
 2495SOL    HW2 8385   4.788   1.575   5.108
 2496SOL     OW 8386   0.646   5.287   0.301
 2496SOL    HW1 8387   0.579   5.352   0.267
 2496SOL    HW2 8388   0.685   5.236   0.224
 2497SOL     OW 8389   6.645   1.645   0.725
 2497SOL    HW1 8390   6.697   1.678   0.646
 2497SOL    HW2 8391   6.610   1.722   0.777
 2498SOL     OW 8392   2.003   3.135   3.401
 2498SOL    HW1 8393   1.957   3.182   3.325
 2498SOL    HW2 8394   2.048   3.053   3.366
 2499SOL     OW 8395   5.620   0.845   4.410
 2499SOL    HW1 8396   5.564   0.876   4.333
 2499SOL    HW2 8397   5.569   0.777   4.462
 2500SOL     OW 8398   5.068   3.049   6.202
 2500SOL    HW1 8399   5.084   3.100   6.287
 2500SOL    HW2 8400   5.016   2.966   6.222
 2501SOL     OW 8401   5.893   4.546   6.755
 2501SOL    HW1 8402   5.892   4.466   6.814
 2501SOL    HW2 8403   5.933   4.623   6.804
 2502SOL     OW 8404   2.372   6.621   3.229
 2502SOL    HW1 8405   2.287   6.673   3.216
 2502SOL    HW2 8406   2.350   6.525   3.242
 2503SOL     OW 8407   4.133   5.438   5.893
 2503SOL    HW1 8408   4.209   5.448   5.829
 2503SOL    HW2 8409   4.158   5.373   5.965
 2504SOL     OW 8410   1.647   4.500   4.582
 2504SOL    HW1 8411   1.666   4.556   4.662
 2504SOL    HW2 8412   1.643   4.404   4.608
 2505SOL     OW 8413   3.674   5.636   4.325
 2505SOL    HW1 8414   3.628   5.693   4.393
 2505SOL    HW2 8415   3.655   5.540   4.345
 2506SOL     OW 8416   6.366   3.212   6.270
 2506SOL    HW1 8417   6.276   3.255   6.272
 2506SOL    HW2 8418   6.375   3.157   6.188
 2507SOL     OW 8419   6.222   5.588   0.775
 2507SOL    HW1 8420   6.283   5.515   0.805
 2507SOL    HW2 8421   6.261   5.676   0.801
 2508SOL     OW 8422   2.702   1.848   2.385
 2508SOL    HW1 8423   2.709   1.882   2.291
 2508SOL    HW2 8424   2.713   1.924   2.448
 2509SOL     OW 8425   5.697   2.643   2.733
 2509SOL    HW1 8426   5.725   2.547   2.740
 2509SOL    HW2 8427   5.772   2.696   2.693
 2510SOL     OW 8428   2.871   4.799   0.618
 2510SOL    HW1 8429   2.802   4.739   0.657
 2510SOL    HW2 8430   2.954   4.795   0.672
 2511SOL     OW 8431   1.185   0.962   4.804
 2511SOL    HW1 8432   1.092   0.924   4.801
 2511SOL    HW2 8433   1.226   0.942   4.892
 2512SOL     OW 8434   4.828   4.053   4.949
 2512SOL    HW1 8435   4.920   4.079   4.979
 2512SOL    HW2 8436   4.834   3.981   4.880
 2513SOL     OW 8437   1.189   2.470   6.351
 2513SOL    HW1 8438   1.139   2.474   6.437
 2513SOL    HW2 8439   1.161   2.546   6.292
 2514SOL     OW 8440   0.700   1.528   4.470
 2514SOL    HW1 8441   0.762   1.581   4.413
 2514SOL    HW2 8442   0.638   1.475   4.412
 2515SOL     OW 8443   1.564   6.065   0.182
 2515SOL    HW1 8444   1.618   5.982   0.169
 2515SOL    HW2 8445   1.485   6.064   0.121
 2516SOL     OW 8446   6.082   6.312   3.431
 2516SOL    HW1 8447   6.118   6.380   3.367
 2516SOL    HW2 8448   6.153   6.245   3.452
 2517SOL     OW 8449   2.441   4.741   0.211
 2517SOL    HW1 8450   2.425   4.665   0.147
 2517SOL    HW2 8451   2.519   4.719   0.269
 2518SOL     OW 8452   2.051   2.786   6.518
 2518SOL    HW1 8453   2.045   2.874   6.566
 2518SOL    HW2 8454   2.092   2.718   6.579
 2519SOL     OW 8455   5.026   4.790   4.592
 2519SOL    HW1 8456   5.056   4.766   4.500
 2519SOL    HW2 8457   4.943   4.739   4.615
 2520SOL     OW 8458   2.596   3.294   1.129
 2520SOL    HW1 8459   2.569   3.199   1.111
 2520SOL    HW2 8460   2.606   3.308   1.228
 2521SOL     OW 8461   6.977   6.950   5.615
 2521SOL    HW1 8462   6.892   6.967   5.665
 2521SOL    HW2 8463   0.034   6.945   5.680
 2522SOL     OW 8464   1.220   3.303   4.258
 2522SOL    HW1 8465   1.312   3.297   4.219
 2522SOL    HW2 8466   1.190   3.398   4.260
 2523SOL     OW 8467   6.898   3.729   0.439
 2523SOL    HW1 8468   6.814   3.766   0.478
 2523SOL    HW2 8469   6.922   3.781   0.357
 2524SOL     OW 8470   1.395   6.449   4.144
 2524SOL    HW1 8471   1.424   6.440   4.049
 2524SOL    HW2 8472   1.298   6.475   4.147
 2525SOL     OW 8473   1.359   4.311   4.393
 2525SOL    HW1 8474   1.355   4.211   4.396
 2525SOL    HW2 8475   1.416   4.339   4.316
 2526SOL     OW 8476   0.365   2.144   4.417
 2526SOL    HW1 8477   0.369   2.203   4.498
 2526SOL    HW2 8478   0.277   2.157   4.371
 2527SOL     OW 8479   5.850   6.433   4.741
 2527SOL    HW1 8480   5.846   6.442   4.641
 2527SOL    HW2 8481   5.790   6.358   4.769
 2528SOL     OW 8482   5.877   5.501   0.439
 2528SOL    HW1 8483   5.893   5.405   0.461
 2528SOL    HW2 8484   5.903   5.558   0.516
 2529SOL     OW 8485   4.884   5.774   4.734
 2529SOL    HW1 8486   4.862   5.686   4.692
 2529SOL    HW2 8487   4.974   5.769   4.777
 2530SOL     OW 8488   1.126   6.709   3.159
 2530SOL    HW1 8489   1.061   6.772   3.202
 2530SOL    HW2 8490   1.169   6.653   3.229
 2531SOL     OW 8491   4.679   0.482   5.397
 2531SOL    HW1 8492   4.646   0.502   5.304
 2531SOL    HW2 8493   4.682   0.383   5.410
 2532SOL     OW 8494   1.142   5.313   6.978
 2532SOL    HW1 8495   1.205   5.322   0.036
 2532SOL    HW2 8496   1.193   5.285   6.897
 2533SOL     OW 8497   5.283   0.182   5.559
 2533SOL    HW1 8498   5.381   0.183   5.579
 2533SOL    HW2 8499   5.238   0.110   5.612
 2534SOL     OW 8500   1.974   0.334   3.638
 2534SOL    HW1 8501   1.982   0.241   3.601
 2534SOL    HW2 8502   2.064   0.364   3.671
 2535SOL     OW 8503   1.393   1.166   3.704
 2535SOL    HW1 8504   1.461   1.211   3.647
 2535SOL    HW2 8505   1.374   1.074   3.669
 2536SOL     OW 8506   5.990   1.504   4.641
 2536SOL    HW1 8507   5.923   1.477   4.572
 2536SOL    HW2 8508   6.067   1.441   4.640
 2537SOL     OW 8509   4.813   5.793   1.075
 2537SOL    HW1 8510   4.847   5.824   0.986
 2537SOL    HW2 8511   4.830   5.863   1.144
 2538SOL     OW 8512   1.755   4.701   4.827
 2538SOL    HW1 8513   1.846   4.680   4.793
 2538SOL    HW2 8514   1.721   4.625   4.881
 2539SOL     OW 8515   4.452   0.103   4.915
 2539SOL    HW1 8516   4.462   0.140   5.008
 2539SOL    HW2 8517   4.479   0.173   4.849
 2540SOL     OW 8518   5.108   1.394   2.144
 2540SOL    HW1 8519   5.103   1.366   2.048
 2540SOL    HW2 8520   5.162   1.328   2.196
 2541SOL     OW 8521   1.211   6.841   5.513
 2541SOL    HW1 8522   1.272   6.920   5.521
 2541SOL    HW2 8523   1.120   6.872   5.484
 2542SOL     OW 8524   3.607   1.757   3.903
 2542SOL    HW1 8525   3.555   1.692   3.959
 2542SOL    HW2 8526   3.561   1.845   3.903
 2543SOL     OW 8527   1.211   0.766   2.651
 2543SOL    HW1 8528   1.122   0.744   2.612
 2543SOL    HW2 8529   1.203   0.847   2.710
 2544SOL     OW 8530   0.010   5.143   1.320
 2544SOL    HW1 8531   7.000   5.239   1.319
 2544SOL    HW2 8532   0.021   5.113   1.415
 2545SOL     OW 8533   1.424   1.554   1.652
 2545SOL    HW1 8534   1.356   1.568   1.724
 2545SOL    HW2 8535   1.430   1.636   1.595
 2546SOL     OW 8536   6.345   3.832   1.934
 2546SOL    HW1 8537   6.439   3.839   1.968
 2546SOL    HW2 8538   6.314   3.922   1.903
 2547SOL     OW 8539   5.527   4.555   0.397
 2547SOL    HW1 8540   5.523   4.622   0.323
 2547SOL    HW2 8541   5.449   4.493   0.390
 2548SOL     OW 8542   0.416   0.300   5.061
 2548SOL    HW1 8543   0.431   0.264   5.154
 2548SOL    HW2 8544   0.392   0.224   5.000
 2549SOL     OW 8545   1.755   2.353   1.943
 2549SOL    HW1 8546   1.848   2.379   1.917
 2549SOL    HW2 8547   1.690   2.412   1.895
 2550SOL     OW 8548   5.361   0.234   6.548
 2550SOL    HW1 8549   5.360   0.136   6.569
 2550SOL    HW2 8550   5.304   0.283   6.614
 2551SOL     OW 8551   2.959   5.872   6.833
 2551SOL    HW1 8552   2.947   5.885   6.932
 2551SOL    HW2 8553   2.929   5.780   6.808
 2552SOL     OW 8554   2.009   5.025   0.215
 2552SOL    HW1 8555   2.019   4.935   0.172
 2552SOL    HW2 8556   2.099   5.058   0.244
 2553SOL     OW 8557   3.460   2.224   6.417
 2553SOL    HW1 8558   3.460   2.187   6.510
 2553SOL    HW2 8559   3.415   2.159   6.356
 2554SOL     OW 8560   1.881   5.821   1.122
 2554SOL    HW1 8561   1.871   5.732   1.166
 2554SOL    HW2 8562   1.800   5.877   1.140
 2555SOL     OW 8563   6.140   6.515   5.804
 2555SOL    HW1 8564   6.045   6.516   5.773
 2555SOL    HW2 8565   6.180   6.425   5.786
 2556SOL     OW 8566   3.431   6.512   1.511
 2556SOL    HW1 8567   3.476   6.590   1.468
 2556SOL    HW2 8568   3.447   6.430   1.456
 2557SOL     OW 8569   3.623   0.572   0.437
 2557SOL    HW1 8570   3.575   0.502   0.489
 2557SOL    HW2 8571   3.677   0.628   0.499
 2558SOL     OW 8572   5.831   4.727   6.582
 2558SOL    HW1 8573   5.835   4.692   6.489
 2558SOL    HW2 8574   5.860   4.656   6.646
 2559SOL     OW 8575   0.396   3.578   3.219
 2559SOL    HW1 8576   0.448   3.662   3.238
 2559SOL    HW2 8577   0.460   3.501   3.211
 2560SOL     OW 8578   4.943   3.297   3.500
 2560SOL    HW1 8579   5.015   3.230   3.488
 2560SOL    HW2 8580   4.883   3.270   3.575
 2561SOL     OW 8581   3.265   0.777   4.175
 2561SOL    HW1 8582   3.232   0.836   4.102
 2561SOL    HW2 8583   3.349   0.815   4.213
 2562SOL     OW 8584   3.739   6.198   3.122
 2562SOL    HW1 8585   3.776   6.227   3.211
 2562SOL    HW2 8586   3.806   6.139   3.077
 2563SOL     OW 8587   2.745   1.214   6.757
 2563SOL    HW1 8588   2.828   1.228   6.810
 2563SOL    HW2 8589   2.665   1.231   6.814
 2564SOL     OW 8590   1.849   0.740   0.340
 2564SOL    HW1 8591   1.878   0.670   0.405
 2564SOL    HW2 8592   1.819   0.696   0.255
 2565SOL     OW 8593   0.715   1.683   6.366
 2565SOL    HW1 8594   0.748   1.774   6.390
 2565SOL    HW2 8595   0.710   1.626   6.448
 2566SOL     OW 8596   3.045   0.871   1.612
 2566SOL    HW1 8597   2.966   0.813   1.595
 2566SOL    HW2 8598   3.127   0.814   1.619
 2567SOL     OW 8599   1.099   0.457   0.334
 2567SOL    HW1 8600   1.148   0.542   0.356
 2567SOL    HW2 8601   1.158   0.399   0.278
 2568SOL     OW 8602   2.517   6.024   1.178
 2568SOL    HW1 8603   2.501   5.948   1.240
 2568SOL    HW2 8604   2.466   6.104   1.210
 2569SOL     OW 8605   1.859   1.025   1.099
 2569SOL    HW1 8606   1.874   1.123   1.114
 2569SOL    HW2 8607   1.867   1.006   1.001
 2570SOL     OW 8608   5.551   6.287   6.703
 2570SOL    HW1 8609   5.521   6.251   6.615
 2570SOL    HW2 8610   5.490   6.254   6.775
 2571SOL     OW 8611   3.852   2.997   3.993
 2571SOL    HW1 8612   3.821   2.918   4.047
 2571SOL    HW2 8613   3.917   3.050   4.048
 2572SOL     OW 8614   2.500   5.342   1.670
 2572SOL    HW1 8615   2.477   5.324   1.765
 2572SOL    HW2 8616   2.595   5.375   1.664
 2573SOL     OW 8617   0.029   2.392   4.391
 2573SOL    HW1 8618   0.039   2.295   4.415
 2573SOL    HW2 8619   0.095   2.446   4.443
 2574SOL     OW 8620   6.823   3.347   0.942
 2574SOL    HW1 8621   6.730   3.313   0.959
 2574SOL    HW2 8622   6.823   3.447   0.944
 2575SOL     OW 8623   5.216   4.125   0.687
 2575SOL    HW1 8624   5.189   4.144   0.781
 2575SOL    HW2 8625   5.286   4.191   0.659
 2576SOL     OW 8626   2.284   6.999   3.568
 2576SOL    HW1 8627   2.348   0.031   3.510
 2576SOL    HW2 8628   2.335   6.954   3.641
 2577SOL     OW 8629   3.777   0.334   3.163
 2577SOL    HW1 8630   3.748   0.404   3.098
 2577SOL    HW2 8631   3.851   0.280   3.123
 2578SOL     OW 8632   4.629   2.601   4.813
 2578SOL    HW1 8633   4.709   2.542   4.826
 2578SOL    HW2 8634   4.546   2.546   4.822
 2579SOL     OW 8635   0.440   2.009   6.929
 2579SOL    HW1 8636   0.424   2.096   6.882
 2579SOL    HW2 8637   0.463   2.027   0.006
 2580SOL     OW 8638   1.753   2.134   6.003
 2580SOL    HW1 8639   1.705   2.046   6.001
 2580SOL    HW2 8640   1.785   2.152   6.096
 2581SOL     OW 8641   5.424   5.610   2.212
 2581SOL    HW1 8642   5.352   5.574   2.153
 2581SOL    HW2 8643   5.434   5.708   2.195
 2582SOL     OW 8644   1.128   5.433   2.566
 2582SOL    HW1 8645   1.105   5.351   2.618
 2582SOL    HW2 8646   1.047   5.465   2.517
 2583SOL     OW 8647   0.384   0.359   1.058
 2583SOL    HW1 8648   0.409   0.341   0.963
 2583SOL    HW2 8649   0.431   0.294   1.118
 2584SOL     OW 8650   2.986   6.089   0.824
 2584SOL    HW1 8651   3.045   6.008   0.829
 2584SOL    HW2 8652   2.901   6.070   0.873
 2585SOL     OW 8653   2.989   6.597   0.921
 2585SOL    HW1 8654   3.084   6.624   0.930
 2585SOL    HW2 8655   2.977   6.504   0.956
 2586SOL     OW 8656   6.213   1.362   4.916
 2586SOL    HW1 8657   6.307   1.389   4.894
 2586SOL    HW2 8658   6.149   1.423   4.869
 2587SOL     OW 8659   6.288   6.890   4.635
 2587SOL    HW1 8660   6.234   6.858   4.713
 2587SOL    HW2 8661   6.355   6.957   4.667
 2588SOL     OW 8662   5.493   1.194   1.408
 2588SOL    HW1 8663   5.557   1.191   1.485
 2588SOL    HW2 8664   5.511   1.118   1.346
 2589SOL     OW 8665   6.855   0.276   5.704
 2589SOL    HW1 8666   6.835   0.337   5.628
 2589SOL    HW2 8667   6.938   0.225   5.685
 2590SOL     OW 8668   3.937   6.938   2.536
 2590SOL    HW1 8669   4.002   6.899   2.471
 2590SOL    HW2 8670   3.848   6.948   2.493
 2591SOL     OW 8671   4.967   6.557   1.241
 2591SOL    HW1 8672   4.922   6.474   1.207
 2591SOL    HW2 8673   5.010   6.537   1.329
 2592SOL     OW 8674   3.281   5.191   1.317
 2592SOL    HW1 8675   3.274   5.103   1.363
 2592SOL    HW2 8676   3.367   5.195   1.266
 2593SOL     OW 8677   3.464   6.692   2.653
 2593SOL    HW1 8678   3.477   6.682   2.751
 2593SOL    HW2 8679   3.553   6.701   2.608
 2594SOL     OW 8680   0.109   0.828   6.702
 2594SOL    HW1 8681   0.204   0.828   6.670
 2594SOL    HW2 8682   0.107   0.839   6.801
 2595SOL     OW 8683   6.691   3.477   4.979
 2595SOL    HW1 8684   6.650   3.566   4.956
 2595SOL    HW2 8685   6.662   3.409   4.912
 2596SOL     OW 8686   3.938   2.151   1.907
 2596SOL    HW1 8687   3.977   2.218   1.845
 2596SOL    HW2 8688   3.844   2.176   1.929
 2597SOL     OW 8689   2.667   3.087   0.694
 2597SOL    HW1 8690   2.715   3.032   0.625
 2597SOL    HW2 8691   2.728   3.102   0.772
 2598SOL     OW 8692   6.854   2.692   4.384
 2598SOL    HW1 8693   6.757   2.718   4.379
 2598SOL    HW2 8694   6.885   2.662   4.294
 2599SOL     OW 8695   3.689   6.127   5.932
 2599SOL    HW1 8696   3.617   6.061   5.909
 2599SOL    HW2 8697   3.775   6.079   5.946
 2600SOL     OW 8698   5.424   4.024   3.684
 2600SOL    HW1 8699   5.497   3.972   3.727
 2600SOL    HW2 8700   5.339   3.970   3.686
 2601SOL     OW 8701   3.379   2.663   5.669
 2601SOL    HW1 8702   3.334   2.710   5.744
 2601SOL    HW2 8703   3.396   2.727   5.594
 2602SOL     OW 8704   6.946   5.083   4.609
 2602SOL    HW1 8705   7.000   5.154   4.654
 2602SOL    HW2 8706   6.924   5.011   4.675
 2603SOL     OW 8707   2.493   2.612   1.759
 2603SOL    HW1 8708   2.545   2.534   1.793
 2603SOL    HW2 8709   2.552   2.668   1.700
 2604SOL     OW 8710   5.245   0.489   1.042
 2604SOL    HW1 8711   5.199   0.550   1.107
 2604SOL    HW2 8712   5.180   0.463   0.970
 2605SOL     OW 8713   4.477   4.550   3.343
 2605SOL    HW1 8714   4.434   4.565   3.254
 2605SOL    HW2 8715   4.419   4.589   3.414
 2606SOL     OW 8716   6.717   4.080   0.877
 2606SOL    HW1 8717   6.774   4.115   0.803
 2606SOL    HW2 8718   6.625   4.120   0.871
 2607SOL     OW 8719   1.654   1.304   3.971
 2607SOL    HW1 8720   1.747   1.340   3.974
 2607SOL    HW2 8721   1.615   1.320   3.880
 2608SOL     OW 8722   5.206   0.538   1.910
 2608SOL    HW1 8723   5.154   0.453   1.904
 2608SOL    HW2 8724   5.145   0.615   1.892
 2609SOL     OW 8725   0.535   2.739   2.565
 2609SOL    HW1 8726   0.458   2.802   2.567
 2609SOL    HW2 8727   0.502   2.646   2.551
 2610SOL     OW 8728   0.021   5.609   4.728
 2610SOL    HW1 8729   0.013   5.577   4.633
 2610SOL    HW2 8730   0.102   5.667   4.737
 2611SOL     OW 8731   5.063   6.682   0.670
 2611SOL    HW1 8732   4.972   6.719   0.688
 2611SOL    HW2 8733   5.071   6.592   0.713
 2612SOL     OW 8734   5.754   6.460   4.470
 2612SOL    HW1 8735   5.661   6.465   4.432
 2612SOL    HW2 8736   5.821   6.466   4.396
 2613SOL     OW 8737   3.604   6.728   2.141
 2613SOL    HW1 8738   3.536   6.655   2.140
 2613SOL    HW2 8739   3.671   6.711   2.213
 2614SOL     OW 8740   6.511   7.019   5.560
 2614SOL    HW1 8741   6.557   0.083   5.531
 2614SOL    HW2 8742   6.422   7.012   5.514
 2615SOL     OW 8743   5.259   5.679   4.303
 2615SOL    HW1 8744   5.223   5.736   4.377
 2615SOL    HW2 8745   5.270   5.735   4.221
 2616SOL     OW 8746   4.011   3.544   3.671
 2616SOL    HW1 8747   4.084   3.592   3.622
 2616SOL    HW2 8748   4.035   3.536   3.767
 2617SOL     OW 8749   3.491   4.867   1.040
 2617SOL    HW1 8750   3.588   4.847   1.032
 2617SOL    HW2 8751   3.467   4.877   1.137
 2618SOL     OW 8752   0.296   6.674   2.699
 2618SOL    HW1 8753   0.269   6.749   2.759
 2618SOL    HW2 8754   0.354   6.609   2.749
 2619SOL     OW 8755   4.408   2.042   2.223
 2619SOL    HW1 8756   4.491   2.068   2.272
 2619SOL    HW2 8757   4.412   1.945   2.200
 2620SOL     OW 8758   1.674   5.400   3.173
 2620SOL    HW1 8759   1.702   5.324   3.231
 2620SOL    HW2 8760   1.694   5.378   3.077
 2621SOL     OW 8761   0.687   5.594   3.539
 2621SOL    HW1 8762   0.675   5.628   3.632
 2621SOL    HW2 8763   0.776   5.625   3.504
 2622SOL     OW 8764   1.932   3.254   6.065
 2622SOL    HW1 8765   1.946   3.217   6.156
 2622SOL    HW2 8766   2.017   3.246   6.012
 2623SOL     OW 8767   3.743   0.791   4.089
 2623SOL    HW1 8768   3.732   0.838   4.177
 2623SOL    HW2 8769   3.826   0.822   4.044
 2624SOL     OW 8770   6.266   3.253   2.951
 2624SOL    HW1 8771   6.288   3.326   3.015
 2624SOL    HW2 8772   6.297   3.165   2.988
 2625SOL     OW 8773   1.660   3.448   5.806
 2625SOL    HW1 8774   1.694   3.503   5.730
 2625SOL    HW2 8775   1.695   3.355   5.798
 2626SOL     OW 8776   1.072   6.540   3.878
 2626SOL    HW1 8777   1.156   6.516   3.926
 2626SOL    HW2 8778   1.048   6.635   3.897
 2627SOL     OW 8779   0.474   0.976   4.936
 2627SOL    HW1 8780   0.384   1.015   4.917
 2627SOL    HW2 8781   0.464   0.893   4.990
 2628SOL     OW 8782   3.593   6.196   6.471
 2628SOL    HW1 8783   3.501   6.156   6.464
 2628SOL    HW2 8784   3.624   6.224   6.380
 2629SOL     OW 8785   3.834   3.869   1.798
 2629SOL    HW1 8786   3.804   3.964   1.807
 2629SOL    HW2 8787   3.766   3.809   1.840
 2630SOL     OW 8788   3.690   2.059   2.240
 2630SOL    HW1 8789   3.736   2.079   2.326
 2630SOL    HW2 8790   3.723   2.122   2.169
 2631SOL     OW 8791   5.563   6.799   4.188
 2631SOL    HW1 8792   5.613   6.787   4.102
 2631SOL    HW2 8793   5.484   6.858   4.172
 2632SOL     OW 8794   3.043   2.537   0.067
 2632SOL    HW1 8795   2.965   2.491   0.025
 2632SOL    HW2 8796   3.016   2.572   0.157
 2633SOL     OW 8797   5.679   2.415   6.588
 2633SOL    HW1 8798   5.643   2.478   6.519
 2633SOL    HW2 8799   5.737   2.466   6.652
 2634SOL     OW 8800   1.785   4.101   2.270
 2634SOL    HW1 8801   1.834   4.026   2.314
 2634SOL    HW2 8802   1.833   4.127   2.185
 2635SOL     OW 8803   5.471   6.483   4.378
 2635SOL    HW1 8804   5.404   6.436   4.435
 2635SOL    HW2 8805   5.476   6.439   4.288
 2636SOL     OW 8806   5.856   0.601   6.586
 2636SOL    HW1 8807   5.854   0.562   6.494
 2636SOL    HW2 8808   5.838   0.529   6.653
 2637SOL     OW 8809   6.185   0.961   3.395
 2637SOL    HW1 8810   6.187   0.885   3.460
 2637SOL    HW2 8811   6.191   0.926   3.302
 2638SOL     OW 8812   6.001   0.092   1.458
 2638SOL    HW1 8813   5.965   0.184   1.471
 2638SOL    HW2 8814   5.975   0.058   1.368
 2639SOL     OW 8815   6.011   6.889   2.223
 2639SOL    HW1 8816   5.969   6.799   2.208
 2639SOL    HW2 8817   5.970   6.932   2.303
 2640SOL     OW 8818   6.931   6.500   4.957
 2640SOL    HW1 8819   6.891   6.408   4.957
 2640SOL    HW2 8820   6.997   6.506   4.882
 2641SOL     OW 8821   5.661   3.793   0.318
 2641SOL    HW1 8822   5.597   3.845   0.374
 2641SOL    HW2 8823   5.662   3.698   0.350
 2642SOL     OW 8824   5.760   0.822   4.089
 2642SOL    HW1 8825   5.688   0.858   4.148
 2642SOL    HW2 8826   5.793   0.894   4.028
 2643SOL     OW 8827   6.510   5.708   2.831
 2643SOL    HW1 8828   6.570   5.787   2.845
 2643SOL    HW2 8829   6.455   5.722   2.749
 2644SOL     OW 8830   1.240   4.530   5.381
 2644SOL    HW1 8831   1.328   4.544   5.335
 2644SOL    HW2 8832   1.245   4.450   5.440
 2645SOL     OW 8833   5.077   6.964   5.339
 2645SOL    HW1 8834   5.055   6.975   5.242
 2645SOL    HW2 8835   5.162   6.911   5.347
 2646SOL     OW 8836   6.150   0.583   6.243
 2646SOL    HW1 8837   6.209   0.509   6.275
 2646SOL    HW2 8838   6.205   0.657   6.205
 2647SOL     OW 8839   4.866   0.983   0.950
 2647SOL    HW1 8840   4.846   1.055   0.884
 2647SOL    HW2 8841   4.962   0.986   0.974
 2648SOL     OW 8842   6.485   6.945   2.616
 2648SOL    HW1 8843   6.514   0.006   2.669
 2648SOL    HW2 8844   6.386   6.935   2.623
 2649SOL     OW 8845   3.583   1.524   6.175
 2649SOL    HW1 8846   3.516   1.449   6.169
 2649SOL    HW2 8847   3.610   1.537   6.270
 2650SOL     OW 8848   0.501   5.157   3.726
 2650SOL    HW1 8849   0.562   5.221   3.679
 2650SOL    HW2 8850   0.451   5.206   3.798
 2651SOL     OW 8851   0.799   1.550   1.125
 2651SOL    HW1 8852   0.771   1.551   1.221
 2651SOL    HW2 8853   0.773   1.463   1.084
 2652SOL     OW 8854   3.440   2.935   3.654
 2652SOL    HW1 8855   3.474   2.889   3.736
 2652SOL    HW2 8856   3.517   2.968   3.599
 2653SOL     OW 8857   5.271   6.865   5.904
 2653SOL    HW1 8858   5.324   6.815   5.972
 2653SOL    HW2 8859   5.182   6.822   5.892
 2654SOL     OW 8860   5.271   3.218   6.049
 2654SOL    HW1 8861   5.301   3.183   5.961
 2654SOL    HW2 8862   5.197   3.161   6.085
 2655SOL     OW 8863   3.999   5.451   4.271
 2655SOL    HW1 8864   3.935   5.376   4.287
 2655SOL    HW2 8865   4.083   5.433   4.322
 2656SOL     OW 8866   5.543   5.141   3.797
 2656SOL    HW1 8867   5.588   5.061   3.835
 2656SOL    HW2 8868   5.450   5.118   3.770
 2657SOL     OW 8869   2.287   3.759   6.472
 2657SOL    HW1 8870   2.265   3.734   6.378
 2657SOL    HW2 8871   2.212   3.812   6.511
 2658SOL     OW 8872   6.413   4.758   6.384
 2658SOL    HW1 8873   6.410   4.701   6.466
 2658SOL    HW2 8874   6.323   4.759   6.340
 2659SOL     OW 8875   6.817   2.659   4.708
 2659SOL    HW1 8876   6.792   2.617   4.621
 2659SOL    HW2 8877   6.869   2.593   4.763
 2660SOL     OW 8878   6.855   2.180   1.860
 2660SOL    HW1 8879   6.780   2.154   1.798
 2660SOL    HW2 8880   6.942   2.164   1.814
 2661SOL     OW 8881   2.715   6.058   0.929
 2661SOL    HW1 8882   2.656   6.059   0.848
 2661SOL    HW2 8883   2.658   6.058   1.011
 2662SOL     OW 8884   4.059   6.704   4.248
 2662SOL    HW1 8885   4.045   6.606   4.263
 2662SOL    HW2 8886   3.996   6.736   4.177
 2663SOL     OW 8887   2.261   4.625   1.453
 2663SOL    HW1 8888   2.357   4.601   1.465
 2663SOL    HW2 8889   2.204   4.563   1.507
 2664SOL     OW 8890   3.100   3.850   3.370
 2664SOL    HW1 8891   3.035   3.850   3.295
 2664SOL    HW2 8892   3.162   3.772   3.362
 2665SOL     OW 8893   3.416   1.520   4.339
 2665SOL    HW1 8894   3.356   1.441   4.328
 2665SOL    HW2 8895   3.360   1.602   4.354
 2666SOL     OW 8896   4.941   5.013   1.018
 2666SOL    HW1 8897   4.930   5.028   0.920
 2666SOL    HW2 8898   5.034   4.985   1.038
 2667SOL     OW 8899   1.142   6.256   5.236
 2667SOL    HW1 8900   1.237   6.226   5.232
 2667SOL    HW2 8901   1.087   6.200   5.173
 2668SOL     OW 8902   6.962   3.558   4.400
 2668SOL    HW1 8903   6.942   3.460   4.408
 2668SOL    HW2 8904   0.033   3.570   4.358
 2669SOL     OW 8905   3.912   4.854   5.116
 2669SOL    HW1 8906   3.978   4.839   5.043
 2669SOL    HW2 8907   3.961   4.870   5.202
 2670SOL     OW 8908   6.778   1.064   6.887
 2670SOL    HW1 8909   6.827   1.089   6.804
 2670SOL    HW2 8910   6.686   1.033   6.863
 2671SOL     OW 8911   2.237   3.510   6.785
 2671SOL    HW1 8912   2.335   3.524   6.770
 2671SOL    HW2 8913   2.197   3.466   6.705
 2672SOL     OW 8914   1.101   5.677   6.988
 2672SOL    HW1 8915   1.049   5.671   0.054
 2672SOL    HW2 8916   1.196   5.651   7.006
 2673SOL     OW 8917   4.856   3.277   3.755
 2673SOL    HW1 8918   4.788   3.315   3.818
 2673SOL    HW2 8919   4.856   3.177   3.764
 2674SOL     OW 8920   1.810   4.609   4.386
 2674SOL    HW1 8921   1.750   4.612   4.307
 2674SOL    HW2 8922   1.765   4.560   4.461
 2675SOL     OW 8923   1.097   4.408   5.981
 2675SOL    HW1 8924   0.999   4.397   5.998
 2675SOL    HW2 8925   1.147   4.339   6.033
 2676SOL     OW 8926   4.877   1.903   2.480
 2676SOL    HW1 8927   4.889   1.805   2.492
 2676SOL    HW2 8928   4.961   1.943   2.443
 2677SOL     OW 8929   2.228   4.824   1.662
 2677SOL    HW1 8930   2.132   4.851   1.675
 2677SOL    HW2 8931   2.238   4.781   1.573
 2678SOL     OW 8932   0.863   4.948   0.223
 2678SOL    HW1 8933   0.909   4.954   0.312
 2678SOL    HW2 8934   0.824   4.857   0.212
 2679SOL     OW 8935   4.077   4.698   0.716
 2679SOL    HW1 8936   4.028   4.768   0.664
 2679SOL    HW2 8937   4.097   4.620   0.656
 2680SOL     OW 8938   2.119   1.466   0.734
 2680SOL    HW1 8939   2.138   1.400   0.806
 2680SOL    HW2 8940   2.026   1.502   0.744
 2681SOL     OW 8941   1.429   3.767   4.223
 2681SOL    HW1 8942   1.507   3.708   4.200
 2681SOL    HW2 8943   1.460   3.841   4.283
 2682SOL     OW 8944   5.621   3.041   2.115
 2682SOL    HW1 8945   5.699   3.042   2.052
 2682SOL    HW2 8946   5.544   2.993   2.071
 2683SOL     OW 8947   0.917   4.998   1.349
 2683SOL    HW1 8948   0.902   4.932   1.275
 2683SOL    HW2 8949   0.893   4.957   1.436
 2684SOL     OW 8950   4.139   6.059   2.141
 2684SOL    HW1 8951   4.114   6.003   2.062
 2684SOL    HW2 8952   4.100   6.151   2.130
 2685SOL     OW 8953   6.357   0.178   4.416
 2685SOL    HW1 8954   6.429   0.117   4.450
 2685SOL    HW2 8955   6.328   0.148   4.325
 2686SOL     OW 8956   1.501   2.321   4.378
 2686SOL    HW1 8957   1.507   2.241   4.439
 2686SOL    HW2 8958   1.485   2.290   4.285
 2687SOL     OW 8959   4.032   4.970   2.612
 2687SOL    HW1 8960   4.029   4.880   2.568
 2687SOL    HW2 8961   4.068   5.037   2.547
 2688SOL     OW 8962   4.090   5.409   5.495
 2688SOL    HW1 8963   3.997   5.421   5.462
 2688SOL    HW2 8964   4.092   5.338   5.566
 2689SOL     OW 8965   1.362   1.627   3.898
 2689SOL    HW1 8966   1.357   1.548   3.836
 2689SOL    HW2 8967   1.336   1.710   3.849
 2690SOL     OW 8968   4.014   3.161   3.605
 2690SOL    HW1 8969   4.099   3.107   3.611
 2690SOL    HW2 8970   4.007   3.203   3.515
 2691SOL     OW 8971   1.819   5.862   2.151
 2691SOL    HW1 8972   1.868   5.909   2.077
 2691SOL    HW2 8973   1.747   5.805   2.111
 2692SOL     OW 8974   6.156   5.801   3.586
 2692SOL    HW1 8975   6.086   5.736   3.616
 2692SOL    HW2 8976   6.141   5.824   3.490
 2693SOL     OW 8977   2.355   4.876   2.901
 2693SOL    HW1 8978   2.414   4.916   2.832
 2693SOL    HW2 8979   2.359   4.776   2.895
 2694SOL     OW 8980   3.334   0.547   3.032
 2694SOL    HW1 8981   3.244   0.532   2.990
 2694SOL    HW2 8982   3.403   0.555   2.961
 2695SOL     OW 8983   5.021   2.139   2.364
 2695SOL    HW1 8984   5.073   2.147   2.449
 2695SOL    HW2 8985   4.975   2.225   2.345
 2696SOL     OW 8986   4.029   3.050   5.557
 2696SOL    HW1 8987   4.121   3.071   5.521
 2696SOL    HW2 8988   3.974   3.008   5.484
 2697SOL     OW 8989   4.203   1.978   3.783
 2697SOL    HW1 8990   4.201   1.924   3.699
 2697SOL    HW2 8991   4.146   1.935   3.852
 2698SOL     OW 8992   0.985   4.631   0.686
 2698SOL    HW1 8993   1.010   4.625   0.783
 2698SOL    HW2 8994   0.888   4.652   0.678
 2699SOL     OW 8995   3.418   5.448   0.195
 2699SOL    HW1 8996   3.353   5.384   0.153
 2699SOL    HW2 8997   3.507   5.404   0.201
 2700SOL     OW 8998   2.089   3.485   2.676
 2700SOL    HW1 8999   2.131   3.420   2.739
 2700SOL    HW2 9000   2.095   3.451   2.583
 2701SOL     OW 9001   4.203   0.480   6.637
 2701SOL    HW1 9002   4.229   0.384   6.647
 2701SOL    HW2 9003   4.109   0.493   6.669
 2702SOL     OW 9004   6.421   1.976   3.235
 2702SOL    HW1 9005   6.401   1.905   3.168
 2702SOL    HW2 9006   6.410   2.066   3.192
 2703SOL     OW 9007   2.946   1.087   2.851
 2703SOL    HW1 9008   2.904   1.068   2.939
 2703SOL    HW2 9009   2.928   1.182   2.825
 2704SOL     OW 9010   2.031   5.629   1.937
 2704SOL    HW1 9011   2.088   5.624   1.855
 2704SOL    HW2 9012   2.067   5.568   2.007
 2705SOL     OW 9013   6.826   5.066   4.197
 2705SOL    HW1 9014   6.840   5.003   4.121
 2705SOL    HW2 9015   6.847   5.020   4.283
 2706SOL     OW 9016   6.614   1.351   1.983
 2706SOL    HW1 9017   6.694   1.394   1.940
 2706SOL    HW2 9018   6.643   1.267   2.030
 2707SOL     OW 9019   2.370   0.185   6.925
 2707SOL    HW1 9020   2.342   0.241   7.003
 2707SOL    HW2 9021   2.457   0.220   6.889
 2708SOL     OW 9022   2.667   2.365   1.817
 2708SOL    HW1 9023   2.764   2.386   1.834
 2708SOL    HW2 9024   2.634   2.304   1.889
 2709SOL     OW 9025   4.816   6.334   1.185
 2709SOL    HW1 9026   4.795   6.383   1.100
 2709SOL    HW2 9027   4.885   6.264   1.166
 2710SOL     OW 9028   6.857   3.732   2.734
 2710SOL    HW1 9029   6.800   3.756   2.813
 2710SOL    HW2 9030   6.900   3.643   2.749
 2711SOL     OW 9031   1.517   0.235   2.564
 2711SOL    HW1 9032   1.546   0.297   2.491
 2711SOL    HW2 9033   1.436   0.184   2.535
 2712SOL     OW 9034   3.086   4.784   0.363
 2712SOL    HW1 9035   3.177   4.752   0.388
 2712SOL    HW2 9036   3.022   4.765   0.437
 2713SOL     OW 9037   2.035   2.661   4.848
 2713SOL    HW1 9038   2.116   2.719   4.861
 2713SOL    HW2 9039   2.064   2.570   4.818
 2714SOL     OW 9040   5.186   1.547   6.687
 2714SOL    HW1 9041   5.244   1.536   6.606
 2714SOL    HW2 9042   5.146   1.639   6.686
 2715SOL     OW 9043   5.646   0.801   6.985
 2715SOL    HW1 9044   5.575   0.766   0.027
 2715SOL    HW2 9045   5.606   0.827   6.898
 2716SOL     OW 9046   6.941   5.739   1.298
 2716SOL    HW1 9047   6.912   5.696   1.383
 2716SOL    HW2 9048   0.008   5.788   1.313
 2717SOL     OW 9049   0.672   5.744   1.784
 2717SOL    HW1 9050   0.609   5.729   1.708
 2717SOL    HW2 9051   0.736   5.818   1.760
 2718SOL     OW 9052   2.262   4.020   3.998
 2718SOL    HW1 9053   2.290   4.053   3.907
 2718SOL    HW2 9054   2.237   3.923   3.992
 2719SOL     OW 9055   4.463   4.847   1.988
 2719SOL    HW1 9056   4.529   4.784   2.028
 2719SOL    HW2 9057   4.396   4.872   2.058
 2720SOL     OW 9058   1.781   5.676   3.159
 2720SOL    HW1 9059   1.780   5.727   3.073
 2720SOL    HW2 9060   1.744   5.584   3.144
 2721SOL     OW 9061   2.814   0.439   4.981
 2721SOL    HW1 9062   2.801   0.345   4.952
 2721SOL    HW2 9063   2.726   0.486   4.984
 2722SOL     OW 9064   6.718   5.629   3.353
 2722SOL    HW1 9065   6.774   5.661   3.277
 2722SOL    HW2 9066   6.632   5.681   3.355
 2723SOL     OW 9067   2.268   0.815   5.673
 2723SOL    HW1 9068   2.195   0.882   5.659
 2723SOL    HW2 9069   2.351   0.847   5.629
 2724SOL     OW 9070   3.085   5.786   5.892
 2724SOL    HW1 9071   3.073   5.792   5.793
 2724SOL    HW2 9072   3.057   5.696   5.924
 2725SOL     OW 9073   5.187   4.750   3.051
 2725SOL    HW1 9074   5.260   4.769   2.985
 2725SOL    HW2 9075   5.214   4.784   3.141
 2726SOL     OW 9076   5.125   4.760   1.686
 2726SOL    HW1 9077   5.095   4.767   1.591
 2726SOL    HW2 9078   5.046   4.740   1.744
 2727SOL     OW 9079   0.544   4.879   3.068
 2727SOL    HW1 9080   0.629   4.932   3.066
 2727SOL    HW2 9081   0.533   4.831   2.981
 2728SOL     OW 9082   3.032   0.152   4.648
 2728SOL    HW1 9083   3.014   0.196   4.737
 2728SOL    HW2 9084   3.051   0.223   4.580
 2729SOL     OW 9085   6.489   5.997   2.571
 2729SOL    HW1 9086   6.586   5.985   2.550
 2729SOL    HW2 9087   6.442   5.910   2.559
 2730SOL     OW 9088   2.125   6.878   0.832
 2730SOL    HW1 9089   2.114   6.930   0.916
 2730SOL    HW2 9090   2.066   6.798   0.834
 2731SOL     OW 9091   2.787   3.598   1.523
 2731SOL    HW1 9092   2.817   3.510   1.487
 2731SOL    HW2 9093   2.693   3.590   1.557
 2732SOL     OW 9094   6.000   3.157   2.471
 2732SOL    HW1 9095   5.992   3.076   2.413
 2732SOL    HW2 9096   6.089   3.200   2.457
 2733SOL     OW 9097   1.008   6.752   5.890
 2733SOL    HW1 9098   1.062   6.673   5.863
 2733SOL    HW2 9099   1.011   6.763   5.990
 2734SOL     OW 9100   1.822   5.647   3.468
 2734SOL    HW1 9101   1.794   5.612   3.379
 2734SOL    HW2 9102   1.912   5.689   3.461
 2735SOL     OW 9103   0.666   4.018   2.760
 2735SOL    HW1 9104   0.693   4.087   2.828
 2735SOL    HW2 9105   0.738   3.949   2.752
 2736SOL     OW 9106   4.885   0.414   5.145
 2736SOL    HW1 9107   4.883   0.508   5.179
 2736SOL    HW2 9108   4.836   0.355   5.209
 2737SOL     OW 9109   3.017   3.387   6.381
 2737SOL    HW1 9110   3.020   3.367   6.283
 2737SOL    HW2 9111   3.001   3.484   6.395
 2738SOL     OW 9112   4.985   5.772   4.143
 2738SOL    HW1 9113   4.996   5.785   4.044
 2738SOL    HW2 9114   4.945   5.682   4.160
 2739SOL     OW 9115   5.886   4.429   0.599
 2739SOL    HW1 9116   5.854   4.515   0.559
 2739SOL    HW2 9117   5.875   4.433   0.699
 2740SOL     OW 9118   5.860   1.838   2.508
 2740SOL    HW1 9119   5.923   1.768   2.475
 2740SOL    HW2 9120   5.803   1.870   2.433
 2741SOL     OW 9121   6.959   1.789   5.732
 2741SOL    HW1 9122   6.985   1.803   5.637
 2741SOL    HW2 9123   6.985   1.696   5.760
 2742SOL     OW 9124   1.058   5.484   6.339
 2742SOL    HW1 9125   1.127   5.554   6.317
 2742SOL    HW2 9126   1.096   5.419   6.404
 2743SOL     OW 9127   5.986   6.028   1.476
 2743SOL    HW1 9128   6.082   6.045   1.497
 2743SOL    HW2 9129   5.979   5.966   1.398
 2744SOL     OW 9130   3.799   2.097   6.664
 2744SOL    HW1 9131   3.856   2.170   6.627
 2744SOL    HW2 9132   3.850   2.011   6.663
 2745SOL     OW 9133   1.651   6.030   0.831
 2745SOL    HW1 9134   1.651   5.954   0.897
 2745SOL    HW2 9135   1.744   6.065   0.821
 2746SOL     OW 9136   2.052   2.926   5.139
 2746SOL    HW1 9137   2.079   2.831   5.149
 2746SOL    HW2 9138   2.122   2.975   5.086
 2747SOL     OW 9139   5.680   5.101   5.122
 2747SOL    HW1 9140   5.725   5.164   5.058
 2747SOL    HW2 9141   5.654   5.151   5.205
 2748SOL     OW 9142   3.416   1.412   3.619
 2748SOL    HW1 9143   3.487   1.388   3.552
 2748SOL    HW2 9144   3.430   1.506   3.650
 2749SOL     OW 9145   5.530   4.575   4.169
 2749SOL    HW1 9146   5.608   4.567   4.107
 2749SOL    HW2 9147   5.445   4.574   4.116
 2750SOL     OW 9148   0.262   5.495   1.702
 2750SOL    HW1 9149   0.323   5.545   1.763
 2750SOL    HW2 9150   0.173   5.540   1.700
 2751SOL     OW 9151   1.754   6.842   0.929
 2751SOL    HW1 9152   1.691   6.847   0.851
 2751SOL    HW2 9153   1.728   6.767   0.989
 2752SOL     OW 9154   4.745   6.314   5.286
 2752SOL    HW1 9155   4.838   6.287   5.308
 2752SOL    HW2 9156   4.693   6.235   5.255
 2753SOL     OW 9157   3.212   5.584   6.270
 2753SOL    HW1 9158   3.288   5.550   6.215
 2753SOL    HW2 9159   3.238   5.670   6.313
 2754SOL     OW 9160   0.359   0.291   3.940
 2754SOL    HW1 9161   0.438   0.235   3.913
 2754SOL    HW2 9162   0.386   0.387   3.943
 2755SOL     OW 9163   2.703   6.721   3.428
 2755SOL    HW1 9164   2.802   6.712   3.416
 2755SOL    HW2 9165   2.657   6.688   3.345
 2756SOL     OW 9166   6.093   4.123   4.354
 2756SOL    HW1 9167   6.120   4.194   4.288
 2756SOL    HW2 9168   6.047   4.049   4.306
 2757SOL     OW 9169   3.432   1.922   6.718
 2757SOL    HW1 9170   3.453   1.872   6.803
 2757SOL    HW2 9171   3.474   1.874   6.641
 2758SOL     OW 9172   5.425   5.415   3.673
 2758SOL    HW1 9173   5.515   5.425   3.630
 2758SOL    HW2 9174   5.362   5.483   3.636
 2759SOL     OW 9175   3.537   4.523   5.564
 2759SOL    HW1 9176   3.518   4.447   5.626
 2759SOL    HW2 9177   3.458   4.537   5.504
 2760SOL     OW 9178   5.914   5.797   2.619
 2760SOL    HW1 9179   5.838   5.861   2.630
 2760SOL    HW2 9180   5.894   5.733   2.546
 2761SOL     OW 9181   1.430   4.146   3.165
 2761SOL    HW1 9182   1.495   4.177   3.235
 2761SOL    HW2 9183   1.348   4.203   3.169
 2762SOL     OW 9184   1.266   2.115   6.968
 2762SOL    HW1 9185   1.243   2.059   6.888
 2762SOL    HW2 9186   1.306   2.201   6.939
 2763SOL     OW 9187   4.739   1.711   6.178
 2763SOL    HW1 9188   4.751   1.773   6.100
 2763SOL    HW2 9189   4.655   1.659   6.166
 2764SOL     OW 9190   1.090   4.606   2.965
 2764SOL    HW1 9191   1.106   4.542   3.041
 2764SOL    HW2 9192   1.152   4.584   2.890
 2765SOL     OW 9193   6.407   6.978   6.951
 2765SOL    HW1 9194   6.314   6.974   6.988
 2765SOL    HW2 9195   6.432   0.054   6.934
 2766SOL     OW 9196   4.474   1.249   0.204
 2766SOL    HW1 9197   4.518   1.325   0.156
 2766SOL    HW2 9198   4.452   1.277   0.297
 2767SOL     OW 9199   5.947   5.808   6.121
 2767SOL    HW1 9200   5.997   5.871   6.062
 2767SOL    HW2 9201   6.009   5.772   6.191
 2768SOL     OW 9202   3.528   0.019   1.016
 2768SOL    HW1 9203   3.462   0.073   0.963
 2768SOL    HW2 9204   3.548   6.953   0.967
 2769SOL     OW 9205   1.752   4.156   5.863
 2769SOL    HW1 9206   1.796   4.245   5.851
 2769SOL    HW2 9207   1.725   4.120   5.774
 2770SOL     OW 9208   3.361   6.726   6.110
 2770SOL    HW1 9209   3.366   6.702   6.207
 2770SOL    HW2 9210   3.278   6.690   6.070
 2771SOL     OW 9211   5.786   6.902   4.294
 2771SOL    HW1 9212   5.692   6.885   4.265
 2771SOL    HW2 9213   5.838   6.816   4.294
 2772SOL     OW 9214   3.897   0.560   2.585
 2772SOL    HW1 9215   3.974   0.498   2.595
 2772SOL    HW2 9216   3.914   0.643   2.638
 2773SOL     OW 9217   0.505   3.299   4.690
 2773SOL    HW1 9218   0.490   3.333   4.598
 2773SOL    HW2 9219   0.444   3.221   4.707
 2774SOL     OW 9220   5.206   2.275   3.208
 2774SOL    HW1 9221   5.291   2.262   3.259
 2774SOL    HW2 9222   5.198   2.372   3.183
 2775SOL     OW 9223   0.081   3.995   4.164
 2775SOL    HW1 9224   0.136   4.050   4.102
 2775SOL    HW2 9225   0.138   3.926   4.209
 2776SOL     OW 9226   4.730   5.009   6.932
 2776SOL    HW1 9227   4.796   4.977   7.000
 2776SOL    HW2 9228   4.767   5.089   6.886
 2777SOL     OW 9229   2.617   2.110   5.844
 2777SOL    HW1 9230   2.686   2.167   5.890
 2777SOL    HW2 9231   2.526   2.136   5.876
 2778SOL     OW 9232   2.824   5.614   6.456
 2778SOL    HW1 9233   2.782   5.528   6.484
 2778SOL    HW2 9234   2.776   5.648   6.375
 2779SOL     OW 9235   5.691   6.377   2.109
 2779SOL    HW1 9236   5.701   6.434   2.027
 2779SOL    HW2 9237   5.731   6.287   2.092
 2780SOL     OW 9238   0.499   1.229   6.145
 2780SOL    HW1 9239   0.529   1.139   6.114
 2780SOL    HW2 9240   0.569   1.270   6.203
 2781SOL     OW 9241   6.777   0.899   2.252
 2781SOL    HW1 9242   6.775   0.899   2.352
 2781SOL    HW2 9243   6.690   0.862   2.217
 2782SOL     OW 9244   4.366   0.927   6.144
 2782SOL    HW1 9245   4.421   1.009   6.128
 2782SOL    HW2 9246   4.317   0.937   6.231
 2783SOL     OW 9247   6.444   3.409   1.496
 2783SOL    HW1 9248   6.371   3.462   1.453
 2783SOL    HW2 9249   6.410   3.319   1.520
 2784SOL     OW 9250   2.631   1.495   2.094
 2784SOL    HW1 9251   2.612   1.579   2.043
 2784SOL    HW2 9252   2.627   1.416   2.032
 2785SOL     OW 9253   4.959   2.702   1.654
 2785SOL    HW1 9254   4.944   2.625   1.592
 2785SOL    HW2 9255   4.876   2.758   1.659
 2786SOL     OW 9256   6.625   5.326   0.749
 2786SOL    HW1 9257   6.540   5.369   0.718
 2786SOL    HW2 9258   6.605   5.257   0.818
 2787SOL     OW 9259   6.267   5.867   5.807
 2787SOL    HW1 9260   6.228   5.775   5.811
 2787SOL    HW2 9261   6.359   5.866   5.844
 2788SOL     OW 9262   3.313   6.484   5.762
 2788SOL    HW1 9263   3.268   6.545   5.828
 2788SOL    HW2 9264   3.353   6.407   5.811
 2789SOL     OW 9265   1.586   2.976   3.538
 2789SOL    HW1 9266   1.644   3.012   3.611
 2789SOL    HW2 9267   1.508   2.929   3.578
 2790SOL     OW 9268   2.364   5.247   0.641
 2790SOL    HW1 9269   2.386   5.342   0.622
 2790SOL    HW2 9270   2.266   5.237   0.656
 2791SOL     OW 9271   0.065   3.825   2.124
 2791SOL    HW1 9272   0.034   3.768   2.200
 2791SOL    HW2 9273   0.125   3.771   2.064
 2792SOL     OW 9274   3.072   0.780   4.890
 2792SOL    HW1 9275   3.156   0.771   4.944
 2792SOL    HW2 9276   3.079   0.859   4.830
 2793SOL     OW 9277   4.215   4.004   1.247
 2793SOL    HW1 9278   4.194   4.045   1.336
 2793SOL    HW2 9279   4.131   3.994   1.194
 2794SOL     OW 9280   6.884   1.422   6.439
 2794SOL    HW1 9281   6.836   1.356   6.381
 2794SOL    HW2 9282   6.821   1.460   6.506
 2795SOL     OW 9283   0.156   4.740   0.759
 2795SOL    HW1 9284   0.254   4.744   0.777
 2795SOL    HW2 9285   0.107   4.731   0.846
 2796SOL     OW 9286   0.652   5.810   5.639
 2796SOL    HW1 9287   0.658   5.755   5.722
 2796SOL    HW2 9288   0.743   5.843   5.614
 2797SOL     OW 9289   5.636   6.200   4.664
 2797SOL    HW1 9290   5.567   6.130   4.650
 2797SOL    HW2 9291   5.725   6.157   4.678
 2798SOL     OW 9292   6.679   6.744   2.142
 2798SOL    HW1 9293   6.592   6.779   2.176
 2798SOL    HW2 9294   6.749   6.752   2.213
 2799SOL     OW 9295   4.467   5.620   5.322
 2799SOL    HW1 9296   4.427   5.556   5.388
 2799SOL    HW2 9297   4.397   5.648   5.256
 2800SOL     OW 9298   5.859   0.511   6.990
 2800SOL    HW1 9299   5.937   0.525   0.031
 2800SOL    HW2 9300   5.810   0.597   6.978
 2801SOL     OW 9301   0.297   4.873   6.244
 2801SOL    HW1 9302   0.197   4.872   6.251
 2801SOL    HW2 9303   0.323   4.913   6.156
 2802SOL     OW 9304   6.207   6.664   5.362
 2802SOL    HW1 9305   6.154   6.749   5.358
 2802SOL    HW2 9306   6.175   6.608   5.439
 2803SOL     OW 9307   3.645   3.094   6.018
 2803SOL    HW1 9308   3.553   3.121   6.047
 2803SOL    HW2 9309   3.690   3.171   5.973
 2804SOL     OW 9310   0.633   2.678   4.003
 2804SOL    HW1 9311   0.627   2.582   3.978
 2804SOL    HW2 9312   0.714   2.692   4.061
 2805SOL     OW 9313   4.852   3.825   1.766
 2805SOL    HW1 9314   4.816   3.900   1.712
 2805SOL    HW2 9315   4.785   3.751   1.770
 2806SOL     OW 9316   1.715   4.128   6.368
 2806SOL    HW1 9317   1.633   4.081   6.399
 2806SOL    HW2 9318   1.700   4.167   6.278
 2807SOL     OW 9319   3.086   0.564   2.899
 2807SOL    HW1 9320   3.116   0.592   2.808
 2807SOL    HW2 9321   2.986   0.567   2.903
 2808SOL     OW 9322   6.386   5.399   0.646
 2808SOL    HW1 9323   6.358   5.490   0.618
 2808SOL    HW2 9324   6.382   5.336   0.568
 2809SOL     OW 9325   5.942   4.681   2.321
 2809SOL    HW1 9326   5.911   4.672   2.415
 2809SOL    HW2 9327   6.037   4.648   2.313
 2810SOL     OW 9328   2.451   5.982   3.639
 2810SOL    HW1 9329   2.521   5.962   3.570
 2810SOL    HW2 9330   2.476   6.064   3.689
 2811SOL     OW 9331   0.370   0.217   2.219
 2811SOL    HW1 9332   0.393   0.273   2.299
 2811SOL    HW2 9333   0.435   0.235   2.145
 2812SOL     OW 9334   0.729   2.985   1.185
 2812SOL    HW1 9335   0.707   3.056   1.118
 2812SOL    HW2 9336   0.710   3.019   1.278
 2813SOL     OW 9337   0.559   1.757   1.027
 2813SOL    HW1 9338   0.574   1.674   1.080
 2813SOL    HW2 9339   0.620   1.829   1.060
 2814SOL     OW 9340   2.356   4.300   0.020
 2814SOL    HW1 9341   2.316   4.369   6.979
 2814SOL    HW2 9342   2.352   4.332   0.115
 2815SOL     OW 9343   0.314   5.984   5.059
 2815SOL    HW1 9344   0.293   6.016   5.152
 2815SOL    HW2 9345   0.234   5.939   5.021
 2816SOL     OW 9346   6.945   6.329   5.535
 2816SOL    HW1 9347   6.893   6.349   5.452
 2816SOL    HW2 9348   0.014   6.376   5.531
 2817SOL     OW 9349   3.827   0.386   1.944
 2817SOL    HW1 9350   3.754   0.420   1.885
 2817SOL    HW2 9351   3.786   0.340   2.024
 2818SOL     OW 9352   2.034   0.724   1.635
 2818SOL    HW1 9353   1.941   0.734   1.599
 2818SOL    HW2 9354   2.088   0.668   1.572
 2819SOL     OW 9355   0.830   6.940   0.759
 2819SOL    HW1 9356   0.750   6.931   0.817
 2819SOL    HW2 9357   0.826   6.873   0.685
 2820SOL     OW 9358   0.918   2.394   2.219
 2820SOL    HW1 9359   0.836   2.425   2.267
 2820SOL    HW2 9360   0.998   2.406   2.278
 2821SOL     OW 9361   3.597   4.370   6.273
 2821SOL    HW1 9362   3.675   4.357   6.334
 2821SOL    HW2 9363   3.565   4.282   6.240
 2822SOL     OW 9364   3.819   2.761   0.588
 2822SOL    HW1 9365   3.780   2.673   0.613
 2822SOL    HW2 9366   3.823   2.820   0.668
 2823SOL     OW 9367   4.964   1.303   0.555
 2823SOL    HW1 9368   4.900   1.379   0.547
 2823SOL    HW2 9369   5.049   1.325   0.507
 2824SOL     OW 9370   0.999   4.088   6.109
 2824SOL    HW1 9371   0.943   4.036   6.174
 2824SOL    HW2 9372   1.095   4.062   6.119
 2825SOL     OW 9373   5.346   1.125   6.001
 2825SOL    HW1 9374   5.277   1.077   6.055
 2825SOL    HW2 9375   5.331   1.223   6.005
 2826SOL     OW 9376   1.077   3.620   6.277
 2826SOL    HW1 9377   1.047   3.545   6.217
 2826SOL    HW2 9378   1.165   3.597   6.318
 2827SOL     OW 9379   0.093   1.197   6.461
 2827SOL    HW1 9380   0.104   1.254   6.379
 2827SOL    HW2 9381   0.180   1.152   6.482
 2828SOL     OW 9382   1.018   3.468   1.357
 2828SOL    HW1 9383   1.079   3.503   1.428
 2828SOL    HW2 9384   1.069   3.458   1.271
 2829SOL     OW 9385   3.280   4.096   3.353
 2829SOL    HW1 9386   3.331   4.064   3.433
 2829SOL    HW2 9387   3.196   4.042   3.344
 2830SOL     OW 9388   4.250   5.312   6.100
 2830SOL    HW1 9389   4.247   5.387   6.165
 2830SOL    HW2 9390   4.207   5.231   6.141
 2831SOL     OW 9391   0.078   2.315   2.281
 2831SOL    HW1 9392   0.176   2.299   2.266
 2831SOL    HW2 9393   0.039   2.237   2.331
 2832SOL     OW 9394   0.638   3.142   1.392
 2832SOL    HW1 9395   0.556   3.130   1.337
 2832SOL    HW2 9396   0.613   3.174   1.484
 2833SOL     OW 9397   2.259   1.192   1.911
 2833SOL    HW1 9398   2.325   1.257   1.872
 2833SOL    HW2 9399   2.304   1.138   1.983
 2834SOL     OW 9400   4.408   6.316   4.725
 2834SOL    HW1 9401   4.456   6.383   4.782
 2834SOL    HW2 9402   4.370   6.244   4.783
 2835SOL     OW 9403   0.934   5.888   0.715
 2835SOL    HW1 9404   0.911   5.794   0.690
 2835SOL    HW2 9405   0.987   5.930   0.640
 2836SOL     OW 9406   3.463   6.746   3.275
 2836SOL    HW1 9407   3.540   6.682   3.270
 2836SOL    HW2 9408   3.457   6.798   3.190
 2837SOL     OW 9409   5.721   3.816   2.079
 2837SOL    HW1 9410   5.792   3.840   2.146
 2837SOL    HW2 9411   5.655   3.890   2.073
 2838SOL     OW 9412   5.063   3.719   6.246
 2838SOL    HW1 9413   5.092   3.667   6.326
 2838SOL    HW2 9414   5.039   3.812   6.273
 2839SOL     OW 9415   6.164   3.439   4.521
 2839SOL    HW1 9416   6.241   3.498   4.498
 2839SOL    HW2 9417   6.178   3.348   4.481
 2840SOL     OW 9418   0.587   6.017   2.385
 2840SOL    HW1 9419   0.583   5.958   2.304
 2840SOL    HW2 9420   0.496   6.053   2.405
 2841SOL     OW 9421   6.107   2.560   1.472
 2841SOL    HW1 9422   6.175   2.530   1.539
 2841SOL    HW2 9423   6.153   2.609   1.398
 2842SOL     OW 9424   1.454   6.470   4.410
 2842SOL    HW1 9425   1.553   6.463   4.423
 2842SOL    HW2 9426   1.433   6.465   4.313
 2843SOL     OW 9427   2.187   3.133   3.018
 2843SOL    HW1 9428   2.271   3.088   3.048
 2843SOL    HW2 9429   2.108   3.084   3.055
 2844SOL     OW 9430   4.699   4.776   0.800
 2844SOL    HW1 9431   4.611   4.807   0.764
 2844SOL    HW2 9432   4.769   4.846   0.783
 2845SOL     OW 9433   4.497   2.517   3.193
 2845SOL    HW1 9434   4.486   2.575   3.113
 2845SOL    HW2 9435   4.556   2.563   3.259
 2846SOL     OW 9436   4.761   0.683   6.875
 2846SOL    HW1 9437   4.789   0.773   6.906
 2846SOL    HW2 9438   4.666   0.686   6.843
 2847SOL     OW 9439   4.569   4.425   2.330
 2847SOL    HW1 9440   4.576   4.397   2.426
 2847SOL    HW2 9441   4.573   4.345   2.271
 2848SOL     OW 9442   0.788   3.196   4.991
 2848SOL    HW1 9443   0.748   3.118   5.039
 2848SOL    HW2 9444   0.888   3.189   4.995
 2849SOL     OW 9445   3.636   0.507   2.574
 2849SOL    HW1 9446   3.727   0.549   2.574
 2849SOL    HW2 9447   3.594   0.520   2.484
 2850SOL     OW 9448   2.581   6.955   2.875
 2850SOL    HW1 9449   2.614   6.923   2.963
 2850SOL    HW2 9450   2.659   6.975   2.815
 2851SOL     OW 9451   4.243   3.159   0.887
 2851SOL    HW1 9452   4.240   3.146   0.986
 2851SOL    HW2 9453   4.335   3.136   0.853
 2852SOL     OW 9454   6.484   4.422   5.786
 2852SOL    HW1 9455   6.468   4.420   5.687
 2852SOL    HW2 9456   6.411   4.372   5.833
 2853SOL     OW 9457   6.961   3.814   0.178
 2853SOL    HW1 9458   6.865   3.808   0.151
 2853SOL    HW2 9459   7.008   3.730   0.150
 2854SOL     OW 9460   3.013   1.211   6.545
 2854SOL    HW1 9461   3.019   1.192   6.447
 2854SOL    HW2 9462   2.917   1.213   6.573
 2855SOL     OW 9463   1.621   1.655   4.674
 2855SOL    HW1 9464   1.529   1.615   4.670
 2855SOL    HW2 9465   1.673   1.610   4.746
 2856SOL     OW 9466   1.430   4.330   2.893
 2856SOL    HW1 9467   1.357   4.271   2.925
 2856SOL    HW2 9468   1.468   4.381   2.971
 2857SOL     OW 9469   0.330   3.193   1.004
 2857SOL    HW1 9470   0.260   3.225   0.940
 2857SOL    HW2 9471   0.287   3.171   1.092
 2858SOL     OW 9472   4.517   5.216   2.651
 2858SOL    HW1 9473   4.460   5.247   2.727
 2858SOL    HW2 9474   4.609   5.196   2.684
 2859SOL     OW 9475   4.900   5.984   1.281
 2859SOL    HW1 9476   4.939   6.056   1.223
 2859SOL    HW2 9477   4.922   6.003   1.377
 2860SOL     OW 9478   1.380   5.738   1.363
 2860SOL    HW1 9479   1.350   5.818   1.310
 2860SOL    HW2 9480   1.477   5.745   1.382
 2861SOL     OW 9481   3.878   4.588   6.327
 2861SOL    HW1 9482   3.973   4.617   6.334
 2861SOL    HW2 9483   3.863   4.507   6.383
 2862SOL     OW 9484   4.534   3.408   1.392
 2862SOL    HW1 9485   4.503   3.442   1.481
 2862SOL    HW2 9486   4.541   3.309   1.394
 2863SOL     OW 9487   5.947   0.155   5.759
 2863SOL    HW1 9488   6.029   0.178   5.812
 2863SOL    HW2 9489   5.914   0.065   5.785
 2864SOL     OW 9490   3.851   3.535   1.936
 2864SOL    HW1 9491   3.807   3.447   1.917
 2864SOL    HW2 9492   3.950   3.522   1.941
 2865SOL     OW 9493   4.950   5.963   4.545
 2865SOL    HW1 9494   4.908   6.051   4.564
 2865SOL    HW2 9495   4.912   5.893   4.606
 2866SOL     OW 9496   5.109   4.331   6.476
 2866SOL    HW1 9497   5.208   4.327   6.477
 2866SOL    HW2 9498   5.073   4.261   6.415
 2867SOL     OW 9499   6.168   6.814   1.774
 2867SOL    HW1 9500   6.111   6.740   1.737
 2867SOL    HW2 9501   6.252   6.775   1.810
 2868SOL     OW 9502   1.783   1.249   5.985
 2868SOL    HW1 9503   1.761   1.292   5.897
 2868SOL    HW2 9504   1.837   1.166   5.968
 2869SOL     OW 9505   5.441   6.021   3.906
 2869SOL    HW1 9506   5.445   5.980   3.815
 2869SOL    HW2 9507   5.386   6.104   3.903
 2870SOL     OW 9508   1.133   1.711   1.553
 2870SOL    HW1 9509   1.173   1.796   1.588
 2870SOL    HW2 9510   1.173   1.690   1.464
 2871SOL     OW 9511   6.662   2.108   1.650
 2871SOL    HW1 9512   6.627   2.111   1.557
 2871SOL    HW2 9513   6.595   2.063   1.710
 2872SOL     OW 9514   2.393   1.676   2.807
 2872SOL    HW1 9515   2.463   1.742   2.778
 2872SOL    HW2 9516   2.334   1.654   2.730
 2873SOL     OW 9517   0.738   5.914   1.168
 2873SOL    HW1 9518   0.730   5.922   1.268
 2873SOL    HW2 9519   0.751   6.005   1.128
 2874SOL     OW 9520   2.803   0.519   2.831
 2874SOL    HW1 9521   2.770   0.454   2.899
 2874SOL    HW2 9522   2.738   0.594   2.820
 2875SOL     OW 9523   2.946   0.021   2.522
 2875SOL    HW1 9524   3.021   0.075   2.559
 2875SOL    HW2 9525   2.871   0.017   2.589
 2876SOL     OW 9526   1.872   6.349   2.000
 2876SOL    HW1 9527   1.914   6.317   2.084
 2876SOL    HW2 9528   1.940   6.399   1.945
 2877SOL     OW 9529   1.627   1.296   5.703
 2877SOL    HW1 9530   1.725   1.301   5.684
 2877SOL    HW2 9531   1.591   1.210   5.667
 2878SOL     OW 9532   3.838   2.836   5.354
 2878SOL    HW1 9533   3.784   2.752   5.355
 2878SOL    HW2 9534   3.829   2.880   5.264
 2879SOL     OW 9535   4.395   4.502   5.716
 2879SOL    HW1 9536   4.477   4.474   5.667
 2879SOL    HW2 9537   4.403   4.598   5.744
 2880SOL     OW 9538   0.994   1.832   3.967
 2880SOL    HW1 9539   0.895   1.816   3.963
 2880SOL    HW2 9540   1.042   1.745   3.971
 2881SOL     OW 9541   3.319   6.132   6.550
 2881SOL    HW1 9542   3.282   6.065   6.615
 2881SOL    HW2 9543   3.313   6.095   6.457
 2882SOL     OW 9544   4.520   6.190   0.056
 2882SOL    HW1 9545   4.436   6.137   0.048
 2882SOL    HW2 9546   4.499   6.278   0.099
 2883SOL     OW 9547   5.748   6.552   3.324
 2883SOL    HW1 9548   5.702   6.501   3.251
 2883SOL    HW2 9549   5.846   6.558   3.303
 2884SOL     OW 9550   6.838   5.520   2.552
 2884SOL    HW1 9551   6.852   5.487   2.646
 2884SOL    HW2 9552   6.908   5.587   2.530
 2885SOL     OW 9553   1.419   3.181   2.790
 2885SOL    HW1 9554   1.456   3.100   2.836
 2885SOL    HW2 9555   1.443   3.177   2.693
 2886SOL     OW 9556   2.970   4.487   6.535
 2886SOL    HW1 9557   3.034   4.439   6.474
 2886SOL    HW2 9558   2.902   4.422   6.568
 2887SOL     OW 9559   0.487   6.554   4.429
 2887SOL    HW1 9560   0.545   6.563   4.510
 2887SOL    HW2 9561   0.509   6.470   4.381
 2888SOL     OW 9562   6.669   6.413   0.335
 2888SOL    HW1 9563   6.611   6.399   0.254
 2888SOL    HW2 9564   6.702   6.324   0.366
 2889SOL     OW 9565   3.055   0.142   3.055
 2889SOL    HW1 9566   3.122   0.148   3.129
 2889SOL    HW2 9567   3.000   0.059   3.067
 2890SOL     OW 9568   1.759   6.379   1.384
 2890SOL    HW1 9569   1.817   6.299   1.374
 2890SOL    HW2 9570   1.663   6.352   1.381
 2891SOL     OW 9571   6.758   3.372   2.512
 2891SOL    HW1 9572   6.689   3.436   2.477
 2891SOL    HW2 9573   6.829   3.423   2.559
 2892SOL     OW 9574   6.050   3.898   0.782
 2892SOL    HW1 9575   6.128   3.867   0.837
 2892SOL    HW2 9576   6.076   3.980   0.732
 2893SOL     OW 9577   0.527   5.610   4.547
 2893SOL    HW1 9578   0.464   5.624   4.623
 2893SOL    HW2 9579   0.480   5.562   4.473
 2894SOL     OW 9580   1.157   4.964   1.978
 2894SOL    HW1 9581   1.223   4.896   2.011
 2894SOL    HW2 9582   1.066   4.941   2.012
 2895SOL     OW 9583   3.878   0.081   6.032
 2895SOL    HW1 9584   3.812   0.021   5.987
 2895SOL    HW2 9585   3.936   0.124   5.963
 2896SOL     OW 9586   5.842   6.549   5.300
 2896SOL    HW1 9587   5.916   6.482   5.291
 2896SOL    HW2 9588   5.847   6.614   5.225
 2897SOL     OW 9589   3.069   5.064   3.222
 2897SOL    HW1 9590   3.137   5.040   3.152
 2897SOL    HW2 9591   2.977   5.058   3.182
 2898SOL     OW 9592   5.798   4.043   2.257
 2898SOL    HW1 9593   5.845   4.054   2.345
 2898SOL    HW2 9594   5.865   4.044   2.183
 2899SOL     OW 9595   6.660   2.253   0.985
 2899SOL    HW1 9596   6.701   2.301   1.062
 2899SOL    HW2 9597   6.727   2.245   0.911
 2900SOL     OW 9598   3.408   3.855   6.998
 2900SOL    HW1 9599   3.405   3.859   0.079
 2900SOL    HW2 9600   3.490   3.806   6.969
 2901SOL     OW 9601   1.911   4.463   3.412
 2901SOL    HW1 9602   1.955   4.429   3.496
 2901SOL    HW2 9603   1.878   4.385   3.359
 2902SOL     OW 9604   0.620   5.690   3.780
 2902SOL    HW1 9605   0.539   5.749   3.775
 2902SOL    HW2 9606   0.619   5.639   3.866
 2903SOL     OW 9607   4.278   5.913   0.641
 2903SOL    HW1 9608   4.312   5.955   0.725
 2903SOL    HW2 9609   4.303   5.971   0.563
 2904SOL     OW 9610   2.632   4.512   5.303
 2904SOL    HW1 9611   2.725   4.529   5.274
 2904SOL    HW2 9612   2.632   4.449   5.381
 2905SOL     OW 9613   1.094   4.558   2.240
 2905SOL    HW1 9614   1.028   4.628   2.268
 2905SOL    HW2 9615   1.141   4.521   2.320
 2906SOL     OW 9616   5.693   6.131   2.960
 2906SOL    HW1 9617   5.681   6.040   2.999
 2906SOL    HW2 9618   5.772   6.131   2.899
 2907SOL     OW 9619   0.949   0.420   3.479
 2907SOL    HW1 9620   0.969   0.486   3.406
 2907SOL    HW2 9621   1.034   0.397   3.527
 2908SOL     OW 9622   4.980   0.211   3.376
 2908SOL    HW1 9623   4.944   0.127   3.417
 2908SOL    HW2 9624   5.065   0.237   3.422
 2909SOL     OW 9625   1.236   5.756   2.046
 2909SOL    HW1 9626   1.219   5.657   2.039
 2909SOL    HW2 9627   1.151   5.805   2.026
 2910SOL     OW 9628   0.031   1.329   3.475
 2910SOL    HW1 9629   6.956   1.318   3.444
 2910SOL    HW2 9630   0.082   1.245   3.454
 2911SOL     OW 9631   6.328   4.510   3.606
 2911SOL    HW1 9632   6.395   4.461   3.663
 2911SOL    HW2 9633   6.366   4.599   3.579
 2912SOL     OW 9634   6.645   6.672   0.369
 2912SOL    HW1 9635   6.655   6.573   0.381
 2912SOL    HW2 9636   6.614   6.712   0.455
 2913SOL     OW 9637   1.960   4.831   1.628
 2913SOL    HW1 9638   1.985   4.842   1.532
 2913SOL    HW2 9639   1.860   4.827   1.635
 2914SOL     OW 9640   5.742   4.644   0.507
 2914SOL    HW1 9641   5.654   4.608   0.476
 2914SOL    HW2 9642   5.763   4.728   0.457
 2915SOL     OW 9643   3.547   2.065   2.811
 2915SOL    HW1 9644   3.632   2.113   2.789
 2915SOL    HW2 9645   3.494   2.051   2.727
 2916SOL     OW 9646   2.203   5.643   0.465
 2916SOL    HW1 9647   2.115   5.616   0.427
 2916SOL    HW2 9648   2.233   5.729   0.423
 2917SOL     OW 9649   2.500   0.101   3.421
 2917SOL    HW1 9650   2.442   0.115   3.341
 2917SOL    HW2 9651   2.550   0.185   3.441
 2918SOL     OW 9652   5.996   4.275   0.873
 2918SOL    HW1 9653   6.043   4.358   0.901
 2918SOL    HW2 9654   5.972   4.221   0.954
 2919SOL     OW 9655   0.716   6.100   4.409
 2919SOL    HW1 9656   0.784   6.119   4.480
 2919SOL    HW2 9657   0.675   6.011   4.425
 2920SOL     OW 9658   1.820   0.652   2.042
 2920SOL    HW1 9659   1.859   0.677   2.131
 2920SOL    HW2 9660   1.846   0.721   1.974
 2921SOL     OW 9661   0.085   0.192   5.490
 2921SOL    HW1 9662   0.052   0.113   5.438
 2921SOL    HW2 9663   0.086   0.273   5.430
 2922SOL     OW 9664   4.652   0.845   3.451
 2922SOL    HW1 9665   4.681   0.756   3.484
 2922SOL    HW2 9666   4.552   0.847   3.443
 2923SOL     OW 9667   6.603   4.841   4.893
 2923SOL    HW1 9668   6.511   4.860   4.926
 2923SOL    HW2 9669   6.598   4.799   4.802
 2924SOL     OW 9670   6.757   2.295   5.484
 2924SOL    HW1 9671   6.815   2.316   5.405
 2924SOL    HW2 9672   6.788   2.209   5.526
 2925SOL     OW 9673   5.562   0.816   5.755
 2925SOL    HW1 9674   5.547   0.902   5.804
 2925SOL    HW2 9675   5.592   0.746   5.818
 2926SOL     OW 9676   0.645   1.631   4.991
 2926SOL    HW1 9677   0.594   1.695   4.933
 2926SOL    HW2 9678   0.586   1.599   5.065
 2927SOL     OW 9679   1.862   2.736   1.414
 2927SOL    HW1 9680   1.904   2.809   1.467
 2927SOL    HW2 9681   1.771   2.715   1.452
 2928SOL     OW 9682   6.445   1.828   6.972
 2928SOL    HW1 9683   6.508   1.751   6.963
 2928SOL    HW2 9684   6.479   1.905   6.919
 2929SOL     OW 9685   1.779   2.531   4.715
 2929SOL    HW1 9686   1.797   2.433   4.721
 2929SOL    HW2 9687   1.758   2.567   4.806
 2930SOL     OW 9688   6.591   5.427   4.462
 2930SOL    HW1 9689   6.633   5.357   4.520
 2930SOL    HW2 9690   6.538   5.383   4.390
 2931SOL     OW 9691   4.076   4.372   6.328
 2931SOL    HW1 9692   4.155   4.387   6.388
 2931SOL    HW2 9693   4.066   4.274   6.311
 2932SOL     OW 9694   6.871   6.021   1.022
 2932SOL    HW1 9695   6.837   6.074   0.944
 2932SOL    HW2 9696   6.970   6.033   1.030
 2933SOL     OW 9697   0.741   0.197   1.202
 2933SOL    HW1 9698   0.643   0.193   1.219
 2933SOL    HW2 9699   0.785   0.117   1.243
 2934SOL     OW 9700   4.003   3.179   0.719
 2934SOL    HW1 9701   4.080   3.223   0.765
 2934SOL    HW2 9702   3.990   3.087   0.756
 2935SOL     OW 9703   0.569   2.200   6.491
 2935SOL    HW1 9704   0.616   2.279   6.450
 2935SOL    HW2 9705   0.516   2.153   6.420
 2936SOL     OW 9706   4.736   0.630   0.569
 2936SOL    HW1 9707   4.781   0.690   0.502
 2936SOL    HW2 9708   4.758   0.661   0.661
 2937SOL     OW 9709   4.127   5.518   1.524
 2937SOL    HW1 9710   4.088   5.435   1.483
 2937SOL    HW2 9711   4.108   5.520   1.622
 2938SOL     OW 9712   6.559   6.333   6.549
 2938SOL    HW1 9713   6.519   6.253   6.504
 2938SOL    HW2 9714   6.649   6.351   6.509
 2939SOL     OW 9715   0.031   5.647   1.682
 2939SOL    HW1 9716   6.980   5.577   1.692
 2939SOL    HW2 9717   7.006   5.735   1.661
 2940SOL     OW 9718   5.697   5.958   4.177
 2940SOL    HW1 9719   5.605   5.950   4.214
 2940SOL    HW2 9720   5.758   5.996   4.247
 2941SOL     OW 9721   1.681   3.535   3.650
 2941SOL    HW1 9722   1.704   3.582   3.565
 2941SOL    HW2 9723   1.595   3.485   3.639
 2942SOL     OW 9724   2.420   1.200   6.848
 2942SOL    HW1 9725   2.391   1.185   6.942
 2942SOL    HW2 9726   2.361   1.268   6.805
 2943SOL     OW 9727   6.020   4.350   3.293
 2943SOL    HW1 9728   6.117   4.346   3.318
 2943SOL    HW2 9729   6.011   4.355   3.194
 2944SOL     OW 9730   2.586   6.210   4.199
 2944SOL    HW1 9731   2.680   6.243   4.196
 2944SOL    HW2 9732   2.585   6.113   4.223
 2945SOL     OW 9733   5.255   4.551   1.395
 2945SOL    HW1 9734   5.231   4.491   1.471
 2945SOL    HW2 9735   5.319   4.504   1.334
 2946SOL     OW 9736   3.239   4.019   5.993
 2946SOL    HW1 9737   3.260   3.952   5.921
 2946SOL    HW2 9738   3.152   3.996   6.036
 2947SOL     OW 9739   5.785   6.016   0.785
 2947SOL    HW1 9740   5.870   6.000   0.734
 2947SOL    HW2 9741   5.723   6.071   0.729
 2948SOL     OW 9742   5.797   4.673   3.143
 2948SOL    HW1 9743   5.754   4.732   3.076
 2948SOL    HW2 9744   5.885   4.712   3.171
 2949SOL     OW 9745   0.991   6.616   0.930
 2949SOL    HW1 9746   1.071   6.636   0.874
 2949SOL    HW2 9747   0.939   6.699   0.945
 2950SOL     OW 9748   4.588   4.793   2.739
 2950SOL    HW1 9749   4.543   4.719   2.790
 2950SOL    HW2 9750   4.565   4.785   2.642
 2951SOL     OW 9751   5.622   0.695   1.291
 2951SOL    HW1 9752   5.534   0.723   1.329
 2951SOL    HW2 9753   5.635   0.737   1.202
 2952SOL     OW 9754   6.012   0.855   4.378
 2952SOL    HW1 9755   6.109   0.843   4.399
 2952SOL    HW2 9756   6.000   0.930   4.313
 2953SOL     OW 9757   0.628   6.187   3.220
 2953SOL    HW1 9758   0.620   6.137   3.307
 2953SOL    HW2 9759   0.691   6.137   3.160
 2954SOL     OW 9760   1.136   4.402   6.655
 2954SOL    HW1 9761   1.204   4.337   6.689
 2954SOL    HW2 9762   1.080   4.433   6.732
 2955SOL     OW 9763   1.343   3.939   0.162
 2955SOL    HW1 9764   1.247   3.967   0.163
 2955SOL    HW2 9765   1.349   3.841   0.145
 2956SOL     OW 9766   6.527   4.391   3.793
 2956SOL    HW1 9767   6.590   4.432   3.859
 2956SOL    HW2 9768   6.454   4.342   3.841
 2957SOL     OW 9769   2.662   4.912   1.495
 2957SOL    HW1 9770   2.592   4.906   1.567
 2957SOL    HW2 9771   2.633   4.857   1.417
 2958SOL     OW 9772   2.092   4.863   2.986
 2958SOL    HW1 9773   2.093   4.780   3.041
 2958SOL    HW2 9774   2.184   4.882   2.952
 2959SOL     OW 9775   5.983   2.468   3.105
 2959SOL    HW1 9776   5.887   2.463   3.078
 2959SOL    HW2 9777   6.011   2.564   3.115
 2960SOL     OW 9778   4.067   0.748   0.409
 2960SOL    HW1 9779   4.161   0.782   0.402
 2960SOL    HW2 9780   4.026   0.783   0.492
 2961SOL     OW 9781   5.574   4.160   2.215
 2961SOL    HW1 9782   5.665   4.122   2.232
 2961SOL    HW2 9783   5.504   4.098   2.251
 2962SOL     OW 9784   6.221   6.708   2.596
 2962SOL    HW1 9785   6.214   6.710   2.496
 2962SOL    HW2 9786   6.200   6.799   2.632
 2963SOL     OW 9787   1.186   0.569   5.967
 2963SOL    HW1 9788   1.111   0.520   5.923
 2963SOL    HW2 9789   1.207   0.527   6.055
 2964SOL     OW 9790   0.741   2.558   6.848
 2964SOL    HW1 9791   0.758   2.472   6.799
 2964SOL    HW2 9792   0.811   2.570   6.919
 2965SOL     OW 9793   0.913   0.490   4.707
 2965SOL    HW1 9794   0.902   0.392   4.726
 2965SOL    HW2 9795   0.893   0.507   4.611
 2966SOL     OW 9796   4.367   5.721   3.526
 2966SOL    HW1 9797   4.348   5.627   3.497
 2966SOL    HW2 9798   4.287   5.759   3.571
 2967SOL     OW 9799   6.422   0.800   5.894
 2967SOL    HW1 9800   6.404   0.707   5.862
 2967SOL    HW2 9801   6.511   0.831   5.858
 2968SOL     OW 9802   2.052   2.354   1.241
 2968SOL    HW1 9803   2.086   2.366   1.334
 2968SOL    HW2 9804   2.000   2.434   1.214
 2969SOL     OW 9805   5.289   3.735   4.697
 2969SOL    HW1 9806   5.202   3.690   4.716
 2969SOL    HW2 9807   5.302   3.811   4.760
 2970SOL     OW 9808   2.338   2.768   5.240
 2970SOL    HW1 9809   2.368   2.800   5.330
 2970SOL    HW2 9810   2.351   2.840   5.172
 2971SOL     OW 9811   5.539   4.131   0.155
 2971SOL    HW1 9812   5.457   4.097   0.202
 2971SOL    HW2 9813   5.620   4.101   0.205
 2972SOL     OW 9814   6.064   5.347   6.280
 2972SOL    HW1 9815   6.059   5.302   6.191
 2972SOL    HW2 9816   6.124   5.295   6.341
 2973SOL     OW 9817   4.885   6.728   1.944
 2973SOL    HW1 9818   4.983   6.725   1.963
 2973SOL    HW2 9819   4.856   6.642   1.902
 2974SOL     OW 9820   5.766   4.797   3.515
 2974SOL    HW1 9821   5.746   4.699   3.520
 2974SOL    HW2 9822   5.844   4.818   3.573
 2975SOL     OW 9823   4.882   4.676   4.220
 2975SOL    HW1 9824   4.893   4.589   4.172
 2975SOL    HW2 9825   4.804   4.671   4.282
 2976SOL     OW 9826   4.774   2.307   2.697
 2976SOL    HW1 9827   4.734   2.232   2.645
 2976SOL    HW2 9828   4.811   2.376   2.635
 2977SOL     OW 9829   0.238   0.087   1.849
 2977SOL    HW1 9830   0.160   0.149   1.845
 2977SOL    HW2 9831   0.321   0.139   1.869
 2978SOL     OW 9832   4.420   4.280   6.121
 2978SOL    HW1 9833   4.392   4.362   6.070
 2978SOL    HW2 9834   4.440   4.305   6.216
 2979SOL     OW 9835   2.895   1.337   4.852
 2979SOL    HW1 9836   2.858   1.383   4.771
 2979SOL    HW2 9837   2.866   1.241   4.852
 2980SOL     OW 9838   4.161   4.091   6.239
 2980SOL    HW1 9839   4.143   3.993   6.252
 2980SOL    HW2 9840   4.226   4.103   6.164
 2981SOL     OW 9841   1.863   0.976   0.828
 2981SOL    HW1 9842   1.948   0.974   0.775
 2981SOL    HW2 9843   1.786   0.952   0.768
 2982SOL     OW 9844   1.625   6.778   2.317
 2982SOL    HW1 9845   1.585   6.704   2.263
 2982SOL    HW2 9846   1.558   6.812   2.383
 2983SOL     OW 9847   6.318   3.035   6.923
 2983SOL    HW1 9848   6.346   3.092   6.846
 2983SOL    HW2 9849   6.397   2.985   6.958
 2984SOL     OW 9850   6.387   5.170   0.049
 2984SOL    HW1 9851   6.410   5.267   0.057
 2984SOL    HW2 9852   6.292   5.156   0.079
 2985SOL     OW 9853   0.484   0.385   4.616
 2985SOL    HW1 9854   0.387   0.361   4.612
 2985SOL    HW2 9855   0.506   0.425   4.705
 2986SOL     OW 9856   3.433   4.135   2.685
 2986SOL    HW1 9857   3.466   4.125   2.591
 2986SOL    HW2 9858   3.511   4.154   2.745
 2987SOL     OW 9859   0.934   2.072   4.255
 2987SOL    HW1 9860   0.852   2.076   4.312
 2987SOL    HW2 9861   0.907   2.082   4.159
 2988SOL     OW 9862   1.097   1.359   1.261
 2988SOL    HW1 9863   1.048   1.341   1.176
 2988SOL    HW2 9864   1.043   1.422   1.318
 2989SOL     OW 9865   5.177   3.072   4.955
 2989SOL    HW1 9866   5.101   3.089   4.892
 2989SOL    HW2 9867   5.157   3.115   5.043
 2990SOL     OW 9868   4.791   1.689   4.451
 2990SOL    HW1 9869   4.867   1.747   4.479
 2990SOL    HW2 9870   4.716   1.698   4.517
 2991SOL     OW 9871   5.561   3.241   0.642
 2991SOL    HW1 9872   5.654   3.220   0.613
 2991SOL    HW2 9873   5.560   3.327   0.692
 2992SOL     OW 9874   0.675   3.772   5.499
 2992SOL    HW1 9875   0.651   3.828   5.420
 2992SOL    HW2 9876   0.754   3.813   5.545
 2993SOL     OW 9877   0.688   4.670   6.912
 2993SOL    HW1 9878   0.630   4.720   6.847
 2993SOL    HW2 9879   0.778   4.654   6.871
 2994SOL     OW 9880   4.708   5.984   0.069
 2994SOL    HW1 9881   4.749   5.953   0.155
 2994SOL    HW2 9882   4.651   6.064   0.086
 2995SOL     OW 9883   4.638   0.364   0.525
 2995SOL    HW1 9884   4.661   0.461   0.526
 2995SOL    HW2 9885   4.667   0.323   0.439
 2996SOL     OW 9886   1.563   1.905   4.780
 2996SOL    HW1 9887   1.657   1.938   4.774
 2996SOL    HW2 9888   1.554   1.820   4.728
 2997SOL     OW 9889   5.029   0.812   3.453
 2997SOL    HW1 9890   4.978   0.898   3.461
 2997SOL    HW2 9891   5.115   0.820   3.505
 2998SOL     OW 9892   2.634   0.602   3.376
 2998SOL    HW1 9893   2.558   0.577   3.316
 2998SOL    HW2 9894   2.720   0.579   3.331
 2999SOL     OW 9895   2.840   4.245   0.206
 2999SOL    HW1 9896   2.743   4.229   0.189
 2999SOL    HW2 9897   2.875   4.176   0.270
 3000SOL     OW 9898   2.775   3.730   5.519
 3000SOL    HW1 9899   2.685   3.720   5.562
 3000SOL    HW2 9900   2.764   3.746   5.421
 3001SOL     OW 9901   6.086   1.439   6.318
 3001SOL    HW1 9902   6.036   1.358   6.287
 3001SOL    HW2 9903   6.111   1.495   6.238
 3002SOL     OW 9904   2.813   1.272   1.401
 3002SOL    HW1 9905   2.812   1.275   1.301
 3002SOL    HW2 9906   2.797   1.178   1.431
 3003SOL     OW 9907   1.114   5.960   0.510
 3003SOL    HW1 9908   1.055   5.990   0.434
 3003SOL    HW2 9909   1.208   5.988   0.492
 3004SOL     OW 9910   2.686   4.704   3.985
 3004SOL    HW1 9911   2.622   4.632   4.013
 3004SOL    HW2 9912   2.741   4.672   3.908
 3005SOL     OW 9913   1.247   3.129   5.819
 3005SOL    HW1 9914   1.181   3.205   5.817
 3005SOL    HW2 9915   1.203   3.047   5.784
 3006SOL     OW 9916   5.363   1.897   5.396
 3006SOL    HW1 9917   5.352   1.898   5.496
 3006SOL    HW2 9918   5.364   1.803   5.363
 3007SOL     OW 9919   5.414   5.289   0.064
 3007SOL    HW1 9920   5.492   5.227   0.071
 3007SOL    HW2 9921   5.447   5.380   0.037
 3008SOL     OW 9922   4.225   2.053   5.865
 3008SOL    HW1 9923   4.203   2.026   5.772
 3008SOL    HW2 9924   4.294   1.991   5.903
 3009SOL     OW 9925   0.421   2.947   3.203
 3009SOL    HW1 9926   0.393   2.899   3.286
 3009SOL    HW2 9927   0.451   2.881   3.135
 3010SOL     OW 9928   4.266   5.475   6.341
 3010SOL    HW1 9929   4.299   5.565   6.371
 3010SOL    HW2 9930   4.231   5.425   6.420
 3011SOL     OW 9931   6.076   0.006   1.195
 3011SOL    HW1 9932   6.091   0.020   1.097
 3011SOL    HW2 9933   6.151   6.970   1.233
 3012SOL     OW 9934   2.846   3.192   6.531
 3012SOL    HW1 9935   2.909   3.267   6.516
 3012SOL    HW2 9936   2.761   3.227   6.572
 3013SOL     OW 9937   0.179   6.247   4.044
 3013SOL    HW1 9938   0.245   6.310   4.005
 3013SOL    HW2 9939   0.089   6.261   4.001
 3014SOL     OW 9940   4.719   0.884   5.200
 3014SOL    HW1 9941   4.751   0.966   5.153
 3014SOL    HW2 9942   4.715   0.902   5.298
 3015SOL     OW 9943   1.575   0.882   0.392
 3015SOL    HW1 9944   1.535   0.915   0.307
 3015SOL    HW2 9945   1.675   0.877   0.383
 3016SOL     OW 9946   2.879   6.817   4.281
 3016SOL    HW1 9947   2.962   6.765   4.301
 3016SOL    HW2 9948   2.846   6.793   4.190
 3017SOL     OW 9949   6.537   5.975   1.973
 3017SOL    HW1 9950   6.555   5.974   2.072
 3017SOL    HW2 9951   6.623   5.978   1.923
 3018SOL     OW 9952   3.292   6.868   0.414
 3018SOL    HW1 9953   3.250   6.868   0.323
 3018SOL    HW2 9954   3.381   6.913   0.410
 3019SOL     OW 9955   1.543   6.186   6.482
 3019SOL    HW1 9956   1.631   6.220   6.517
 3019SOL    HW2 9957   1.473   6.200   6.552
 3020SOL     OW 9958   5.483   3.356   6.974
 3020SOL    HW1 9959   5.483   3.456   6.982
 3020SOL    HW2 9960   5.572   3.325   6.944
 3021SOL     OW 9961   3.365   6.400   4.880
 3021SOL    HW1 9962   3.353   6.497   4.901
 3021SOL    HW2 9963   3.455   6.385   4.839
 3022SOL     OW 9964   3.726   5.947   3.513
 3022SOL    HW1 9965   3.801   6.001   3.476
 3022SOL    HW2 9966   3.641   5.972   3.467
 3023SOL     OW 9967   4.294   6.630   2.824
 3023SOL    HW1 9968   4.365   6.635   2.894
 3023SOL    HW2 9969   4.332   6.586   2.742
 3024SOL     OW 9970   0.241   6.657   5.953
 3024SOL    HW1 9971   0.180   6.725   5.993
 3024SOL    HW2 9972   0.197   6.567   5.958
 3025SOL     OW 9973   4.027   5.926   0.796
 3025SOL    HW1 9974   4.109   5.922   0.739
 3025SOL    HW2 9975   4.041   5.992   0.870
 3026SOL     OW 9976   5.643   1.637   0.523
 3026SOL    HW1 9977   5.648   1.705   0.596
 3026SOL    HW2 9978   5.735   1.603   0.503
 3027SOL     OW 9979   4.893   1.906   1.699
 3027SOL    HW1 9980   4.809   1.892   1.646
 3027SOL    HW2 9981   4.886   1.859   1.786
 3028SOL     OW 9982   2.409   4.055   6.654
 3028SOL    HW1 9983   2.403   3.962   6.618
 3028SOL    HW2 9984   2.325   4.104   6.632
 3029SOL     OW 9985   1.012   2.603   4.299
 3029SOL    HW1 9986   1.037   2.691   4.337
 3029SOL    HW2 9987   1.089   2.565   4.249
 3030SOL     OW 9988   1.641   4.122   1.589
 3030SOL    HW1 9989   1.738   4.102   1.578
 3030SOL    HW2 9990   1.611   4.185   1.518
 3031SOL     OW 9991   1.604   5.558   1.093
 3031SOL    HW1 9992   1.596   5.459   1.085
 3031SOL    HW2 9993   1.587   5.585   1.188
 3032SOL     OW 9994   1.634   0.158   3.029
 3032SOL    HW1 9995   1.566   0.086   3.044
 3032SOL    HW2 9996   1.654   0.165   2.931
 3033SOL     OW 9997   6.532   2.708   4.435
 3033SOL    HW1 9998   6.608   2.644   4.442
 3033SOL    HW2 9999   6.514   2.749   4.524
 3034SOL     OW10000   0.830   5.900   3.628
 3034SOL    HW110001   0.864   5.972   3.688
 3034SOL    HW210002   0.816   5.816   3.680
 3035SOL     OW10003   1.414   2.355   6.186
 3035SOL    HW110004   1.420   2.376   6.283
 3035SOL    HW210005   1.506   2.357   6.146
 3036SOL     OW10006   1.868   2.326   6.254
 3036SOL    HW110007   1.965   2.320   6.279
 3036SOL    HW210008   1.819   2.379   6.324
 3037SOL     OW10009   0.556   5.086   5.811
 3037SOL    HW110010   0.632   5.026   5.784
 3037SOL    HW210011   0.484   5.082   5.742
 3038SOL     OW10012   5.232   5.271   6.209
 3038SOL    HW110013   5.299   5.345   6.202
 3038SOL    HW210014   5.231   5.220   6.123
 3039SOL     OW10015   6.090   3.673   6.711
 3039SOL    HW110016   6.085   3.618   6.628
 3039SOL    HW210017   6.028   3.751   6.704
 3040SOL     OW10018   3.752   4.191   5.908
 3040SOL    HW110019   3.658   4.164   5.886
 3040SOL    HW210020   3.790   4.127   5.975
 3041SOL     OW10021   2.047   4.219   5.079
 3041SOL    HW110022   2.045   4.166   5.164
 3041SOL    HW210023   2.141   4.228   5.047
 3042SOL     OW10024   0.568   5.028   3.432
 3042SOL    HW110025   0.583   5.112   3.380
 3042SOL    HW210026   0.553   5.051   3.528
 3043SOL     OW10027   2.957   3.755   0.808
 3043SOL    HW110028   3.039   3.750   0.865
 3043SOL    HW210029   2.961   3.837   0.750
 3044SOL     OW10030   3.549   3.611   4.974
 3044SOL    HW110031   3.492   3.587   4.895
 3044SOL    HW210032   3.542   3.538   5.042
 3045SOL     OW10033   5.109   1.562   3.025
 3045SOL    HW110034   5.118   1.657   2.994
 3045SOL    HW210035   5.044   1.558   3.101
 3046SOL     OW10036   5.431   5.545   0.680
 3046SOL    HW110037   5.395   5.486   0.752
 3046SOL    HW210038   5.526   5.569   0.700
 3047SOL     OW10039   6.142   0.482   0.040
 3047SOL    HW110040   6.229   0.531   0.046
 3047SOL    HW210041   6.107   0.488   6.966
 3048SOL     OW10042   4.456   3.107   1.139
 3048SOL    HW110043   4.521   3.162   1.086
 3048SOL    HW210044   4.485   3.105   1.235
 3049SOL     OW10045   1.408   0.371   4.296
 3049SOL    HW110046   1.482   0.306   4.311
 3049SOL    HW210047   1.430   0.430   4.218
 3050SOL     OW10048   2.868   2.214   1.023
 3050SOL    HW110049   2.850   2.125   0.981
 3050SOL    HW210050   2.793   2.277   1.002
 3051SOL     OW10051   2.880   6.963   5.273
 3051SOL    HW110052   2.894   0.035   5.234
 3051SOL    HW210053   2.969   6.920   5.290
 3052SOL     OW10054   5.828   6.254   2.603
 3052SOL    HW110055   5.874   6.247   2.692
 3052SOL    HW210056   5.763   6.330   2.606
 3053SOL     OW10057   1.860   4.156   0.238
 3053SOL    HW110058   1.794   4.217   0.284
 3053SOL    HW210059   1.940   4.208   0.210
 3054SOL     OW10060   5.603   1.155   2.778
 3054SOL    HW110061   5.627   1.228   2.842
 3054SOL    HW210062   5.673   1.147   2.708
 3055SOL     OW10063   6.229   6.252   6.390
 3055SOL    HW110064   6.292   6.181   6.422
 3055SOL    HW210065   6.275   6.310   6.323
 3056SOL     OW10066   4.883   1.680   6.415
 3056SOL    HW110067   4.867   1.585   6.439
 3056SOL    HW210068   4.821   1.708   6.342
 3057SOL     OW10069   5.734   5.681   3.303
 3057SOL    HW110070   5.750   5.671   3.205
 3057SOL    HW210071   5.657   5.621   3.329
 3058SOL     OW10072   6.053   4.337   0.398
 3058SOL    HW110073   6.004   4.365   0.480
 3058SOL    HW210074   6.068   4.417   0.340
 3059SOL     OW10075   2.255   2.888   4.431
 3059SOL    HW110076   2.317   2.832   4.376
 3059SOL    HW210077   2.265   2.864   4.528
 3060SOL     OW10078   3.381   4.908   5.435
 3060SOL    HW110079   3.288   4.879   5.457
 3060SOL    HW210080   3.436   4.828   5.412
 3061SOL     OW10081   5.460   4.895   5.718
 3061SOL    HW110082   5.382   4.954   5.697
 3061SOL    HW210083   5.511   4.876   5.635
 3062SOL     OW10084   4.219   4.472   1.499
 3062SOL    HW110085   4.240   4.468   1.401
 3062SOL    HW210086   4.131   4.516   1.512
 3063SOL     OW10087   0.538   4.119   1.477
 3063SOL    HW110088   0.466   4.096   1.411
 3063SOL    HW210089   0.539   4.218   1.492
 3064SOL     OW10090   3.997   2.359   6.833
 3064SOL    HW110091   3.978   2.372   6.735
 3064SOL    HW210092   4.064   2.285   6.845
 3065SOL     OW10093   1.024   0.895   6.958
 3065SOL    HW110094   1.000   0.991   6.942
 3065SOL    HW210095   1.107   0.873   6.907
 3066SOL     OW10096   4.809   5.293   5.384
 3066SOL    HW110097   4.866   5.313   5.464
 3066SOL    HW210098   4.812   5.371   5.321
 3067SOL     OW10099   2.757   1.442   6.558
 3067SOL    HW110100   2.739   1.356   6.605
 3067SOL    HW210101   2.733   1.434   6.461
 3068SOL     OW10102   0.599   1.272   1.157
 3068SOL    HW110103   0.554   1.186   1.132
 3068SOL    HW210104   0.650   1.259   1.242
 3069SOL     OW10105   5.301   6.968   3.105
 3069SOL    HW110106   5.316   6.982   3.203
 3069SOL    HW210107   5.272   6.873   3.089
 3070SOL     OW10108   2.958   1.398   0.299
 3070SOL    HW110109   2.928   1.467   0.233
 3070SOL    HW210110   3.035   1.435   0.352
 3071SOL     OW10111   0.301   3.337   3.476
 3071SOL    HW110112   0.392   3.296   3.484
 3071SOL    HW210113   0.298   3.423   3.527
 3072SOL     OW10114   1.933   6.077   6.807
 3072SOL    HW110115   1.900   5.998   6.755
 3072SOL    HW210116   1.879   6.085   6.891
 3073SOL     OW10117   6.488   4.424   0.622
 3073SOL    HW110118   6.536   4.462   0.701
 3073SOL    HW210119   6.454   4.500   0.566
 3074SOL     OW10120   1.033   3.784   0.887
 3074SOL    HW110121   0.958   3.746   0.941
 3074SOL    HW210122   1.069   3.865   0.933
 3075SOL     OW10123   2.326   5.214   3.752
 3075SOL    HW110124   2.397   5.183   3.815
 3075SOL    HW210125   2.256   5.143   3.743
 3076SOL     OW10126   0.281   1.463   4.909
 3076SOL    HW110127   0.372   1.423   4.894
 3076SOL    HW210128   0.213   1.411   4.856
 3077SOL     OW10129   6.317   3.694   1.052
 3077SOL    HW110130   6.371   3.617   1.018
 3077SOL    HW210131   6.358   3.729   1.136
 3078SOL     OW10132   6.552   2.823   1.715
 3078SOL    HW110133   6.613   2.757   1.671
 3078SOL    HW210134   6.458   2.788   1.713
 3079SOL     OW10135   2.280   2.529   5.343
 3079SOL    HW110136   2.236   2.451   5.300
 3079SOL    HW210137   2.289   2.603   5.275
 3080SOL     OW10138   4.497   5.047   0.879
 3080SOL    HW110139   4.513   5.132   0.930
 3080SOL    HW210140   4.493   4.971   0.944
 3081SOL     OW10141   1.114   4.050   0.615
 3081SOL    HW110142   1.120   3.962   0.662
 3081SOL    HW210143   1.164   4.046   0.529
 3082SOL     OW10144   3.538   5.316   4.242
 3082SOL    HW110145   3.508   5.380   4.172
 3082SOL    HW210146   3.462   5.298   4.305
 3083SOL     OW10147   2.104   5.882   2.790
 3083SOL    HW110148   2.198   5.884   2.756
 3083SOL    HW210149   2.089   5.798   2.843
 3084SOL     OW10150   0.776   3.804   3.199
 3084SOL    HW110151   0.686   3.822   3.239
 3084SOL    HW210152   0.837   3.767   3.269
 3085SOL     OW10153   4.489   5.178   0.593
 3085SOL    HW110154   4.585   5.185   0.619
 3085SOL    HW210155   4.475   5.225   0.506
 3086SOL     OW10156   5.900   1.372   0.040
 3086SOL    HW110157   5.825   1.367   6.993
 3086SOL    HW210158   5.873   1.329   0.126
 3087SOL     OW10159   2.863   6.920   1.969
 3087SOL    HW110160   2.769   6.952   1.974
 3087SOL    HW210161   2.866   6.832   1.921
 3088SOL     OW10162   0.674   2.702   5.707
 3088SOL    HW110163   0.665   2.775   5.775
 3088SOL    HW210164   0.757   2.650   5.727
 3089SOL     OW10165   4.885   0.189   4.752
 3089SOL    HW110166   4.862   0.155   4.843
 3089SOL    HW210167   4.952   0.263   4.760
 3090SOL     OW10168   0.937   1.569   1.396
 3090SOL    HW110169   0.981   1.649   1.437
 3090SOL    HW210170   0.838   1.578   1.403
 3091SOL     OW10171   1.363   1.577   1.137
 3091SOL    HW110172   1.376   1.557   1.040
 3091SOL    HW210173   1.287   1.641   1.147
 3092SOL     OW10174   5.430   6.749   2.219
 3092SOL    HW110175   5.523   6.764   2.189
 3092SOL    HW210176   5.430   6.693   2.302
 3093SOL     OW10177   5.708   5.315   5.997
 3093SOL    HW110178   5.787   5.376   6.006
 3093SOL    HW210179   5.679   5.311   5.901
 3094SOL     OW10180   2.792   0.755   5.687
 3094SOL    HW110181   2.712   0.755   5.747
 3094SOL    HW210182   2.775   0.694   5.609
 3095SOL     OW10183   2.500   2.903   5.438
 3095SOL    HW110184   2.511   2.918   5.340
 3095SOL    HW210185   2.455   2.983   5.479
 3096SOL     OW10186   1.000   3.449   4.925
 3096SOL    HW110187   0.911   3.465   4.967
 3096SOL    HW210188   1.014   3.351   4.912
 3097SOL     OW10189   6.120   2.121   6.178
 3097SOL    HW110190   6.148   2.137   6.083
 3097SOL    HW210191   6.177   2.049   6.218
 3098SOL     OW10192   1.937   1.624   2.411
 3098SOL    HW110193   1.963   1.528   2.417
 3098SOL    HW210194   2.006   1.674   2.357
 3099SOL     OW10195   0.767   6.688   3.991
 3099SOL    HW110196   0.760   6.694   3.892
 3099SOL    HW210197   0.683   6.724   4.033
 3100SOL     OW10198   6.362   6.642   2.902
 3100SOL    HW110199   6.400   6.718   2.956
 3100SOL    HW210200   6.262   6.647   2.904
 3101SOL     OW10201   4.534   6.613   5.831
 3101SOL    HW110202   4.603   6.546   5.806
 3101SOL    HW210203   4.551   6.699   5.783
 3102SOL     OW10204   6.995   5.420   0.316
 3102SOL    HW110205   6.945   5.507   0.321
 3102SOL    HW210206   6.951   5.353   0.375
 3103SOL     OW10207   3.247   0.103   1.279
 3103SOL    HW110208   3.246   0.194   1.320
 3103SOL    HW210209   3.159   0.059   1.295
 3104SOL     OW10210   4.775   0.269   6.242
 3104SOL    HW110211   4.682   0.287   6.212
 3104SOL    HW210212   4.804   0.178   6.212
 3105SOL     OW10213   5.206   3.111   0.184
 3105SOL    HW110214   5.145   3.070   0.252
 3105SOL    HW210215   5.300   3.107   0.218
 3106SOL     OW10216   5.735   1.228   4.769
 3106SOL    HW110217   5.667   1.188   4.830
 3106SOL    HW210218   5.801   1.159   4.741
 3107SOL     OW10219   4.322   1.629   4.868
 3107SOL    HW110220   4.410   1.633   4.821
 3107SOL    HW210221   4.258   1.576   4.812
 3108SOL     OW10222   2.308   4.452   4.403
 3108SOL    HW110223   2.304   4.446   4.502
 3108SOL    HW210224   2.287   4.363   4.362
 3109SOL     OW10225   6.621   6.947   4.379
 3109SOL    HW110226   6.601   0.002   4.443
 3109SOL    HW210227   6.643   6.986   4.289
 3110SOL     OW10228   2.625   4.583   3.294
 3110SOL    HW110229   2.593   4.625   3.209
 3110SOL    HW210230   2.723   4.603   3.306
 3111SOL     OW10231   6.326   4.838   4.955
 3111SOL    HW110232   6.334   4.738   4.961
 3111SOL    HW210233   6.239   4.866   4.995
 3112SOL     OW10234   3.942   2.532   0.096
 3112SOL    HW110235   3.945   2.607   0.162
 3112SOL    HW210236   4.012   2.546   0.026
 3113SOL     OW10237   2.663   5.860   2.915
 3113SOL    HW110238   2.571   5.824   2.899
 3113SOL    HW210239   2.726   5.784   2.936
 3114SOL     OW10240   3.488   1.738   0.476
 3114SOL    HW110241   3.415   1.737   0.408
 3114SOL    HW210242   3.497   1.646   0.516
 3115SOL     OW10243   4.068   4.298   5.312
 3115SOL    HW110244   4.114   4.330   5.229
 3115SOL    HW210245   4.111   4.213   5.342
 3116SOL     OW10246   0.366   2.532   0.887
 3116SOL    HW110247   0.366   2.436   0.913
 3116SOL    HW210248   0.429   2.546   0.810
 3117SOL     OW10249   4.810   2.197   5.423
 3117SOL    HW110250   4.742   2.123   5.421
 3117SOL    HW210251   4.780   2.269   5.484
 3118SOL     OW10252   1.576   0.541   2.873
 3118SOL    HW110253   1.514   0.498   2.940
 3118SOL    HW210254   1.665   0.496   2.876
 3119SOL     OW10255   4.055   3.188   5.795
 3119SOL    HW110256   4.033   3.133   5.714
 3119SOL    HW210257   4.148   3.223   5.787
 3120SOL     OW10258   3.129   0.301   5.385
 3120SOL    HW110259   3.167   0.211   5.408
 3120SOL    HW210260   3.132   0.360   5.466
 3121SOL     OW10261   4.796   1.859   4.238
 3121SOL    HW110262   4.808   1.789   4.308
 3121SOL    HW210263   4.777   1.815   4.150
 3122SOL     OW10264   4.368   4.656   4.270
 3122SOL    HW110265   4.467   4.650   4.285
 3122SOL    HW210266   4.322   4.589   4.328
 3123SOL     OW10267   2.298   1.780   3.138
 3123SOL    HW110268   2.300   1.858   3.200
 3123SOL    HW210269   2.377   1.782   3.077
 3124SOL     OW10270   5.147   6.642   4.386
 3124SOL    HW110271   5.106   6.733   4.378
 3124SOL    HW210272   5.203   6.623   4.306
 3125SOL     OW10273   1.471   2.882   5.449
 3125SOL    HW110274   1.520   2.879   5.362
 3125SOL    HW210275   1.390   2.941   5.440
 3126SOL     OW10276   5.717   5.723   4.423
 3126SOL    HW110277   5.714   5.690   4.517
 3126SOL    HW210278   5.681   5.817   4.419
 3127SOL     OW10279   0.856   2.371   4.636
 3127SOL    HW110280   0.945   2.372   4.591
 3127SOL    HW210281   0.844   2.455   4.689
 3128SOL     OW10282   3.768   0.139   0.502
 3128SOL    HW110283   3.798   0.219   0.450
 3128SOL    HW210284   3.668   0.136   0.502
 3129SOL     OW10285   4.668   3.296   1.057
 3129SOL    HW110286   4.709   3.328   0.971
 3129SOL    HW210287   4.714   3.339   1.134
 3130SOL     OW10288   1.890   3.855   0.923
 3130SOL    HW110289   1.958   3.827   0.855
 3130SOL    HW210290   1.923   3.833   1.014
 3131SOL     OW10291   6.885   4.057   1.537
 3131SOL    HW110292   6.974   4.052   1.582
 3131SOL    HW210293   6.857   4.153   1.529
 3132SOL     OW10294   3.929   4.424   0.377
 3132SOL    HW110295   3.849   4.388   0.330
 3132SOL    HW210296   4.012   4.398   0.327
 3133SOL     OW10297   3.987   0.115   3.084
 3133SOL    HW110298   4.016   0.122   2.989
 3133SOL    HW210299   4.047   0.171   3.141
 3134SOL     OW10300   2.972   5.027   1.930
 3134SOL    HW110301   2.930   4.940   1.906
 3134SOL    HW210302   3.070   5.014   1.945
 3135SOL     OW10303   5.959   6.695   5.976
 3135SOL    HW110304   5.927   6.737   5.891
 3135SOL    HW210305   6.058   6.682   5.972
 3136SOL     OW10306   6.258   1.024   2.759
 3136SOL    HW110307   6.266   1.099   2.694
 3136SOL    HW210308   6.207   0.949   2.717
 3137SOL     OW10309   6.006   0.084   0.275
 3137SOL    HW110310   6.084   0.139   0.305
 3137SOL    HW210311   5.925   0.141   0.272
 3138SOL     OW10312   5.660   5.516   3.876
 3138SOL    HW110313   5.639   5.487   3.969
 3138SOL    HW210314   5.653   5.437   3.815
 3139SOL     OW10315   2.175   5.150   1.344
 3139SOL    HW110316   2.164   5.131   1.246
 3139SOL    HW210317   2.271   5.170   1.363
 3140SOL     OW10318   6.201   6.811   5.699
 3140SOL    HW110319   6.278   6.771   5.748
 3140SOL    HW210320   6.116   6.789   5.747
 3141SOL     OW10321   0.208   2.303   6.620
 3141SOL    HW110322   0.150   2.336   6.694
 3141SOL    HW210323   0.158   2.235   6.566
 3142SOL     OW10324   4.570   0.629   2.295
 3142SOL    HW110325   4.544   0.554   2.357
 3142SOL    HW210326   4.668   0.645   2.301
 3143SOL     OW10327   6.041   1.689   0.274
 3143SOL    HW110328   5.965   1.748   0.301
 3143SOL    HW210329   6.113   1.745   0.234
 3144SOL     OW10330   4.443   3.861   6.570
 3144SOL    HW110331   4.406   3.952   6.551
 3144SOL    HW210332   4.436   3.804   6.489
 3145SOL     OW10333   2.873   6.425   1.916
 3145SOL    HW110334   2.890   6.490   1.842
 3145SOL    HW210335   2.879   6.331   1.881
 3146SOL     OW10336   0.735   1.072   5.320
 3146SOL    HW110337   0.728   0.978   5.286
 3146SOL    HW210338   0.749   1.070   5.419
 3147SOL     OW10339   3.440   4.765   6.085
 3147SOL    HW110340   3.513   4.771   6.017
 3147SOL    HW210341   3.474   4.718   6.166
 3148SOL     OW10342   0.453   6.540   2.907
 3148SOL    HW110343   0.464   6.443   2.929
 3148SOL    HW210344   0.409   6.586   2.984
 3149SOL     OW10345   3.293   1.274   0.492
 3149SOL    HW110346   3.291   1.187   0.444
 3149SOL    HW210347   3.253   1.262   0.583
 3150SOL     OW10348   6.011   6.349   5.311
 3150SOL    HW110349   6.082   6.376   5.376
 3150SOL    HW210350   5.958   6.273   5.348
 3151SOL     OW10351   6.449   1.851   5.931
 3151SOL    HW110352   6.456   1.866   5.832
 3151SOL    HW210353   6.522   1.790   5.960
 3152SOL     OW10354   1.818   3.943   6.865
 3152SOL    HW110355   1.754   3.875   6.902
 3152SOL    HW210356   1.894   3.955   6.929
 3153SOL     OW10357   6.611   4.898   0.589
 3153SOL    HW110358   6.673   4.820   0.579
 3153SOL    HW210359   6.541   4.893   0.517
 3154SOL     OW10360   5.731   1.847   1.755
 3154SOL    HW110361   5.655   1.863   1.692
 3154SOL    HW210362   5.810   1.813   1.703
 3155SOL     OW10363   6.420   4.822   0.118
 3155SOL    HW110364   6.338   4.860   0.076
 3155SOL    HW210365   6.497   4.885   0.103
 3156SOL     OW10366   3.560   4.161   2.395
 3156SOL    HW110367   3.548   4.256   2.423
 3156SOL    HW210368   3.652   4.149   2.358
 3157SOL     OW10369   1.388   1.849   5.261
 3157SOL    HW110370   1.397   1.867   5.163
 3157SOL    HW210371   1.471   1.804   5.295
 3158SOL     OW10372   2.895   2.094   5.474
 3158SOL    HW110373   2.897   2.182   5.426
 3158SOL    HW210374   2.893   2.020   5.408
 3159SOL     OW10375   4.684   6.699   0.578
 3159SOL    HW110376   4.608   6.668   0.636
 3159SOL    HW210377   4.681   6.798   0.569
 3160SOL     OW10378   2.241   7.011   5.669
 3160SOL    HW110379   2.298   0.074   5.676
 3160SOL    HW210380   2.169   0.008   5.602
 3161SOL     OW10381   1.855   2.660   2.542
 3161SOL    HW110382   1.948   2.649   2.578
 3161SOL    HW210383   1.855   2.731   2.472
 3162SOL     OW10384   1.826   5.473   0.143
 3162SOL    HW110385   1.898   5.517   0.198
 3162SOL    HW210386   1.866   5.399   0.089
 3163SOL     OW10387   4.213   3.491   0.436
 3163SOL    HW110388   4.125   3.521   0.473
 3163SOL    HW210389   4.230   3.539   0.350
 3164SOL     OW10390   2.898   5.295   2.533
 3164SOL    HW110391   2.863   5.355   2.461
 3164SOL    HW210392   2.976   5.339   2.578
 3165SOL     OW10393   0.366   5.207   0.200
 3165SOL    HW110394   0.370   5.110   0.224
 3165SOL    HW210395   0.376   5.217   0.101
 3166SOL     OW10396   3.835   1.033   4.547
 3166SOL    HW110397   3.830   1.127   4.582
 3166SOL    HW210398   3.931   1.008   4.533
 3167SOL     OW10399   4.708   3.955   0.165
 3167SOL    HW110400   4.639   3.925   0.231
 3167SOL    HW210401   4.767   4.024   0.206
 3168SOL     OW10402   4.716   2.771   0.976
 3168SOL    HW110403   4.727   2.863   0.939
 3168SOL    HW210404   4.621   2.743   0.969
 3169SOL     OW10405   1.596   4.625   2.300
 3169SOL    HW110406   1.633   4.576   2.378
 3169SOL    HW210407   1.663   4.691   2.266
 3170SOL     OW10408   3.545   5.735   2.765
 3170SOL    HW110409   3.638   5.713   2.735
 3170SOL    HW210410   3.508   5.807   2.707
 3171SOL     OW10411   5.191   3.279   2.752
 3171SOL    HW110412   5.237   3.366   2.733
 3171SOL    HW210413   5.140   3.250   2.671
 3172SOL     OW10414   6.981   4.797   0.026
 3172SOL    HW110415   6.967   4.781   6.947
 3172SOL    HW210416   6.989   4.896   0.042
 3173SOL     OW10417   3.017   1.790   7.007
 3173SOL    HW110418   2.979   1.777   6.916
 3173SOL    HW210419   3.117   1.782   7.003
 3174SOL     OW10420   2.746   2.780   5.958
 3174SOL    HW110421   2.653   2.815   5.966
 3174SOL    HW210422   2.810   2.856   5.946
 3175SOL     OW10423   6.723   1.841   3.685
 3175SOL    HW110424   6.695   1.880   3.597
 3175SOL    HW210425   6.679   1.753   3.698
 3176SOL     OW10426   7.012   4.204   4.846
 3176SOL    HW110427   0.081   4.215   4.799
 3176SOL    HW210428   0.001   4.131   4.914
 3177SOL     OW10429   5.331   4.102   3.088
 3177SOL    HW110430   5.414   4.144   3.050
 3177SOL    HW210431   5.251   4.144   3.046
 3178SOL     OW10432   5.526   1.462   0.319
 3178SOL    HW110433   5.546   1.524   0.395
 3178SOL    HW210434   5.568   1.497   0.235
 3179SOL     OW10435   1.157   1.824   2.604
 3179SOL    HW110436   1.180   1.813   2.701
 3179SOL    HW210437   1.093   1.900   2.593
 3180SOL     OW10438   5.582   6.763   6.494
 3180SOL    HW110439   5.511   6.753   6.425
 3180SOL    HW210440   5.666   6.718   6.462
 3181SOL     OW10441   0.482   1.409   4.373
 3181SOL    HW110442   0.424   1.490   4.372
 3181SOL    HW210443   0.446   1.341   4.309
 3182SOL     OW10444   3.117   7.011   0.826
 3182SOL    HW110445   3.073   0.019   0.740
 3182SOL    HW210446   3.176   6.932   0.809
 3183SOL     OW10447   4.527   4.819   2.477
 3183SOL    HW110448   4.614   4.833   2.430
 3183SOL    HW210449   4.467   4.898   2.461
 3184SOL     OW10450   0.744   2.232   3.430
 3184SOL    HW110451   0.726   2.134   3.420
 3184SOL    HW210452   0.797   2.248   3.514
 3185SOL     OW10453   6.590   6.638   5.443
 3185SOL    HW110454   6.661   6.638   5.513
 3185SOL    HW210455   6.501   6.655   5.486
 3186SOL     OW10456   1.808   0.621   0.107
 3186SOL    HW110457   1.847   0.556   0.042
 3186SOL    HW210458   1.744   0.682   0.060
 3187SOL     OW10459   3.756   5.436   2.431
 3187SOL    HW110460   3.704   5.435   2.517
 3187SOL    HW210461   3.702   5.482   2.360
 3188SOL     OW10462   2.111   4.886   4.827
 3188SOL    HW110463   2.020   4.856   4.854
 3188SOL    HW210464   2.139   4.964   4.883
 3189SOL     OW10465   1.958   0.971   0.445
 3189SOL    HW110466   2.014   0.982   0.527
 3189SOL    HW210467   1.924   0.877   0.440
 3190SOL     OW10468   6.717   5.735   5.346
 3190SOL    HW110469   6.633   5.683   5.363
 3190SOL    HW210470   6.717   5.768   5.251
 3191SOL     OW10471   4.403   5.371   1.799
 3191SOL    HW110472   4.449   5.398   1.884
 3191SOL    HW210473   4.432   5.432   1.725
 3192SOL     OW10474   6.961   2.510   1.483
 3192SOL    HW110475   6.876   2.557   1.506
 3192SOL    HW210476   7.001   2.552   1.401
 3193SOL     OW10477   4.141   1.160   4.770
 3193SOL    HW110478   4.232   1.158   4.813
 3193SOL    HW210479   4.119   1.070   4.733
 3194SOL     OW10480   1.230   1.196   5.402
 3194SOL    HW110481   1.235   1.118   5.463
 3194SOL    HW210482   1.177   1.269   5.445
 3195SOL     OW10483   0.418   1.222   2.083
 3195SOL    HW110484   0.459   1.134   2.059
 3195SOL    HW210485   0.451   1.292   2.019
 3196SOL     OW10486   6.651   0.796   5.656
 3196SOL    HW110487   6.727   0.860   5.641
 3196SOL    HW210488   6.575   0.820   5.595
 3197SOL     OW10489   2.112   6.764   6.177
 3197SOL    HW110490   2.080   6.766   6.272
 3197SOL    HW210491   2.197   6.712   6.172
 3198SOL     OW10492   6.384   2.338   4.202
 3198SOL    HW110493   6.385   2.416   4.139
 3198SOL    HW210494   6.312   2.351   4.270
 3199SOL     OW10495   5.448   4.931   2.856
 3199SOL    HW110496   5.374   4.994   2.878
 3199SOL    HW210497   5.425   4.880   2.773
 3200SOL     OW10498   6.209   3.238   4.339
 3200SOL    HW110499   6.148   3.174   4.292
 3200SOL    HW210500   6.281   3.266   4.276
 3201SOL     OW10501   6.354   4.507   3.067
 3201SOL    HW110502   6.319   4.557   3.147
 3201SOL    HW210503   6.354   4.409   3.087
 3202SOL     OW10504   0.856   5.079   0.739
 3202SOL    HW110505   0.853   4.992   0.788
 3202SOL    HW210506   0.838   5.064   0.642
 3203SOL     OW10507   4.524   0.401   1.335
 3203SOL    HW110508   4.589   0.379   1.408
 3203SOL    HW210509   4.431   0.386   1.368
 3204SOL     OW10510   2.831   1.883   3.648
 3204SOL    HW110511   2.886   1.923   3.574
 3204SOL    HW210512   2.842   1.784   3.648
 3205SOL     OW10513   5.381   3.448   5.698
 3205SOL    HW110514   5.361   3.513   5.626
 3205SOL    HW210515   5.315   3.458   5.773
 3206SOL     OW10516   2.643   2.930   1.347
 3206SOL    HW110517   2.544   2.921   1.335
 3206SOL    HW210518   2.662   2.971   1.437
 3207SOL     OW10519   0.921   0.663   5.712
 3207SOL    HW110520   1.013   0.656   5.674
 3207SOL    HW210521   0.899   0.579   5.762
 3208SOL     OW10522   5.900   5.753   5.420
 3208SOL    HW110523   5.840   5.833   5.420
 3208SOL    HW210524   5.941   5.741   5.510
 3209SOL     OW10525   3.814   5.424   5.439
 3209SOL    HW110526   3.756   5.424   5.358
 3209SOL    HW210527   3.791   5.344   5.496
 3210SOL     OW10528   0.072   4.969   1.805
 3210SOL    HW110529   0.108   5.049   1.853
 3210SOL    HW210530   0.054   4.896   1.871
 3211SOL     OW10531   1.312   4.866   0.719
 3211SOL    HW110532   1.320   4.861   0.620
 3211SOL    HW210533   1.321   4.961   0.748
 3212SOL     OW10534   3.169   0.331   2.400
 3212SOL    HW110535   3.161   0.242   2.355
 3212SOL    HW210536   3.087   0.386   2.381
 3213SOL     OW10537   1.751   0.544   6.208
 3213SOL    HW110538   1.734   0.584   6.118
 3213SOL    HW210539   1.670   0.555   6.265
 3214SOL     OW10540   4.610   6.990   3.832
 3214SOL    HW110541   4.520   0.008   3.810
 3214SOL    HW210542   4.621   6.901   3.788
 3215SOL     OW10543   1.260   3.223   0.386
 3215SOL    HW110544   1.184   3.288   0.383
 3215SOL    HW210545   1.324   3.243   0.311
 3216SOL     OW10546   5.976   5.063   1.404
 3216SOL    HW110547   5.933   5.087   1.317
 3216SOL    HW210548   6.037   5.137   1.432
 3217SOL     OW10549   0.031   5.630   3.223
 3217SOL    HW110550   0.122   5.643   3.261
 3217SOL    HW210551   0.008   5.533   3.225
 3218SOL     OW10552   5.864   2.517   3.574
 3218SOL    HW110553   5.958   2.485   3.589
 3218SOL    HW210554   5.806   2.439   3.547
 3219SOL     OW10555   6.762   1.088   4.864
 3219SOL    HW110556   6.739   1.093   4.767
 3219SOL    HW210557   6.678   1.096   4.918
 3220SOL     OW10558   0.287   5.981   6.650
 3220SOL    HW110559   0.363   6.045   6.662
 3220SOL    HW210560   0.304   5.898   6.704
 3221SOL     OW10561   4.121   7.018   2.719
 3221SOL    HW110562   4.044   0.007   2.656
 3221SOL    HW210563   4.207   0.007   2.668
 3222SOL     OW10564   3.036   1.126   3.314
 3222SOL    HW110565   3.119   1.182   3.316
 3222SOL    HW210566   3.048   1.047   3.375
 3223SOL     OW10567   1.839   6.151   0.480
 3223SOL    HW110568   1.881   6.081   0.538
 3223SOL    HW210569   1.741   6.154   0.496
 3224SOL     OW10570   5.236   2.445   5.010
 3224SOL    HW110571   5.306   2.517   5.009
 3224SOL    HW210572   5.153   2.478   4.966
 3225SOL     OW10573   4.218   1.373   3.955
 3225SOL    HW110574   4.170   1.392   4.040
 3225SOL    HW210575   4.236   1.458   3.906
 3226SOL     OW10576   1.798   6.976   2.263
 3226SOL    HW110577   1.726   6.909   2.283
 3226SOL    HW210578   1.840   7.006   2.348
 3227SOL     OW10579   3.533   2.552   6.529
 3227SOL    HW110580   3.561   2.513   6.442
 3227SOL    HW210581   3.589   2.514   6.603
 3228SOL     OW10582   0.361   4.181   0.797
 3228SOL    HW110583   0.357   4.090   0.837
 3228SOL    HW210584   0.421   4.180   0.718
 3229SOL     OW10585   3.361   0.536   5.438
 3229SOL    HW110586   3.444   0.582   5.407
 3229SOL    HW210587   3.314   0.496   5.359
 3230SOL     OW10588   2.168   5.515   6.306
 3230SOL    HW110589   2.198   5.566   6.226
 3230SOL    HW210590   2.245   5.461   6.342
 3231SOL     OW10591   3.088   0.989   2.498
 3231SOL    HW110592   3.184   1.004   2.523
 3231SOL    HW210593   3.043   1.077   2.485
 3232SOL     OW10594   3.633   5.800   3.920
 3232SOL    HW110595   3.669   5.711   3.893
 3232SOL    HW210596   3.533   5.798   3.917
 3233SOL     OW10597   6.922   2.682   0.464
 3233SOL    HW110598   6.925   2.770   0.512
 3233SOL    HW210599   6.961   2.693   0.372
 3234SOL     OW10600   1.769   2.776   0.327
 3234SOL    HW110601   1.673   2.749   0.330
 3234SOL    HW210602   1.788   2.827   0.243
 3235SOL     OW10603   5.947   5.561   1.888
 3235SOL    HW110604   6.009   5.574   1.810
 3235SOL    HW210605   5.968   5.475   1.933
 3236SOL     OW10606   2.350   3.676   0.291
 3236SOL    HW110607   2.260   3.634   0.282
 3236SOL    HW210608   2.409   3.616   0.346
 3237SOL     OW10609   6.217   1.936   4.330
 3237SOL    HW110610   6.184   1.859   4.385
 3237SOL    HW210611   6.316   1.933   4.324
 3238SOL     OW10612   6.031   5.316   0.582
 3238SOL    HW110613   6.103   5.359   0.528
 3238SOL    HW210614   6.070   5.243   0.638
 3239SOL     OW10615   0.136   0.282   3.719
 3239SOL    HW110616   0.199   0.269   3.795
 3239SOL    HW210617   0.088   0.369   3.730
 3240SOL     OW10618   7.003   0.941   6.427
 3240SOL    HW110619   0.005   1.035   6.454
 3240SOL    HW210620   0.041   0.878   6.479
 3241SOL     OW10621   4.784   2.237   6.835
 3241SOL    HW110622   4.749   2.147   6.810
 3241SOL    HW210623   4.740   2.268   6.919
 3242SOL     OW10624   5.169   4.088   5.630
 3242SOL    HW110625   5.219   4.175   5.628
 3242SOL    HW210626   5.073   4.106   5.652
 3243SOL     OW10627   4.910   5.693   6.644
 3243SOL    HW110628   4.872   5.616   6.695
 3243SOL    HW210629   4.858   5.707   6.561
 3244SOL     OW10630   5.506   6.066   0.383
 3244SOL    HW110631   5.545   6.009   0.455
 3244SOL    HW210632   5.547   6.157   0.387
 3245SOL     OW10633   4.866   2.467   4.157
 3245SOL    HW110634   4.814   2.548   4.129
 3245SOL    HW210635   4.842   2.391   4.096
 3246SOL     OW10636   6.777   0.276   2.919
 3246SOL    HW110637   6.794   0.194   2.864
 3246SOL    HW210638   6.690   0.316   2.891
 3247SOL     OW10639   0.190   4.434   2.932
 3247SOL    HW110640   0.189   4.531   2.955
 3247SOL    HW210641   0.109   4.412   2.878
 3248SOL     OW10642   5.779   2.869   2.414
 3248SOL    HW110643   5.832   2.879   2.330
 3248SOL    HW210644   5.714   2.944   2.421
 3249SOL     OW10645   3.636   3.642   4.042
 3249SOL    HW110646   3.656   3.660   3.945
 3249SOL    HW210647   3.552   3.588   4.049
 3250SOL     OW10648   5.079   6.556   3.602
 3250SOL    HW110649   4.990   6.591   3.633
 3250SOL    HW210650   5.148   6.628   3.611
 3251SOL     OW10651   2.697   0.977   4.616
 3251SOL    HW110652   2.792   0.987   4.644
 3251SOL    HW210653   2.644   1.057   4.646
 3252SOL     OW10654   3.084   1.350   3.001
 3252SOL    HW110655   3.168   1.298   3.019
 3252SOL    HW210656   3.010   1.288   2.979
 3253SOL     OW10657   4.763   3.849   1.124
 3253SOL    HW110658   4.816   3.818   1.203
 3253SOL    HW210659   4.665   3.844   1.145
 3254SOL     OW10660   5.156   6.939   6.222
 3254SOL    HW110661   5.157   6.855   6.167
 3254SOL    HW210662   5.241   6.990   6.206
 3255SOL     OW10663   5.772   5.909   1.026
 3255SOL    HW110664   5.845   5.930   1.092
 3255SOL    HW210665   5.790   5.957   0.940
 3256SOL     OW10666   4.731   2.359   1.152
 3256SOL    HW110667   4.754   2.261   1.147
 3256SOL    HW210668   4.635   2.369   1.178
 3257SOL     OW10669   3.044   2.068   2.166
 3257SOL    HW110670   3.136   2.060   2.128
 3257SOL    HW210671   3.004   2.156   2.139
 3258SOL     OW10672   3.371   5.239   3.535
 3258SOL    HW110673   3.450   5.197   3.490
 3258SOL    HW210674   3.287   5.205   3.494
 3259SOL     OW10675   5.400   4.752   3.917
 3259SOL    HW110676   5.347   4.679   3.962
 3259SOL    HW210677   5.418   4.825   3.982
 3260SOL     OW10678   1.941   4.050   2.055
 3260SOL    HW110679   2.007   4.103   2.002
 3260SOL    HW210680   1.899   3.981   1.995
 3261SOL     OW10681   5.355   0.172   2.375
 3261SOL    HW110682   5.341   0.081   2.335
 3261SOL    HW210683   5.416   0.225   2.315
 3262SOL     OW10684   4.044   2.195   2.441
 3262SOL    HW110685   3.989   2.175   2.360
 3262SOL    HW210686   4.128   2.241   2.414
 3263SOL     OW10687   3.113   0.897   3.557
 3263SOL    HW110688   3.192   0.871   3.500
 3263SOL    HW210689   3.067   0.814   3.589
 3264SOL     OW10690   1.731   5.016   0.730
 3264SOL    HW110691   1.694   5.014   0.637
 3264SOL    HW210692   1.730   4.924   0.769
 3265SOL     OW10693   6.189   6.066   5.438
 3265SOL    HW110694   6.183   6.078   5.339
 3265SOL    HW210695   6.279   6.028   5.461
 3266SOL     OW10696   2.571   4.518   7.017
 3266SOL    HW110697   2.660   4.491   6.979
 3266SOL    HW210698   2.527   4.438   0.038
 3267SOL     OW10699   3.895   0.431   1.477
 3267SOL    HW110700   3.916   0.367   1.403
 3267SOL    HW210701   3.923   0.391   1.564
 3268SOL     OW10702   0.866   4.951   1.621
 3268SOL    HW110703   0.794   4.947   1.690
 3268SOL    HW210704   0.955   4.938   1.665
 3269SOL     OW10705   0.633   5.250   2.446
 3269SOL    HW110706   0.536   5.265   2.468
 3269SOL    HW210707   0.672   5.186   2.512
 3270SOL     OW10708   1.549   3.204   6.588
 3270SOL    HW110709   1.599   3.234   6.670
 3270SOL    HW210710   1.575   3.261   6.510
 3271SOL     OW10711   6.710   3.458   1.445
 3271SOL    HW110712   6.617   3.422   1.441
 3271SOL    HW210713   6.751   3.435   1.533
 3272SOL     OW10714   3.354   4.633   6.523
 3272SOL    HW110715   3.413   4.706   6.558
 3272SOL    HW210716   3.283   4.612   6.590
 3273SOL     OW10717   5.294   4.569   6.042
 3273SOL    HW110718   5.221   4.545   6.106
 3273SOL    HW210719   5.307   4.495   5.976
 3274SOL     OW10720   5.808   0.252   0.238
 3274SOL    HW110721   5.736   0.303   0.285
 3274SOL    HW210722   5.780   0.233   0.144
 3275SOL     OW10723   4.312   0.991   0.617
 3275SOL    HW110724   4.357   0.918   0.670
 3275SOL    HW210725   4.356   1.078   0.638
 3276SOL     OW10726   4.534   6.772   0.221
 3276SOL    HW110727   4.541   6.812   0.129
 3276SOL    HW210728   4.614   6.798   0.275
 3277SOL     OW10729   2.801   1.239   1.139
 3277SOL    HW110730   2.808   1.157   1.083
 3277SOL    HW210731   2.744   1.307   1.093
 3278SOL     OW10732   0.198   0.203   5.727
 3278SOL    HW110733   0.163   0.186   5.634
 3278SOL    HW210734   0.171   0.127   5.786
 3279SOL     OW10735   4.436   6.651   0.727
 3279SOL    HW110736   4.459   6.706   0.807
 3279SOL    HW210737   4.338   6.634   0.725
 3280SOL     OW10738   5.229   4.547   4.017
 3280SOL    HW110739   5.144   4.587   3.981
 3280SOL    HW210740   5.209   4.459   4.059
 3281SOL     OW10741   6.944   4.637   1.262
 3281SOL    HW110742   0.010   4.598   1.297
 3281SOL    HW210743   6.950   4.647   1.163
 3282SOL     OW10744   0.378   3.729   5.195
 3282SOL    HW110745   0.397   3.638   5.231
 3282SOL    HW210746   0.449   3.754   5.129
 3283SOL     OW10747   3.946   1.174   1.125
 3283SOL    HW110748   3.921   1.085   1.089
 3283SOL    HW210749   4.023   1.164   1.188
 3284SOL     OW10750   0.822   5.318   4.745
 3284SOL    HW110751   0.907   5.299   4.794
 3284SOL    HW210752   0.754   5.249   4.770
 3285SOL     OW10753   5.634   2.045   4.709
 3285SOL    HW110754   5.543   2.004   4.706
 3285SOL    HW210755   5.627   2.145   4.701
 3286SOL     OW10756   3.336   2.487   1.718
 3286SOL    HW110757   3.253   2.431   1.717
 3286SOL    HW210758   3.416   2.429   1.705
 3287SOL     OW10759   0.622   0.191   0.192
 3287SOL    HW110760   0.582   0.238   0.270
 3287SOL    HW210761   0.577   0.102   0.180
 3288SOL     OW10762   1.692   6.616   1.076
 3288SOL    HW110763   1.611   6.580   1.124
 3288SOL    HW210764   1.774   6.590   1.126
 3289SOL     OW10765   2.939   1.832   6.743
 3289SOL    HW110766   2.910   1.799   6.653
 3289SOL    HW210767   2.890   1.916   6.766
 3290SOL     OW10768   6.800   5.344   0.537
 3290SOL    HW110769   6.765   5.418   0.480
 3290SOL    HW210770   6.742   5.334   0.618
 3291SOL     OW10771   3.861   0.689   5.894
 3291SOL    HW110772   3.915   0.611   5.863
 3291SOL    HW210773   3.904   0.730   5.974
 3292SOL     OW10774   7.005   1.188   0.846
 3292SOL    HW110775   0.011   1.101   0.889
 3292SOL    HW210776   6.912   1.182   0.810
 3293SOL     OW10777   6.846   4.693   2.170
 3293SOL    HW110778   6.801   4.605   2.186
 3293SOL    HW210779   6.778   4.767   2.174
 3294SOL     OW10780   5.203   1.563   5.824
 3294SOL    HW110781   5.295   1.592   5.799
 3294SOL    HW210782   5.140   1.639   5.813
 3295SOL     OW10783   1.663   3.147   0.761
 3295SOL    HW110784   1.741   3.194   0.721
 3295SOL    HW210785   1.614   3.210   0.822
 3296SOL     OW10786   6.770   0.365   5.146
 3296SOL    HW110787   6.855   0.387   5.099
 3296SOL    HW210788   6.789   0.343   5.242
 3297SOL     OW10789   3.368   1.808   5.125
 3297SOL    HW110790   3.367   1.902   5.090
 3297SOL    HW210791   3.461   1.772   5.120
 3298SOL     OW10792   6.530   3.128   5.508
 3298SOL    HW110793   6.604   3.111   5.574
 3298SOL    HW210794   6.442   3.110   5.551
 3299SOL     OW10795   4.428   5.903   3.006
 3299SOL    HW110796   4.442   5.997   3.038
 3299SOL    HW210797   4.425   5.902   2.906
 3300SOL     OW10798   1.879   0.492   5.694
 3300SOL    HW110799   1.833   0.456   5.613
 3300SOL    HW210800   1.858   0.434   5.773
 3301SOL     OW10801   1.548   3.448   2.749
 3301SOL    HW110802   1.486   3.524   2.771
 3301SOL    HW210803   1.503   3.362   2.772
 3302SOL     OW10804   1.298   4.822   6.724
 3302SOL    HW110805   1.215   4.807   6.777
 3302SOL    HW210806   1.330   4.735   6.685
 3303SOL     OW10807   3.707   3.145   0.451
 3303SOL    HW110808   3.697   3.068   0.387
 3303SOL    HW210809   3.635   3.139   0.521
 3304SOL     OW10810   2.395   4.922   5.979
 3304SOL    HW110811   2.484   4.886   5.951
 3304SOL    HW210812   2.332   4.917   5.902
 3305SOL     OW10813   3.398   0.297   1.823
 3305SOL    HW110814   3.405   0.220   1.760
 3305SOL    HW210815   3.354   0.267   1.908
 3306SOL     OW10816   1.315   5.764   5.923
 3306SOL    HW110817   1.267   5.683   5.890
 3306SOL    HW210818   1.250   5.837   5.942
 3307SOL     OW10819   1.172   6.962   6.119
 3307SOL    HW110820   1.186   0.008   6.194
 3307SOL    HW210821   1.254   6.960   6.062
 3308SOL     OW10822   3.932   4.677   0.958
 3308SOL    HW110823   3.997   4.664   0.884
 3308SOL    HW210824   3.980   4.675   1.046
 3309SOL     OW10825   5.298   4.203   3.882
 3309SOL    HW110826   5.234   4.252   3.822
 3309SOL    HW210827   5.370   4.161   3.827
 3310SOL     OW10828   0.443   4.270   4.781
 3310SOL    HW110829   0.498   4.234   4.706
 3310SOL    HW210830   0.468   4.365   4.798
 3311SOL     OW10831   3.532   3.297   1.111
 3311SOL    HW110832   3.443   3.272   1.150
 3311SOL    HW210833   3.598   3.225   1.129
 3312SOL     OW10834   4.174   2.835   5.926
 3312SOL    HW110835   4.142   2.840   5.831
 3312SOL    HW210836   4.274   2.840   5.927
 3313SOL     OW10837   0.693   0.507   3.078
 3313SOL    HW110838   0.691   0.421   3.129
 3313SOL    HW210839   0.786   0.525   3.047
 3314SOL     OW10840   2.850   0.405   2.545
 3314SOL    HW110841   2.893   0.469   2.482
 3314SOL    HW210842   2.845   0.447   2.636
 3315SOL     OW10843   0.762   4.754   5.561
 3315SOL    HW110844   0.774   4.676   5.623
 3315SOL    HW210845   0.666   4.758   5.532
 3316SOL     OW10846   3.544   1.068   5.434
 3316SOL    HW110847   3.586   1.060   5.524
 3316SOL    HW210848   3.455   1.111   5.442
 3317SOL     OW10849   5.620   1.652   2.462
 3317SOL    HW110850   5.640   1.738   2.414
 3317SOL    HW210851   5.679   1.644   2.542
 3318SOL     OW10852   1.878   1.000   6.706
 3318SOL    HW110853   1.869   0.969   6.611
 3318SOL    HW210854   1.839   1.092   6.715
 3319SOL     OW10855   6.447   0.141   2.841
 3319SOL    HW110856   6.432   0.124   2.939
 3319SOL    HW210857   6.493   0.229   2.829
 3320SOL     OW10858   6.507   0.438   0.171
 3320SOL    HW110859   6.581   0.386   0.127
 3320SOL    HW210860   6.469   0.383   0.245
 3321SOL     OW10861   6.155   1.520   1.091
 3321SOL    HW110862   6.101   1.602   1.114
 3321SOL    HW210863   6.107   1.439   1.123
 3322SOL     OW10864   6.840   3.130   0.773
 3322SOL    HW110865   6.844   3.189   0.854
 3322SOL    HW210866   6.805   3.040   0.799
 3323SOL     OW10867   2.403   1.752   0.906
 3323SOL    HW110868   2.343   1.675   0.929
 3323SOL    HW210869   2.446   1.787   0.989
 3324SOL     OW10870   4.085   5.403   5.150
 3324SOL    HW110871   4.024   5.438   5.078
 3324SOL    HW210872   4.129   5.480   5.197
 3325SOL     OW10873   0.305   3.302   6.249
 3325SOL    HW110874   0.352   3.336   6.167
 3325SOL    HW210875   0.321   3.366   6.324
 3326SOL     OW10876   4.843   1.465   2.184
 3326SOL    HW110877   4.934   1.505   2.172
 3326SOL    HW210878   4.844   1.370   2.153
 3327SOL     OW10879   2.068   5.916   2.007
 3327SOL    HW110880   2.051   5.818   2.017
 3327SOL    HW210881   2.094   5.935   1.912
 3328SOL     OW10882   3.163   1.703   1.402
 3328SOL    HW110883   3.136   1.639   1.474
 3328SOL    HW210884   3.252   1.678   1.366
 3329SOL     OW10885   6.029   0.380   5.219
 3329SOL    HW110886   6.050   0.468   5.177
 3329SOL    HW210887   6.056   0.381   5.315
 3330SOL     OW10888   6.882   3.863   1.842
 3330SOL    HW110889   6.907   3.942   1.899
 3330SOL    HW210890   6.822   3.802   1.893
 3331SOL     OW10891   2.168   2.669   1.051
 3331SOL    HW110892   2.081   2.634   1.085
 3331SOL    HW210893   2.243   2.612   1.086
 3332SOL     OW10894   5.468   5.597   6.969
 3332SOL    HW110895   5.481   5.612   6.872
 3332SOL    HW210896   5.375   5.622   6.995
 3333SOL     OW10897   4.848   5.451   6.798
 3333SOL    HW110898   4.750   5.438   6.812
 3333SOL    HW210899   4.897   5.423   6.880
 3334SOL     OW10900   3.252   3.292   1.202
 3334SOL    HW110901   3.257   3.265   1.298
 3334SOL    HW210902   3.182   3.238   1.155
 3335SOL     OW10903   4.692   5.714   5.422
 3335SOL    HW110904   4.768   5.719   5.357
 3335SOL    HW210905   4.612   5.673   5.377
 3336SOL     OW10906   2.917   5.108   5.457
 3336SOL    HW110907   2.914   5.019   5.412
 3336SOL    HW210908   2.976   5.170   5.405
 3337SOL     OW10909   3.427   2.536   1.405
 3337SOL    HW110910   3.407   2.439   1.409
 3337SOL    HW210911   3.365   2.586   1.466
 3338SOL     OW10912   6.516   3.546   0.942
 3338SOL    HW110913   6.529   3.468   0.882
 3338SOL    HW210914   6.590   3.550   1.009
 3339SOL     OW10915   6.920   6.337   0.028
 3339SOL    HW110916   6.842   6.280   0.050
 3339SOL    HW210917   6.927   6.412   0.094
 3340SOL     OW10918   3.743   6.857   1.497
 3340SOL    HW110919   3.724   6.797   1.575
 3340SOL    HW210920   3.749   6.951   1.529
 3341SOL     OW10921   0.833   0.114   3.599
 3341SOL    HW110922   0.881   0.073   3.676
 3341SOL    HW210923   0.868   0.206   3.582
 3342SOL     OW10924   2.030   0.073   3.530
 3342SOL    HW110925   2.116   0.021   3.538
 3342SOL    HW210926   1.983   0.047   3.446
 3343SOL     OW10927   5.058   3.010   0.377
 3343SOL    HW110928   5.088   3.093   0.425
 3343SOL    HW210929   4.963   3.022   0.347
 3344SOL     OW10930   5.616   4.051   5.023
 3344SOL    HW110931   5.558   3.995   4.964
 3344SOL    HW210932   5.571   4.064   5.111
 3345SOL     OW10933   2.748   3.604   6.169
 3345SOL    HW110934   2.734   3.609   6.268
 3345SOL    HW210935   2.670   3.646   6.123
 3346SOL     OW10936   0.686   1.061   2.359
 3346SOL    HW110937   0.721   1.122   2.289
 3346SOL    HW210938   0.761   1.011   2.401
 3347SOL     OW10939   6.627   4.419   3.154
 3347SOL    HW110940   6.683   4.438   3.074
 3347SOL    HW210941   6.538   4.464   3.144
 3348SOL     OW10942   3.343   3.189   3.964
 3348SOL    HW110943   3.280   3.143   3.901
 3348SOL    HW210944   3.434   3.194   3.922
 3349SOL     OW10945   0.349   4.689   4.237
 3349SOL    HW110946   0.434   4.742   4.234
 3349SOL    HW210947   0.370   4.591   4.229
 3350SOL     OW10948   1.342   1.630   6.554
 3350SOL    HW110949   1.355   1.535   6.584
 3350SOL    HW210950   1.431   1.676   6.550
 3351SOL     OW10951   5.322   0.797   1.924
 3351SOL    HW110952   5.275   0.754   1.847
 3351SOL    HW210953   5.290   0.757   2.010
 3352SOL     OW10954   0.035   3.577   0.088
 3352SOL    HW110955   6.990   3.512   0.047
 3352SOL    HW210956   0.128   3.541   0.083
 3353SOL     OW10957   1.464   6.652   1.608
 3353SOL    HW110958   1.476   6.648   1.509
 3353SOL    HW210959   1.552   6.667   1.653
 3354SOL     OW10960   6.782   2.676   3.872
 3354SOL    HW110961   6.762   2.616   3.949
 3354SOL    HW210962   6.727   2.760   3.879
 3355SOL     OW10963   0.881   1.824   0.303
 3355SOL    HW110964   0.838   1.747   0.351
 3355SOL    HW210965   0.858   1.819   0.206
 3356SOL     OW10966   2.782   2.843   0.152
 3356SOL    HW110967   2.686   2.850   0.181
 3356SOL    HW210968   2.823   2.763   0.194
 3357SOL     OW10969   2.036   4.784   1.367
 3357SOL    HW110970   2.016   4.798   1.270
 3357SOL    HW210971   2.118   4.728   1.377
 3358SOL     OW10972   4.696   6.316   1.728
 3358SOL    HW110973   4.636   6.373   1.784
 3358SOL    HW210974   4.686   6.221   1.755
 3359SOL     OW10975   0.258   0.525   3.419
 3359SOL    HW110976   0.346   0.542   3.464
 3359SOL    HW210977   0.261   0.564   3.326
 3360SOL     OW10978   0.097   0.964   0.999
 3360SOL    HW110979   0.174   0.903   0.980
 3360SOL    HW210980   0.013   0.911   1.005
 3361SOL     OW10981   6.472   5.446   2.963
 3361SOL    HW110982   6.510   5.539   2.959
 3361SOL    HW210983   6.534   5.387   3.015
 3362SOL     OW10984   3.160   1.217   5.075
 3362SOL    HW110985   3.076   1.265   5.046
 3362SOL    HW210986   3.239   1.273   5.053
 3363SOL     OW10987   0.376   0.658   6.220
 3363SOL    HW110988   0.359   0.620   6.311
 3363SOL    HW210989   0.448   0.727   6.226
 3364SOL     OW10990   0.873   5.288   5.779
 3364SOL    HW110991   0.792   5.252   5.825
 3364SOL    HW210992   0.946   5.302   5.846
 3365SOL     OW10993   0.802   2.513   4.161
 3365SOL    HW110994   0.890   2.557   4.181
 3365SOL    HW210995   0.755   2.492   4.247
 3366SOL     OW10996   5.671   1.100   4.505
 3366SOL    HW110997   5.664   1.012   4.458
 3366SOL    HW210998   5.665   1.086   4.604
 3367SOL     OW10999   2.188   2.832   1.785
 3367SOL    HW111000   2.158   2.737   1.774
 3367SOL    HW211001   2.250   2.856   1.710
 3368SOL     OW11002   6.836   5.433   6.665
 3368SOL    HW111003   6.872   5.525   6.681
 3368SOL    HW211004   6.775   5.408   6.740
 3369SOL     OW11005   3.293   1.741   0.292
 3369SOL    HW111006   3.291   1.768   0.196
 3369SOL    HW211007   3.243   1.656   0.304
 3370SOL     OW11008   6.222   6.532   5.138
 3370SOL    HW111009   6.223   6.611   5.077
 3370SOL    HW211010   6.209   6.562   5.233
 3371SOL     OW11011   1.259   4.329   2.446
 3371SOL    HW111012   1.223   4.287   2.362
 3371SOL    HW211013   1.202   4.301   2.523
 3372SOL     OW11014   0.465   1.504   2.093
 3372SOL    HW111015   0.525   1.579   2.123
 3372SOL    HW211016   0.427   1.458   2.173
 3373SOL     OW11017   6.397   1.507   4.179
 3373SOL    HW111018   6.423   1.430   4.121
 3373SOL    HW211019   6.298   1.519   4.178
 3374SOL     OW11020   3.467   5.767   4.801
 3374SOL    HW111021   3.420   5.845   4.843
 3374SOL    HW211022   3.505   5.709   4.873
 3375SOL     OW11023   4.294   4.723   4.835
 3375SOL    HW111024   4.369   4.720   4.769
 3375SOL    HW211025   4.309   4.654   4.906
 3376SOL     OW11026   4.090   3.583   3.041
 3376SOL    HW111027   4.126   3.589   3.134
 3376SOL    HW211028   4.093   3.488   3.010
 3377SOL     OW11029   0.775   6.157   4.697
 3377SOL    HW111030   0.850   6.136   4.759
 3377SOL    HW211031   0.690   6.162   4.749
 3378SOL     OW11032   6.522   0.849   1.072
 3378SOL    HW111033   6.570   0.873   1.156
 3378SOL    HW211034   6.584   0.855   0.995
 3379SOL     OW11035   0.311   4.187   5.766
 3379SOL    HW111036   0.228   4.134   5.750
 3379SOL    HW211037   0.289   4.285   5.767
 3380SOL     OW11038   6.855   5.726   6.031
 3380SOL    HW111039   6.785   5.694   6.095
 3380SOL    HW211040   6.817   5.799   5.974
 3381SOL     OW11041   1.733   2.170   0.316
 3381SOL    HW111042   1.678   2.106   0.262
 3381SOL    HW211043   1.681   2.199   0.397
 3382SOL     OW11044   0.729   1.437   0.597
 3382SOL    HW111045   0.813   1.397   0.634
 3382SOL    HW211046   0.675   1.476   0.672
 3383SOL     OW11047   6.013   5.114   2.478
 3383SOL    HW111048   6.057   5.024   2.485
 3383SOL    HW211049   5.970   5.123   2.388
 3384SOL     OW11050   3.043   2.834   5.424
 3384SOL    HW111051   2.951   2.857   5.457
 3384SOL    HW211052   3.111   2.872   5.487
 3385SOL     OW11053   0.271   4.270   3.728
 3385SOL    HW111054   0.340   4.291   3.658
 3385SOL    HW211055   0.264   4.346   3.791
 3386SOL     OW11056   5.948   3.594   5.469
 3386SOL    HW111057   5.968   3.653   5.391
 3386SOL    HW211058   5.858   3.618   5.506
 3387SOL     OW11059   2.276   1.463   2.909
 3387SOL    HW111060   2.297   1.468   3.007
 3387SOL    HW211061   2.324   1.536   2.861
 3388SOL     OW11062   5.664   3.590   1.392
 3388SOL    HW111063   5.665   3.497   1.429
 3388SOL    HW211064   5.646   3.587   1.294
 3389SOL     OW11065   4.566   4.510   4.603
 3389SOL    HW111066   4.656   4.541   4.634
 3389SOL    HW211067   4.578   4.436   4.536
 3390SOL     OW11068   4.841   3.860   5.863
 3390SOL    HW111069   4.758   3.816   5.897
 3390SOL    HW211070   4.915   3.792   5.857
 3391SOL     OW11071   4.394   2.134   4.800
 3391SOL    HW111072   4.344   2.220   4.810
 3391SOL    HW211073   4.481   2.151   4.754
 3392SOL     OW11074   2.941   0.818   3.911
 3392SOL    HW111075   2.975   0.778   3.826
 3392SOL    HW211076   2.841   0.811   3.914
 3393SOL     OW11077   6.261   6.292   0.544
 3393SOL    HW111078   6.216   6.257   0.627
 3393SOL    HW211079   6.241   6.390   0.535
 3394SOL     OW11080   5.811   3.477   0.962
 3394SOL    HW111081   5.896   3.526   0.982
 3394SOL    HW211082   5.828   3.379   0.959
 3395SOL     OW11083   6.713   2.913   4.162
 3395SOL    HW111084   6.715   2.851   4.084
 3395SOL    HW211085   6.674   3.001   4.134
 3396SOL     OW11086   0.716   3.061   3.629
 3396SOL    HW111087   0.714   2.968   3.666
 3396SOL    HW211088   0.707   3.058   3.530
 3397SOL     OW11089   3.319   1.214   5.504
 3397SOL    HW111090   3.303   1.313   5.505
 3397SOL    HW211091   3.262   1.172   5.435
 3398SOL     OW11092   1.053   6.881   4.574
 3398SOL    HW111093   1.039   6.786   4.545
 3398SOL    HW211094   1.012   6.895   4.664
 3399SOL     OW11095   4.626   4.637   3.917
 3399SOL    HW111096   4.678   4.593   3.844
 3399SOL    HW211097   4.615   4.573   3.994
 3400SOL     OW11098   3.829   1.558   5.779
 3400SOL    HW111099   3.851   1.546   5.682
 3400SOL    HW211100   3.914   1.566   5.832
 3401SOL     OW11101   0.279   3.939   0.905
 3401SOL    HW111102   0.226   3.902   0.829
 3401SOL    HW211103   0.313   3.864   0.962
 3402SOL     OW11104   4.835   5.841   0.799
 3402SOL    HW111105   4.865   5.930   0.763
 3402SOL    HW211106   4.757   5.808   0.746
 3403SOL     OW11107   4.047   0.710   5.072
 3403SOL    HW111108   4.125   0.717   5.010
 3403SOL    HW211109   3.963   0.698   5.019
 3404SOL     OW11110   4.166   1.724   0.792
 3404SOL    HW111111   4.094   1.737   0.860
 3404SOL    HW211112   4.137   1.655   0.726
 3405SOL     OW11113   6.424   3.520   4.746
 3405SOL    HW111114   6.326   3.517   4.766
 3405SOL    HW211115   6.464   3.429   4.762
 3406SOL     OW11116   1.898   4.021   1.576
 3406SOL    HW111117   1.858   3.984   1.492
 3406SOL    HW211118   1.943   3.948   1.627
 3407SOL     OW11119   1.832   5.185   1.300
 3407SOL    HW111120   1.778   5.101   1.303
 3407SOL    HW211121   1.886   5.193   1.383
 3408SOL     OW11122   4.631   4.473   4.119
 3408SOL    HW111123   4.605   4.442   4.211
 3408SOL    HW211124   4.724   4.444   4.099
 3409SOL     OW11125   3.891   6.936   5.485
 3409SOL    HW111126   3.791   6.943   5.479
 3409SOL    HW211127   3.923   6.872   5.415
 3410SOL     OW11128   6.086   6.149   6.711
 3410SOL    HW111129   6.128   6.208   6.781
 3410SOL    HW211130   6.028   6.205   6.651
 3411SOL     OW11131   6.584   3.092   1.758
 3411SOL    HW111132   6.530   3.010   1.738
 3411SOL    HW211133   6.593   3.147   1.674
 3412SOL     OW11134   4.107   3.085   6.371
 3412SOL    HW111135   4.191   3.050   6.413
 3412SOL    HW211136   4.117   3.083   6.272
 3413SOL     OW11137   4.158   1.566   2.762
 3413SOL    HW111138   4.097   1.510   2.707
 3413SOL    HW211139   4.187   1.646   2.709
 3414SOL     OW11140   3.171   1.091   5.324
 3414SOL    HW111141   3.164   1.137   5.236
 3414SOL    HW211142   3.175   0.992   5.310
 3415SOL     OW11143   1.506   4.061   4.710
 3415SOL    HW111144   1.411   4.079   4.737
 3415SOL    HW211145   1.563   4.141   4.732
 3416SOL     OW11146   6.515   4.600   6.201
 3416SOL    HW111147   6.475   4.677   6.250
 3416SOL    HW211148   6.479   4.514   6.237
 3417SOL     OW11149   6.235   6.074   2.668
 3417SOL    HW111150   6.330   6.072   2.638
 3417SOL    HW211151   6.203   5.981   2.685
 3418SOL     OW11152   4.457   0.496   4.563
 3418SOL    HW111153   4.478   0.592   4.579
 3418SOL    HW211154   4.542   0.443   4.564
 3419SOL     OW11155   3.551   5.518   5.865
 3419SOL    HW111156   3.488   5.558   5.798
 3419SOL    HW211157   3.638   5.495   5.821
 3420SOL     OW11158   5.166   2.356   3.935
 3420SOL    HW111159   5.154   2.431   4.000
 3420SOL    HW211160   5.209   2.391   3.852
 3421SOL     OW11161   6.616   0.413   5.749
 3421SOL    HW111162   6.696   0.353   5.742
 3421SOL    HW211163   6.641   0.496   5.800
 3422SOL     OW11164   2.904   6.726   1.319
 3422SOL    HW111165   2.989   6.682   1.291
 3422SOL    HW211166   2.835   6.715   1.247
 3423SOL     OW11167   1.803   0.319   0.568
 3423SOL    HW111168   1.779   0.228   0.601
 3423SOL    HW211169   1.721   0.363   0.530
 3424SOL     OW11170   3.627   0.562   2.276
 3424SOL    HW111171   3.591   0.650   2.243
 3424SOL    HW211172   3.553   0.495   2.281
 3425SOL     OW11173   4.949   4.291   2.322
 3425SOL    HW111174   4.978   4.210   2.374
 3425SOL    HW211175   4.898   4.352   2.383
 3426SOL     OW11176   3.681   2.950   0.258
 3426SOL    HW111177   3.590   2.910   0.259
 3426SOL    HW211178   3.690   3.010   0.178
 3427SOL     OW11179   6.413   6.198   0.147
 3427SOL    HW111180   6.452   6.280   0.107
 3427SOL    HW211181   6.313   6.202   0.140
 3428SOL     OW11182   4.017   4.710   1.656
 3428SOL    HW111183   4.042   4.685   1.749
 3428SOL    HW211184   3.940   4.774   1.658
 3429SOL     OW11185   0.490   1.517   6.725
 3429SOL    HW111186   0.402   1.541   6.684
 3429SOL    HW211187   0.513   1.584   6.796
 3430SOL     OW11188   0.683   6.941   6.142
 3430SOL    HW111189   0.688   0.017   6.112
 3430SOL    HW211190   0.612   6.893   6.091
 3431SOL     OW11191   2.443   6.463   0.381
 3431SOL    HW111192   2.421   6.371   0.413
 3431SOL    HW211193   2.533   6.462   0.336
 3432SOL     OW11194   2.801   2.393   5.678
 3432SOL    HW111195   2.874   2.324   5.686
 3432SOL    HW211196   2.724   2.354   5.627
 3433SOL     OW11197   1.964   0.331   6.544
 3433SOL    HW111198   1.887   0.271   6.526
 3433SOL    HW211199   1.947   0.422   6.505
 3434SOL     OW11200   3.465   2.503   0.700
 3434SOL    HW111201   3.435   2.516   0.606
 3434SOL    HW211202   3.564   2.519   0.707
 3435SOL     OW11203   0.123   1.928   2.137
 3435SOL    HW111204   0.214   1.927   2.178
 3435SOL    HW211205   0.130   1.909   2.039
 3436SOL     OW11206   4.212   6.848   5.188
 3436SOL    HW111207   4.271   6.928   5.175
 3436SOL    HW211208   4.247   6.794   5.264
 3437SOL     OW11209   4.637   1.019   6.313
 3437SOL    HW111210   4.568   1.079   6.353
 3437SOL    HW211211   4.592   0.946   6.261
 3438SOL     OW11212   1.352   2.845   6.079
 3438SOL    HW111213   1.276   2.837   6.015
 3438SOL    HW211214   1.438   2.828   6.031
 3439SOL     OW11215   2.521   0.507   5.080
 3439SOL    HW111216   2.463   0.568   5.027
 3439SOL    HW211217   2.464   0.446   5.135
 3440SOL     OW11218   5.126   3.523   1.494
 3440SOL    HW111219   5.170   3.606   1.528
 3440SOL    HW211220   5.075   3.480   1.569
 3441SOL     OW11221   5.098   0.578   3.324
 3441SOL    HW111222   5.074   0.660   3.375
 3441SOL    HW211223   5.041   0.572   3.242
 3442SOL     OW11224   2.830   5.016   3.083
 3442SOL    HW111225   2.742   4.989   3.122
 3442SOL    HW211226   2.860   4.946   3.019
 3443SOL     OW11227   5.261   0.538   2.720
 3443SOL    HW111228   5.275   0.457   2.776
 3443SOL    HW211229   5.291   0.620   2.770
 3444SOL     OW11230   5.236   4.949   6.825
 3444SOL    HW111231   5.212   4.940   6.728
 3444SOL    HW211232   5.176   5.015   6.868
 3445SOL     OW11233   6.319   4.221   3.907
 3445SOL    HW111234   6.225   4.204   3.938
 3445SOL    HW211235   6.379   4.230   3.987
 3446SOL     OW11236   5.964   0.837   3.185
 3446SOL    HW111237   5.982   0.933   3.162
 3446SOL    HW211238   5.880   0.807   3.139
 3447SOL     OW11239   4.866   4.993   0.745
 3447SOL    HW111240   4.876   5.089   0.771
 3447SOL    HW211241   4.821   4.987   0.657
 3448SOL     OW11242   3.166   6.876   1.128
 3448SOL    HW111243   3.251   6.928   1.126
 3448SOL    HW211244   3.089   6.938   1.146
 3449SOL     OW11245   5.257   6.673   3.105
 3449SOL    HW111246   5.212   6.627   3.181
 3449SOL    HW211247   5.319   6.609   3.059
 3450SOL     OW11248   0.868   2.756   0.241
 3450SOL    HW111249   0.947   2.806   0.278
 3450SOL    HW211250   0.843   2.795   0.153
 3451SOL     OW11251   0.543   5.723   3.111
 3451SOL    HW111252   0.598   5.736   3.029
 3451SOL    HW211253   0.580   5.647   3.165
 3452SOL     OW11254   5.877   1.525   0.435
 3452SOL    HW111255   5.879   1.444   0.377
 3452SOL    HW211256   5.915   1.603   0.385
 3453SOL     OW11257   6.438   5.917   5.440
 3453SOL    HW111258   6.520   5.971   5.422
 3453SOL    HW211259   6.463   5.832   5.486
 3454SOL     OW11260   1.875   0.366   6.065
 3454SOL    HW111261   1.848   0.433   6.134
 3454SOL    HW211262   1.955   0.399   6.016
 3455SOL     OW11263   1.473   3.246   4.210
 3455SOL    HW111264   1.539   3.239   4.135
 3455SOL    HW211265   1.502   3.186   4.285
 3456SOL     OW11266   5.435   6.390   2.233
 3456SOL    HW111267   5.434   6.422   2.328
 3456SOL    HW211268   5.529   6.388   2.200
 3457SOL     OW11269   2.344   5.275   4.117
 3457SOL    HW111270   2.415   5.241   4.056
 3457SOL    HW211271   2.319   5.203   4.182
 3458SOL     OW11272   5.664   6.614   0.004
 3458SOL    HW111273   5.620   6.621   6.934
 3458SOL    HW211274   5.763   6.601   7.011
 3459SOL     OW11275   0.332   3.952   3.206
 3459SOL    HW111276   0.291   4.040   3.181
 3459SOL    HW211277   0.274   3.878   3.172
 3460SOL     OW11278   2.988   3.418   0.510
 3460SOL    HW111279   2.975   3.326   0.472
 3460SOL    HW211280   3.046   3.412   0.591
 3461SOL     OW11281   4.794   5.549   4.091
 3461SOL    HW111282   4.748   5.605   4.023
 3461SOL    HW211283   4.732   5.533   4.168
 3462SOL     OW11284   6.263   4.080   1.848
 3462SOL    HW111285   6.203   4.128   1.784
 3462SOL    HW211286   6.331   4.145   1.884
 3463SOL     OW11287   0.824   3.320   2.698
 3463SOL    HW111288   0.901   3.257   2.689
 3463SOL    HW211289   0.761   3.286   2.766
 3464SOL     OW11290   5.766   1.945   6.659
 3464SOL    HW111291   5.827   1.874   6.624
 3464SOL    HW211292   5.781   2.030   6.608
 3465SOL     OW11293   1.262   2.733   2.057
 3465SOL    HW111294   1.260   2.639   2.092
 3465SOL    HW211295   1.216   2.735   1.968
 3466SOL     OW11296   6.002   5.089   5.389
 3466SOL    HW111297   5.929   5.036   5.433
 3466SOL    HW211298   5.964   5.171   5.347
 3467SOL     OW11299   1.962   1.559   1.217
 3467SOL    HW111300   1.911   1.605   1.144
 3467SOL    HW211301   2.041   1.614   1.242
 3468SOL     OW11302   5.453   1.623   3.099
 3468SOL    HW111303   5.542   1.665   3.119
 3468SOL    HW211304   5.397   1.689   3.048
 3469SOL     OW11305   4.956   0.987   5.551
 3469SOL    HW111306   4.931   1.018   5.643
 3469SOL    HW211307   5.051   0.958   5.550
 3470SOL     OW11308   6.986   2.871   2.203
 3470SOL    HW111309   6.928   2.853   2.123
 3470SOL    HW211310   7.001   2.785   2.252
 3471SOL     OW11311   4.671   4.521   3.681
 3471SOL    HW111312   4.594   4.579   3.708
 3471SOL    HW211313   4.703   4.548   3.591
 3472SOL     OW11314   3.892   1.258   1.696
 3472SOL    HW111315   3.930   1.166   1.683
 3472SOL    HW211316   3.818   1.273   1.630
 3473SOL     OW11317   6.367   3.067   3.120
 3473SOL    HW111318   6.409   3.082   3.210
 3473SOL    HW211319   6.438   3.042   3.054
 3474SOL     OW11320   0.577   3.998   3.557
 3474SOL    HW111321   0.486   4.025   3.525
 3474SOL    HW211322   0.568   3.921   3.621
 3475SOL     OW11323   0.899   3.990   4.915
 3475SOL    HW111324   0.870   3.903   4.874
 3475SOL    HW211325   0.920   3.976   5.012
 3476SOL     OW11326   1.961   2.090   2.601
 3476SOL    HW111327   2.026   2.134   2.540
 3476SOL    HW211328   1.987   1.994   2.613
 3477SOL     OW11329   0.813   4.170   0.895
 3477SOL    HW111330   0.783   4.256   0.854
 3477SOL    HW211331   0.859   4.114   0.826
 3478SOL     OW11332   2.544   6.476   6.491
 3478SOL    HW111333   2.627   6.421   6.482
 3478SOL    HW211334   2.467   6.428   6.448
 3479SOL     OW11335   0.722   0.946   2.955
 3479SOL    HW111336   0.666   0.959   3.037
 3479SOL    HW211337   0.751   1.035   2.920
 3480SOL     OW11338   0.655   6.471   5.348
 3480SOL    HW111339   0.694   6.502   5.261
 3480SOL    HW211340   0.619   6.550   5.398
 3481SOL     OW11341   5.211   0.546   0.304
 3481SOL    HW111342   5.145   0.471   0.302
 3481SOL    HW211343   5.279   0.528   0.375
 3482SOL     OW11344   5.732   1.235   2.297
 3482SOL    HW111345   5.683   1.207   2.215
 3482SOL    HW211346   5.746   1.335   2.295
 3483SOL     OW11347   5.478   2.025   2.653
 3483SOL    HW111348   5.532   2.107   2.631
 3483SOL    HW211349   5.535   1.944   2.641
 3484SOL     OW11350   1.092   2.823   7.010
 3484SOL    HW111351   1.136   2.821   0.081
 3484SOL    HW211352   1.162   2.809   6.940
 3485SOL     OW11353   1.331   2.153   4.754
 3485SOL    HW111354   1.316   2.245   4.790
 3485SOL    HW211355   1.417   2.116   4.791
 3486SOL     OW11356   1.793   0.490   4.075
 3486SOL    HW111357   1.776   0.436   3.993
 3486SOL    HW211358   1.706   0.519   4.115
 3487SOL     OW11359   6.395   2.387   6.995
 3487SOL    HW111360   6.455   2.395   0.055
 3487SOL    HW211361   6.315   2.332   0.001
 3488SOL     OW11362   5.992   0.836   4.925
 3488SOL    HW111363   5.923   0.859   4.995
 3488SOL    HW211364   6.016   0.739   4.934
 3489SOL     OW11365   3.657   0.014   1.856
 3489SOL    HW111366   3.583   0.035   1.791
 3489SOL    HW211367   3.619   7.019   1.947
 3490SOL     OW11368   3.364   4.477   1.410
 3490SOL    HW111369   3.357   4.420   1.491
 3490SOL    HW211370   3.272   4.506   1.382
 3491SOL     OW11371   4.029   3.222   6.087
 3491SOL    HW111372   3.941   3.213   6.134
 3491SOL    HW211373   4.015   3.216   5.988
 3492SOL     OW11374   6.170   4.684   0.734
 3492SOL    HW111375   6.103   4.612   0.752
 3492SOL    HW211376   6.207   4.717   0.821
 3493SOL     OW11377   5.874   4.038   3.828
 3493SOL    HW111378   5.930   4.065   3.750
 3493SOL    HW211379   5.932   4.036   3.910
 3494SOL     OW11380   2.393   0.624   2.296
 3494SOL    HW111381   2.332   0.702   2.309
 3494SOL    HW211382   2.455   0.642   2.220
 3495SOL     OW11383   0.093   4.325   2.242
 3495SOL    HW111384   0.152   4.247   2.263
 3495SOL    HW211385   0.135   4.379   2.169
 3496SOL     OW11386   6.159   5.371   1.276
 3496SOL    HW111387   6.145   5.341   1.370
 3496SOL    HW211388   6.078   5.421   1.244
 3497SOL     OW11389   2.524   1.120   3.942
 3497SOL    HW111390   2.508   1.072   3.855
 3497SOL    HW211391   2.468   1.079   4.014
 3498SOL     OW11392   3.188   1.169   2.183
 3498SOL    HW111393   3.105   1.190   2.234
 3498SOL    HW211394   3.268   1.193   2.237
 3499SOL     OW11395   6.640   4.732   4.128
 3499SOL    HW111396   6.730   4.690   4.145
 3499SOL    HW211397   6.633   4.817   4.179
 3500SOL     OW11398   1.894   3.024   3.053
 3500SOL    HW111399   1.876   3.094   3.122
 3500SOL    HW211400   1.855   2.937   3.082
 3501SOL     OW11401   3.556   6.990   6.275
 3501SOL    HW111402   3.580   6.927   6.201
 3501SOL    HW211403   3.640   0.012   6.311
 3502SOL     OW11404   6.823   2.871   1.748
 3502SOL    HW111405   6.841   2.854   1.845
 3502SOL    HW211406   6.730   2.906   1.737
 3503SOL     OW11407   6.677   6.074   5.382
 3503SOL    HW111408   6.734   6.012   5.436
 3503SOL    HW211409   6.734   6.142   5.337
 3504SOL     OW11410   2.037   0.476   1.969
 3504SOL    HW111411   2.036   0.438   1.877
 3504SOL    HW211412   1.963   0.542   1.978
 3505SOL     OW11413   5.240   4.506   5.263
 3505SOL    HW111414   5.173   4.522   5.190
 3505SOL    HW211415   5.289   4.421   5.246
 3506SOL     OW11416   5.628   4.559   4.838
 3506SOL    HW111417   5.603   4.495   4.765
 3506SOL    HW211418   5.551   4.572   4.900
 3507SOL     OW11419   2.983   0.468   1.007
 3507SOL    HW111420   2.885   0.456   0.996
 3507SOL    HW211421   3.031   0.396   0.957
 3508SOL     OW11422   2.455   1.693   6.295
 3508SOL    HW111423   2.412   1.764   6.350
 3508SOL    HW211424   2.461   1.723   6.199
 3509SOL     OW11425   5.729   6.970   6.792
 3509SOL    HW111426   5.802   6.905   6.770
 3509SOL    HW211427   5.717   0.014   6.715
 3510SOL     OW11428   1.442   0.474   1.614
 3510SOL    HW111429   1.351   0.465   1.574
 3510SOL    HW211430   1.482   0.384   1.626
 3511SOL     OW11431   2.056   4.259   1.608
 3511SOL    HW111432   1.998   4.179   1.594
 3511SOL    HW211433   2.075   4.303   1.520
 3512SOL     OW11434   0.164   4.241   0.618
 3512SOL    HW111435   0.231   4.221   0.690
 3512SOL    HW211436   0.175   4.336   0.589
 3513SOL     OW11437   5.978   1.986   0.647
 3513SOL    HW111438   5.998   1.917   0.716
 3513SOL    HW211439   5.923   2.059   0.687
 3514SOL     OW11440   6.854   0.938   1.462
 3514SOL    HW111441   6.833   0.957   1.558
 3514SOL    HW211442   6.927   0.869   1.457
 3515SOL     OW11443   4.971   6.051   2.842
 3515SOL    HW111444   5.030   6.115   2.890
 3515SOL    HW211445   4.875   6.078   2.853
 3516SOL     OW11446   4.569   6.389   0.744
 3516SOL    HW111447   4.500   6.462   0.744
 3516SOL    HW211448   4.656   6.426   0.710
 3517SOL     OW11449   0.269   1.180   1.134
 3517SOL    HW111450   0.298   1.138   1.220
 3517SOL    HW211451   0.256   1.110   1.065
 3518SOL     OW11452   4.948   2.738   5.217
 3518SOL    HW111453   4.953   2.652   5.267
 3518SOL    HW211454   5.038   2.760   5.180
 3519SOL     OW11455   1.647   0.199   5.663
 3519SOL    HW111456   1.709   0.188   5.740
 3519SOL    HW211457   1.682   0.271   5.603
 3520SOL     OW11458   3.434   6.304   0.302
 3520SOL    HW111459   3.456   6.388   0.352
 3520SOL    HW211460   3.340   6.309   0.268
 3521SOL     OW11461   4.473   2.751   0.191
 3521SOL    HW111462   4.543   2.819   0.168
 3521SOL    HW211463   4.470   2.680   0.121
 3522SOL     OW11464   6.661   5.909   6.888
 3522SOL    HW111465   6.716   5.829   6.862
 3522SOL    HW211466   6.687   5.987   6.830
 3523SOL     OW11467   1.171   4.378   4.881
 3523SOL    HW111468   1.131   4.407   4.967
 3523SOL    HW211469   1.190   4.458   4.824
 3524SOL     OW11470   5.017   2.107   1.848
 3524SOL    HW111471   4.982   2.035   1.788
 3524SOL    HW211472   5.006   2.079   1.944
 3525SOL     OW11473   6.534   3.601   4.162
 3525SOL    HW111474   6.618   3.623   4.211
 3525SOL    HW211475   6.539   3.636   4.069
 3526SOL     OW11476   2.203   6.855   3.848
 3526SOL    HW111477   2.204   6.865   3.948
 3526SOL    HW211478   2.288   6.891   3.810
 3527SOL     OW11479   5.774   3.605   6.272
 3527SOL    HW111480   5.675   3.596   6.283
 3527SOL    HW211481   5.796   3.689   6.222
 3528SOL     OW11482   1.968   6.700   5.371
 3528SOL    HW111483   1.922   6.642   5.437
 3528SOL    HW211484   2.061   6.720   5.402
 3529SOL     OW11485   3.695   6.725   1.097
 3529SOL    HW111486   3.713   6.821   1.118
 3529SOL    HW211487   3.722   6.707   1.002
 3530SOL     OW11488   6.667   5.586   1.500
 3530SOL    HW111489   6.636   5.613   1.409
 3530SOL    HW211490   6.724   5.659   1.538
 3531SOL     OW11491   5.404   2.238   0.410
 3531SOL    HW111492   5.471   2.276   0.474
 3531SOL    HW211493   5.448   2.170   0.352
 3532SOL     OW11494   2.744   0.253   1.819
 3532SOL    HW111495   2.740   0.226   1.915
 3532SOL    HW211496   2.819   0.318   1.806
 3533SOL     OW11497   0.211   0.973   2.281
 3533SOL    HW111498   0.140   1.013   2.223
 3533SOL    HW211499   0.184   0.881   2.308
 3534SOL     OW11500   0.659   1.870   0.544
 3534SOL    HW111501   0.656   1.786   0.490
 3534SOL    HW211502   0.574   1.878   0.597
 3535SOL     OW11503   1.991   4.868   6.226
 3535SOL    HW111504   2.057   4.833   6.160
 3535SOL    HW211505   1.931   4.934   6.181
 3536SOL     OW11506   3.519   1.527   2.850
 3536SOL    HW111507   3.479   1.596   2.911
 3536SOL    HW211508   3.503   1.553   2.755
 3537SOL     OW11509   2.421   5.775   2.856
 3537SOL    HW111510   2.395   5.834   2.780
 3537SOL    HW211511   2.378   5.685   2.845
 3538SOL     OW11512   2.286   6.425   5.334
 3538SOL    HW111513   2.338   6.361   5.278
 3538SOL    HW211514   2.236   6.375   5.405
 3539SOL     OW11515   3.917   3.357   5.214
 3539SOL    HW111516   3.855   3.321   5.283
 3539SOL    HW211517   3.883   3.446   5.183
 3540SOL     OW11518   1.833   2.804   4.698
 3540SOL    HW111519   1.828   2.747   4.616
 3540SOL    HW211520   1.860   2.747   4.776
 3541SOL     OW11521   2.373   2.601   5.994
 3541SOL    HW111522   2.409   2.586   5.902
 3541SOL    HW211523   2.319   2.686   5.995
 3542SOL     OW11524   1.421   5.582   3.601
 3542SOL    HW111525   1.378   5.606   3.688
 3542SOL    HW211526   1.410   5.484   3.585
 3543SOL     OW11527   0.498   2.995   5.171
 3543SOL    HW111528   0.440   2.916   5.190
 3543SOL    HW211529   0.594   2.969   5.177
 3544SOL     OW11530   1.578   4.118   6.666
 3544SOL    HW111531   1.573   4.215   6.644
 3544SOL    HW211532   1.501   4.093   6.725
 3545SOL     OW11533   3.920   5.704   6.560
 3545SOL    HW111534   3.903   5.631   6.493
 3545SOL    HW211535   4.005   5.685   6.609
 3546SOL     OW11536   1.375   4.898   4.045
 3546SOL    HW111537   1.355   4.817   4.100
 3546SOL    HW211538   1.440   4.874   3.974
 3547SOL     OW11539   5.565   4.604   3.300
 3547SOL    HW111540   5.656   4.624   3.264
 3547SOL    HW211541   5.574   4.552   3.385
 3548SOL     OW11542   5.715   1.411   5.683
 3548SOL    HW111543   5.791   1.407   5.619
 3548SOL    HW211544   5.727   1.342   5.754
 3549SOL     OW11545   6.393   4.558   4.992
 3549SOL    HW111546   6.489   4.567   5.016
 3549SOL    HW211547   6.343   4.516   5.068
 3550SOL     OW11548   5.253   2.234   2.555
 3550SOL    HW111549   5.334   2.194   2.597
 3550SOL    HW211550   5.173   2.215   2.612
 3551SOL     OW11551   4.087   6.550   2.653
 3551SOL    HW111552   4.003   6.604   2.654
 3551SOL    HW211553   4.152   6.587   2.720
 3552SOL     OW11554   5.110   6.576   1.477
 3552SOL    HW111555   5.115   6.671   1.446
 3552SOL    HW211556   5.182   6.559   1.544
 3553SOL     OW11557   5.899   3.446   1.673
 3553SOL    HW111558   5.800   3.447   1.659
 3553SOL    HW211559   5.919   3.447   1.771
 3554SOL     OW11560   3.839   2.560   1.138
 3554SOL    HW111561   3.843   2.552   1.238
 3554SOL    HW211562   3.760   2.510   1.104
 3555SOL     OW11563   1.181   3.624   3.010
 3555SOL    HW111564   1.103   3.563   2.997
 3555SOL    HW211565   1.159   3.693   3.079
 3556SOL     OW11566   4.103   0.960   4.574
 3556SOL    HW111567   4.186   1.001   4.538
 3556SOL    HW211568   4.120   0.864   4.596
 3557SOL     OW11569   0.460   0.635   3.558
 3557SOL    HW111570   0.459   0.735   3.564
 3557SOL    HW211571   0.552   0.604   3.536
 3558SOL     OW11572   1.104   5.544   0.866
 3558SOL    HW111573   1.037   5.551   0.940
 3558SOL    HW211574   1.100   5.453   0.825
 3559SOL     OW11575   0.632   0.118   4.851
 3559SOL    HW111576   0.536   0.129   4.826
 3559SOL    HW211577   0.638   0.066   4.937
 3560SOL     OW11578   1.088   5.244   0.984
 3560SOL    HW111579   1.185   5.248   1.007
 3560SOL    HW211580   1.035   5.292   1.054
 3561SOL     OW11581   3.708   5.001   5.278
 3561SOL    HW111582   3.691   4.953   5.365
 3561SOL    HW211583   3.779   4.952   5.227
 3562SOL     OW11584   5.067   0.957   4.209
 3562SOL    HW111585   4.969   0.942   4.211
 3562SOL    HW211586   5.085   1.054   4.190
 3563SOL     OW11587   4.804   0.616   1.341
 3563SOL    HW111588   4.752   0.594   1.424
 3563SOL    HW211589   4.832   0.712   1.343
 3564SOL     OW11590   1.232   4.609   4.748
 3564SOL    HW111591   1.255   4.652   4.836
 3564SOL    HW211592   1.218   4.680   4.679
 3565SOL     OW11593   4.181   6.411   4.600
 3565SOL    HW111594   4.279   6.415   4.618
 3565SOL    HW211595   4.142   6.329   4.641
 3566SOL     OW11596   6.313   3.482   6.574
 3566SOL    HW111597   6.355   3.534   6.499
 3566SOL    HW211598   6.353   3.512   6.661
 3567SOL     OW11599   0.972   2.549   6.995
 3567SOL    HW111600   1.022   2.600   0.046
 3567SOL    HW211601   1.032   2.531   6.917
 3568SOL     OW11602   4.976   5.305   3.677
 3568SOL    HW111603   5.013   5.378   3.735
 3568SOL    HW211604   4.928   5.239   3.734
 3569SOL     OW11605   2.957   2.778   6.172
 3569SOL    HW111606   3.051   2.754   6.150
 3569SOL    HW211607   2.896   2.705   6.143
 3570SOL     OW11608   5.818   0.681   4.606
 3570SOL    HW111609   5.802   0.662   4.509
 3570SOL    HW211610   5.762   0.759   4.634
 3571SOL     OW11611   2.503   0.856   5.231
 3571SOL    HW111612   2.452   0.941   5.245
 3571SOL    HW211613   2.489   0.823   5.138
 3572SOL     OW11614   5.862   3.684   2.569
 3572SOL    HW111615   5.791   3.614   2.577
 3572SOL    HW211616   5.888   3.695   2.473
 3573SOL     OW11617   6.190   3.906   2.442
 3573SOL    HW111618   6.168   3.962   2.362
 3573SOL    HW211619   6.287   3.918   2.466
 3574SOL     OW11620   1.114   3.562   0.495
 3574SOL    HW111621   1.121   3.543   0.397
 3574SOL    HW211622   1.200   3.537   0.540
 3575SOL     OW11623   5.169   6.067   1.798
 3575SOL    HW111624   5.104   6.119   1.853
 3575SOL    HW211625   5.125   6.042   1.711
 3576SOL     OW11626   0.659   2.094   0.408
 3576SOL    HW111627   0.657   2.004   0.451
 3576SOL    HW211628   0.642   2.164   0.477
 3577SOL     OW11629   2.317   2.888   6.024
 3577SOL    HW111630   2.272   2.877   6.112
 3577SOL    HW211631   2.406   2.933   6.037
 3578SOL     OW11632   4.771   2.096   1.195
 3578SOL    HW111633   4.803   2.049   1.113
 3578SOL    HW211634   4.676   2.069   1.213
 3579SOL     OW11635   6.922   2.775   2.710
 3579SOL    HW111636   6.845   2.734   2.661
 3579SOL    HW211637   6.907   2.874   2.718
 3580SOL     OW11638   6.487   3.392   0.451
 3580SOL    HW111639   6.429   3.424   0.376
 3580SOL    HW211640   6.570   3.447   0.454
 3581SOL     OW11641   0.745   6.218   2.785
 3581SOL    HW111642   0.787   6.308   2.776
 3581SOL    HW211643   0.784   6.155   2.718
 3582SOL     OW11644   2.526   4.813   5.628
 3582SOL    HW111645   2.440   4.775   5.594
 3582SOL    HW211646   2.525   4.815   5.728
 3583SOL     OW11647   0.967   4.361   0.451
 3583SOL    HW111648   1.022   4.309   0.386
 3583SOL    HW211649   1.020   4.376   0.534
 3584SOL     OW11650   5.611   4.850   5.472
 3584SOL    HW111651   5.549   4.789   5.423
 3584SOL    HW211652   5.689   4.797   5.506
 3585SOL     OW11653   3.459   1.960   4.530
 3585SOL    HW111654   3.460   1.866   4.564
 3585SOL    HW211655   3.427   2.022   4.602
 3586SOL     OW11656   0.130   2.607   4.968
 3586SOL    HW111657   0.074   2.592   5.049
 3586SOL    HW211658   0.176   2.696   4.976
 3587SOL     OW11659   3.078   5.418   6.417
 3587SOL    HW111660   3.150   5.349   6.423
 3587SOL    HW211661   3.110   5.497   6.364
 3588SOL     OW11662   6.767   3.852   4.795
 3588SOL    HW111663   6.671   3.865   4.818
 3588SOL    HW211664   6.786   3.895   4.707
 3589SOL     OW11665   6.122   6.565   6.599
 3589SOL    HW111666   6.071   6.644   6.565
 3589SOL    HW211667   6.072   6.481   6.579
 3590SOL     OW11668   0.444   3.797   0.501
 3590SOL    HW111669   0.507   3.847   0.561
 3590SOL    HW211670   0.493   3.767   0.419
 3591SOL     OW11671   5.507   3.336   1.133
 3591SOL    HW111672   5.585   3.398   1.141
 3591SOL    HW211673   5.443   3.354   1.208
 3592SOL     OW11674   0.405   0.065   2.760
 3592SOL    HW111675   0.349   0.115   2.826
 3592SOL    HW211676   0.366   0.073   2.669
 3593SOL     OW11677   1.001   4.685   6.439
 3593SOL    HW111678   1.022   4.761   6.377
 3593SOL    HW211679   1.085   4.637   6.462
 3594SOL     OW11680   4.880   0.307   4.202
 3594SOL    HW111681   4.971   0.266   4.191
 3594SOL    HW211682   4.889   0.407   4.209
 3595SOL     OW11683   5.976   5.659   0.695
 3595SOL    HW111684   6.059   5.606   0.708
 3595SOL    HW211685   5.999   5.756   0.685
 3596SOL     OW11686   4.477   2.421   3.579
 3596SOL    HW111687   4.492   2.388   3.672
 3596SOL    HW211688   4.529   2.505   3.565
 3597SOL     OW11689   1.837   2.721   5.751
 3597SOL    HW111690   1.899   2.776   5.696
 3597SOL    HW211691   1.817   2.768   5.837
 3598SOL     OW11692   1.843   6.302   5.278
 3598SOL    HW111693   1.848   6.247   5.361
 3598SOL    HW211694   1.759   6.355   5.278
 3599SOL     OW11695   4.279   2.256   6.790
 3599SOL    HW111696   4.329   2.260   6.704
 3599SOL    HW211697   4.208   2.186   6.784
 3600SOL     OW11698   1.035   3.330   1.935
 3600SOL    HW111699   1.082   3.329   2.023
 3600SOL    HW211700   1.030   3.236   1.899
 3601SOL     OW11701   5.118   1.827   5.865
 3601SOL    HW111702   5.045   1.895   5.859
 3601SOL    HW211703   5.206   1.874   5.868
 3602SOL     OW11704   1.833   2.947   0.585
 3602SOL    HW111705   1.733   2.946   0.584
 3602SOL    HW211706   1.867   2.989   0.501
 3603SOL     OW11707   3.708   1.088   5.655
 3603SOL    HW111708   3.644   1.141   5.711
 3603SOL    HW211709   3.723   0.999   5.698
 3604SOL     OW11710   5.795   1.337   3.464
 3604SOL    HW111711   5.708   1.384   3.475
 3604SOL    HW211712   5.866   1.403   3.441
 3605SOL     OW11713   1.174   5.332   3.978
 3605SOL    HW111714   1.152   5.388   4.059
 3605SOL    HW211715   1.105   5.260   3.969
 3606SOL     OW11716   1.557   6.503   2.541
 3606SOL    HW111717   1.556   6.495   2.640
 3606SOL    HW211718   1.529   6.595   2.514
 3607SOL     OW11719   5.602   3.084   2.367
 3607SOL    HW111720   5.616   3.063   2.270
 3607SOL    HW211721   5.513   3.049   2.395
 3608SOL     OW11722   5.320   1.454   3.547
 3608SOL    HW111723   5.232   1.410   3.566
 3608SOL    HW211724   5.357   1.490   3.632
 3609SOL     OW11725   2.117   6.966   4.507
 3609SOL    HW111726   2.116   7.011   4.418
 3609SOL    HW211727   2.103   6.868   4.495
 3610SOL     OW11728   1.716   0.402   5.486
 3610SOL    HW111729   1.637   0.463   5.488
 3610SOL    HW211730   1.775   0.426   5.409
 3611SOL     OW11731   4.514   4.857   4.109
 3611SOL    HW111732   4.477   4.770   4.077
 3611SOL    HW211733   4.444   4.928   4.098
 3612SOL     OW11734   6.620   1.277   6.582
 3612SOL    HW111735   6.644   1.374   6.587
 3612SOL    HW211736   6.698   1.221   6.611
 3613SOL     OW11737   4.090   5.105   1.893
 3613SOL    HW111738   4.020   5.176   1.897
 3613SOL    HW211739   4.069   5.034   1.960
 3614SOL     OW11740   3.082   3.222   6.773
 3614SOL    HW111741   3.126   3.209   6.684
 3614SOL    HW211742   3.056   3.318   6.783
 3615SOL     OW11743   5.791   2.751   6.137
 3615SOL    HW111744   5.807   2.699   6.220
 3615SOL    HW211745   5.742   2.835   6.159
 3616SOL     OW11746   1.801   1.297   6.320
 3616SOL    HW111747   1.709   1.296   6.280
 3616SOL    HW211748   1.847   1.211   6.300
 3617SOL     OW11749   4.588   0.270   6.043
 3617SOL    HW111750   4.570   0.363   6.010
 3617SOL    HW211751   4.662   0.229   5.989
 3618SOL     OW11752   2.576   3.518   5.328
 3618SOL    HW111753   2.611   3.606   5.294
 3618SOL    HW211754   2.476   3.519   5.325
 3619SOL     OW11755   5.524   3.408   0.326
 3619SOL    HW111756   5.571   3.448   0.405
 3619SOL    HW211757   5.584   3.411   0.246
 3620SOL     OW11758   6.032   5.792   4.663
 3620SOL    HW111759   6.125   5.759   4.679
 3620SOL    HW211760   6.001   5.762   4.573
 3621SOL     OW11761   3.403   3.164   4.223
 3621SOL    HW111762   3.463   3.234   4.261
 3621SOL    HW211763   3.393   3.179   4.124
 3622SOL     OW11764   0.817   0.651   1.250
 3622SOL    HW111765   0.856   0.561   1.272
 3622SOL    HW211766   0.804   0.658   1.151
 3623SOL     OW11767   0.471   5.690   5.041
 3623SOL    HW111768   0.523   5.776   5.038
 3623SOL    HW211769   0.419   5.685   5.126
 3624SOL     OW11770   1.480   6.870   1.925
 3624SOL    HW111771   1.491   6.854   1.827
 3624SOL    HW211772   1.508   6.964   1.947
 3625SOL     OW11773   0.290   3.003   6.851
 3625SOL    HW111774   0.318   3.057   6.772
 3625SOL    HW211775   0.206   3.042   6.890
 3626SOL     OW11776   0.790   3.460   4.370
 3626SOL    HW111777   0.777   3.363   4.354
 3626SOL    HW211778   0.824   3.475   4.463
 3627SOL     OW11779   5.018   3.410   1.724
 3627SOL    HW111780   4.937   3.429   1.780
 3627SOL    HW211781   5.089   3.370   1.781
 3628SOL     OW11782   1.533   0.974   2.404
 3628SOL    HW111783   1.621   0.998   2.364
 3628SOL    HW211784   1.528   0.875   2.417
 3629SOL     OW11785   1.533   0.626   4.153
 3629SOL    HW111786   1.512   0.702   4.214
 3629SOL    HW211787   1.469   0.627   4.076
 3630SOL     OW11788   6.708   2.707   3.329
 3630SOL    HW111789   6.650   2.657   3.265
 3630SOL    HW211790   6.678   2.691   3.422
 3631SOL     OW11791   1.888   6.601   3.696
 3631SOL    HW111792   1.908   6.504   3.682
 3631SOL    HW211793   1.919   6.653   3.617
 3632SOL     OW11794   4.782   4.092   1.029
 3632SOL    HW111795   4.774   4.000   1.067
 3632SOL    HW211796   4.803   4.157   1.102
 3633SOL     OW11797   3.704   2.087   5.593
 3633SOL    HW111798   3.620   2.034   5.604
 3633SOL    HW211799   3.689   2.159   5.525
 3634SOL     OW11800   1.997   6.134   6.273
 3634SOL    HW111801   1.970   6.038   6.282
 3634SOL    HW211802   1.923   6.186   6.231
 3635SOL     OW11803   2.322   1.531   1.024
 3635SOL    HW111804   2.244   1.517   1.085
 3635SOL    HW211805   2.398   1.473   1.054
 3636SOL     OW11806   0.074   5.609   0.853
 3636SOL    HW111807   0.016   5.658   0.918
 3636SOL    HW211808   0.030   5.524   0.824
 3637SOL     OW11809   1.076   2.361   0.452
 3637SOL    HW111810   1.088   2.457   0.428
 3637SOL    HW211811   1.007   2.320   0.393
 3638SOL     OW11812   6.849   3.889   2.485
 3638SOL    HW111813   6.863   3.821   2.557
 3638SOL    HW211814   6.785   3.959   2.518
 3639SOL     OW11815   3.844   4.450   5.707
 3639SOL    HW111816   3.848   4.353   5.728
 3639SOL    HW211817   3.788   4.465   5.626
 3640SOL     OW11818   5.306   2.504   0.334
 3640SOL    HW111819   5.341   2.416   0.364
 3640SOL    HW211820   5.327   2.574   0.402
 3641SOL     OW11821   5.200   4.958   1.103
 3641SOL    HW111822   5.265   4.921   1.038
 3641SOL    HW211823   5.249   5.005   1.176
 3642SOL     OW11824   5.432   2.007   6.403
 3642SOL    HW111825   5.397   2.094   6.368
 3642SOL    HW211826   5.415   2.001   6.501
 3643SOL     OW11827   4.059   6.857   5.866
 3643SOL    HW111828   4.113   6.777   5.840
 3643SOL    HW211829   4.101   6.901   5.946
 3644SOL     OW11830   3.075   1.090   1.419
 3644SOL    HW111831   3.076   1.003   1.468
 3644SOL    HW211832   3.018   1.081   1.337
 3645SOL     OW11833   1.732   3.729   4.417
 3645SOL    HW111834   1.716   3.677   4.333
 3645SOL    HW211835   1.654   3.719   4.478
 3646SOL     OW11836   2.038   5.056   4.595
 3646SOL    HW111837   2.089   4.997   4.531
 3646SOL    HW211838   2.055   5.026   4.689
 3647SOL     OW11839   2.720   6.891   6.629
 3647SOL    HW111840   2.694   6.802   6.667
 3647SOL    HW211841   2.682   6.902   6.538
 3648SOL     OW11842   5.135   6.018   3.266
 3648SOL    HW111843   5.138   5.980   3.174
 3648SOL    HW211844   5.117   6.117   3.260
 3649SOL     OW11845   5.573   4.407   0.118
 3649SOL    HW111846   5.546   4.312   0.134
 3649SOL    HW211847   5.670   4.418   0.143
 3650SOL     OW11848   5.514   4.293   0.846
 3650SOL    HW111849   5.606   4.327   0.864
 3650SOL    HW211850   5.451   4.371   0.841
 3651SOL     OW11851   2.195   1.327   5.523
 3651SOL    HW111852   2.228   1.411   5.565
 3651SOL    HW211853   2.111   1.344   5.473
 3652SOL     OW11854   5.762   0.639   2.342
 3652SOL    HW111855   5.677   0.607   2.386
 3652SOL    HW211856   5.805   0.563   2.294
 3653SOL     OW11857   0.934   0.870   2.755
 3653SOL    HW111858   0.982   0.948   2.795
 3653SOL    HW211859   0.859   0.842   2.815
 3654SOL     OW11860   4.396   6.020   0.426
 3654SOL    HW111861   4.432   5.944   0.371
 3654SOL    HW211862   4.472   6.064   0.475
 3655SOL     OW11863   3.057   0.874   4.408
 3655SOL    HW111864   3.099   0.783   4.412
 3655SOL    HW211865   3.111   0.933   4.348
 3656SOL     OW11866   0.509   5.080   1.439
 3656SOL    HW111867   0.488   5.033   1.354
 3656SOL    HW211868   0.457   5.038   1.514
 3657SOL     OW11869   4.710   5.879   5.627
 3657SOL    HW111870   4.694   5.811   5.556
 3657SOL    HW211871   4.754   5.836   5.706
 3658SOL     OW11872   1.251   5.029   6.523
 3658SOL    HW111873   1.253   4.943   6.472
 3658SOL    HW211874   1.196   5.096   6.473
 3659SOL     OW11875   0.427   1.708   6.290
 3659SOL    HW111876   0.400   1.618   6.323
 3659SOL    HW211877   0.525   1.721   6.303
 3660SOL     OW11878   5.860   6.480   5.666
 3660SOL    HW111879   5.794   6.465   5.740
 3660SOL    HW211880   5.840   6.417   5.591
 3661SOL     OW11881   6.694   0.860   4.505
 3661SOL    HW111882   6.765   0.791   4.491
 3661SOL    HW211883   6.660   0.892   4.416
 3662SOL     OW11884   3.958   0.964   5.239
 3662SOL    HW111885   3.927   1.003   5.152
 3662SOL    HW211886   4.034   1.018   5.275
 3663SOL     OW11887   2.451   2.139   6.347
 3663SOL    HW111888   2.432   2.140   6.445
 3663SOL    HW211889   2.517   2.210   6.325
 3664SOL     OW11890   4.344   1.770   2.116
 3664SOL    HW111891   4.367   1.673   2.115
 3664SOL    HW211892   4.367   1.811   2.028
 3665SOL     OW11893   0.178   6.272   5.759
 3665SOL    HW111894   0.117   6.313   5.827
 3665SOL    HW211895   0.180   6.329   5.677
 3666SOL     OW11896   1.657   2.405   3.352
 3666SOL    HW111897   1.591   2.343   3.309
 3666SOL    HW211898   1.749   2.383   3.318
 3667SOL     OW11899   1.223   1.613   3.285
 3667SOL    HW111900   1.140   1.592   3.234
 3667SOL    HW211901   1.296   1.638   3.222
 3668SOL     OW11902   1.155   0.360   1.849
 3668SOL    HW111903   1.163   0.265   1.880
 3668SOL    HW211904   1.060   0.379   1.825
 3669SOL     OW11905   6.056   1.782   4.518
 3669SOL    HW111906   6.051   1.691   4.559
 3669SOL    HW211907   5.977   1.836   4.546
 3670SOL     OW11908   3.415   4.835   1.308
 3670SOL    HW111909   3.478   4.761   1.330
 3670SOL    HW211910   3.379   4.875   1.392
 3671SOL     OW11911   6.462   1.276   2.855
 3671SOL    HW111912   6.523   1.258   2.932
 3671SOL    HW211913   6.466   1.200   2.790
 3672SOL     OW11914   5.745   1.113   2.552
 3672SOL    HW111915   5.755   1.156   2.462
 3672SOL    HW211916   5.826   1.133   2.607
 3673SOL     OW11917   4.170   5.831   0.024
 3673SOL    HW111918   4.124   5.825   6.955
 3673SOL    HW211919   4.110   5.797   0.097
 3674SOL     OW11920   1.079   5.903   6.019
 3674SOL    HW111921   1.072   5.923   6.117
 3674SOL    HW211922   0.988   5.890   5.980
 3675SOL     OW11923   0.167   2.327   3.450
 3675SOL    HW111924   0.243   2.262   3.454
 3675SOL    HW211925   0.124   2.334   3.540
 3676SOL     OW11926   4.898   3.241   3.187
 3676SOL    HW111927   4.887   3.336   3.217
 3676SOL    HW211928   4.858   3.231   3.095
 3677SOL     OW11929   2.116   0.907   5.132
 3677SOL    HW111930   2.072   0.977   5.075
 3677SOL    HW211931   2.138   0.947   5.221
 3678SOL     OW11932   1.502   0.903   4.288
 3678SOL    HW111933   1.413   0.914   4.331
 3678SOL    HW211934   1.501   0.942   4.196
 3679SOL     OW11935   5.921   0.280   2.723
 3679SOL    HW111936   5.845   0.279   2.787
 3679SOL    HW211937   5.894   0.328   2.640
 3680SOL     OW11938   4.807   2.166   3.476
 3680SOL    HW111939   4.836   2.074   3.449
 3680SOL    HW211940   4.746   2.203   3.405
 3681SOL     OW11941   1.033   0.396   5.785
 3681SOL    HW111942   1.062   0.359   5.873
 3681SOL    HW211943   1.081   0.348   5.711
 3682SOL     OW11944   5.378   2.566   1.314
 3682SOL    HW111945   5.308   2.496   1.331
 3682SOL    HW211946   5.468   2.524   1.316
 3683SOL     OW11947   0.045   0.968   4.404
 3683SOL    HW111948   0.093   0.932   4.484
 3683SOL    HW211949   7.010   0.895   4.363
 3684SOL     OW11950   1.696   6.250   6.242
 3684SOL    HW111951   1.637   6.222   6.317
 3684SOL    HW211952   1.640   6.274   6.163
 3685SOL     OW11953   2.702   6.079   5.514
 3685SOL    HW111954   2.607   6.054   5.528
 3685SOL    HW211955   2.718   6.095   5.416
 3686SOL     OW11956   6.935   4.143   3.802
 3686SOL    HW111957   7.019   4.126   3.853
 3686SOL    HW211958   6.902   4.058   3.762
 3687SOL     OW11959   5.062   6.920   3.282
 3687SOL    HW111960   4.986   6.858   3.300
 3687SOL    HW211961   5.043   6.974   3.200
 3688SOL     OW11962   5.754   4.070   0.293
 3688SOL    HW111963   5.788   4.085   0.386
 3688SOL    HW211964   5.732   3.973   0.282
 3689SOL     OW11965   2.295   1.363   5.223
 3689SOL    HW111966   2.276   1.416   5.306
 3689SOL    HW211967   2.279   1.420   5.143
 3690SOL     OW11968   5.189   5.263   0.680
 3690SOL    HW111969   5.129   5.339   0.655
 3690SOL    HW211970   5.248   5.290   0.756
 3691SOL     OW11971   2.398   1.999   6.131
 3691SOL    HW111972   2.427   2.035   6.220
 3691SOL    HW211973   2.382   2.074   6.068
 3692SOL     OW11974   6.690   3.769   6.352
 3692SOL    HW111975   6.734   3.783   6.263
 3692SOL    HW211976   6.698   3.673   6.379
 3693SOL     OW11977   0.823   1.899   2.705
 3693SOL    HW111978   0.902   1.921   2.648
 3693SOL    HW211979   0.787   1.983   2.745
 3694SOL     OW11980   0.864   0.422   1.824
 3694SOL    HW111981   0.871   0.521   1.834
 3694SOL    HW211982   0.775   0.391   1.858
 3695SOL     OW11983   6.668   2.322   2.216
 3695SOL    HW111984   6.717   2.249   2.264
 3695SOL    HW211985   6.690   2.410   2.258
 3696SOL     OW11986   5.460   1.291   5.022
 3696SOL    HW111987   5.365   1.297   5.053
 3696SOL    HW211988   5.513   1.240   5.090
 3697SOL     OW11989   6.062   5.810   3.328
 3697SOL    HW111990   6.090   5.762   3.245
 3697SOL    HW211991   5.974   5.856   3.312
 3698SOL     OW11992   2.187   0.461   3.764
 3698SOL    HW111993   2.261   0.527   3.757
 3698SOL    HW211994   2.144   0.469   3.854
 3699SOL     OW11995   2.423   2.272   3.949
 3699SOL    HW111996   2.399   2.209   3.876
 3699SOL    HW211997   2.466   2.222   4.024
 3700SOL     OW11998   1.463   5.164   5.495
 3700SOL    HW111999   1.446   5.076   5.540
 3700SOL    HW212000   1.548   5.159   5.442
 3701SOL     OW12001   0.550   6.070   1.951
 3701SOL    HW112002   0.517   6.003   1.885
 3701SOL    HW212003   0.598   6.144   1.903
 3702SOL     OW12004   5.802   6.678   3.767
 3702SOL    HW112005   5.792   6.618   3.847
 3702SOL    HW212006   5.723   6.666   3.707
 3703SOL     OW12007   1.214   0.954   6.267
 3703SOL    HW112008   1.287   0.894   6.234
 3703SOL    HW212009   1.214   1.038   6.213
 3704SOL     OW12010   5.292   3.351   1.303
 3704SOL    HW112011   5.247   3.269   1.338
 3704SOL    HW212012   5.244   3.432   1.337
 3705SOL     OW12013   5.081   4.839   3.668
 3705SOL    HW112014   5.042   4.881   3.586
 3705SOL    HW212015   5.175   4.811   3.648
 3706SOL     OW12016   0.461   3.801   0.173
 3706SOL    HW112017   0.471   3.745   0.091
 3706SOL    HW212018   0.376   3.779   0.220
 3707SOL     OW12019   3.631   5.045   3.748
 3707SOL    HW112020   3.665   5.099   3.825
 3707SOL    HW212021   3.542   5.007   3.771
 3708SOL     OW12022   4.364   6.691   1.452
 3708SOL    HW112023   4.294   6.627   1.485
 3708SOL    HW212024   4.454   6.649   1.463
 3709SOL     OW12025   1.612   6.976   1.598
 3709SOL    HW112026   1.627   6.952   1.502
 3709SOL    HW212027   1.699   6.996   1.642
 3710SOL     OW12028   0.455   4.717   5.791
 3710SOL    HW112029   0.374   4.718   5.733
 3710SOL    HW212030   0.532   4.677   5.741
 3711SOL     OW12031   1.851   6.433   4.933
 3711SOL    HW112032   1.886   6.481   5.014
 3711SOL    HW212033   1.865   6.335   4.944
 3712SOL     OW12034   2.369   5.361   6.427
 3712SOL    HW112035   2.436   5.403   6.489
 3712SOL    HW212036   2.395   5.266   6.410
 3713SOL     OW12037   0.255   6.876   4.879
 3713SOL    HW112038   0.210   6.904   4.964
 3713SOL    HW212039   0.191   6.825   4.822
 3714SOL     OW12040   0.812   4.643   6.659
 3714SOL    HW112041   0.808   4.544   6.651
 3714SOL    HW212042   0.896   4.677   6.617
 3715SOL     OW12043   0.709   5.968   3.377
 3715SOL    HW112044   0.745   5.895   3.319
 3715SOL    HW212045   0.717   5.940   3.473
 3716SOL     OW12046   6.196   5.243   4.117
 3716SOL    HW112047   6.135   5.303   4.168
 3716SOL    HW212048   6.148   5.157   4.096
 3717SOL     OW12049   5.077   1.674   0.142
 3717SOL    HW112050   5.149   1.682   0.211
 3717SOL    HW212051   5.041   1.581   0.142
 3718SOL     OW12052   0.570   0.165   6.888
 3718SOL    HW112053   0.544   0.145   6.983
 3718SOL    HW212054   0.617   0.086   6.849
 3719SOL     OW12055   4.277   3.202   6.153
 3719SOL    HW112056   4.327   3.240   6.075
 3719SOL    HW212057   4.179   3.199   6.132
 3720SOL     OW12058   5.276   3.803   1.141
 3720SOL    HW112059   5.359   3.851   1.111
 3720SOL    HW212060   5.293   3.759   1.229
 3721SOL     OW12061   6.326   5.522   6.731
 3721SOL    HW112062   6.353   5.556   6.641
 3721SOL    HW212063   6.233   5.552   6.752
 3722SOL     OW12064   4.363   7.002   1.171
 3722SOL    HW112065   4.310   6.919   1.162
 3722SOL    HW212066   4.457   6.979   1.199
 3723SOL     OW12067   4.370   5.214   0.111
 3723SOL    HW112068   4.345   5.174   0.023
 3723SOL    HW212069   4.291   5.259   0.152
 3724SOL     OW12070   1.958   5.089   5.299
 3724SOL    HW112071   1.955   5.159   5.371
 3724SOL    HW212072   1.937   5.131   5.211
 3725SOL     OW12073   0.262   5.819   0.135
 3725SOL    HW112074   0.312   5.736   0.162
 3725SOL    HW212075   0.199   5.845   0.207
 3726SOL     OW12076   5.189   4.694   4.796
 3726SOL    HW112077   5.118   4.690   4.866
 3726SOL    HW212078   5.157   4.751   4.720
 3727SOL     OW12079   7.004   3.699   4.678
 3727SOL    HW112080   6.937   3.771   4.699
 3727SOL    HW212081   6.976   3.652   4.595
 3728SOL     OW12082   2.983   3.257   0.125
 3728SOL    HW112083   2.952   3.200   0.049
 3728SOL    HW212084   2.938   3.346   0.120
 3729SOL     OW12085   0.629   0.398   4.397
 3729SOL    HW112086   0.593   0.347   4.320
 3729SOL    HW212087   0.568   0.387   4.476
 3730SOL     OW12088   4.504   6.256   5.978
 3730SOL    HW112089   4.593   6.226   5.942
 3730SOL    HW212090   4.512   6.348   6.016
 3731SOL     OW12091   0.848   1.277   7.000
 3731SOL    HW112092   0.825   1.283   0.078
 3731SOL    HW212093   0.796   1.345   6.949
 3732SOL     OW12094   1.343   1.942   1.050
 3732SOL    HW112095   1.334   2.039   1.026
 3732SOL    HW212096   1.436   1.912   1.032
 3733SOL     OW12097   1.834   3.282   3.192
 3733SOL    HW112098   1.749   3.304   3.239
 3733SOL    HW212099   1.839   3.334   3.107
 3734SOL     OW12100   4.171   0.566   1.211
 3734SOL    HW112101   4.105   0.523   1.150
 3734SOL    HW212102   4.128   0.643   1.258
 3735SOL     OW12103   4.440   0.066   2.334
 3735SOL    HW112104   4.479   0.093   2.423
 3735SOL    HW212105   4.514   0.051   2.269
 3736SOL     OW12106   6.568   0.576   1.019
 3736SOL    HW112107   6.578   0.506   1.090
 3736SOL    HW212108   6.557   0.665   1.061
 3737SOL     OW12109   5.689   2.692   4.076
 3737SOL    HW112110   5.651   2.659   4.162
 3737SOL    HW212111   5.661   2.787   4.061
 3738SOL     OW12112   6.376   5.749   1.387
 3738SOL    HW112113   6.363   5.668   1.444
 3738SOL    HW212114   6.451   5.733   1.323
 3739SOL     OW12115   2.763   4.506   1.637
 3739SOL    HW112116   2.828   4.531   1.565
 3739SOL    HW212117   2.812   4.494   1.723
 3740SOL     OW12118   5.867   6.092   0.328
 3740SOL    HW112119   5.960   6.114   0.356
 3740SOL    HW212120   5.832   6.165   0.269
 3741SOL     OW12121   5.088   3.033   6.766
 3741SOL    HW112122   5.104   3.132   6.771
 3741SOL    HW212123   5.026   3.005   6.839
 3742SOL     OW12124   4.863   5.546   0.085
 3742SOL    HW112125   4.842   5.613   0.014
 3742SOL    HW212126   4.786   5.483   0.095
 3743SOL     OW12127   4.583   4.481   1.709
 3743SOL    HW112128   4.617   4.508   1.799
 3743SOL    HW212129   4.538   4.391   1.716
 3744SOL     OW12130   0.869   6.514   1.865
 3744SOL    HW112131   0.942   6.515   1.796
 3744SOL    HW212132   0.859   6.605   1.903
 3745SOL     OW12133   4.865   3.461   2.480
 3745SOL    HW112134   4.885   3.518   2.400
 3745SOL    HW212135   4.853   3.519   2.560
 3746SOL     OW12136   0.018   0.583   3.524
 3746SOL    HW112137   0.097   0.528   3.495
 3746SOL    HW212138   0.045   0.679   3.531
 3747SOL     OW12139   4.552   6.297   6.289
 3747SOL    HW112140   4.650   6.292   6.307
 3747SOL    HW212141   4.511   6.207   6.301
 3748SOL     OW12142   5.966   1.070   2.297
 3748SOL    HW112143   5.898   1.142   2.284
 3748SOL    HW212144   5.939   1.013   2.374
 3749SOL     OW12145   1.354   5.729   2.556
 3749SOL    HW112146   1.422   5.754   2.486
 3749SOL    HW212147   1.361   5.793   2.633
 3750SOL     OW12148   5.717   4.828   0.769
 3750SOL    HW112149   5.726   4.809   0.671
 3750SOL    HW212150   5.624   4.804   0.799
 3751SOL     OW12151   0.672   2.874   0.818
 3751SOL    HW112152   0.577   2.898   0.841
 3751SOL    HW212153   0.731   2.952   0.836
 3752SOL     OW12154   0.535   6.949   0.022
 3752SOL    HW112155   0.634   6.948   0.038
 3752SOL    HW212156   0.488   6.956   0.110
 3753SOL     OW12157   0.273   6.362   5.250
 3753SOL    HW112158   0.275   6.262   5.249
 3753SOL    HW212159   0.286   6.396   5.156
 3754SOL     OW12160   5.310   6.577   1.679
 3754SOL    HW112161   5.396   6.622   1.658
 3754SOL    HW212162   5.328   6.483   1.709
 3755SOL     OW12163   5.879   5.438   4.069
 3755SOL    HW112164   5.845   5.521   4.024
 3755SOL    HW212165   5.831   5.358   4.031
 3756SOL     OW12166   2.034   0.559   6.343
 3756SOL    HW112167   1.943   0.587   6.314
 3756SOL    HW212168   2.053   0.596   6.434
 3757SOL     OW12169   3.735   5.822   5.783
 3757SOL    HW112170   3.709   5.736   5.740
 3757SOL    HW212171   3.747   5.893   5.713
 3758SOL     OW12172   1.855   1.767   4.548
 3758SOL    HW112173   1.930   1.722   4.595
 3758SOL    HW212174   1.768   1.737   4.588
 3759SOL     OW12175   4.358   5.325   5.742
 3759SOL    HW112176   4.280   5.263   5.741
 3759SOL    HW212177   4.378   5.355   5.649
 3760SOL     OW12178   1.171   3.742   3.292
 3760SOL    HW112179   1.184   3.647   3.320
 3760SOL    HW212180   1.259   3.789   3.291
 3761SOL     OW12181   0.869   6.888   4.770
 3761SOL    HW112182   0.824   6.803   4.797
 3761SOL    HW212183   0.893   6.940   4.852
 3762SOL     OW12184   0.646   4.152   6.813
 3762SOL    HW112185   0.658   4.061   6.773
 3762SOL    HW212186   0.696   4.157   6.899
 3763SOL     OW12187   6.523   4.452   6.528
 3763SOL    HW112188   6.458   4.517   6.567
 3763SOL    HW212189   6.595   4.433   6.595
 3764SOL     OW12190   2.183   0.747   4.849
 3764SOL    HW112191   2.156   0.820   4.912
 3764SOL    HW212192   2.103   0.719   4.796
 3765SOL     OW12193   4.935   1.058   3.086
 3765SOL    HW112194   4.866   1.124   3.054
 3765SOL    HW212195   4.891   0.990   3.145
 3766SOL     OW12196   0.982   0.590   3.973
 3766SOL    HW112197   0.903   0.595   3.912
 3766SOL    HW212198   0.951   0.588   4.068
 3767SOL     OW12199   2.176   4.504   0.385
 3767SOL    HW112200   2.141   4.597   0.383
 3767SOL    HW212201   2.189   4.475   0.480
 3768SOL     OW12202   3.996   6.356   5.933
 3768SOL    HW112203   3.990   6.355   6.032
 3768SOL    HW212204   3.955   6.272   5.896
 3769SOL     OW12205   5.234   5.683   5.385
 3769SOL    HW112206   5.330   5.706   5.401
 3769SOL    HW212207   5.176   5.759   5.415
 3770SOL     OW12208   2.061   0.609   6.805
 3770SOL    HW112209   2.151   0.609   6.848
 3770SOL    HW212210   2.004   0.537   6.846
 3771SOL     OW12211   5.466   1.986   0.988
 3771SOL    HW112212   5.502   1.894   1.006
 3771SOL    HW212213   5.398   1.981   0.914
 3772SOL     OW12214   6.570   1.417   0.827
 3772SOL    HW112215   6.475   1.447   0.830
 3772SOL    HW212216   6.625   1.488   0.783
 3773SOL     OW12217   5.585   3.320   5.812
 3773SOL    HW112218   5.549   3.229   5.833
 3773SOL    HW212219   5.515   3.373   5.763
 3774SOL     OW12220   1.248   6.790   6.655
 3774SOL    HW112221   1.197   6.711   6.621
 3774SOL    HW212222   1.189   6.870   6.657
 3775SOL     OW12223   5.258   3.803   2.313
 3775SOL    HW112224   5.226   3.793   2.219
 3775SOL    HW212225   5.288   3.714   2.347
 3776SOL     OW12226   2.751   1.212   1.719
 3776SOL    HW112227   2.725   1.144   1.651
 3776SOL    HW212228   2.776   1.297   1.674
 3777SOL     OW12229   2.656   4.770   4.498
 3777SOL    HW112230   2.673   4.764   4.597
 3777SOL    HW212231   2.577   4.713   4.475
 3778SOL     OW12232   2.061   6.119   2.959
 3778SOL    HW112233   2.065   6.059   3.039
 3778SOL    HW212234   2.066   6.064   2.876
 3779SOL     OW12235   2.848   5.095   6.747
 3779SOL    HW112236   2.770   5.109   6.809
 3779SOL    HW212237   2.814   5.077   6.655
 3780SOL     OW12238   3.402   4.968   4.564
 3780SOL    HW112239   3.475   4.908   4.596
 3780SOL    HW212240   3.314   4.937   4.601
 3781SOL     OW12241   1.886   6.115   3.727
 3781SOL    HW112242   1.907   6.018   3.742
 3781SOL    HW212243   1.809   6.123   3.664
 3782SOL     OW12244   2.589   2.494   4.312
 3782SOL    HW112245   2.642   2.517   4.231
 3782SOL    HW212246   2.580   2.394   4.319
 3783SOL     OW12247   6.889   6.837   4.765
 3783SOL    HW112248   6.985   6.834   4.734
 3783SOL    HW212249   6.845   6.749   4.746
 3784SOL     OW12250   5.035   1.805   3.282
 3784SOL    HW112251   5.117   1.749   3.294
 3784SOL    HW212252   5.050   1.896   3.322
 3785SOL     OW12253   1.903   1.343   6.977
 3785SOL    HW112254   1.824   1.366   0.014
 3785SOL    HW212255   1.941   1.256   7.007
 3786SOL     OW12256   2.813   5.464   3.253
 3786SOL    HW112257   2.721   5.496   3.230
 3786SOL    HW212258   2.842   5.394   3.188
 3787SOL     OW12259   5.597   6.628   3.584
 3787SOL    HW112260   5.589   6.529   3.599
 3787SOL    HW212261   5.622   6.646   3.489
 3788SOL     OW12262   6.339   3.152   3.793
 3788SOL    HW112263   6.355   3.243   3.830
 3788SOL    HW212264   6.426   3.108   3.773
 3789SOL     OW12265   1.773   4.266   4.280
 3789SOL    HW112266   1.787   4.268   4.379
 3789SOL    HW212267   1.850   4.218   4.237
 3790SOL     OW12268   2.192   3.659   5.000
 3790SOL    HW112269   2.106   3.611   4.984
 3790SOL    HW212270   2.192   3.745   4.950
 3791SOL     OW12271   5.688   0.138   0.669
 3791SOL    HW112272   5.631   0.056   0.674
 3791SOL    HW212273   5.774   0.116   0.623
 3792SOL     OW12274   6.659   0.514   4.865
 3792SOL    HW112275   6.597   0.446   4.902
 3792SOL    HW212276   6.635   0.534   4.770
 3793SOL     OW12277   2.535   0.634   2.851
 3793SOL    HW112278   2.482   0.700   2.905
 3793SOL    HW212279   2.487   0.614   2.766
 3794SOL     OW12280   3.863   5.304   1.649
 3794SOL    HW112281   3.807   5.382   1.623
 3794SOL    HW212282   3.805   5.225   1.668
 3795SOL     OW12283   4.084   6.608   6.423
 3795SOL    HW112284   4.103   6.664   6.503
 3795SOL    HW212285   4.019   6.656   6.364
 3796SOL     OW12286   2.004   2.269   1.572
 3796SOL    HW112287   1.923   2.324   1.550
 3796SOL    HW212288   2.024   2.277   1.670
 3797SOL     OW12289   6.588   5.543   2.484
 3797SOL    HW112290   6.553   5.449   2.484
 3797SOL    HW212291   6.678   5.545   2.528
 3798SOL     OW12292   2.297   5.274   2.875
 3798SOL    HW112293   2.270   5.223   2.794
 3798SOL    HW212294   2.389   5.311   2.863
 3799SOL     OW12295   1.346   2.832   4.244
 3799SOL    HW112296   1.361   2.733   4.255
 3799SOL    HW212297   1.304   2.849   4.155
 3800SOL     OW12298   5.173   2.177   4.965
 3800SOL    HW112299   5.195   2.273   4.949
 3800SOL    HW212300   5.145   2.164   5.060
 3801SOL     OW12301   6.482   5.619   5.406
 3801SOL    HW112302   6.390   5.634   5.441
 3801SOL    HW212303   6.480   5.614   5.306
 3802SOL     OW12304   1.382   1.882   4.996
 3802SOL    HW112305   1.300   1.837   4.962
 3802SOL    HW212306   1.444   1.901   4.920
 3803SOL     OW12307   3.759   0.906   2.253
 3803SOL    HW112308   3.699   0.906   2.173
 3803SOL    HW212309   3.833   0.842   2.239
 3804SOL     OW12310   4.672   2.386   4.535
 3804SOL    HW112311   4.623   2.361   4.619
 3804SOL    HW212312   4.764   2.346   4.536
 3805SOL     OW12313   2.987   4.040   1.848
 3805SOL    HW112314   3.033   4.041   1.937
 3805SOL    HW212315   2.946   3.950   1.833
 3806SOL     OW12316   2.470   2.669   0.059
 3806SOL    HW112317   2.517   2.581   0.074
 3806SOL    HW212318   2.453   2.713   0.147
 3807SOL     OW12319   2.096   1.415   4.588
 3807SOL    HW112320   2.193   1.426   4.606
 3807SOL    HW212321   2.081   1.333   4.533
 3808SOL     OW12322   2.973   0.572   2.327
 3808SOL    HW112323   3.066   0.605   2.311
 3808SOL    HW212324   2.910   0.618   2.265
 3809SOL     OW12325   5.942   2.248   0.203
 3809SOL    HW112326   5.983   2.159   0.183
 3809SOL    HW212327   5.855   2.257   0.155
 3810SOL     OW12328   4.101   2.908   5.297
 3810SOL    HW112329   4.008   2.871   5.308
 3810SOL    HW212330   4.098   2.989   5.240
 3811SOL     OW12331   0.946   4.541   3.791
 3811SOL    HW112332   1.021   4.478   3.770
 3811SOL    HW212333   0.869   4.523   3.730
 3812SOL     OW12334   5.627   1.508   5.316
 3812SOL    HW112335   5.574   1.431   5.352
 3812SOL    HW212336   5.709   1.474   5.270
 3813SOL     OW12337   4.537   4.090   0.887
 3813SOL    HW112338   4.630   4.102   0.922
 3813SOL    HW212339   4.471   4.107   0.960
 3814SOL     OW12340   7.011   6.414   0.996
 3814SOL    HW112341   0.027   6.398   1.088
 3814SOL    HW212342   0.056   6.377   0.928
 3815SOL     OW12343   4.859   2.369   0.540
 3815SOL    HW112344   4.802   2.418   0.606
 3815SOL    HW212345   4.862   2.272   0.564
 3816SOL     OW12346   6.801   6.493   1.722
 3816SOL    HW112347   6.825   6.512   1.817
 3816SOL    HW212348   6.860   6.545   1.661
 3817SOL     OW12349   4.872   3.020   4.075
 3817SOL    HW112350   4.833   2.954   4.140
 3817SOL    HW212351   4.966   3.040   4.101
 3818SOL     OW12352   4.394   6.328   1.478
 3818SOL    HW112353   4.324   6.386   1.519
 3818SOL    HW212354   4.481   6.377   1.475
 3819SOL     OW12355   5.500   5.271   0.549
 3819SOL    HW112356   5.413   5.294   0.591
 3819SOL    HW212357   5.518   5.335   0.473
 3820SOL     OW12358   6.329   6.179   3.453
 3820SOL    HW112359   6.393   6.255   3.442
 3820SOL    HW212360   6.349   6.131   3.538
 3821SOL     OW12361   1.414   3.253   2.072
 3821SOL    HW112362   1.446   3.166   2.110
 3821SOL    HW212363   1.489   3.296   2.020
 3822SOL     OW12364   1.288   5.274   2.119
 3822SOL    HW112365   1.245   5.356   2.082
 3822SOL    HW212366   1.331   5.222   2.046
 3823SOL     OW12367   4.010   2.177   4.983
 3823SOL    HW112368   3.948   2.206   5.057
 3823SOL    HW212369   4.088   2.239   4.979
 3824SOL     OW12370   6.243   1.774   5.232
 3824SOL    HW112371   6.276   1.757   5.324
 3824SOL    HW212372   6.280   1.861   5.198
 3825SOL     OW12373   6.736   0.308   0.043
 3825SOL    HW112374   6.777   0.398   0.059
 3825SOL    HW212375   6.772   0.243   0.109
 3826SOL     OW12376   0.222   3.711   0.254
 3826SOL    HW112377   0.146   3.693   0.191
 3826SOL    HW212378   0.220   3.644   0.328
 3827SOL     OW12379   4.010   3.918   1.064
 3827SOL    HW112380   3.941   3.886   1.129
 3827SOL    HW212381   3.973   3.994   1.011
 3828SOL     OW12382   4.382   2.389   0.777
 3828SOL    HW112383   4.403   2.420   0.684
 3828SOL    HW212384   4.460   2.339   0.814
 3829SOL     OW12385   2.534   4.932   3.836
 3829SOL    HW112386   2.470   4.931   3.759
 3829SOL    HW212387   2.571   4.840   3.850
 3830SOL     OW12388   1.366   0.052   5.592
 3830SOL    HW112389   1.458   0.016   5.611
 3830SOL    HW212390   1.324   0.082   5.677
 3831SOL     OW12391   4.420   1.745   2.392
 3831SOL    HW112392   4.378   1.771   2.305
 3831SOL    HW212393   4.492   1.677   2.376
 3832SOL     OW12394   6.407   0.905   1.503
 3832SOL    HW112395   6.433   0.909   1.600
 3832SOL    HW212396   6.316   0.866   1.495
 3833SOL     OW12397   0.522   5.129   6.774
 3833SOL    HW112398   0.456   5.057   6.753
 3833SOL    HW212399   0.613   5.102   6.741
 3834SOL     OW12400   2.589   2.064   0.125
 3834SOL    HW112401   2.545   1.985   0.170
 3834SOL    HW212402   2.633   2.121   0.194
 3835SOL     OW12403   3.704   5.617   5.584
 3835SOL    HW112404   3.739   5.538   5.534
 3835SOL    HW212405   3.644   5.670   5.524
 3836SOL     OW12406   1.895   3.743   5.867
 3836SOL    HW112407   1.915   3.658   5.916
 3836SOL    HW212408   1.948   3.746   5.782
 3837SOL     OW12409   4.567   3.537   0.502
 3837SOL    HW112410   4.496   3.564   0.567
 3837SOL    HW212411   4.538   3.560   0.410
 3838SOL     OW12412   5.399   3.465   4.580
 3838SOL    HW112413   5.408   3.555   4.623
 3838SOL    HW212414   5.381   3.396   4.651
 3839SOL     OW12415   5.250   0.236   5.223
 3839SOL    HW112416   5.288   0.190   5.142
 3839SOL    HW212417   5.299   0.206   5.304
 3840SOL     OW12418   1.296   0.546   5.036
 3840SOL    HW112419   1.251   0.543   4.946
 3840SOL    HW212420   1.369   0.477   5.039
 3841SOL     OW12421   0.577   3.841   5.029
 3841SOL    HW112422   0.513   3.909   4.994
 3841SOL    HW212423   0.639   3.813   4.957
 3842SOL     OW12424   0.512   5.510   6.965
 3842SOL    HW112425   0.567   5.587   6.997
 3842SOL    HW212426   0.515   5.505   6.865
 3843SOL     OW12427   7.015   3.599   0.652
 3843SOL    HW112428   0.042   3.517   0.618
 3843SOL    HW212429   6.953   3.634   0.582
 3844SOL     OW12430   1.400   5.299   5.932
 3844SOL    HW112431   1.488   5.266   5.965
 3844SOL    HW212432   1.404   5.313   5.833
 3845SOL     OW12433   3.465   2.853   2.814
 3845SOL    HW112434   3.392   2.872   2.880
 3845SOL    HW212435   3.550   2.834   2.863
 3846SOL     OW12436   6.897   4.888   4.004
 3846SOL    HW112437   6.995   4.895   4.022
 3846SOL    HW212438   6.882   4.852   3.912
 3847SOL     OW12439   6.085   1.276   6.755
 3847SOL    HW112440   6.142   1.204   6.715
 3847SOL    HW212441   5.992   1.242   6.768
 3848SOL     OW12442   2.160   5.312   2.419
 3848SOL    HW112443   2.096   5.241   2.391
 3848SOL    HW212444   2.215   5.279   2.496
 3849SOL     OW12445   0.724   1.313   5.705
 3849SOL    HW112446   0.792   1.369   5.658
 3849SOL    HW212447   0.722   1.336   5.802
 3850SOL     OW12448   2.758   3.307   1.809
 3850SOL    HW112449   2.821   3.229   1.818
 3850SOL    HW212450   2.805   3.382   1.762
 3851SOL     OW12451   2.269   4.350   2.706
 3851SOL    HW112452   2.248   4.254   2.693
 3851SOL    HW212453   2.318   4.362   2.793
 3852SOL     OW12454   4.527   0.621   4.971
 3852SOL    HW112455   4.563   0.696   4.916
 3852SOL    HW212456   4.537   0.642   5.068
 3853SOL     OW12457   0.398   3.312   2.992
 3853SOL    HW112458   0.449   3.334   3.075
 3853SOL    HW212459   0.415   3.383   2.923
 3854SOL     OW12460   0.920   3.690   3.408
 3854SOL    HW112461   0.960   3.678   3.499
 3854SOL    HW212462   0.991   3.724   3.346
 3855SOL     OW12463   5.835   5.028   6.022
 3855SOL    HW112464   5.849   5.037   5.923
 3855SOL    HW212465   5.775   5.101   6.054
 3856SOL     OW12466   0.539   0.406   6.103
 3856SOL    HW112467   0.482   0.388   6.023
 3856SOL    HW212468   0.498   0.364   6.184
 3857SOL     OW12469   1.549   6.795   4.966
 3857SOL    HW112470   1.578   6.811   4.872
 3857SOL    HW212471   1.586   6.866   5.026
 3858SOL     OW12472   0.940   6.285   6.345
 3858SOL    HW112473   1.011   6.351   6.321
 3858SOL    HW212474   0.884   6.321   6.420
 3859SOL     OW12475   6.678   2.484   4.051
 3859SOL    HW112476   6.705   2.429   3.973
 3859SOL    HW212477   6.711   2.442   4.135
 3860SOL     OW12478   2.147   5.517   4.904
 3860SOL    HW112479   2.109   5.521   4.811
 3860SOL    HW212480   2.218   5.587   4.913
 3861SOL     OW12481   5.500   4.901   1.113
 3861SOL    HW112482   5.519   4.988   1.158
 3861SOL    HW212483   5.567   4.833   1.143
 3862SOL     OW12484   0.426   0.218   6.294
 3862SOL    HW112485   0.412   0.157   6.216
 3862SOL    HW212486   0.349   0.209   6.358
 3863SOL     OW12487   3.322   3.943   0.735
 3863SOL    HW112488   3.310   3.946   0.636
 3863SOL    HW212489   3.248   3.993   0.779
 3864SOL     OW12490   3.536   1.746   6.909
 3864SOL    HW112491   3.608   1.739   6.840
 3864SOL    HW212492   3.575   1.726   6.999
 3865SOL     OW12493   3.675   0.264   2.173
 3865SOL    HW112494   3.730   0.257   2.256
 3865SOL    HW212495   3.585   0.224   2.189
 3866SOL     OW12496   3.791   0.055   1.163
 3866SOL    HW112497   3.882   0.038   1.202
 3866SOL    HW212498   3.734   0.103   1.230
 3867SOL     OW12499   2.020   3.704   3.123
 3867SOL    HW112500   2.050   3.638   3.192
 3867SOL    HW212501   2.021   3.660   3.033
 3868SOL     OW12502   1.953   6.455   1.598
 3868SOL    HW112503   1.874   6.419   1.549
 3868SOL    HW212504   1.949   6.555   1.600
 3869SOL     OW12505   6.973   2.447   3.289
 3869SOL    HW112506   0.029   2.405   3.340
 3869SOL    HW212507   6.906   2.376   3.263
 3870SOL     OW12508   2.971   4.887   6.876
 3870SOL    HW112509   3.049   4.899   6.814
 3870SOL    HW212510   2.906   4.962   6.862
 3871SOL     OW12511   3.308   7.013   2.698
 3871SOL    HW112512   3.342   0.019   2.788
 3871SOL    HW212513   3.274   6.919   2.700
 3872SOL     OW12514   3.994   3.391   1.091
 3872SOL    HW112515   4.030   3.413   1.182
 3872SOL    HW212516   3.999   3.292   1.076
 3873SOL     OW12517   5.166   5.454   1.098
 3873SOL    HW112518   5.072   5.462   1.066
 3873SOL    HW212519   5.187   5.529   1.161
 3874SOL     OW12520   4.036   6.427   6.795
 3874SOL    HW112521   4.015   6.446   6.891
 3874SOL    HW212522   4.104   6.355   6.788
 3875SOL     OW12523   1.482   4.603   1.694
 3875SOL    HW112524   1.384   4.581   1.683
 3875SOL    HW212525   1.532   4.519   1.716
 3876SOL     OW12526   5.990   5.119   4.528
 3876SOL    HW112527   5.903   5.083   4.495
 3876SOL    HW212528   6.029   5.056   4.595
 3877SOL     OW12529   6.236   1.256   2.622
 3877SOL    HW112530   6.219   1.341   2.671
 3877SOL    HW212531   6.275   1.277   2.533
 3878SOL     OW12532   3.892   6.755   6.274
 3878SOL    HW112533   3.883   6.851   6.244
 3878SOL    HW212534   3.801   6.713   6.276
 3879SOL     OW12535   4.315   5.701   1.809
 3879SOL    HW112536   4.285   5.780   1.756
 3879SOL    HW212537   4.388   5.654   1.760
 3880SOL     OW12538   5.669   3.463   2.555
 3880SOL    HW112539   5.661   3.508   2.466
 3880SOL    HW212540   5.719   3.377   2.544
 3881SOL     OW12541   1.242   4.687   0.904
 3881SOL    HW112542   1.311   4.615   0.907
 3881SOL    HW212543   1.261   4.750   0.828
 3882SOL     OW12544   6.293   1.312   5.953
 3882SOL    HW112545   6.214   1.363   5.919
 3882SOL    HW212546   6.272   1.275   6.044
 3883SOL     OW12547   4.304   1.614   3.856
 3883SOL    HW112548   4.287   1.683   3.785
 3883SOL    HW212549   4.359   1.539   3.817
 3884SOL     OW12550   1.606   5.970   4.959
 3884SOL    HW112551   1.558   5.977   4.872
 3884SOL    HW212552   1.577   5.888   5.008
 3885SOL     OW12553   0.007   1.357   3.753
 3885SOL    HW112554   0.039   1.318   3.667
 3885SOL    HW212555   0.066   1.326   3.827
 3886SOL     OW12556   6.829   0.403   5.456
 3886SOL    HW112557   6.928   0.406   5.440
 3886SOL    HW212558   6.791   0.495   5.444
 3887SOL     OW12559   3.982   1.856   5.283
 3887SOL    HW112560   3.931   1.881   5.365
 3887SOL    HW212561   4.012   1.761   5.290
 3888SOL     OW12562   6.290   1.869   0.703
 3888SOL    HW112563   6.212   1.848   0.762
 3888SOL    HW212564   6.303   1.795   0.637
 3889SOL     OW12565   0.716   5.732   6.210
 3889SOL    HW112566   0.620   5.733   6.182
 3889SOL    HW212567   0.744   5.824   6.238
 3890SOL     OW12568   5.646   5.176   2.816
 3890SOL    HW112569   5.739   5.194   2.850
 3890SOL    HW212570   5.584   5.163   2.893
 3891SOL     OW12571   5.433   5.349   4.791
 3891SOL    HW112572   5.383   5.281   4.844
 3891SOL    HW212573   5.400   5.441   4.813
 3892SOL     OW12574   6.082   6.630   2.876
 3892SOL    HW112575   6.039   6.596   2.792
 3892SOL    HW212576   6.021   6.693   2.922
 3893SOL     OW12577   2.932   5.470   4.408
 3893SOL    HW112578   2.985   5.542   4.362
 3893SOL    HW212579   2.979   5.382   4.397
 3894SOL     OW12580   4.324   3.231   0.352
 3894SOL    HW112581   4.245   3.188   0.309
 3894SOL    HW212582   4.296   3.314   0.400
 3895SOL     OW12583   2.120   1.283   5.846
 3895SOL    HW112584   2.214   1.266   5.815
 3895SOL    HW212585   2.118   1.365   5.902
 3896SOL     OW12586   0.054   2.848   5.142
 3896SOL    HW112587   0.007   2.926   5.184
 3896SOL    HW212588   0.115   2.880   5.070
 3897SOL     OW12589   3.445   6.890   1.979
 3897SOL    HW112590   3.406   6.962   2.037
 3897SOL    HW212591   3.493   6.823   2.037
 3898SOL     OW12592   4.065   3.629   4.357
 3898SOL    HW112593   4.146   3.679   4.324
 3898SOL    HW212594   3.988   3.647   4.297
 3899SOL     OW12595   4.561   1.625   5.747
 3899SOL    HW112596   4.570   1.530   5.776
 3899SOL    HW212597   4.648   1.672   5.760
 3900SOL     OW12598   6.311   2.802   3.173
 3900SOL    HW112599   6.225   2.770   3.134
 3900SOL    HW212600   6.333   2.892   3.135
 3901SOL     OW12601   1.108   6.936   5.253
 3901SOL    HW112602   1.139   0.006   5.219
 3901SOL    HW212603   1.112   6.868   5.179
 3902SOL     OW12604   5.056   5.147   1.737
 3902SOL    HW112605   5.012   5.089   1.668
 3902SOL    HW212606   5.079   5.235   1.697
 3903SOL     OW12607   4.367   2.919   6.864
 3903SOL    HW112608   4.270   2.924   6.842
 3903SOL    HW212609   4.383   2.961   6.954
 3904SOL     OW12610   1.226   6.031   0.840
 3904SOL    HW112611   1.154   5.986   0.893
 3904SOL    HW212612   1.316   6.000   0.873
 3905SOL     OW12613   6.958   0.546   5.878
 3905SOL    HW112614   6.996   0.572   5.967
 3905SOL    HW212615   0.009   0.555   5.807
 3906SOL     OW12616   1.686   4.902   4.202
 3906SOL    HW112617   1.697   4.949   4.115
 3906SOL    HW212618   1.686   4.803   4.187
 3907SOL     OW12619   6.779   1.425   3.972
 3907SOL    HW112620   6.792   1.381   3.883
 3907SOL    HW212621   6.812   1.519   3.968
 3908SOL     OW12622   1.524   0.428   4.993
 3908SOL    HW112623   1.603   0.490   4.994
 3908SOL    HW212624   1.552   0.340   4.955
 3909SOL     OW12625   5.733   2.923   5.816
 3909SOL    HW112626   5.700   2.937   5.722
 3909SOL    HW212627   5.711   2.830   5.845
 3910SOL     OW12628   3.654   2.311   0.341
 3910SOL    HW112629   3.644   2.302   0.440
 3910SOL    HW212630   3.574   2.273   0.296
 3911SOL     OW12631   6.255   0.610   1.538
 3911SOL    HW112632   6.254   0.571   1.446
 3911SOL    HW212633   6.184   0.680   1.545
 3912SOL     OW12634   3.813   2.065   6.995
 3912SOL    HW112635   3.757   2.135   6.951
 3912SOL    HW212636   3.907   2.071   6.962
 3913SOL     OW12637   4.301   5.594   0.724
 3913SOL    HW112638   4.312   5.514   0.783
 3913SOL    HW212639   4.372   5.661   0.747
 3914SOL     OW12640   5.698   1.075   0.818
 3914SOL    HW112641   5.746   1.104   0.735
 3914SOL    HW212642   5.660   0.983   0.804
 3915SOL     OW12643   4.651   5.307   0.044
 3915SOL    HW112644   4.571   5.249   0.029
 3915SOL    HW212645   4.732   5.250   0.057
 3916SOL     OW12646   1.779   0.490   2.613
 3916SOL    HW112647   1.695   0.541   2.630
 3916SOL    HW212648   1.842   0.503   2.689
 3917SOL     OW12649   2.766   5.064   0.916
 3917SOL    HW112650   2.767   5.045   0.818
 3917SOL    HW212651   2.834   5.134   0.937
 3918SOL     OW12652   5.596   0.810   0.827
 3918SOL    HW112653   5.499   0.798   0.807
 3918SOL    HW212654   5.628   0.733   0.883
 3919SOL     OW12655   3.886   0.040   1.701
 3919SOL    HW112656   3.816   0.020   1.770
 3919SOL    HW212657   3.927   0.130   1.720
 3920SOL     OW12658   3.173   0.963   5.928
 3920SOL    HW112659   3.206   0.974   5.834
 3920SOL    HW212660   3.085   0.915   5.927
 3921SOL     OW12661   0.888   2.674   6.506
 3921SOL    HW112662   0.909   2.670   6.603
 3921SOL    HW212663   0.819   2.745   6.490
 3922SOL     OW12664   4.682   5.040   2.784
 3922SOL    HW112665   4.753   5.058   2.716
 3922SOL    HW212666   4.651   4.945   2.774
 3923SOL     OW12667   5.073   0.874   1.573
 3923SOL    HW112668   5.035   0.885   1.481
 3923SOL    HW212669   5.077   0.964   1.618
 3924SOL     OW12670   6.187   4.346   4.214
 3924SOL    HW112671   6.177   4.387   4.305
 3924SOL    HW212672   6.278   4.368   4.178
 3925SOL     OW12673   4.444   3.887   0.690
 3925SOL    HW112674   4.470   3.905   0.595
 3925SOL    HW212675   4.506   3.936   0.752
 3926SOL     OW12676   0.393   0.217   5.322
 3926SOL    HW112677   0.399   0.124   5.358
 3926SOL    HW212678   0.373   0.281   5.396
 3927SOL     OW12679   6.453   2.838   5.123
 3927SOL    HW112680   6.508   2.899   5.181
 3927SOL    HW212681   6.385   2.791   5.179
 3928SOL     OW12682   2.078   6.307   2.721
 3928SOL    HW112683   2.107   6.305   2.816
 3928SOL    HW212684   2.010   6.379   2.709
 3929SOL     OW12685   0.574   1.736   5.428
 3929SOL    HW112686   0.649   1.699   5.373
 3929SOL    HW212687   0.491   1.742   5.372
 3930SOL     OW12688   0.851   4.091   3.523
 3930SOL    HW112689   0.871   4.008   3.472
 3930SOL    HW212690   0.768   4.078   3.577
 3931SOL     OW12691   1.393   2.587   1.432
 3931SOL    HW112692   1.303   2.598   1.390
 3931SOL    HW212693   1.384   2.538   1.519
 3932SOL     OW12694   1.560   5.678   4.321
 3932SOL    HW112695   1.643   5.732   4.308
 3932SOL    HW212696   1.576   5.584   4.293
 3933SOL     OW12697   1.988   4.695   0.691
 3933SOL    HW112698   1.966   4.774   0.634
 3933SOL    HW212699   2.081   4.665   0.671
 3934SOL     OW12700   0.511   1.485   1.737
 3934SOL    HW112701   0.569   1.565   1.754
 3934SOL    HW212702   0.463   1.460   1.821
 3935SOL     OW12703   5.974   3.554   6.487
 3935SOL    HW112704   6.057   3.586   6.441
 3935SOL    HW212705   5.894   3.591   6.441
 3936SOL     OW12706   0.371   5.042   5.608
 3936SOL    HW112707   0.278   5.078   5.601
 3936SOL    HW212708   0.406   5.021   5.516
 3937SOL     OW12709   6.931   0.211   2.078
 3937SOL    HW112710   7.016   0.256   2.106
 3937SOL    HW212711   6.940   0.112   2.091
 3938SOL     OW12712   0.676   4.189   2.967
 3938SOL    HW112713   0.687   4.180   3.066
 3938SOL    HW212714   0.616   4.266   2.947
 3939SOL     OW12715   0.936   0.893   2.180
 3939SOL    HW112716   0.925   0.936   2.270
 3939SOL    HW212717   1.024   0.919   2.141
 3940SOL     OW12718   2.831   4.807   1.020
 3940SOL    HW112719   2.732   4.796   1.020
 3940SOL    HW212720   2.853   4.902   0.996
 3941SOL     OW12721   6.252   0.147   4.153
 3941SOL    HW112722   6.296   0.099   4.077
 3941SOL    HW212723   6.152   0.139   4.145
 3942SOL     OW12724   6.985   5.974   5.834
 3942SOL    HW112725   0.016   5.972   5.747
 3942SOL    HW212726   0.007   5.908   5.897
 3943SOL     OW12727   1.327   2.933   0.288
 3943SOL    HW112728   1.344   2.928   0.387
 3943SOL    HW212729   1.288   2.846   0.257
 3944SOL     OW12730   6.005   1.766   6.706
 3944SOL    HW112731   6.105   1.760   6.704
 3944SOL    HW212732   5.967   1.698   6.644
 3945SOL     OW12733   6.756   1.261   2.922
 3945SOL    HW112734   6.800   1.171   2.921
 3945SOL    HW212735   6.768   1.306   2.834
 3946SOL     OW12736   1.124   3.106   0.750
 3946SOL    HW112737   1.038   3.094   0.800
 3946SOL    HW212738   1.177   3.180   0.792
 3947SOL     OW12739   5.976   4.821   1.530
 3947SOL    HW112740   5.891   4.790   1.487
 3947SOL    HW212741   5.990   4.918   1.511
 3948SOL     OW12742   1.328   2.255   6.459
 3948SOL    HW112743   1.317   2.162   6.424
 3948SOL    HW212744   1.289   2.320   6.393
 3949SOL     OW12745   5.821   6.512   2.480
 3949SOL    HW112746   5.778   6.599   2.502
 3949SOL    HW212747   5.898   6.496   2.542
 3950SOL     OW12748   3.097   4.554   1.352
 3950SOL    HW112749   3.021   4.489   1.345
 3950SOL    HW212750   3.094   4.617   1.274
 3951SOL     OW12751   0.976   2.319   5.547
 3951SOL    HW112752   0.990   2.392   5.481
 3951SOL    HW212753   0.953   2.234   5.498
 3952SOL     OW12754   6.516   3.792   5.333
 3952SOL    HW112755   6.417   3.790   5.343
 3952SOL    HW212756   6.557   3.716   5.384
 3953SOL     OW12757   3.721   4.469   6.036
 3953SOL    HW112758   3.747   4.389   5.981
 3953SOL    HW212759   3.696   4.440   6.128
 3954SOL     OW12760   0.870   3.383   5.416
 3954SOL    HW112761   0.948   3.423   5.464
 3954SOL    HW212762   0.819   3.456   5.370
 3955SOL     OW12763   5.806   4.962   6.824
 3955SOL    HW112764   5.782   4.976   6.728
 3955SOL    HW212765   5.836   4.868   6.838
 3956SOL     OW12766   1.145   2.625   5.628
 3956SOL    HW112767   1.205   2.562   5.677
 3956SOL    HW212768   1.176   2.719   5.641
 3957SOL     OW12769   1.724   0.254   3.275
 3957SOL    HW112770   1.697   0.214   3.188
 3957SOL    HW212771   1.654   0.319   3.305
 3958SOL     OW12772   5.662   6.356   5.250
 3958SOL    HW112773   5.692   6.289   5.182
 3958SOL    HW212774   5.731   6.428   5.258
 3959SOL     OW12775   2.430   5.038   0.085
 3959SOL    HW112776   2.356   5.097   0.120
 3959SOL    HW212777   2.454   4.970   0.155
 3960SOL     OW12778   4.056   3.174   0.239
 3960SOL    HW112779   4.057   3.125   0.326
 3960SOL    HW212780   4.047   3.108   0.164
 3961SOL     OW12781   4.810   1.185   1.416
 3961SOL    HW112782   4.719   1.144   1.426
 3961SOL    HW212783   4.825   1.208   1.320
 3962SOL     OW12784   0.399   0.336   5.858
 3962SOL    HW112785   0.465   0.366   5.789
 3962SOL    HW212786   0.325   0.286   5.813
 3963SOL     OW12787   4.555   5.413   3.100
 3963SOL    HW112788   4.643   5.409   3.146
 3963SOL    HW212789   4.517   5.506   3.109
 3964SOL     OW12790   5.476   5.753   5.117
 3964SOL    HW112791   5.500   5.790   5.027
 3964SOL    HW212792   5.416   5.816   5.165
 3965SOL     OW12793   3.582   3.386   0.352
 3965SOL    HW112794   3.642   3.314   0.386
 3965SOL    HW212795   3.609   3.474   0.392
 3966SOL     OW12796   6.000   3.958   5.266
 3966SOL    HW112797   6.082   4.014   5.260
 3966SOL    HW212798   6.020   3.866   5.232
 3967SOL     OW12799   0.452   5.701   6.073
 3967SOL    HW112800   0.454   5.743   5.983
 3967SOL    HW212801   0.382   5.629   6.075
 3968SOL     OW12802   6.123   0.718   1.939
 3968SOL    HW112803   6.056   0.761   1.879
 3968SOL    HW212804   6.096   0.732   2.034
 3969SOL     OW12805   0.379   4.931   2.376
 3969SOL    HW112806   0.432   4.968   2.453
 3969SOL    HW212807   0.309   4.998   2.349
 3970SOL     OW12808   5.438   4.546   2.730
 3970SOL    HW112809   5.504   4.476   2.703
 3970SOL    HW212810   5.460   4.578   2.822
 3971SOL     OW12811   1.492   6.053   2.984
 3971SOL    HW112812   1.574   6.034   2.930
 3971SOL    HW212813   1.517   6.111   3.062
 3972SOL     OW12814   1.206   6.819   0.022
 3972SOL    HW112815   1.283   6.830   0.085
 3972SOL    HW212816   1.240   6.813   6.947
 3973SOL     OW12817   3.234   3.425   4.440
 3973SOL    HW112818   3.153   3.367   4.444
 3973SOL    HW212819   3.316   3.369   4.449
 3974SOL     OW12820   5.877   1.894   6.937
 3974SOL    HW112821   5.915   1.895   6.845
 3974SOL    HW212822   5.859   1.800   6.966
 3975SOL     OW12823   0.178   0.614   5.757
 3975SOL    HW112824   0.214   0.598   5.849
 3975SOL    HW212825   0.250   0.596   5.690
 3976SOL     OW12826   0.852   3.099   0.834
 3976SOL    HW112827   0.795   3.167   0.789
 3976SOL    HW212828   0.847   3.112   0.933
 3977SOL     OW12829   3.379   6.058   6.285
 3977SOL    HW112830   3.471   6.026   6.304
 3977SOL    HW212831   3.373   6.089   6.190
 3978SOL     OW12832   6.131   3.018   6.171
 3978SOL    HW112833   6.117   3.080   6.248
 3978SOL    HW212834   6.052   3.024   6.109
 3979SOL     OW12835   0.813   6.806   2.305
 3979SOL    HW112836   0.778   6.899   2.315
 3979SOL    HW212837   0.750   6.742   2.347
 3980SOL     OW12838   5.079   3.517   4.461
 3980SOL    HW112839   5.162   3.471   4.429
 3980SOL    HW212840   4.999   3.466   4.431
 3981SOL     OW12841   6.845   1.690   6.925
 3981SOL    HW112842   6.784   1.730   6.994
 3981SOL    HW212843   6.868   1.760   6.856
 3982SOL     OW12844   2.204   1.865   3.789
 3982SOL    HW112845   2.234   1.775   3.757
 3982SOL    HW212846   2.127   1.896   3.733
 3983SOL     OW12847   3.101   6.218   4.287
 3983SOL    HW112848   3.189   6.252   4.320
 3983SOL    HW212849   3.052   6.173   4.362
 3984SOL     OW12850   2.288   6.598   1.265
 3984SOL    HW112851   2.235   6.571   1.345
 3984SOL    HW212852   2.363   6.657   1.292
 3985SOL     OW12853   2.372   2.937   1.592
 3985SOL    HW112854   2.364   2.947   1.493
 3985SOL    HW212855   2.467   2.920   1.616
 3986SOL     OW12856   0.463   2.027   1.848
 3986SOL    HW112857   0.503   2.015   1.938
 3986SOL    HW212858   0.451   2.125   1.829
 3987SOL     OW12859   2.843   4.746   6.496
 3987SOL    HW112860   2.873   4.652   6.510
 3987SOL    HW212861   2.778   4.771   6.567
 3988SOL     OW12862   4.089   2.959   0.440
 3988SOL    HW112863   4.017   2.904   0.399
 3988SOL    HW212864   4.081   2.955   0.540
 3989SOL     OW12865   4.887   6.685   6.805
 3989SOL    HW112866   4.868   6.780   6.831
 3989SOL    HW212867   4.968   6.653   6.854
 3990SOL     OW12868   0.884   3.350   3.228
 3990SOL    HW112869   0.909   3.404   3.147
 3990SOL    HW212870   0.856   3.411   3.302
 3991SOL     OW12871   0.300   2.326   4.158
 3991SOL    HW112872   0.364   2.398   4.185
 3991SOL    HW212873   0.345   2.265   4.092
 3992SOL     OW12874   4.362   3.461   6.247
 3992SOL    HW112875   4.433   3.391   6.241
 3992SOL    HW212876   4.335   3.475   6.342
 3993SOL     OW12877   2.754   2.102   2.864
 3993SOL    HW112878   2.822   2.069   2.799
 3993SOL    HW212879   2.714   2.188   2.830
 3994SOL     OW12880   2.214   3.085   3.695
 3994SOL    HW112881   2.190   3.153   3.626
 3994SOL    HW212882   2.234   3.131   3.782
 3995SOL     OW12883   2.129   3.911   2.898
 3995SOL    HW112884   2.083   3.866   2.974
 3995SOL    HW212885   2.080   3.891   2.813
 3996SOL     OW12886   0.091   1.236   3.013
 3996SOL    HW112887   0.024   1.166   2.987
 3996SOL    HW212888   0.043   1.321   3.034
 3997SOL     OW12889   5.693   3.962   2.970
 3997SOL    HW112890   5.638   3.890   3.013
 3997SOL    HW212891   5.752   3.921   2.900
 3998SOL     OW12892   5.923   1.987   3.107
 3998SOL    HW112893   5.904   2.012   3.012
 3998SOL    HW212894   5.942   2.070   3.160
 3999SOL     OW12895   5.763   3.216   2.538
 3999SOL    HW112896   5.855   3.190   2.508
 3999SOL    HW212897   5.695   3.181   2.473
 4000SOL     OW12898   2.203   5.935   2.235
 4000SOL    HW112899   2.257   6.017   2.221
 4000SOL    HW212900   2.128   5.931   2.169
 4001SOL     OW12901   2.666   3.767   5.261
 4001SOL    HW112902   2.756   3.770   5.217
 4001SOL    HW212903   2.607   3.837   5.221
 4002SOL     OW12904   3.576   2.888   4.583
 4002SOL    HW112905   3.647   2.906   4.516
 4002SOL    HW212906   3.487   2.886   4.538
 4003SOL     OW12907   2.506   0.920   5.576
 4003SOL    HW112908   2.589   0.974   5.590
 4003SOL    HW212909   2.531   0.831   5.539
 4004SOL     OW12910   0.529   3.837   3.328
 4004SOL    HW112911   0.475   3.894   3.267
 4004SOL    HW212912   0.562   3.892   3.405
 4005SOL     OW12913   4.685   3.598   1.737
 4005SOL    HW112914   4.734   3.592   1.650
 4005SOL    HW212915   4.593   3.561   1.727
 4006SOL     OW12916   5.014   5.619   3.171
 4006SOL    HW112917   5.091   5.568   3.210
 4006SOL    HW212918   5.027   5.717   3.189
 4007SOL     OW12919   0.332   1.702   3.065
 4007SOL    HW112920   0.310   1.619   3.116
 4007SOL    HW212921   0.428   1.725   3.079
 4008SOL     OW12922   2.456   6.805   0.221
 4008SOL    HW112923   2.430   6.800   0.318
 4008SOL    HW212924   2.458   6.713   0.182
 4009SOL     OW12925   4.510   2.210   1.037
 4009SOL    HW112926   4.451   2.289   1.054
 4009SOL    HW212927   4.485   2.136   1.099
 4010SOL     OW12928   2.838   4.393   1.398
 4010SOL    HW112929   2.825   4.446   1.315
 4010SOL    HW212930   2.765   4.325   1.405
 4011SOL     OW12931   6.035   5.937   0.672
 4011SOL    HW112932   6.084   6.024   0.677
 4011SOL    HW212933   6.040   5.902   0.578
 4012SOL     OW12934   4.235   6.324   1.833
 4012SOL    HW112935   4.281   6.386   1.769
 4012SOL    HW212936   4.293   6.309   1.912
 4013SOL     OW12937   1.472   1.021   1.316
 4013SOL    HW112938   1.427   1.098   1.269
 4013SOL    HW212939   1.411   0.941   1.314
 4014SOL     OW12940   2.293   5.777   3.731
 4014SOL    HW112941   2.255   5.744   3.644
 4014SOL    HW212942   2.350   5.858   3.713
 4015SOL     OW12943   4.758   5.262   6.453
 4015SOL    HW112944   4.852   5.269   6.484
 4015SOL    HW212945   4.752   5.293   6.358
 4016SOL     OW12946   3.606   5.789   6.026
 4016SOL    HW112947   3.516   5.819   5.993
 4016SOL    HW212948   3.675   5.810   5.958
 4017SOL     OW12949   0.400   5.473   5.485
 4017SOL    HW112950   0.497   5.450   5.471
 4017SOL    HW212951   0.384   5.488   5.583
 4018SOL     OW12952   3.709   6.094   1.970
 4018SOL    HW112953   3.703   6.014   2.030
 4018SOL    HW212954   3.757   6.069   1.886
 4019SOL     OW12955   5.379   3.313   3.071
 4019SOL    HW112956   5.307   3.378   3.051
 4019SOL    HW212957   5.454   3.326   3.006
 4020SOL     OW12958   6.509   4.172   4.101
 4020SOL    HW112959   6.498   4.088   4.154
 4020SOL    HW212960   6.606   4.186   4.081
 4021SOL     OW12961   3.530   3.668   5.944
 4021SOL    HW112962   3.442   3.716   5.947
 4021SOL    HW212963   3.533   3.608   5.864
 4022SOL     OW12964   3.036   6.837   0.478
 4022SOL    HW112965   2.972   6.862   0.406
 4022SOL    HW212966   3.129   6.832   0.441
 4023SOL     OW12967   0.237   1.916   5.705
 4023SOL    HW112968   0.182   1.857   5.646
 4023SOL    HW212969   0.292   1.977   5.648
 4024SOL     OW12970   1.377   5.173   4.130
 4024SOL    HW112971   1.439   5.102   4.095
 4024SOL    HW212972   1.322   5.209   4.056
 4025SOL     OW12973   1.520   6.073   3.976
 4025SOL    HW112974   1.484   5.990   3.933
 4025SOL    HW212975   1.593   6.048   4.040
 4026SOL     OW12976   6.792   6.328   4.136
 4026SOL    HW112977   6.828   6.269   4.208
 4026SOL    HW212978   6.848   6.319   4.054
 4027SOL     OW12979   2.413   2.156   6.626
 4027SOL    HW112980   2.485   2.128   6.690
 4027SOL    HW212981   2.331   2.182   6.678
 4028SOL     OW12982   4.714   1.497   3.525
 4028SOL    HW112983   4.616   1.506   3.507
 4028SOL    HW212984   4.745   1.406   3.499
 4029SOL     OW12985   2.703   3.930   6.474
 4029SOL    HW112986   2.744   3.966   6.390
 4029SOL    HW212987   2.664   3.840   6.456
 4030SOL     OW12988   6.778   1.181   2.173
 4030SOL    HW112989   6.782   1.088   2.209
 4030SOL    HW212990   6.864   1.229   2.192
 4031SOL     OW12991   5.488   0.452   1.981
 4031SOL    HW112992   5.518   0.547   1.966
 4031SOL    HW212993   5.388   0.448   1.976
 4032SOL     OW12994   6.397   6.353   1.285
 4032SOL    HW112995   6.447   6.385   1.366
 4032SOL    HW212996   6.462   6.314   1.219
 4033SOL     OW12997   3.144   2.186   2.980
 4033SOL    HW112998   3.050   2.215   3.002
 4033SOL    HW212999   3.157   2.092   3.011
 4034SOL     OW13000   6.705   2.734   5.342
 4034SOL    HW113001   6.705   2.729   5.442
 4034SOL    HW213002   6.675   2.825   5.313
 4035SOL     OW13003   6.816   2.360   1.171
 4035SOL    HW113004   6.905   2.406   1.164
 4035SOL    HW213005   6.822   2.287   1.239
 4036SOL     OW13006   3.601   4.885   2.693
 4036SOL    HW113007   3.618   4.786   2.693
 4036SOL    HW213008   3.685   4.933   2.719
 4037SOL     OW13009   3.420   0.736   5.850
 4037SOL    HW113010   3.408   0.658   5.788
 4037SOL    HW213011   3.331   0.770   5.879
 4038SOL     OW13012   4.532   3.357   6.918
 4038SOL    HW113013   4.618   3.336   6.871
 4038SOL    HW213014   4.546   3.348   7.017
 4039SOL     OW13015   5.289   5.936   1.293
 4039SOL    HW113016   5.353   5.976   1.359
 4039SOL    HW213017   5.239   6.009   1.247
 4040SOL     OW13018   3.015   5.351   4.968
 4040SOL    HW113019   3.080   5.275   4.962
 4040SOL    HW213020   2.982   5.373   4.876
 4041SOL     OW13021   2.070   6.358   1.184
 4041SOL    HW113022   2.123   6.378   1.266
 4041SOL    HW213023   2.019   6.273   1.197
 4042SOL     OW13024   5.782   6.447   2.904
 4042SOL    HW113025   5.797   6.543   2.880
 4042SOL    HW213026   5.870   6.401   2.916
 4043SOL     OW13027   6.168   2.238   0.016
 4043SOL    HW113028   6.144   2.155   0.065
 4043SOL    HW213029   6.099   2.257   6.965
 4044SOL     OW13030   4.764   4.712   3.094
 4044SOL    HW113031   4.771   4.791   3.155
 4044SOL    HW213032   4.800   4.736   3.004
 4045SOL     OW13033   4.566   6.619   6.380
 4045SOL    HW113034   4.616   6.629   6.294
 4045SOL    HW213035   4.629   6.629   6.457
 4046SOL     OW13036   0.701   1.180   2.793
 4046SOL    HW113037   0.711   1.265   2.741
 4046SOL    HW213038   0.666   1.108   2.733
 4047SOL     OW13039   1.787   2.860   0.073
 4047SOL    HW113040   1.865   2.838   0.014
 4047SOL    HW213041   1.703   2.822   0.033
 4048SOL     OW13042   4.869   1.160   2.107
 4048SOL    HW113043   4.794   1.142   2.043
 4048SOL    HW213044   4.950   1.108   2.079
 4049SOL     OW13045   4.537   5.954   6.814
 4049SOL    HW113046   4.558   5.960   6.911
 4049SOL    HW213047   4.571   6.036   6.767
 4050SOL     OW13048   0.937   5.687   2.340
 4050SOL    HW113049   1.001   5.735   2.399
 4050SOL    HW213050   0.863   5.649   2.395
 4051SOL     OW13051   5.074   1.269   6.645
 4051SOL    HW113052   5.053   1.281   6.742
 4051SOL    HW213053   5.101   1.357   6.606
 4052SOL     OW13054   5.984   2.177   3.542
 4052SOL    HW113055   6.038   2.225   3.609
 4052SOL    HW213056   6.013   2.081   3.538
 4053SOL     OW13057   1.468   6.047   4.736
 4053SOL    HW113058   1.494   6.070   4.642
 4053SOL    HW213059   1.385   6.098   4.761
 4054SOL     OW13060   4.753   4.473   1.248
 4054SOL    HW113061   4.832   4.526   1.217
 4054SOL    HW213062   4.776   4.376   1.249
 4055SOL     OW13063   1.189   3.864   1.614
 4055SOL    HW113064   1.225   3.878   1.522
 4055SOL    HW213065   1.234   3.926   1.678
 4056SOL     OW13066   5.082   3.972   1.250
 4056SOL    HW113067   5.020   3.942   1.323
 4056SOL    HW213068   5.155   3.905   1.240
 4057SOL     OW13069   6.185   3.219   6.563
 4057SOL    HW113070   6.258   3.278   6.598
 4057SOL    HW213071   6.156   3.252   6.473
 4058SOL     OW13072   2.794   6.214   4.984
 4058SOL    HW113073   2.889   6.206   5.014
 4058SOL    HW213074   2.748   6.125   4.994
 4059SOL     OW13075   0.171   3.225   3.798
 4059SOL    HW113076   0.126   3.180   3.875
 4059SOL    HW213077   0.222   3.157   3.745
 4060SOL     OW13078   5.931   5.526   4.957
 4060SOL    HW113079   5.895   5.616   4.982
 4060SOL    HW213080   5.886   5.494   4.874
 4061SOL     OW13081   2.276   4.671   1.898
 4061SOL    HW113082   2.288   4.696   1.802
 4061SOL    HW213083   2.360   4.690   1.949
 4062SOL     OW13084   2.976   0.408   1.778
 4062SOL    HW113085   3.013   0.443   1.864
 4062SOL    HW213086   3.043   0.347   1.736
 4063SOL     OW13087   5.769   6.613   0.845
 4063SOL    HW113088   5.783   6.632   0.942
 4063SOL    HW213089   5.851   6.637   0.794
 4064SOL     OW13090   2.767   1.837   4.779
 4064SOL    HW113091   2.865   1.838   4.758
 4064SOL    HW213092   2.744   1.917   4.835
 4065SOL     OW13093   0.474   0.173   1.259
 4065SOL    HW113094   0.461   0.218   1.347
 4065SOL    HW213095   0.435   0.081   1.261
 4066SOL     OW13096   6.741   3.788   2.965
 4066SOL    HW113097   6.817   3.735   3.002
 4066SOL    HW213098   6.708   3.852   3.034
 4067SOL     OW13099   5.752   4.196   3.371
 4067SOL    HW113100   5.747   4.098   3.390
 4067SOL    HW213101   5.847   4.223   3.357
 4068SOL     OW13102   2.159   2.508   4.396
 4068SOL    HW113103   2.194   2.471   4.311
 4068SOL    HW213104   2.064   2.535   4.384
 4069SOL     OW13105   3.242   5.948   6.799
 4069SOL    HW113106   3.309   5.877   6.819
 4069SOL    HW213107   3.149   5.910   6.805
 4070SOL     OW13108   1.061   3.183   3.029
 4070SOL    HW113109   1.141   3.231   3.066
 4070SOL    HW213110   1.029   3.230   2.946
 4071SOL     OW13111   1.836   0.592   5.034
 4071SOL    HW113112   1.930   0.559   5.027
 4071SOL    HW213113   1.813   0.647   4.954
 4072SOL     OW13114   0.933   4.866   4.899
 4072SOL    HW113115   0.950   4.854   4.801
 4072SOL    HW213116   0.874   4.945   4.914
 4073SOL     OW13117   2.505   5.534   6.136
 4073SOL    HW113118   2.518   5.437   6.115
 4073SOL    HW213119   2.463   5.543   6.226
 4074SOL     OW13120   0.690   4.759   1.516
 4074SOL    HW113121   0.757   4.690   1.489
 4074SOL    HW213122   0.736   4.831   1.568
 4075SOL     OW13123   5.014   1.770   0.981
 4075SOL    HW113124   4.932   1.723   1.014
 4075SOL    HW213125   5.074   1.792   1.058
 4076SOL     OW13126   3.497   3.521   5.644
 4076SOL    HW113127   3.413   3.511   5.591
 4076SOL    HW213128   3.569   3.558   5.586
 4077SOL     OW13129   4.241   1.425   1.491
 4077SOL    HW113130   4.142   1.419   1.477
 4077SOL    HW213131   4.287   1.358   1.433
 4078SOL     OW13132   2.353   5.186   2.178
 4078SOL    HW113133   2.326   5.236   2.261
 4078SOL    HW213134   2.301   5.102   2.172
 4079SOL     OW13135   2.179   1.562   3.604
 4079SOL    HW113136   2.233   1.642   3.578
 4079SOL    HW213137   2.231   1.479   3.588
 4080SOL     OW13138   5.342   2.204   5.665
 4080SOL    HW113139   5.247   2.218   5.640
 4080SOL    HW213140   5.382   2.290   5.696
 4081SOL     OW13141   1.696   3.070   4.031
 4081SOL    HW113142   1.666   3.001   4.097
 4081SOL    HW213143   1.774   3.120   4.068
 4082SOL     OW13144   1.014   3.413   0.887
 4082SOL    HW113145   1.105   3.376   0.869
 4082SOL    HW213146   0.971   3.441   0.801
 4083SOL     OW13147   6.135   2.777   3.580
 4083SOL    HW113148   6.071   2.764   3.505
 4083SOL    HW213149   6.155   2.688   3.622
 4084SOL     OW13150   6.132   1.596   4.116
 4084SOL    HW113151   6.142   1.662   4.042
 4084SOL    HW213152   6.063   1.629   4.180
 4085SOL     OW13153   3.932   5.679   0.804
 4085SOL    HW113154   3.949   5.776   0.792
 4085SOL    HW213155   3.965   5.650   0.894
 4086SOL     OW13156   2.352   6.138   1.443
 4086SOL    HW113157   2.297   6.221   1.442
 4086SOL    HW213158   2.293   6.059   1.461
 4087SOL     OW13159   2.644   2.438   3.238
 4087SOL    HW113160   2.554   2.404   3.211
 4087SOL    HW213161   2.647   2.537   3.227
 4088SOL     OW13162   7.012   1.539   0.736
 4088SOL    HW113163   0.084   1.579   0.730
 4088SOL    HW213164   6.987   1.526   0.832
 4089SOL     OW13165   6.501   6.453   3.323
 4089SOL    HW113166   6.528   6.451   3.227
 4089SOL    HW213167   6.582   6.452   3.381
 4090SOL     OW13168   2.632   4.012   5.636
 4090SOL    HW113169   2.699   3.949   5.675
 4090SOL    HW213170   2.569   3.961   5.577
 4091SOL     OW13171   6.320   0.111   0.690
 4091SOL    HW113172   6.290   0.173   0.617
 4091SOL    HW213173   6.356   0.027   0.650
 4092SOL     OW13174   6.616   2.978   5.304
 4092SOL    HW113175   6.611   3.024   5.393
 4092SOL    HW213176   6.686   3.021   5.248
 4093SOL     OW13177   5.009   0.477   4.006
 4093SOL    HW113178   4.963   0.434   3.928
 4093SOL    HW213179   4.943   0.530   4.059
 4094SOL     OW13180   2.275   5.298   4.774
 4094SOL    HW113181   2.212   5.235   4.821
 4094SOL    HW213182   2.332   5.344   4.841
 4095SOL     OW13183   1.170   4.313   0.044
 4095SOL    HW113184   1.132   4.222   0.028
 4095SOL    HW213185   1.269   4.311   0.028
 4096SOL     OW13186   4.017   5.573   1.058
 4096SOL    HW113187   3.954   5.497   1.041
 4096SOL    HW213188   4.100   5.539   1.102
 4097SOL     OW13189   4.122   3.806   6.243
 4097SOL    HW113190   4.091   3.790   6.149
 4097SOL    HW213191   4.069   3.750   6.306
 4098SOL     OW13192   6.854   3.052   2.353
 4098SOL    HW113193   6.868   3.145   2.319
 4098SOL    HW213194   6.909   2.989   2.299
 4099SOL     OW13195   2.607   4.693   1.284
 4099SOL    HW113196   2.611   4.749   1.202
 4099SOL    HW213197   2.677   4.622   1.280
 4100SOL     OW13198   5.907   6.146   4.762
 4100SOL    HW113199   5.924   6.064   4.817
 4100SOL    HW213200   5.957   6.139   4.676
 4101SOL     OW13201   5.495   1.175   0.036
 4101SOL    HW113202   5.544   1.181   6.967
 4101SOL    HW213203   5.562   1.170   0.110
 4102SOL     OW13204   6.955   0.519   1.733
 4102SOL    HW113205   0.024   0.566   1.733
 4102SOL    HW213206   6.889   0.572   1.785
 4103SOL     OW13207   0.261   0.530   2.021
 4103SOL    HW113208   0.352   0.551   2.056
 4103SOL    HW213209   0.219   0.460   2.080
 4104SOL     OW13210   1.294   4.604   2.479
 4104SOL    HW113211   1.342   4.517   2.471
 4104SOL    HW213212   1.296   4.651   2.391
 4105SOL     OW13213   3.912   5.337   0.924
 4105SOL    HW113214   3.979   5.269   0.955
 4105SOL    HW213215   3.823   5.293   0.912
 4106SOL     OW13216   0.363   2.495   5.396
 4106SOL    HW113217   0.376   2.501   5.297
 4106SOL    HW213218   0.451   2.503   5.443
 4107SOL     OW13219   1.043   5.708   0.453
 4107SOL    HW113220   1.101   5.665   0.384
 4107SOL    HW213221   1.085   5.793   0.483
 4108SOL     OW13222   0.286   4.560   6.102
 4108SOL    HW113223   0.191   4.575   6.078
 4108SOL    HW213224   0.344   4.621   6.047
 4109SOL     OW13225   4.850   6.460   5.064
 4109SOL    HW113226   4.774   6.441   5.126
 4109SOL    HW213227   4.870   6.558   5.065
 4110SOL     OW13228   4.461   3.351   6.612
 4110SOL    HW113229   4.383   3.404   6.578
 4110SOL    HW213230   4.433   3.257   6.630
 4111SOL     OW13231   3.467   3.027   6.719
 4111SOL    HW113232   3.533   3.074   6.661
 4111SOL    HW213233   3.492   2.930   6.726
 4112SOL     OW13234   5.031   1.353   5.832
 4112SOL    HW113235   5.109   1.414   5.844
 4112SOL    HW213236   5.055   1.261   5.864
 4113SOL     OW13237   4.474   5.915   5.110
 4113SOL    HW113238   4.552   5.873   5.064
 4113SOL    HW213239   4.495   6.010   5.131
 4114SOL     OW13240   3.757   2.097   3.335
 4114SOL    HW113241   3.740   2.150   3.252
 4114SOL    HW213242   3.747   2.000   3.315
 4115SOL     OW13243   4.622   5.775   2.031
 4115SOL    HW113244   4.635   5.812   1.939
 4115SOL    HW213245   4.524   5.755   2.044
 4116SOL     OW13246   4.336   2.559   1.765
 4116SOL    HW113247   4.243   2.524   1.760
 4116SOL    HW213248   4.390   2.503   1.827
 4117SOL     OW13249   0.453   5.099   2.096
 4117SOL    HW113250   0.380   5.059   2.041
 4117SOL    HW213251   0.468   5.043   2.177
 4118SOL     OW13252   1.863   5.875   0.428
 4118SOL    HW113253   1.893   5.927   0.347
 4118SOL    HW213254   1.778   5.914   0.463
 4119SOL     OW13255   4.130   1.335   3.029
 4119SOL    HW113256   4.189   1.324   3.109
 4119SOL    HW213257   4.184   1.323   2.946
 4120SOL     OW13258   4.485   0.456   0.766
 4120SOL    HW113259   4.425   0.380   0.793
 4120SOL    HW213260   4.566   0.419   0.720
 4121SOL     OW13261   6.325   1.038   4.585
 4121SOL    HW113262   6.328   1.009   4.490
 4121SOL    HW213263   6.296   0.962   4.643
 4122SOL     OW13264   0.696   6.822   5.435
 4122SOL    HW113265   0.684   6.790   5.341
 4122SOL    HW213266   0.660   6.915   5.443
 4123SOL     OW13267   4.787   4.828   5.494
 4123SOL    HW113268   4.697   4.871   5.502
 4123SOL    HW213269   4.808   4.780   5.579
 4124SOL     OW13270   6.207   5.538   5.499
 4124SOL    HW113271   6.273   5.465   5.480
 4124SOL    HW213272   6.114   5.501   5.497
 4125SOL     OW13273   4.478   0.822   2.085
 4125SOL    HW113274   4.505   0.743   2.140
 4125SOL    HW213275   4.558   0.880   2.068
 4126SOL     OW13276   1.299   4.666   4.218
 4126SOL    HW113277   1.332   4.678   4.312
 4126SOL    HW213278   1.253   4.577   4.210
 4127SOL     OW13279   5.020   4.348   4.555
 4127SOL    HW113280   4.936   4.298   4.532
 4127SOL    HW213281   5.036   4.343   4.653
 4128SOL     OW13282   1.844   3.649   2.209
 4128SOL    HW113283   1.797   3.728   2.250
 4128SOL    HW213284   1.942   3.667   2.204
 4129SOL     OW13285   5.705   1.304   6.237
 4129SOL    HW113286   5.794   1.280   6.278
 4129SOL    HW213287   5.697   1.403   6.231
 4130SOL     OW13288   6.992   3.691   5.823
 4130SOL    HW113289   6.970   3.629   5.898
 4130SOL    HW213290   6.986   3.786   5.854
 4131SOL     OW13291   1.214   5.926   3.788
 4131SOL    HW113292   1.281   5.879   3.846
 4131SOL    HW213293   1.198   5.872   3.706
 4132SOL     OW13294   5.140   4.337   3.707
 4132SOL    HW113295   5.051   4.373   3.735
 4132SOL    HW213296   5.199   4.413   3.679
 4133SOL     OW13297   2.911   6.541   1.617
 4133SOL    HW113298   2.999   6.497   1.600
 4133SOL    HW213299   2.837   6.481   1.586
 4134SOL     OW13300   1.737   2.637   1.035
 4134SOL    HW113301   1.744   2.666   0.939
 4134SOL    HW213302   1.678   2.701   1.085
 4135SOL     OW13303   2.125   0.871   2.581
 4135SOL    HW113304   2.134   0.778   2.619
 4135SOL    HW213305   2.211   0.921   2.597
 4136SOL     OW13306   0.557   2.077   3.670
 4136SOL    HW113307   0.571   2.067   3.769
 4136SOL    HW213308   0.640   2.048   3.622
 4137SOL     OW13309   2.299   3.347   1.068
 4137SOL    HW113310   2.396   3.336   1.091
 4137SOL    HW213311   2.245   3.350   1.152
 4138SOL     OW13312   3.924   5.599   3.691
 4138SOL    HW113313   3.840   5.651   3.673
 4138SOL    HW213314   3.916   5.552   3.779
 4139SOL     OW13315   2.347   1.797   5.732
 4139SOL    HW113316   2.272   1.847   5.689
 4139SOL    HW213317   2.370   1.839   5.819
 4140SOL     OW13318   3.213   0.479   5.193
 4140SOL    HW113319   3.163   0.401   5.231
 4140SOL    HW213320   3.285   0.445   5.133
 4141SOL     OW13321   4.929   5.564   0.991
 4141SOL    HW113322   4.882   5.638   1.039
 4141SOL    HW213323   4.879   5.544   0.906
 4142SOL     OW13324   6.643   5.694   1.234
 4142SOL    HW113325   6.676   5.787   1.218
 4142SOL    HW213326   6.621   5.651   1.146
 4143SOL     OW13327   6.748   3.478   0.467
 4143SOL    HW113328   6.806   3.552   0.433
 4143SOL    HW213329   6.806   3.404   0.500
 4144SOL     OW13330   5.821   2.561   0.822
 4144SOL    HW113331   5.894   2.557   0.754
 4144SOL    HW213332   5.735   2.584   0.777
 4145SOL     OW13333   0.286   5.795   1.992
 4145SOL    HW113334   0.342   5.712   1.989
 4145SOL    HW213335   0.191   5.772   1.970
 4146SOL     OW13336   6.064   0.570   4.947
 4146SOL    HW113337   6.159   0.539   4.958
 4146SOL    HW213338   6.030   0.542   4.857
 4147SOL     OW13339   3.636   1.716   5.380
 4147SOL    HW113340   3.588   1.669   5.306
 4147SOL    HW213341   3.595   1.807   5.394
 4148SOL     OW13342   0.569   0.104   3.880
 4148SOL    HW113343   0.537   0.012   3.905
 4148SOL    HW213344   0.633   0.136   3.950
 4149SOL     OW13345   0.886   3.489   0.191
 4149SOL    HW113346   0.849   3.398   0.210
 4149SOL    HW213347   0.815   3.546   0.151
 4150SOL     OW13348   6.096   0.891   6.095
 4150SOL    HW113349   6.178   0.836   6.111
 4150SOL    HW213350   6.043   0.898   6.179
 4151SOL     OW13351   5.171   6.093   6.837
 4151SOL    HW113352   5.171   6.044   6.749
 4151SOL    HW213353   5.124   6.180   6.827
 4152SOL     OW13354   2.794   5.401   1.587
 4152SOL    HW113355   2.783   5.478   1.524
 4152SOL    HW213356   2.811   5.318   1.534
 4153SOL     OW13357   5.435   5.461   6.158
 4153SOL    HW113358   5.411   5.426   6.067
 4153SOL    HW213359   5.406   5.556   6.166
 4154SOL     OW13360   6.818   3.897   5.511
 4154SOL    HW113361   6.745   3.831   5.528
 4154SOL    HW213362   6.839   3.946   5.595
 4155SOL     OW13363   6.582   3.127   3.309
 4155SOL    HW113364   6.680   3.128   3.288
 4155SOL    HW213365   6.569   3.107   3.406
 4156SOL     OW13366   5.422   6.941   5.229
 4156SOL    HW113367   5.428   0.002   5.289
 4156SOL    HW213368   5.424   6.971   5.133
 4157SOL     OW13369   3.716   6.841   3.438
 4157SOL    HW113370   3.638   6.902   3.453
 4157SOL    HW213371   3.801   6.893   3.444
 4158SOL     OW13372   1.243   5.319   4.289
 4158SOL    HW113373   1.310   5.269   4.234
 4158SOL    HW213374   1.217   5.404   4.241
 4159SOL     OW13375   1.702   3.558   4.215
 4159SOL    HW113376   1.681   3.502   4.135
 4159SOL    HW213377   1.744   3.501   4.285
 4160SOL     OW13378   6.394   0.400   0.690
 4160SOL    HW113379   6.382   0.312   0.736
 4160SOL    HW213380   6.482   0.439   0.715
 4161SOL     OW13381   2.088   6.438   6.353
 4161SOL    HW113382   2.161   6.505   6.369
 4161SOL    HW213383   2.102   6.359   6.413
 4162SOL     OW13384   6.310   0.436   4.901
 4162SOL    HW113385   6.344   0.477   4.816
 4162SOL    HW213386   6.379   0.374   4.938
 4163SOL     OW13387   5.616   1.700   3.440
 4163SOL    HW113388   5.586   1.678   3.533
 4163SOL    HW213389   5.596   1.623   3.380
 4164SOL     OW13390   1.686   6.989   6.170
 4164SOL    HW113391   1.664   6.905   6.122
 4164SOL    HW213392   1.713   0.040   6.104
 4165SOL     OW13393   4.848   0.288   0.727
 4165SOL    HW113394   4.900   0.234   0.662
 4165SOL    HW213395   4.755   0.302   0.692
 4166SOL     OW13396   5.545   2.294   0.834
 4166SOL    HW113397   5.463   2.237   0.828
 4166SOL    HW213398   5.596   2.270   0.917
 4167SOL     OW13399   2.575   3.397   0.675
 4167SOL    HW113400   2.671   3.425   0.686
 4167SOL    HW213401   2.572   3.306   0.634
 4168SOL     OW13402   0.318   5.036   1.204
 4168SOL    HW113403   0.280   5.118   1.161
 4168SOL    HW213404   0.262   5.011   1.282
 4169SOL     OW13405   5.577   3.973   4.351
 4169SOL    HW113406   5.540   4.060   4.318
 4169SOL    HW213407   5.502   3.915   4.382
 4170SOL     OW13408   3.796   2.968   5.105
 4170SOL    HW113409   3.781   2.945   5.008
 4170SOL    HW213410   3.882   3.018   5.114
 4171SOL     OW13411   5.392   4.731   0.927
 4171SOL    HW113412   5.406   4.796   1.001
 4171SOL    HW213413   5.338   4.653   0.960
 4172SOL     OW13414   6.801   2.152   6.482
 4172SOL    HW113415   6.796   2.053   6.492
 4172SOL    HW213416   6.776   2.197   6.568
 4173SOL     OW13417   5.717   3.074   4.900
 4173SOL    HW113418   5.735   3.056   4.996
 4173SOL    HW213419   5.685   3.169   4.890
 4174SOL     OW13420   5.245   0.812   3.611
 4174SOL    HW113421   5.293   0.876   3.670
 4174SOL    HW213422   5.280   0.719   3.628
 4175SOL     OW13423   2.746   6.456   4.819
 4175SOL    HW113424   2.696   6.381   4.862
 4175SOL    HW213425   2.843   6.431   4.811
 4176SOL     OW13426   3.433   0.393   2.389
 4176SOL    HW113427   3.468   0.309   2.428
 4176SOL    HW213428   3.333   0.390   2.387
 4177SOL     OW13429   0.604   5.496   5.247
 4177SOL    HW113430   0.604   5.594   5.266
 4177SOL    HW213431   0.540   5.477   5.172
 4178SOL     OW13432   3.520   0.753   4.778
 4178SOL    HW113433   3.595   0.755   4.712
 4178SOL    HW213434   3.468   0.838   4.772
 4179SOL     OW13435   5.437   3.620   4.292
 4179SOL    HW113436   5.504   3.608   4.219
 4179SOL    HW213437   5.426   3.534   4.341
 4180SOL     OW13438   5.203   4.310   2.250
 4180SOL    HW113439   5.103   4.319   2.250
 4180SOL    HW213440   5.238   4.329   2.159
 4181SOL     OW13441   2.168   1.513   5.978
 4181SOL    HW113442   2.260   1.503   5.942
 4181SOL    HW213443   2.168   1.581   6.051
 4182SOL     OW13444   0.040   0.534   3.030
 4182SOL    HW113445   0.039   0.439   3.000
 4182SOL    HW213446   6.989   0.586   2.980
 4183SOL     OW13447   3.088   1.514   1.601
 4183SOL    HW113448   2.993   1.485   1.615
 4183SOL    HW213449   3.112   1.585   1.667
 4184SOL     OW13450   4.071   4.627   1.174
 4184SOL    HW113451   4.171   4.619   1.177
 4184SOL    HW213452   4.031   4.565   1.241
 4185SOL     OW13453   0.947   5.596   3.492
 4185SOL    HW113454   0.987   5.533   3.558
 4185SOL    HW213455   1.005   5.677   3.484
 4186SOL     OW13456   2.123   4.243   0.231
 4186SOL    HW113457   2.150   4.261   0.136
 4186SOL    HW213458   2.122   4.329   0.282
 4187SOL     OW13459   3.511   3.356   5.850
 4187SOL    HW113460   3.500   3.409   5.766
 4187SOL    HW213461   3.599   3.307   5.847
 4188SOL     OW13462   4.598   0.330   4.263
 4188SOL    HW113463   4.697   0.345   4.270
 4188SOL    HW213464   4.559   0.396   4.199
 4189SOL     OW13465   3.205   1.849   4.440
 4189SOL    HW113466   3.281   1.894   4.393
 4189SOL    HW213467   3.136   1.918   4.464
 4190SOL     OW13468   2.548   0.131   6.427
 4190SOL    HW113469   2.483   0.206   6.431
 4190SOL    HW213470   2.639   0.167   6.407
 4191SOL     OW13471   5.812   3.419   3.216
 4191SOL    HW113472   5.807   3.321   3.198
 4191SOL    HW213473   5.900   3.441   3.258
 4192SOL     OW13474   6.692   2.013   3.470
 4192SOL    HW113475   6.777   1.977   3.431
 4192SOL    HW213476   6.648   2.073   3.403
 4193SOL     OW13477   2.172   6.361   1.446
 4193SOL    HW113478   2.207   6.448   1.483
 4193SOL    HW213479   2.079   6.345   1.480
 4194SOL     OW13480   6.781   2.088   4.961
 4194SOL    HW113481   6.871   2.093   5.003
 4194SOL    HW213482   6.730   2.011   5.000
 4195SOL     OW13483   3.733   0.675   1.441
 4195SOL    HW113484   3.713   0.732   1.520
 4195SOL    HW213485   3.786   0.595   1.470
 4196SOL     OW13486   5.950   2.478   4.494
 4196SOL    HW113487   5.963   2.548   4.424
 4196SOL    HW213488   5.859   2.488   4.535
 4197SOL     OW13489   5.270   4.539   3.544
 4197SOL    HW113490   5.356   4.492   3.527
 4197SOL    HW213491   5.288   4.628   3.587
 4198SOL     OW13492   6.428   3.817   6.615
 4198SOL    HW113493   6.449   3.740   6.675
 4198SOL    HW213494   6.494   3.890   6.630
 4199SOL     OW13495   2.903   3.029   5.952
 4199SOL    HW113496   2.983   3.008   6.009
 4199SOL    HW213497   2.870   3.120   5.973
 4200SOL     OW13498   3.096   6.322   6.026
 4200SOL    HW113499   3.171   6.385   6.005
 4200SOL    HW213500   3.067   6.275   5.942
 4201SOL     OW13501   6.240   6.723   3.577
 4201SOL    HW113502   6.263   6.689   3.669
 4201SOL    HW213503   6.141   6.736   3.571
 4202SOL     OW13504   4.875   4.592   5.866
 4202SOL    HW113505   4.891   4.503   5.822
 4202SOL    HW213506   4.958   4.620   5.914
 4203SOL     OW13507   4.497   5.849   2.737
 4203SOL    HW113508   4.411   5.880   2.698
 4203SOL    HW213509   4.515   5.755   2.708
 4204SOL     OW13510   3.205   2.998   2.239
 4204SOL    HW113511   3.166   3.018   2.329
 4204SOL    HW213512   3.303   2.983   2.248
 4205SOL     OW13513   3.721   4.903   4.006
 4205SOL    HW113514   3.678   4.903   3.916
 4205SOL    HW213515   3.660   4.861   4.073
 4206SOL     OW13516   4.902   0.952   6.400
 4206SOL    HW113517   4.810   0.988   6.386
 4206SOL    HW213518   4.932   0.973   6.494
 4207SOL     OW13519   1.998   1.102   1.853
 4207SOL    HW113520   2.092   1.135   1.867
 4207SOL    HW213521   1.966   1.130   1.762
 4208SOL     OW13522   1.258   1.874   1.316
 4208SOL    HW113523   1.315   1.924   1.251
 4208SOL    HW213524   1.186   1.825   1.267
 4209SOL     OW13525   1.278   1.003   5.188
 4209SOL    HW113526   1.308   1.093   5.219
 4209SOL    HW213527   1.179   1.003   5.174
 4210SOL     OW13528   3.279   3.292   1.795
 4210SOL    HW113529   3.273   3.225   1.721
 4210SOL    HW213530   3.193   3.342   1.802
 4211SOL     OW13531   4.674   5.490   5.572
 4211SOL    HW113532   4.576   5.495   5.549
 4211SOL    HW213533   4.723   5.564   5.525
 4212SOL     OW13534   6.809   1.493   2.361
 4212SOL    HW113535   6.782   1.458   2.451
 4212SOL    HW213536   6.727   1.514   2.308
 4213SOL     OW13537   2.381   0.989   2.671
 4213SOL    HW113538   2.458   1.033   2.625
 4213SOL    HW213539   2.399   0.984   2.769
 4214SOL     OW13540   0.638   3.835   6.377
 4214SOL    HW113541   0.604   3.927   6.396
 4214SOL    HW213542   0.659   3.789   6.464
 4215SOL     OW13543   0.348   5.988   4.482
 4215SOL    HW113544   0.326   6.038   4.398
 4215SOL    HW213545   0.391   6.050   4.548
 4216SOL     OW13546   1.387   2.214   4.127
 4216SOL    HW113547   1.382   2.126   4.175
 4216SOL    HW213548   1.426   2.200   4.036
 4217SOL     OW13549   6.866   6.840   3.126
 4217SOL    HW113550   6.798   6.780   3.168
 4217SOL    HW213551   6.935   6.784   3.079
 4218SOL     OW13552   4.908   6.963   2.099
 4218SOL    HW113553   4.989   7.011   2.063
 4218SOL    HW213554   4.880   6.892   2.034
 4219SOL     OW13555   3.081   4.599   5.283
 4219SOL    HW113556   3.080   4.678   5.346
 4219SOL    HW213557   2.989   4.584   5.247
 4220SOL     OW13558   6.788   3.366   2.936
 4220SOL    HW113559   6.878   3.342   2.972
 4220SOL    HW213560   6.729   3.393   3.012
 4221SOL     OW13561   5.958   5.892   6.662
 4221SOL    HW113562   5.993   5.945   6.738
 4221SOL    HW213563   5.882   5.941   6.619
 4222SOL     OW13564   6.252   1.605   2.451
 4222SOL    HW113565   6.271   1.517   2.406
 4222SOL    HW213566   6.153   1.616   2.460
 4223SOL     OW13567   3.310   3.219   3.220
 4223SOL    HW113568   3.359   3.215   3.133
 4223SOL    HW213569   3.320   3.132   3.268
 4224SOL     OW13570   4.862   3.388   4.382
 4224SOL    HW113571   4.780   3.444   4.382
 4224SOL    HW213572   4.870   3.341   4.294
 4225SOL     OW13573   5.624   1.039   4.967
 4225SOL    HW113574   5.591   1.061   5.059
 4225SOL    HW213575   5.690   0.964   4.973
 4226SOL     OW13576   1.730   1.816   4.079
 4226SOL    HW113577   1.814   1.764   4.097
 4226SOL    HW213578   1.751   1.914   4.078
 4227SOL     OW13579   4.020   4.688   6.588
 4227SOL    HW113580   4.109   4.727   6.566
 4227SOL    HW213581   4.030   4.621   6.661
 4228SOL     OW13582   5.824   6.480   4.192
 4228SOL    HW113583   5.874   6.565   4.175
 4228SOL    HW213584   5.756   6.466   4.119
 4229SOL     OW13585   3.961   4.823   5.981
 4229SOL    HW113586   3.862   4.822   5.971
 4229SOL    HW213587   3.999   4.739   5.941
 4230SOL     OW13588   2.536   0.228   4.947
 4230SOL    HW113589   2.481   0.299   4.990
 4230SOL    HW213590   2.518   0.227   4.849
 4231SOL     OW13591   5.177   6.359   5.276
 4231SOL    HW113592   5.193   6.405   5.189
 4231SOL    HW213593   5.160   6.427   5.347
 4232SOL     OW13594   1.137   5.495   2.044
 4232SOL    HW113595   1.102   5.479   1.951
 4232SOL    HW213596   1.061   5.486   2.109
 4233SOL     OW13597   6.274   0.767   6.842
 4233SOL    HW113598   6.365   0.771   6.884
 4233SOL    HW213599   6.251   0.672   6.820
 4234SOL     OW13600   2.150   5.171   5.822
 4234SOL    HW113601   2.123   5.162   5.918
 4234SOL    HW213602   2.232   5.227   5.816
 4235SOL     OW13603   6.480   4.313   5.522
 4235SOL    HW113604   6.565   4.364   5.513
 4235SOL    HW213605   6.493   4.220   5.487
 4236SOL     OW13606   0.198   2.733   3.935
 4236SOL    HW113607   0.201   2.634   3.948
 4236SOL    HW213608   0.284   2.764   3.894
 4237SOL     OW13609   6.129   3.762   4.510
 4237SOL    HW113610   6.056   3.703   4.544
 4237SOL    HW213611   6.109   3.789   4.416
 4238SOL     OW13612   4.307   4.695   3.546
 4238SOL    HW113613   4.384   4.716   3.607
 4238SOL    HW213614   4.230   4.662   3.601
 4239SOL     OW13615   4.729   6.914   4.322
 4239SOL    HW113616   4.816   6.885   4.282
 4239SOL    HW213617   4.739   6.922   4.421
 4240SOL     OW13618   2.562   5.926   6.528
 4240SOL    HW113619   2.630   5.922   6.601
 4240SOL    HW213620   2.509   5.841   6.527
 4241SOL     OW13621   5.109   0.608   1.223
 4241SOL    HW113622   5.024   0.604   1.171
 4241SOL    HW213623   5.125   0.702   1.253
 4242SOL     OW13624   2.392   6.534   2.736
 4242SOL    HW113625   2.407   6.609   2.801
 4242SOL    HW213626   2.332   6.565   2.662
 4243SOL     OW13627   0.384   3.909   2.278
 4243SOL    HW113628   0.452   3.892   2.207
 4243SOL    HW213629   0.412   3.864   2.363
 4244SOL     OW13630   4.917   6.336   0.477
 4244SOL    HW113631   4.845   6.306   0.414
 4244SOL    HW213632   5.007   6.319   0.436
 4245SOL     OW13633   6.532   3.031   0.344
 4245SOL    HW113634   6.601   3.093   0.381
 4245SOL    HW213635   6.441   3.067   0.364
 4246SOL     OW13636   5.551   2.583   3.008
 4246SOL    HW113637   5.578   2.609   2.915
 4246SOL    HW213638   5.583   2.490   3.027
 4247SOL     OW13639   2.494   5.601   4.591
 4247SOL    HW113640   2.416   5.543   4.611
 4247SOL    HW213641   2.577   5.546   4.589
 4248SOL     OW13642   1.891   0.600   3.123
 4248SOL    HW113643   1.821   0.645   3.178
 4248SOL    HW213644   1.969   0.662   3.111
 4249SOL     OW13645   0.378   1.879   4.181
 4249SOL    HW113646   0.311   1.841   4.118
 4249SOL    HW213647   0.391   1.977   4.161
 4250SOL     OW13648   0.618   5.531   4.012
 4250SOL    HW113649   0.600   5.437   3.982
 4250SOL    HW213650   0.703   5.534   4.064
 4251SOL     OW13651   5.564   3.058   6.772
 4251SOL    HW113652   5.641   3.112   6.806
 4251SOL    HW213653   5.590   2.962   6.766
 4252SOL     OW13654   6.138   5.748   5.219
 4252SOL    HW113655   6.097   5.790   5.300
 4252SOL    HW213656   6.212   5.806   5.186
 4253SOL     OW13657   3.863   6.369   2.224
 4253SOL    HW113658   3.783   6.372   2.164
 4253SOL    HW213659   3.942   6.337   2.172
 4254SOL     OW13660   2.249   3.423   0.351
 4254SOL    HW113661   2.157   3.416   0.390
 4254SOL    HW213662   2.313   3.369   0.406
 4255SOL     OW13663   1.026   4.555   3.338
 4255SOL    HW113664   0.990   4.463   3.355
 4255SOL    HW213665   0.951   4.616   3.314
 4256SOL     OW13666   0.340   4.946   1.620
 4256SOL    HW113667   0.262   4.903   1.575
 4256SOL    HW213668   0.318   5.042   1.640
 4257SOL     OW13669   6.026   1.851   5.077
 4257SOL    HW113670   5.933   1.814   5.082
 4257SOL    HW213671   6.086   1.800   5.138
 4258SOL     OW13672   3.162   5.617   0.768
 4258SOL    HW113673   3.115   5.538   0.808
 4258SOL    HW213674   3.258   5.616   0.797
 4259SOL     OW13675   1.581   6.900   1.324
 4259SOL    HW113676   1.555   6.803   1.333
 4259SOL    HW213677   1.674   6.906   1.287
 4260SOL     OW13678   4.818   0.119   3.955
 4260SOL    HW113679   4.784   0.149   4.044
 4260SOL    HW213680   4.743   0.078   3.903
 4261SOL     OW13681   2.088   0.482   5.012
 4261SOL    HW113682   2.144   0.402   5.032
 4261SOL    HW213683   2.119   0.524   4.927
 4262SOL     OW13684   1.254   4.819   6.332
 4262SOL    HW113685   1.167   4.832   6.283
 4262SOL    HW213686   1.254   4.729   6.376
 4263SOL     OW13687   2.788   2.248   3.320
 4263SOL    HW113688   2.717   2.185   3.353
 4263SOL    HW213689   2.746   2.333   3.289
 4264SOL     OW13690   5.449   1.229   4.313
 4264SOL    HW113691   5.422   1.193   4.402
 4264SOL    HW213692   5.518   1.301   4.326
 4265SOL     OW13693   2.658   0.048   1.166
 4265SOL    HW113694   2.749   0.047   1.124
 4265SOL    HW213695   2.613   6.979   1.152
 4266SOL     OW13696   1.118   6.760   0.509
 4266SOL    HW113697   1.100   6.814   0.591
 4266SOL    HW213698   1.085   6.810   0.429
 4267SOL     OW13699   2.159   4.002   3.624
 4267SOL    HW113700   2.200   4.078   3.674
 4267SOL    HW213701   2.107   4.037   3.546
 4268SOL     OW13702   1.007   5.021   7.015
 4268SOL    HW113703   1.023   5.119   7.008
 4268SOL    HW213704   0.951   5.002   0.077
 4269SOL     OW13705   3.453   1.596   4.065
 4269SOL    HW113706   3.442   1.556   4.156
 4269SOL    HW213707   3.364   1.608   4.023
 4270SOL     OW13708   3.469   2.949   1.195
 4270SOL    HW113709   3.443   2.902   1.111
 4270SOL    HW213710   3.555   2.998   1.181
 4271SOL     OW13711   6.188   0.553   1.268
 4271SOL    HW113712   6.241   0.630   1.229
 4271SOL    HW213713   6.095   0.557   1.233
 4272SOL     OW13714   6.985   3.356   5.534
 4272SOL    HW113715   0.065   3.354   5.550
 4272SOL    HW213716   6.949   3.446   5.558
 4273SOL     OW13717   4.599   6.528   4.845
 4273SOL    HW113718   4.569   6.593   4.775
 4273SOL    HW213719   4.690   6.495   4.822
 4274SOL     OW13720   0.155   6.512   1.980
 4274SOL    HW113721   0.148   6.581   2.052
 4274SOL    HW213722   0.141   6.422   2.019
 4275SOL     OW13723   0.954   2.583   3.885
 4275SOL    HW113724   0.984   2.590   3.790
 4275SOL    HW213725   0.857   2.559   3.888
 4276SOL     OW13726   2.929   5.142   4.008
 4276SOL    HW113727   2.915   5.156   3.910
 4276SOL    HW213728   2.971   5.053   4.023
 4277SOL     OW13729   6.508   4.708   3.904
 4277SOL    HW113730   6.569   4.717   3.983
 4277SOL    HW213731   6.537   4.631   3.848
 4278SOL     OW13732   6.628   6.304   2.792
 4278SOL    HW113733   6.594   6.367   2.722
 4278SOL    HW213734   6.571   6.222   2.792
 4279SOL     OW13735   1.125   1.498   2.683
 4279SOL    HW113736   1.099   1.505   2.587
 4279SOL    HW213737   1.224   1.510   2.692
 4280SOL     OW13738   6.414   6.594   6.584
 4280SOL    HW113739   6.452   6.509   6.546
 4280SOL    HW213740   6.315   6.584   6.594
 4281SOL     OW13741   4.312   5.580   3.936
 4281SOL    HW113742   4.251   5.639   3.988
 4281SOL    HW213743   4.382   5.635   3.891
 4282SOL     OW13744   3.077   4.011   0.833
 4282SOL    HW113745   3.041   3.970   0.917
 4282SOL    HW213746   3.007   4.006   0.761
 4283SOL     OW13747   5.047   0.865   2.899
 4283SOL    HW113748   5.018   0.921   2.976
 4283SOL    HW213749   5.146   0.862   2.895
 4284SOL     OW13750   4.334   5.563   0.458
 4284SOL    HW113751   4.328   5.587   0.555
 4284SOL    HW213752   4.333   5.647   0.403
 4285SOL     OW13753   3.409   0.582   6.370
 4285SOL    HW113754   3.444   0.489   6.363
 4285SOL    HW213755   3.450   0.639   6.298
 4286SOL     OW13756   6.445   1.220   0.083
 4286SOL    HW113757   6.373   1.202   0.016
 4286SOL    HW213758   6.404   1.237   0.172
 4287SOL     OW13759   4.246   0.393   0.160
 4287SOL    HW113760   4.173   0.456   0.185
 4287SOL    HW213761   4.207   0.303   0.139
 4288SOL     OW13762   6.038   6.030   1.934
 4288SOL    HW113763   5.982   6.006   1.855
 4288SOL    HW213764   6.130   5.994   1.922
 4289SOL     OW13765   0.617   2.529   5.516
 4289SOL    HW113766   0.622   2.601   5.586
 4289SOL    HW213767   0.678   2.552   5.441
 4290SOL     OW13768   0.295   0.572   3.153
 4290SOL    HW113769   0.352   0.618   3.084
 4290SOL    HW213770   0.210   0.542   3.111
 4291SOL     OW13771   4.849   3.017   5.809
 4291SOL    HW113772   4.834   2.945   5.877
 4291SOL    HW213773   4.911   2.985   5.738
 4292SOL     OW13774   4.723   2.016   0.236
 4292SOL    HW113775   4.736   2.097   0.179
 4292SOL    HW213776   4.760   2.034   0.328
 4293SOL     OW13777   5.234   3.908   6.634
 4293SOL    HW113778   5.175   3.915   6.554
 4293SOL    HW213779   5.179   3.884   6.714
 4294SOL     OW13780   2.831   2.257   5.939
 4294SOL    HW113781   2.848   2.354   5.954
 4294SOL    HW213782   2.893   2.222   5.869
 4295SOL     OW13783   4.360   6.358   2.096
 4295SOL    HW113784   4.386   6.273   2.142
 4295SOL    HW213785   4.269   6.386   2.126
 4296SOL     OW13786   2.917   6.358   1.039
 4296SOL    HW113787   2.885   6.292   0.971
 4296SOL    HW213788   2.842   6.381   1.101
 4297SOL     OW13789   6.639   5.292   1.157
 4297SOL    HW113790   6.571   5.265   1.089
 4297SOL    HW213791   6.706   5.354   1.114
 4298SOL     OW13792   3.524   6.304   1.348
 4298SOL    HW113793   3.564   6.362   1.278
 4298SOL    HW213794   3.528   6.208   1.319
 4299SOL     OW13795   0.452   2.540   6.654
 4299SOL    HW113796   0.416   2.505   6.568
 4299SOL    HW213797   0.542   2.581   6.638
 4300SOL     OW13798   3.454   0.669   0.918
 4300SOL    HW113799   3.393   0.666   0.839
 4300SOL    HW213800   3.474   0.576   0.948
 4301SOL     OW13801   3.235   5.981   1.682
 4301SOL    HW113802   3.296   6.033   1.743
 4301SOL    HW213803   3.227   6.029   1.595
 4302SOL     OW13804   0.704   6.795   6.632
 4302SOL    HW113805   0.739   6.718   6.684
 4302SOL    HW213806   0.780   6.845   6.590
 4303SOL     OW13807   6.438   4.571   4.222
 4303SOL    HW113808   6.476   4.531   4.305
 4303SOL    HW213809   6.506   4.630   4.179
 4304SOL     OW13810   3.179   3.620   1.659
 4304SOL    HW113811   3.241   3.571   1.599
 4304SOL    HW213812   3.206   3.717   1.663
 4305SOL     OW13813   0.151   6.943   5.821
 4305SOL    HW113814   0.122   6.906   5.909
 4305SOL    HW213815   0.249   6.960   5.822
 4306SOL     OW13816   4.864   3.915   4.484
 4306SOL    HW113817   4.886   3.845   4.415
 4306SOL    HW213818   4.807   3.875   4.555
 4307SOL     OW13819   6.295   3.026   5.630
 4307SOL    HW113820   6.240   3.108   5.616
 4307SOL    HW213821   6.237   2.951   5.661
 4308SOL     OW13822   5.308   5.170   1.563
 4308SOL    HW113823   5.390   5.196   1.614
 4308SOL    HW213824   5.289   5.073   1.577
 4309SOL     OW13825   0.876   3.097   0.144
 4309SOL    HW113826   0.911   3.041   0.220
 4309SOL    HW213827   0.802   3.156   0.178
 4310SOL     OW13828   0.991   2.036   2.540
 4310SOL    HW113829   0.902   2.076   2.522
 4310SOL    HW213830   1.039   2.091   2.610
 4311SOL     OW13831   0.935   6.261   2.004
 4311SOL    HW113832   0.884   6.227   2.083
 4311SOL    HW213833   0.882   6.332   1.958
 4312SOL     OW13834   0.846   4.739   1.862
 4312SOL    HW113835   0.749   4.718   1.875
 4312SOL    HW213836   0.867   4.828   1.904
 4313SOL     OW13837   5.367   1.938   0.713
 4313SOL    HW113838   5.306   1.866   0.745
 4313SOL    HW213839   5.397   1.919   0.620
 4314SOL     OW13840   6.639   2.712   5.627
 4314SOL    HW113841   6.644   2.616   5.653
 4314SOL    HW213842   6.588   2.763   5.696
 4315SOL     OW13843   2.199   1.109   3.474
 4315SOL    HW113844   2.273   1.045   3.452
 4315SOL    HW213845   2.236   1.188   3.523
 4316SOL     OW13846   5.201   0.808   2.198
 4316SOL    HW113847   5.134   0.859   2.253
 4316SOL    HW213848   5.173   0.712   2.192
 4317SOL     OW13849   4.355   0.803   5.466
 4317SOL    HW113850   4.269   0.782   5.513
 4317SOL    HW213851   4.380   0.898   5.483
 4318SOL     OW13852   0.633   0.939   4.202
 4318SOL    HW113853   0.709   1.004   4.201
 4318SOL    HW213854   0.558   0.975   4.147
 4319SOL     OW13855   1.442   2.886   1.696
 4319SOL    HW113856   1.468   2.847   1.785
 4319SOL    HW213857   1.350   2.923   1.702
 4320SOL     OW13858   3.635   6.348   0.639
 4320SOL    HW113859   3.635   6.265   0.583
 4320SOL    HW213860   3.590   6.422   0.589
 4321SOL     OW13861   6.873   5.921   2.718
 4321SOL    HW113862   6.792   5.927   2.775
 4321SOL    HW213863   6.948   5.972   2.760
 4322SOL     OW13864   0.657   2.220   5.296
 4322SOL    HW113865   0.725   2.289   5.271
 4322SOL    HW213866   0.669   2.139   5.239
 4323SOL     OW13867   3.947   5.457   0.116
 4323SOL    HW113868   3.989   5.546   0.099
 4323SOL    HW213869   3.858   5.452   0.071
 4324SOL     OW13870   0.417   3.767   5.765
 4324SOL    HW113871   0.422   3.849   5.708
 4324SOL    HW213872   0.491   3.705   5.740
 4325SOL     OW13873   2.965   0.490   3.459
 4325SOL    HW113874   2.957   0.565   3.393
 4325SOL    HW213875   3.059   0.483   3.491
 4326SOL     OW13876   5.543   2.685   2.476
 4326SOL    HW113877   5.586   2.596   2.464
 4326SOL    HW213878   5.609   2.757   2.458
 4327SOL     OW13879   3.431   5.697   3.704
 4327SOL    HW113880   3.406   5.600   3.704
 4327SOL    HW213881   3.407   5.738   3.791
 4328SOL     OW13882   6.019   5.161   4.950
 4328SOL    HW113883   5.975   5.110   4.876
 4328SOL    HW213884   6.070   5.098   5.009
 4329SOL     OW13885   5.450   3.093   5.387
 4329SOL    HW113886   5.355   3.122   5.404
 4329SOL    HW213887   5.494   3.156   5.324
 4330SOL     OW13888   2.398   5.998   5.141
 4330SOL    HW113889   2.448   5.921   5.181
 4330SOL    HW213890   2.300   5.979   5.144
 4331SOL     OW13891   6.582   0.524   1.675
 4331SOL    HW113892   6.553   0.439   1.718
 4331SOL    HW213893   6.542   0.530   1.583
 4332SOL     OW13894   6.263   3.631   2.996
 4332SOL    HW113895   6.245   3.581   2.910
 4332SOL    HW213896   6.306   3.570   3.062
 4333SOL     OW13897   4.553   2.110   5.107
 4333SOL    HW113898   4.516   2.125   5.199
 4333SOL    HW213899   4.481   2.073   5.049
 4334SOL     OW13900   1.270   2.759   2.995
 4334SOL    HW113901   1.261   2.668   3.036
 4334SOL    HW213902   1.205   2.821   3.039
 4335SOL     OW13903   3.210   3.011   0.687
 4335SOL    HW113904   3.193   3.109   0.682
 4335SOL    HW213905   3.172   2.975   0.773
 4336SOL     OW13906   1.664   5.375   6.295
 4336SOL    HW113907   1.572   5.414   6.286
 4336SOL    HW213908   1.726   5.443   6.334
 4337SOL     OW13909   1.083   5.951   2.277
 4337SOL    HW113910   1.046   5.923   2.189
 4337SOL    HW213911   1.181   5.969   2.269
 4338SOL     OW13912   6.467   0.195   5.806
 4338SOL    HW113913   6.528   0.260   5.760
 4338SOL    HW213914   6.447   0.119   5.744
 4339SOL     OW13915   3.949   2.379   6.555
 4339SOL    HW113916   4.031   2.321   6.550
 4339SOL    HW213917   3.918   2.400   6.462
 4340SOL     OW13918   6.330   3.896   0.851
 4340SOL    HW113919   6.310   3.850   0.938
 4340SOL    HW213920   6.393   3.840   0.798
 4341SOL     OW13921   1.035   5.651   1.575
 4341SOL    HW113922   0.963   5.614   1.633
 4341SOL    HW213923   1.068   5.579   1.513
 4342SOL     OW13924   5.434   3.710   2.762
 4342SOL    HW113925   5.364   3.780   2.777
 4342SOL    HW213926   5.490   3.735   2.684
 4343SOL     OW13927   4.169   0.520   5.575
 4343SOL    HW113928   4.132   0.431   5.548
 4343SOL    HW213929   4.268   0.520   5.562
 4344SOL     OW13930   0.452   3.151   4.090
 4344SOL    HW113931   0.544   3.185   4.072
 4344SOL    HW213932   0.448   3.054   4.066
 4345SOL     OW13933   3.034   3.195   2.803
 4345SOL    HW113934   3.001   3.219   2.894
 4345SOL    HW213935   2.998   3.260   2.736
 4346SOL     OW13936   2.393   2.681   2.872
 4346SOL    HW113937   2.467   2.686   2.805
 4346SOL    HW213938   2.347   2.592   2.864
 4347SOL     OW13939   6.110   5.278   1.527
 4347SOL    HW113940   6.194   5.278   1.581
 4347SOL    HW213941   6.039   5.329   1.575
 4348SOL     OW13942   6.606   5.910   3.694
 4348SOL    HW113943   6.547   5.860   3.631
 4348SOL    HW213944   6.550   5.971   3.750
 4349SOL     OW13945   0.049   4.152   3.525
 4349SOL    HW113946   0.075   4.057   3.544
 4349SOL    HW213947   0.034   4.200   3.611
 4350SOL     OW13948   5.669   1.787   4.610
 4350SOL    HW113949   5.682   1.885   4.625
 4350SOL    HW213950   5.593   1.754   4.667
 4351SOL     OW13951   1.202   6.279   1.246
 4351SOL    HW113952   1.186   6.327   1.160
 4351SOL    HW213953   1.118   6.280   1.301
 4352SOL     OW13954   5.278   4.509   1.027
 4352SOL    HW113955   5.241   4.450   1.099
 4352SOL    HW213956   5.237   4.485   0.940
 4353SOL     OW13957   3.358   3.519   6.759
 4353SOL    HW113958   3.404   3.491   6.844
 4353SOL    HW213959   3.261   3.494   6.764
 4354SOL     OW13960   0.109   0.525   3.940
 4354SOL    HW113961   0.045   0.451   3.963
 4354SOL    HW213962   0.116   0.587   4.018
 4355SOL     OW13963   1.430   0.325   4.007
 4355SOL    HW113964   1.368   0.248   3.993
 4355SOL    HW213965   1.383   0.410   3.981
 4356SOL     OW13966   5.103   2.790   5.995
 4356SOL    HW113967   5.006   2.813   5.989
 4356SOL    HW213968   5.149   2.858   6.053
 4357SOL     OW13969   6.203   1.448   2.009
 4357SOL    HW113970   6.243   1.486   1.926
 4357SOL    HW213971   6.131   1.382   1.985
 4358SOL     OW13972   0.448   1.288   0.182
 4358SOL    HW113973   0.458   1.290   0.281
 4358SOL    HW213974   0.484   1.202   0.146
 4359SOL     OW13975   2.302   0.601   6.915
 4359SOL    HW113976   2.396   0.613   6.882
 4359SOL    HW213977   2.302   0.536   6.990
 4360SOL     OW13978   1.460   2.650   3.244
 4360SOL    HW113979   1.537   2.613   3.295
 4360SOL    HW213980   1.390   2.682   3.309
 4361SOL     OW13981   1.269   2.227   1.208
 4361SOL    HW113982   1.230   2.227   1.117
 4361SOL    HW213983   1.214   2.285   1.269
 4362SOL     OW13984   0.729   6.412   4.128
 4362SOL    HW113985   0.802   6.344   4.134
 4362SOL    HW213986   0.756   6.485   4.065
 4363SOL     OW13987   4.531   0.741   3.079
 4363SOL    HW113988   4.476   0.679   3.135
 4363SOL    HW213989   4.507   0.729   2.982
 4364SOL     OW13990   2.902   3.774   2.553
 4364SOL    HW113991   2.940   3.852   2.603
 4364SOL    HW213992   2.908   3.791   2.455
 4365SOL     OW13993   3.226   2.100   1.777
 4365SOL    HW113994   3.163   2.177   1.767
 4365SOL    HW213995   3.241   2.080   1.873
 4366SOL     OW13996   5.057   5.256   5.135
 4366SOL    HW113997   5.154   5.276   5.124
 4366SOL    HW213998   5.046   5.164   5.171
 4367SOL     OW13999   3.112   5.184   3.479
 4367SOL    HW114000   3.089   5.278   3.455
 4367SOL    HW214001   3.103   5.126   3.398
 4368SOL     OW14002   5.232   5.890   2.544
 4368SOL    HW114003   5.277   5.956   2.484
 4368SOL    HW214004   5.248   5.797   2.510
 4369SOL     OW14005   4.937   5.312   2.769
 4369SOL    HW114006   4.943   5.332   2.672
 4369SOL    HW214007   4.866   5.369   2.811
 4370SOL     OW14008   3.716   4.267   1.565
 4370SOL    HW114009   3.797   4.226   1.522
 4370SOL    HW214010   3.746   4.340   1.627
 4371SOL     OW14011   2.592   0.936   1.960
 4371SOL    HW114012   2.686   0.915   1.932
 4371SOL    HW214013   2.553   1.003   1.897
 4372SOL     OW14014   1.681   2.211   5.039
 4372SOL    HW114015   1.591   2.205   4.997
 4372SOL    HW214016   1.708   2.307   5.048
 4373SOL     OW14017   4.763   1.200   6.148
 4373SOL    HW114018   4.716   1.133   6.207
 4373SOL    HW214019   4.846   1.232   6.194
 4374SOL     OW14020   2.440   1.852   1.642
 4374SOL    HW114021   2.499   1.904   1.704
 4374SOL    HW214022   2.440   1.895   1.551
 4375SOL     OW14023   3.839   0.422   3.441
 4375SOL    HW114024   3.761   0.483   3.457
 4375SOL    HW214025   3.847   0.403   3.343
 4376SOL     OW14026   6.219   6.287   1.594
 4376SOL    HW114027   6.249   6.232   1.672
 4376SOL    HW214028   6.294   6.346   1.564
 4377SOL     OW14029   5.598   6.330   0.367
 4377SOL    HW114030   5.514   6.339   0.314
 4377SOL    HW214031   5.634   6.421   0.389
 4378SOL     OW14032   1.779   5.571   2.331
 4378SOL    HW114033   1.797   5.476   2.358
 4378SOL    HW214034   1.852   5.630   2.365
 4379SOL     OW14035   1.632   0.697   1.801
 4379SOL    HW114036   1.537   0.727   1.792
 4379SOL    HW214037   1.688   0.773   1.835
 4380SOL     OW14038   1.996   5.941   5.435
 4380SOL    HW114039   2.044   5.853   5.432
 4380SOL    HW214040   1.905   5.931   5.395
 4381SOL     OW14041   3.937   5.972   4.643
 4381SOL    HW114042   3.928   6.019   4.555
 4381SOL    HW214043   3.991   5.888   4.631
 4382SOL     OW14044   4.799   4.176   4.479
 4382SOL    HW114045   4.777   4.161   4.575
 4382SOL    HW214046   4.850   4.097   4.444
 4383SOL     OW14047   1.287   1.924   6.013
 4383SOL    HW114048   1.261   2.020   6.029
 4383SOL    HW214049   1.211   1.865   6.039
 4384SOL     OW14050   3.858   6.684   1.334
 4384SOL    HW114051   3.806   6.685   1.249
 4384SOL    HW214052   3.813   6.745   1.400
 4385SOL     OW14053   0.265   1.990   3.854
 4385SOL    HW114054   0.185   1.954   3.904
 4385SOL    HW214055   0.238   2.012   3.760
 4386SOL     OW14056   0.743   3.891   6.700
 4386SOL    HW114057   0.796   3.945   6.635
 4386SOL    HW214058   0.799   3.816   6.736
 4387SOL     OW14059   6.535   2.965   1.036
 4387SOL    HW114060   6.558   3.006   1.125
 4387SOL    HW214061   6.475   3.027   0.986
 4388SOL     OW14062   4.020   0.318   6.464
 4388SOL    HW114063   4.114   0.342   6.440
 4388SOL    HW214064   3.966   0.308   6.381
 4389SOL     OW14065   5.772   2.940   1.307
 4389SOL    HW114066   5.685   2.922   1.352
 4389SOL    HW214067   5.843   2.883   1.349
 4390SOL     OW14068   4.996   2.055   1.360
 4390SOL    HW114069   4.922   2.054   1.293
 4390SOL    HW214070   5.084   2.053   1.313
 4391SOL     OW14071   0.960   6.122   0.055
 4391SOL    HW114072   0.862   6.113   0.042
 4391SOL    HW214073   1.001   6.166   6.993
 4392SOL     OW14074   4.985   2.869   4.472
 4392SOL    HW114075   4.941   2.875   4.383
 4392SOL    HW214076   4.926   2.909   4.541
 4393SOL     OW14077   5.369   0.097   3.698
 4393SOL    HW114078   5.372   0.044   3.613
 4393SOL    HW214079   5.449   0.075   3.753
 4394SOL     OW14080   6.045   6.289   3.086
 4394SOL    HW114081   6.015   6.381   3.109
 4394SOL    HW214082   6.092   6.249   3.165
 4395SOL     OW14083   4.456   1.541   1.764
 4395SOL    HW114084   4.416   1.632   1.753
 4395SOL    HW214085   4.383   1.474   1.772
 4396SOL     OW14086   1.375   1.382   4.485
 4396SOL    HW114087   1.436   1.369   4.406
 4396SOL    HW214088   1.365   1.479   4.503
 4397SOL     OW14089   0.279   1.591   4.314
 4397SOL    HW114090   0.287   1.685   4.347
 4397SOL    HW214091   0.221   1.589   4.232
 4398SOL     OW14092   1.200   3.955   4.564
 4398SOL    HW114093   1.101   3.942   4.569
 4398SOL    HW214094   1.232   4.004   4.645
 4399SOL     OW14095   2.189   0.226   0.555
 4399SOL    HW114096   2.275   0.236   0.505
 4399SOL    HW214097   2.172   0.129   0.573
 4400SOL     OW14098   2.227   6.531   4.081
 4400SOL    HW114099   2.257   6.624   4.101
 4400SOL    HW214100   2.188   6.527   3.988
 4401SOL     OW14101   5.425   6.220   5.285
 4401SOL    HW114102   5.501   6.282   5.264
 4401SOL    HW214103   5.339   6.271   5.282
 4402SOL     OW14104   1.013   5.746   2.605
 4402SOL    HW114105   1.065   5.730   2.689
 4402SOL    HW214106   1.024   5.841   2.577
 4403SOL     OW14107   6.680   0.343   3.327
 4403SOL    HW114108   6.651   0.258   3.282
 4403SOL    HW214109   6.757   0.382   3.278
 4404SOL     OW14110   1.060   4.281   3.957
 4404SOL    HW114111   1.152   4.261   3.921
 4404SOL    HW214112   1.004   4.198   3.952
 4405SOL     OW14113   3.340   4.613   5.796
 4405SOL    HW114114   3.357   4.542   5.865
 4405SOL    HW214115   3.316   4.570   5.709
 4406SOL     OW14116   4.909   4.772   1.472
 4406SOL    HW114117   4.831   4.710   1.476
 4406SOL    HW214118   4.959   4.757   1.388
 4407SOL     OW14119   6.906   6.175   0.549
 4407SOL    HW114120   6.832   6.133   0.498
 4407SOL    HW214121   6.920   6.269   0.517
 4408SOL     OW14122   4.437   0.189   0.606
 4408SOL    HW114123   4.487   0.268   0.570
 4408SOL    HW214124   4.477   0.161   0.693
 4409SOL     OW14125   4.337   1.772   1.816
 4409SOL    HW114126   4.357   1.869   1.810
 4409SOL    HW214127   4.239   1.757   1.801
 4410SOL     OW14128   2.406   4.413   0.267
 4410SOL    HW114129   2.466   4.370   0.335
 4410SOL    HW214130   2.333   4.463   0.314
 4411SOL     OW14131   3.806   3.679   2.848
 4411SOL    HW114132   3.825   3.605   2.911
 4411SOL    HW214133   3.707   3.689   2.837
 4412SOL     OW14134   4.059   1.372   5.603
 4412SOL    HW114135   4.132   1.339   5.543
 4412SOL    HW214136   4.081   1.465   5.633
 4413SOL     OW14137   4.002   5.726   4.239
 4413SOL    HW114138   3.907   5.734   4.210
 4413SOL    HW214139   4.022   5.631   4.263
 4414SOL     OW14140   4.293   4.906   2.222
 4414SOL    HW114141   4.232   4.830   2.244
 4414SOL    HW214142   4.276   4.982   2.285
 4415SOL     OW14143   5.759   3.758   6.008
 4415SOL    HW114144   5.683   3.725   6.064
 4415SOL    HW214145   5.805   3.680   5.966
 4416SOL     OW14146   3.109   1.499   4.350
 4416SOL    HW114147   3.056   1.421   4.384
 4416SOL    HW214148   3.065   1.584   4.379
 4417SOL     OW14149   6.697   4.945   2.339
 4417SOL    HW114150   6.713   4.874   2.408
 4417SOL    HW214151   6.662   5.027   2.383
 4418SOL     OW14152   4.757   6.460   3.660
 4418SOL    HW114153   4.667   6.420   3.643
 4418SOL    HW214154   4.792   6.427   3.748
 4419SOL     OW14155   5.764   5.514   0.826
 4419SOL    HW114156   5.819   5.573   0.766
 4419SOL    HW214157   5.774   5.419   0.797
 4420SOL     OW14158   4.797   0.762   0.820
 4420SOL    HW114159   4.817   0.853   0.856
 4420SOL    HW214160   4.733   0.715   0.882
 4421SOL     OW14161   2.469   1.442   2.549
 4421SOL    HW114162   2.442   1.532   2.515
 4421SOL    HW214163   2.388   1.392   2.578
 4422SOL     OW14164   3.258   3.253   5.929
 4422SOL    HW114165   3.332   3.320   5.936
 4422SOL    HW214166   3.248   3.223   5.834
 4423SOL     OW14167   1.421   1.669   5.846
 4423SOL    HW114168   1.411   1.668   5.946
 4423SOL    HW214169   1.516   1.653   5.822
 4424SOL     OW14170   5.188   6.233   2.930
 4424SOL    HW114171   5.199   6.248   3.028
 4424SOL    HW214172   5.276   6.209   2.890
 4425SOL     OW14173   3.662   5.189   5.873
 4425SOL    HW114174   3.696   5.162   5.963
 4425SOL    HW214175   3.579   5.243   5.882
 4426SOL     OW14176   0.066   0.863   5.751
 4426SOL    HW114177   0.105   0.774   5.730
 4426SOL    HW214178   0.130   0.935   5.722
 4427SOL     OW14179   0.764   0.741   3.236
 4427SOL    HW114180   0.710   0.678   3.181
 4427SOL    HW214181   0.842   0.774   3.183
 4428SOL     OW14182   2.835   4.804   4.286
 4428SOL    HW114183   2.800   4.752   4.208
 4428SOL    HW214184   2.782   4.781   4.368
 4429SOL     OW14185   3.037   0.179   3.586
 4429SOL    HW114186   2.948   0.142   3.613
 4429SOL    HW214187   3.037   0.196   3.487
 4430SOL     OW14188   4.297   2.306   3.180
 4430SOL    HW114189   4.354   2.387   3.192
 4430SOL    HW214190   4.259   2.305   3.087
 4431SOL     OW14191   2.939   1.716   3.044
 4431SOL    HW114192   2.970   1.672   2.960
 4431SOL    HW214193   2.927   1.647   3.116
 4432SOL     OW14194   3.583   2.991   3.166
 4432SOL    HW114195   3.638   2.917   3.127
 4432SOL    HW214196   3.560   3.057   3.094
 4433SOL     OW14197   6.103   0.129   3.487
 4433SOL    HW114198   6.094   0.125   3.587
 4433SOL    HW214199   6.050   0.055   3.446
 4434SOL     OW14200   5.144   1.700   4.075
 4434SOL    HW114201   5.055   1.746   4.082
 4434SOL    HW214202   5.181   1.712   3.983
 4435SOL     OW14203   3.715   3.102   1.135
 4435SOL    HW114204   3.780   3.035   1.170
 4435SOL    HW214205   3.736   3.122   1.039
 4436SOL     OW14206   2.949   1.989   0.143
 4436SOL    HW114207   2.965   1.921   0.072
 4436SOL    HW214208   2.872   1.960   0.200
 4437SOL     OW14209   4.354   0.967   4.410
 4437SOL    HW114210   4.305   0.953   4.324
 4437SOL    HW214211   4.430   1.029   4.395
 4438SOL     OW14212   4.144   2.296   0.481
 4438SOL    HW114213   4.213   2.235   0.520
 4438SOL    HW214214   4.185   2.348   0.406
 4439SOL     OW14215   0.601   4.940   1.755
 4439SOL    HW114216   0.571   5.024   1.799
 4439SOL    HW214217   0.532   4.911   1.688
 4440SOL     OW14218   1.982   5.634   0.313
 4440SOL    HW114219   1.966   5.726   0.277
 4440SOL    HW214220   1.919   5.616   0.388
 4441SOL     OW14221   6.507   2.153   2.089
 4441SOL    HW114222   6.562   2.220   2.138
 4441SOL    HW214223   6.533   2.061   2.120
 4442SOL     OW14224   3.897   6.135   3.349
 4442SOL    HW114225   3.939   6.044   3.345
 4442SOL    HW214226   3.963   6.204   3.320
 4443SOL     OW14227   1.778   1.950   6.683
 4443SOL    HW114228   1.865   1.921   6.722
 4443SOL    HW214229   1.793   2.028   6.623
 4444SOL     OW14230   4.727   6.235   0.326
 4444SOL    HW114231   4.680   6.277   0.248
 4444SOL    HW214232   4.772   6.151   0.297
 4445SOL     OW14233   1.407   0.618   6.408
 4445SOL    HW114234   1.423   0.707   6.365
 4445SOL    HW214235   1.495   0.580   6.438
 4446SOL     OW14236   5.573   1.169   1.737
 4446SOL    HW114237   5.483   1.212   1.744
 4446SOL    HW214238   5.581   1.096   1.804
 4447SOL     OW14239   5.274   3.294   5.388
 4447SOL    HW114240   5.216   3.287   5.469
 4447SOL    HW214241   5.326   3.380   5.392
 4448SOL     OW14242   2.702   3.790   0.425
 4448SOL    HW114243   2.675   3.847   0.348
 4448SOL    HW214244   2.792   3.750   0.406
 4449SOL     OW14245   3.404   0.454   5.825
 4449SOL    HW114246   3.462   0.402   5.888
 4449SOL    HW214247   3.401   0.407   5.737
 4450SOL     OW14248   3.074   3.297   3.078
 4450SOL    HW114249   3.077   3.393   3.050
 4450SOL    HW214250   3.163   3.271   3.115
 4451SOL     OW14251   6.137   4.270   2.639
 4451SOL    HW114252   6.082   4.339   2.686
 4451SOL    HW214253   6.221   4.253   2.691
 4452SOL     OW14254   6.153   0.008   5.277
 4452SOL    HW114255   6.228   6.968   5.248
 4452SOL    HW214256   6.135   7.013   5.375
 4453SOL     OW14257   6.345   2.850   1.450
 4453SOL    HW114258   6.375   2.761   1.414
 4453SOL    HW214259   6.305   2.838   1.541
 4454SOL     OW14260   5.550   2.529   1.041
 4454SOL    HW114261   5.527   2.620   1.006
 4454SOL    HW214262   5.530   2.461   0.971
 4455SOL     OW14263   3.440   6.121   1.811
 4455SOL    HW114264   3.489   6.037   1.833
 4455SOL    HW214265   3.486   6.168   1.736
 4456SOL     OW14266   2.293   5.511   2.263
 4456SOL    HW114267   2.259   5.452   2.336
 4456SOL    HW214268   2.257   5.479   2.175
 4457SOL     OW14269   4.425   2.407   6.367
 4457SOL    HW114270   4.331   2.421   6.336
 4457SOL    HW214271   4.449   2.477   6.435
 4458SOL     OW14272   2.226   3.293   6.159
 4458SOL    HW114273   2.197   3.250   6.073
 4458SOL    HW214274   2.315   3.256   6.187
 4459SOL     OW14275   5.215   0.302   4.115
 4459SOL    HW114276   5.224   0.235   4.041
 4459SOL    HW214277   5.183   0.389   4.077
 4460SOL     OW14278   2.309   3.199   6.787
 4460SOL    HW114279   2.254   3.269   6.741
 4460SOL    HW214280   2.384   3.243   6.836
 4461SOL     OW14281   1.087   6.793   2.211
 4461SOL    HW114282   1.113   6.715   2.267
 4461SOL    HW214283   0.993   6.821   2.233
 4462SOL     OW14284   6.263   4.797   0.958
 4462SOL    HW114285   6.182   4.822   1.011
 4462SOL    HW214286   6.316   4.729   1.008
 4463SOL     OW14287   1.577   2.718   6.709
 4463SOL    HW114288   1.645   2.657   6.748
 4463SOL    HW214289   1.578   2.709   6.609
 4464SOL     OW14290   6.224   4.854   6.955
 4464SOL    HW114291   6.254   4.884   6.865
 4464SOL    HW214292   6.229   4.754   6.959
 4465SOL     OW14293   2.033   6.624   2.370
 4465SOL    HW114294   1.963   6.593   2.433
 4465SOL    HW214295   2.053   6.721   2.388
 4466SOL     OW14296   0.914   0.962   2.460
 4466SOL    HW114297   0.917   0.897   2.536
 4466SOL    HW214298   0.983   1.033   2.475
 4467SOL     OW14299   1.483   6.546   3.545
 4467SOL    HW114300   1.385   6.565   3.536
 4467SOL    HW214301   1.520   6.598   3.622
 4468SOL     OW14302   1.000   2.175   0.022
 4468SOL    HW114303   1.091   2.135   0.009
 4468SOL    HW214304   0.970   2.160   0.116
 4469SOL     OW14305   3.000   0.116   2.034
 4469SOL    HW114306   2.917   0.167   2.057
 4469SOL    HW214307   2.976   0.036   1.979
 4470SOL     OW14308   5.241   3.977   1.725
 4470SOL    HW114309   5.209   4.069   1.749
 4470SOL    HW214310   5.341   3.974   1.729
 4471SOL     OW14311   0.427   3.020   0.408
 4471SOL    HW114312   0.464   2.966   0.332
 4471SOL    HW214313   0.333   2.991   0.427
 4472SOL     OW14314   1.613   4.035   2.583
 4472SOL    HW114315   1.706   4.022   2.616
 4472SOL    HW214316   1.588   4.131   2.591
 4473SOL     OW14317   0.141   0.569   4.430
 4473SOL    HW114318   0.196   0.635   4.482
 4473SOL    HW214319   0.202   0.507   4.380
 4474SOL     OW14320   3.127   0.193   2.651
 4474SOL    HW114321   3.200   0.131   2.679
 4474SOL    HW214322   3.157   0.248   2.573
 4475SOL     OW14323   1.212   3.834   1.319
 4475SOL    HW114324   1.133   3.801   1.266
 4475SOL    HW214325   1.233   3.928   1.292
 4476SOL     OW14326   4.915   6.386   2.781
 4476SOL    HW114327   4.941   6.478   2.751
 4476SOL    HW214328   4.961   6.319   2.724
 4477SOL     OW14329   2.342   0.009   6.717
 4477SOL    HW114330   2.347   0.060   6.803
 4477SOL    HW214331   2.283   0.057   6.652
 4478SOL     OW14332   2.442   6.629   2.176
 4478SOL    HW114333   2.519   6.566   2.169
 4478SOL    HW214334   2.357   6.578   2.187
 4479SOL     OW14335   1.229   0.141   6.338
 4479SOL    HW114336   1.322   0.167   6.310
 4479SOL    HW214337   1.227   0.133   6.438
 4480SOL     OW14338   2.166   3.758   4.473
 4480SOL    HW114339   2.173   3.678   4.532
 4480SOL    HW214340   2.178   3.730   4.377
 4481SOL     OW14341   1.711   6.205   4.372
 4481SOL    HW114342   1.800   6.169   4.401
 4481SOL    HW214343   1.710   6.304   4.386
 4482SOL     OW14344   0.920   3.951   4.621
 4482SOL    HW114345   0.885   3.895   4.546
 4482SOL    HW214346   0.862   4.031   4.632
 4483SOL     OW14347   0.006   3.295   1.208
 4483SOL    HW114348   6.948   3.323   1.149
 4483SOL    HW214349   0.079   3.363   1.201
 4484SOL     OW14350   3.673   2.598   5.354
 4484SOL    HW114351   3.684   2.552   5.441
 4484SOL    HW214352   3.746   2.570   5.291
 4485SOL     OW14353   4.886   2.644   6.680
 4485SOL    HW114354   4.802   2.616   6.633
 4485SOL    HW214355   4.869   2.649   6.778
 4486SOL     OW14356   0.244   4.205   5.230
 4486SOL    HW114357   0.266   4.125   5.286
 4486SOL    HW214358   0.155   4.241   5.255
 4487SOL     OW14359   2.489   3.577   6.747
 4487SOL    HW114360   2.509   3.651   6.812
 4487SOL    HW214361   2.535   3.596   6.661
 4488SOL     OW14362   5.470   2.571   6.120
 4488SOL    HW114363   5.403   2.600   6.052
 4488SOL    HW214364   5.463   2.472   6.133
 4489SOL     OW14365   5.458   5.728   4.724
 4489SOL    HW114366   5.406   5.729   4.638
 4489SOL    HW214367   5.411   5.669   4.790
 4490SOL     OW14368   5.885   1.767   1.515
 4490SOL    HW114369   5.897   1.855   1.469
 4490SOL    HW214370   5.973   1.731   1.543
 4491SOL     OW14371   1.261   3.782   2.524
 4491SOL    HW114372   1.287   3.784   2.620
 4491SOL    HW214373   1.317   3.715   2.475
 4492SOL     OW14374   5.262   2.296   0.073
 4492SOL    HW114375   5.183   2.328   0.021
 4492SOL    HW214376   5.286   2.364   0.143
 4493SOL     OW14377   4.243   5.245   4.703
 4493SOL    HW114378   4.230   5.234   4.802
 4493SOL    HW214379   4.265   5.156   4.663
 4494SOL     OW14380   6.947   2.878   5.843
 4494SOL    HW114381   0.012   2.898   5.893
 4494SOL    HW214382   6.869   2.914   5.893
 4495SOL     OW14383   5.183   7.013   2.779
 4495SOL    HW114384   5.206   0.025   2.871
 4495SOL    HW214385   5.180   0.072   2.717
 4496SOL     OW14386   4.983   4.891   0.026
 4496SOL    HW114387   5.052   4.921   0.091
 4496SOL    HW214388   5.004   4.798   7.014
 4497SOL     OW14389   5.566   5.903   6.695
 4497SOL    HW114390   5.548   5.982   6.754
 4497SOL    HW214391   5.528   5.821   6.737
 4498SOL     OW14392   0.028   3.919   6.736
 4498SOL    HW114393   0.030   3.995   6.800
 4498SOL    HW214394   0.062   3.950   6.647
 4499SOL     OW14395   6.599   2.804   4.693
 4499SOL    HW114396   6.540   2.763   4.763
 4499SOL    HW214397   6.692   2.769   4.703
 4500SOL     OW14398   3.035   3.961   3.835
 4500SOL    HW114399   3.130   3.991   3.839
 4500SOL    HW214400   3.015   3.924   3.744
 4501SOL     OW14401   0.892   3.855   5.745
 4501SOL    HW114402   0.798   3.878   5.770
 4501SOL    HW214403   0.954   3.922   5.785
 4502SOL     OW14404   1.769   2.514   6.035
 4502SOL    HW114405   1.791   2.457   5.955
 4502SOL    HW214406   1.801   2.468   6.118
 4503SOL     OW14407   2.422   0.936   3.333
 4503SOL    HW114408   2.425   0.904   3.428
 4503SOL    HW214409   2.516   0.949   3.300
 4504SOL     OW14410   6.455   2.322   5.554
 4504SOL    HW114411   6.417   2.408   5.588
 4504SOL    HW214412   6.554   2.332   5.542
 4505SOL     OW14413   0.564   6.165   4.926
 4505SOL    HW114414   0.500   6.119   4.989
 4505SOL    HW214415   0.559   6.264   4.939
 4506SOL     OW14416   3.627   1.784   4.704
 4506SOL    HW114417   3.569   1.759   4.781
 4506SOL    HW214418   3.720   1.752   4.720
 4507SOL     OW14419   5.180   5.400   1.737
 4507SOL    HW114420   5.276   5.388   1.709
 4507SOL    HW214421   5.136   5.467   1.679
 4508SOL     OW14422   1.195   4.253   0.303
 4508SOL    HW114423   1.269   4.186   0.306
 4508SOL    HW214424   1.177   4.278   0.208
 4509SOL     OW14425   4.200   2.015   4.391
 4509SOL    HW114426   4.275   1.990   4.452
 4509SOL    HW214427   4.235   2.019   4.297
 4510SOL     OW14428   5.790   0.861   5.110
 4510SOL    HW114429   5.833   0.926   5.173
 4510SOL    HW214430   5.704   0.828   5.150
 4511SOL     OW14431   0.262   3.436   0.045
 4511SOL    HW114432   0.325   3.428   0.123
 4511SOL    HW214433   0.310   3.408   6.980
 4512SOL     OW14434   2.645   6.661   6.727
 4512SOL    HW114435   2.639   6.589   6.658
 4512SOL    HW214436   2.554   6.677   6.766
 4513SOL     OW14437   4.630   6.503   1.443
 4513SOL    HW114438   4.678   6.555   1.513
 4513SOL    HW214439   4.672   6.521   1.354
 4514SOL     OW14440   3.789   1.320   4.842
 4514SOL    HW114441   3.716   1.388   4.852
 4514SOL    HW214442   3.771   1.261   4.764
 4515SOL     OW14443   6.703   4.418   6.731
 4515SOL    HW114444   6.712   4.518   6.730
 4515SOL    HW214445   6.722   4.384   6.823
 4516SOL     OW14446   1.246   0.962   5.609
 4516SOL    HW114447   1.214   0.968   5.703
 4516SOL    HW214448   1.258   0.866   5.585
 4517SOL     OW14449   2.783   6.358   6.464
 4517SOL    HW114450   2.860   6.298   6.484
 4517SOL    HW214451   2.813   6.434   6.406
 4518SOL     OW14452   0.887   2.295   4.018
 4518SOL    HW114453   0.966   2.346   3.982
 4518SOL    HW214454   0.826   2.358   4.066
 4519SOL     OW14455   0.376   2.122   3.474
 4519SOL    HW114456   0.446   2.112   3.544
 4519SOL    HW214457   0.338   2.032   3.451
 4520SOL     OW14458   5.991   4.519   2.746
 4520SOL    HW114459   5.976   4.617   2.755
 4520SOL    HW214460   6.014   4.480   2.835
 4521SOL     OW14461   4.667   1.987   6.335
 4521SOL    HW114462   4.664   1.903   6.280
 4521SOL    HW214463   4.580   2.034   6.329
 4522SOL     OW14464   5.447   6.777   3.749
 4522SOL    HW114465   5.507   6.720   3.694
 4522SOL    HW214466   5.500   6.855   3.785
 4523SOL     OW14467   2.820   4.321   6.719
 4523SOL    HW114468   2.810   4.332   6.818
 4523SOL    HW214469   2.890   4.252   6.700
 4524SOL     OW14470   5.264   1.333   5.529
 4524SOL    HW114471   5.355   1.327   5.487
 4524SOL    HW214472   5.268   1.299   5.623
 4525SOL     OW14473   6.543   1.989   4.356
 4525SOL    HW114474   6.514   1.987   4.452
 4525SOL    HW214475   6.642   1.980   4.351
 4526SOL     OW14476   5.035   0.173   1.274
 4526SOL    HW114477   5.060   0.242   1.206
 4526SOL    HW214478   4.940   0.146   1.262
 4527SOL     OW14479   4.071   0.581   3.558
 4527SOL    HW114480   4.157   0.616   3.596
 4527SOL    HW214481   3.996   0.601   3.620
 4528SOL     OW14482   4.806   6.825   0.301
 4528SOL    HW114483   4.832   6.736   0.265
 4528SOL    HW214484   4.887   6.882   0.312
 4529SOL     OW14485   2.927   1.435   3.386
 4529SOL    HW114486   2.994   1.488   3.335
 4529SOL    HW214487   2.950   1.338   3.381
 4530SOL     OW14488   0.345   3.363   5.621
 4530SOL    HW114489   0.381   3.278   5.659
 4530SOL    HW214490   0.296   3.413   5.692
 4531SOL     OW14491   1.614   3.985   2.991
 4531SOL    HW114492   1.533   4.024   3.035
 4531SOL    HW214493   1.683   3.963   3.061
 4532SOL     OW14494   6.734   1.265   1.319
 4532SOL    HW114495   6.792   1.209   1.378
 4532SOL    HW214496   6.790   1.336   1.276
 4533SOL     OW14497   1.681   0.285   3.888
 4533SOL    HW114498   1.584   0.283   3.912
 4533SOL    HW214499   1.691   0.309   3.791
 4534SOL     OW14500   6.469   3.812   4.830
 4534SOL    HW114501   6.404   3.846   4.761
 4534SOL    HW214502   6.479   3.713   4.820
 4535SOL     OW14503   4.709   2.224   2.253
 4535SOL    HW114504   4.782   2.291   2.242
 4535SOL    HW214505   4.644   2.234   2.177
 4536SOL     OW14506   4.790   1.474   4.300
 4536SOL    HW114507   4.692   1.480   4.279
 4536SOL    HW214508   4.813   1.542   4.370
 4537SOL     OW14509   3.661   3.177   6.578
 4537SOL    HW114510   3.735   3.152   6.516
 4537SOL    HW214511   3.608   3.252   6.539
 4538SOL     OW14512   3.232   1.958   3.762
 4538SOL    HW114513   3.210   2.038   3.706
 4538SOL    HW214514   3.293   1.986   3.836
 4539SOL     OW14515   2.827   2.342   4.067
 4539SOL    HW114516   2.880   2.312   3.987
 4539SOL    HW214517   2.890   2.379   4.136
 4540SOL     OW14518   3.434   3.465   3.969
 4540SOL    HW114519   3.389   3.521   3.899
 4540SOL    HW214520   3.382   3.381   3.983
 4541SOL     OW14521   5.174   0.789   0.411
 4541SOL    HW114522   5.176   0.840   0.326
 4541SOL    HW214523   5.190   0.692   0.392
 4542SOL     OW14524   5.835   5.979   1.711
 4542SOL    HW114525   5.895   6.018   1.641
 4542SOL    HW214526   5.756   6.038   1.724
 4543SOL     OW14527   4.461   1.882   0.198
 4543SOL    HW114528   4.551   1.903   0.236
 4543SOL    HW214529   4.414   1.967   0.175
 4544SOL     OW14530   2.312   5.832   6.717
 4544SOL    HW114531   2.285   5.749   6.669
 4544SOL    HW214532   2.275   5.912   6.669
 4545SOL     OW14533   4.236   2.091   5.156
 4545SOL    HW114534   4.261   2.035   5.077
 4545SOL    HW214535   4.150   2.058   5.195
 4546SOL     OW14536   0.746   0.221   6.083
 4546SOL    HW114537   0.791   0.211   5.994
 4546SOL    HW214538   0.681   0.297   6.079
 4547SOL     OW14539   5.410   2.868   2.032
 4547SOL    HW114540   5.421   2.839   1.937
 4547SOL    HW214541   5.324   2.832   2.069
 4548SOL     OW14542   0.576   4.831   4.169
 4548SOL    HW114543   0.672   4.845   4.194
 4548SOL    HW214544   0.565   4.844   4.071
 4549SOL     OW14545   6.714   3.405   3.654
 4549SOL    HW114546   6.728   3.482   3.716
 4549SOL    HW214547   6.801   3.363   3.632
 4550SOL     OW14548   0.836   6.390   3.822
 4550SOL    HW114549   0.820   6.378   3.725
 4550SOL    HW214550   0.916   6.449   3.836
 4551SOL     OW14551   0.171   2.070   5.420
 4551SOL    HW114552   0.259   2.118   5.418
 4551SOL    HW214553   0.158   2.020   5.334
 4552SOL     OW14554   0.631   2.919   5.897
 4552SOL    HW114555   0.543   2.871   5.899
 4552SOL    HW214556   0.627   2.999   5.957
 4553SOL     OW14557   4.141   4.930   0.011
 4553SOL    HW114558   4.072   4.979   0.064
 4553SOL    HW214559   4.135   4.832   0.030
 4554SOL     OW14560   3.897   0.492   2.296
 4554SOL    HW114561   3.893   0.513   2.394
 4554SOL    HW214562   3.818   0.532   2.250
 4555SOL     OW14563   4.079   2.061   6.873
 4555SOL    HW114564   4.121   2.077   6.962
 4555SOL    HW214565   4.063   1.963   6.860
 4556SOL     OW14566   4.148   1.067   3.459
 4556SOL    HW114567   4.163   1.044   3.363
 4556SOL    HW214568   4.054   1.046   3.485
 4557SOL     OW14569   5.123   0.670   4.830
 4557SOL    HW114570   5.210   0.710   4.860
 4557SOL    HW214571   5.053   0.686   4.898
 4558SOL     OW14572   5.973   3.847   6.300
 4558SOL    HW114573   6.033   3.826   6.377
 4558SOL    HW214574   6.011   3.809   6.216
 4559SOL     OW14575   1.557   6.600   1.367
 4559SOL    HW114576   1.643   6.555   1.393
 4559SOL    HW214577   1.511   6.547   1.296
 4560SOL     OW14578   4.888   3.879   3.077
 4560SOL    HW114579   4.925   3.827   3.154
 4560SOL    HW214580   4.799   3.917   3.101
 4561SOL     OW14581   2.636   0.877   0.512
 4561SOL    HW114582   2.717   0.823   0.537
 4561SOL    HW214583   2.587   0.904   0.595
 4562SOL     OW14584   3.137   5.865   5.534
 4562SOL    HW114585   3.050   5.904   5.565
 4562SOL    HW214586   3.118   5.794   5.466
 4563SOL     OW14587   5.554   2.896   0.460
 4563SOL    HW114588   5.539   2.980   0.408
 4563SOL    HW214589   5.487   2.827   0.432
 4564SOL     OW14590   0.674   5.524   0.542
 4564SOL    HW114591   0.758   5.471   0.532
 4564SOL    HW214592   0.671   5.563   0.634
 4565SOL     OW14593   0.530   1.453   5.475
 4565SOL    HW114594   0.509   1.487   5.383
 4565SOL    HW214595   0.624   1.477   5.498
 4566SOL     OW14596   6.587   0.747   6.935
 4566SOL    HW114597   6.591   0.681   6.860
 4566SOL    HW214598   6.645   0.715   7.010
 4567SOL     OW14599   0.182   0.540   1.113
 4567SOL    HW114600   0.261   0.481   1.091
 4567SOL    HW214601   0.100   0.484   1.121
 4568SOL     OW14602   2.145   4.417   5.425
 4568SOL    HW114603   2.172   4.482   5.354
 4568SOL    HW214604   2.198   4.333   5.415
 4569SOL     OW14605   1.317   2.576   3.936
 4569SOL    HW114606   1.325   2.676   3.936
 4569SOL    HW214607   1.407   2.535   3.951
 4570SOL     OW14608   6.967   6.033   3.330
 4570SOL    HW114609   6.995   5.981   3.249
 4570SOL    HW214610   6.893   5.985   3.377
 4571SOL     OW14611   3.100   3.695   4.968
 4571SOL    HW114612   3.172   3.757   4.937
 4571SOL    HW214613   3.141   3.622   5.023
 4572SOL     OW14614   0.107   6.731   0.480
 4572SOL    HW114615   0.077   6.638   0.460
 4572SOL    HW214616   0.181   6.756   0.417
 4573SOL     OW14617   5.424   6.257   0.970
 4573SOL    HW114618   5.490   6.322   0.934
 4573SOL    HW214619   5.361   6.229   0.897
 4574SOL     OW14620   6.855   4.850   0.917
 4574SOL    HW114621   6.881   4.925   0.978
 4574SOL    HW214622   6.831   4.887   0.827
 4575SOL     OW14623   6.860   2.282   0.483
 4575SOL    HW114624   6.787   2.350   0.475
 4575SOL    HW214625   6.947   2.328   0.500
 4576SOL     OW14626   2.977   5.925   6.338
 4576SOL    HW114627   2.997   5.954   6.245
 4576SOL    HW214628   2.903   5.857   6.337
 4577SOL     OW14629   1.002   3.761   2.778
 4577SOL    HW114630   1.045   3.808   2.855
 4577SOL    HW214631   0.966   3.828   2.714
 4578SOL     OW14632   0.919   3.571   3.005
 4578SOL    HW114633   0.910   3.615   2.916
 4578SOL    HW214634   0.852   3.609   3.069
 4579SOL     OW14635   4.634   1.593   2.702
 4579SOL    HW114636   4.598   1.686   2.692
 4579SOL    HW214637   4.732   1.597   2.721
 4580SOL     OW14638   6.342   5.242   0.426
 4580SOL    HW114639   6.428   5.209   0.386
 4580SOL    HW214640   6.276   5.167   0.429
 4581SOL     OW14641   3.215   4.901   3.044
 4581SOL    HW114642   3.288   4.917   3.110
 4581SOL    HW214643   3.248   4.922   2.952
 4582SOL     OW14644   5.831   0.057   4.484
 4582SOL    HW114645   5.816   0.008   4.398
 4582SOL    HW214646   5.744   0.090   4.519
 4583SOL     OW14647   3.023   1.995   5.074
 4583SOL    HW114648   2.932   1.962   5.048
 4583SOL    HW214649   3.026   2.094   5.070
 4584SOL     OW14650   0.105   5.646   5.944
 4584SOL    HW114651   0.041   5.687   6.010
 4584SOL    HW214652   0.068   5.658   5.851
 4585SOL     OW14653   3.040   6.655   2.963
 4585SOL    HW114654   3.054   6.557   2.953
 4585SOL    HW214655   2.960   6.684   2.910
 4586SOL     OW14656   3.453   4.511   1.089
 4586SOL    HW114657   3.551   4.505   1.103
 4586SOL    HW214658   3.430   4.599   1.047
 4587SOL     OW14659   4.180   3.511   1.748
 4587SOL    HW114660   4.160   3.490   1.844
 4587SOL    HW214661   4.111   3.467   1.690
 4588SOL     OW14662   3.677   3.775   5.351
 4588SOL    HW114663   3.675   3.863   5.398
 4588SOL    HW214664   3.700   3.789   5.254
 4589SOL     OW14665   6.011   2.098   2.365
 4589SOL    HW114666   6.052   2.108   2.456
 4589SOL    HW214667   6.077   2.126   2.295
 4590SOL     OW14668   4.655   6.018   2.152
 4590SOL    HW114669   4.574   6.077   2.160
 4590SOL    HW214670   4.626   5.923   2.146
 4591SOL     OW14671   6.887   5.859   5.494
 4591SOL    HW114672   6.900   5.803   5.576
 4591SOL    HW214673   6.822   5.814   5.432
 4592SOL     OW14674   4.022   3.124   1.068
 4592SOL    HW114675   3.965   3.065   1.126
 4592SOL    HW214676   4.057   3.071   0.991
 4593SOL     OW14677   4.198   5.507   3.184
 4593SOL    HW114678   4.278   5.544   3.137
 4593SOL    HW214679   4.216   5.506   3.283
 4594SOL     OW14680   3.930   1.610   2.240
 4594SOL    HW114681   3.879   1.584   2.322
 4594SOL    HW214682   3.873   1.597   2.160
 4595SOL     OW14683   3.624   2.770   6.704
 4595SOL    HW114684   3.688   2.722   6.764
 4595SOL    HW214685   3.595   2.710   6.630
 4596SOL     OW14686   6.179   6.231   2.085
 4596SOL    HW114687   6.124   6.195   2.010
 4596SOL    HW214688   6.172   6.331   2.088
 4597SOL     OW14689   5.520   5.474   6.428
 4597SOL    HW114690   5.550   5.424   6.510
 4597SOL    HW214691   5.542   5.421   6.347
 4598SOL     OW14692   1.446   4.925   6.204
 4598SOL    HW114693   1.468   4.869   6.125
 4598SOL    HW214694   1.359   4.895   6.243
 4599SOL     OW14695   1.583   3.766   1.343
 4599SOL    HW114696   1.512   3.767   1.272
 4599SOL    HW214697   1.574   3.684   1.399
 4600SOL     OW14698   2.912   5.421   6.213
 4600SOL    HW114699   2.974   5.425   6.291
 4600SOL    HW214700   2.897   5.326   6.187
 4601SOL     OW14701   1.606   0.806   5.629
 4601SOL    HW114702   1.682   0.840   5.575
 4601SOL    HW214703   1.584   0.713   5.602
 4602SOL     OW14704   1.437   6.508   1.149
 4602SOL    HW114705   1.408   6.465   1.064
 4602SOL    HW214706   1.357   6.538   1.200
 4603SOL     OW14707   3.663   6.245   1.615
 4603SOL    HW114708   3.631   6.264   1.522
 4603SOL    HW214709   3.708   6.326   1.651
 4604SOL     OW14710   3.965   0.814   1.289
 4604SOL    HW114711   4.006   0.884   1.348
 4604SOL    HW214712   3.877   0.786   1.327
 4605SOL     OW14713   4.721   0.919   4.176
 4605SOL    HW114714   4.683   0.997   4.227
 4605SOL    HW214715   4.734   0.946   4.080
 4606SOL     OW14716   0.025   6.703   3.542
 4606SOL    HW114717   0.057   6.639   3.472
 4606SOL    HW214718   6.962   6.666   3.585
 4607SOL     OW14719   2.653   2.376   0.969
 4607SOL    HW114720   2.595   2.452   0.998
 4607SOL    HW214721   2.603   2.317   0.906
 4608SOL     OW14722   1.278   5.103   5.219
 4608SOL    HW114723   1.255   5.038   5.292
 4608SOL    HW214724   1.246   5.194   5.244
 4609SOL     OW14725   4.360   5.731   6.374
 4609SOL    HW114726   4.347   5.803   6.306
 4609SOL    HW214727   4.454   5.733   6.407
 4610SOL     OW14728   0.178   2.371   0.137
 4610SOL    HW114729   0.232   2.404   0.214
 4610SOL    HW214730   0.100   2.318   0.171
 4611SOL     OW14731   6.160   4.126   0.222
 4611SOL    HW114732   6.130   4.032   0.237
 4611SOL    HW214733   6.124   4.184   0.295
 4612SOL     OW14734   1.817   5.857   6.668
 4612SOL    HW114735   1.723   5.862   6.636
 4612SOL    HW214736   1.821   5.801   6.751
 4613SOL     OW14737   2.444   5.756   3.229
 4613SOL    HW114738   2.522   5.798   3.275
 4613SOL    HW214739   2.473   5.716   3.142
 4614SOL     OW14740   1.508   5.150   6.537
 4614SOL    HW114741   1.465   5.060   6.534
 4614SOL    HW214742   1.568   5.161   6.458
 4615SOL     OW14743   1.652   1.489   0.629
 4615SOL    HW114744   1.652   1.531   0.720
 4615SOL    HW214745   1.712   1.410   0.629
 4616SOL     OW14746   6.669   0.609   6.705
 4616SOL    HW114747   6.745   0.548   6.685
 4616SOL    HW214748   6.690   0.701   6.674
 4617SOL     OW14749   1.018   2.594   2.565
 4617SOL    HW114750   0.936   2.645   2.539
 4617SOL    HW214751   1.077   2.582   2.486
 4618SOL     OW14752   1.211   1.812   5.479
 4618SOL    HW114753   1.282   1.831   5.411
 4618SOL    HW214754   1.204   1.888   5.543
 4619SOL     OW14755   4.427   0.240   3.619
 4619SOL    HW114756   4.374   0.236   3.704
 4619SOL    HW214757   4.365   0.254   3.542
 4620SOL     OW14758   3.717   4.354   6.975
 4620SOL    HW114759   3.643   4.393   0.011
 4620SOL    HW214760   3.695   4.363   6.878
 4621SOL     OW14761   6.671   2.180   4.690
 4621SOL    HW114762   6.720   2.202   4.774
 4621SOL    HW214763   6.668   2.080   4.679
 4622SOL     OW14764   1.293   2.698   0.991
 4622SOL    HW114765   1.374   2.751   1.014
 4622SOL    HW214766   1.318   2.602   0.980
 4623SOL     OW14767   0.233   5.274   1.058
 4623SOL    HW114768   0.206   5.354   1.113
 4623SOL    HW214769   0.153   5.237   1.011
 4624SOL     OW14770   4.606   0.914   3.876
 4624SOL    HW114771   4.670   0.857   3.824
 4624SOL    HW214772   4.521   0.863   3.890
 4625SOL     OW14773   1.701   4.376   0.096
 4625SOL    HW114774   1.658   4.451   0.146
 4625SOL    HW214775   1.713   4.298   0.157
 4626SOL     OW14776   6.464   4.388   1.740
 4626SOL    HW114777   6.442   4.465   1.680
 4626SOL    HW214778   6.423   4.404   1.831
 4627SOL     OW14779   4.080   5.702   6.128
 4627SOL    HW114780   3.984   5.718   6.151
 4627SOL    HW214781   4.108   5.613   6.162
 4628SOL     OW14782   5.757   4.729   2.544
 4628SOL    HW114783   5.736   4.805   2.483
 4628SOL    HW214784   5.819   4.760   2.616
 4629SOL     OW14785   2.271   4.685   6.105
 4629SOL    HW114786   2.341   4.740   6.149
 4629SOL    HW214787   2.216   4.744   6.045
 4630SOL     OW14788   2.654   5.860   3.981
 4630SOL    HW114789   2.555   5.844   3.983
 4630SOL    HW214790   2.696   5.821   4.063
 4631SOL     OW14791   2.425   6.643   3.486
 4631SOL    HW114792   2.422   6.653   3.387
 4631SOL    HW214793   2.469   6.724   3.526
 4632SOL     OW14794   4.322   5.075   3.938
 4632SOL    HW114795   4.253   5.143   3.915
 4632SOL    HW214796   4.384   5.113   4.007
 4633SOL     OW14797   0.070   1.841   5.127
 4633SOL    HW114798   0.093   1.745   5.112
 4633SOL    HW214799   0.149   1.898   5.106
 4634SOL     OW14800   2.826   4.412   7.007
 4634SOL    HW114801   2.832   4.360   0.072
 4634SOL    HW214802   2.906   4.471   6.997
 4635SOL     OW14803   6.069   3.203   2.152
 4635SOL    HW114804   6.113   3.265   2.088
 4635SOL    HW214805   5.993   3.251   2.197
 4636SOL     OW14806   2.909   5.398   6.686
 4636SOL    HW114807   2.980   5.422   6.620
 4636SOL    HW214808   2.901   5.299   6.691
 4637SOL     OW14809   1.150   0.748   6.741
 4637SOL    HW114810   1.243   0.713   6.735
 4637SOL    HW214811   1.088   0.674   6.769
 4638SOL     OW14812   3.794   2.922   6.252
 4638SOL    HW114813   3.867   2.884   6.196
 4638SOL    HW214814   3.827   3.004   6.299
 4639SOL     OW14815   1.314   4.235   6.084
 4639SOL    HW114816   1.334   4.175   6.162
 4639SOL    HW214817   1.323   4.183   5.999
 4640SOL     OW14818   5.023   4.687   3.917
 4640SOL    HW114819   5.022   4.725   3.824
 4640SOL    HW214820   4.944   4.627   3.929
 4641SOL     OW14821   2.568   4.912   4.171
 4641SOL    HW114822   2.631   4.967   4.226
 4641SOL    HW214823   2.611   4.892   4.082
 4642SOL     OW14824   6.364   5.523   4.885
 4642SOL    HW114825   6.313   5.504   4.970
 4642SOL    HW214826   6.461   5.503   4.899
 4643SOL     OW14827   4.523   2.447   0.213
 4643SOL    HW114828   4.593   2.501   0.260
 4643SOL    HW214829   4.465   2.508   0.158
 4644SOL     OW14830   1.277   5.475   4.905
 4644SOL    HW114831   1.250   5.570   4.891
 4644SOL    HW214832   1.377   5.469   4.907
 4645SOL     OW14833   2.092   6.677   4.479
 4645SOL    HW114834   2.053   6.604   4.423
 4645SOL    HW214835   2.091   6.650   4.575
 4646SOL     OW14836   2.712   0.224   2.399
 4646SOL    HW114837   2.759   0.293   2.453
 4646SOL    HW214838   2.769   0.143   2.391
 4647SOL     OW14839   1.234   6.658   3.457
 4647SOL    HW114840   1.190   6.745   3.479
 4647SOL    HW214841   1.200   6.587   3.519
 4648SOL     OW14842   3.712   6.479   1.747
 4648SOL    HW114843   3.700   6.441   1.839
 4648SOL    HW214844   3.667   6.568   1.742
 4649SOL     OW14845   4.985   0.912   5.914
 4649SOL    HW114846   4.946   0.847   5.979
 4649SOL    HW214847   4.912   0.972   5.879
 4650SOL     OW14848   3.713   6.036   2.711
 4650SOL    HW114849   3.697   5.971   2.785
 4650SOL    HW214850   3.768   5.992   2.640
 4651SOL     OW14851   0.668   2.326   1.845
 4651SOL    HW114852   0.658   2.339   1.747
 4651SOL    HW214853   0.579   2.336   1.890
 4652SOL     OW14854   0.983   6.838   3.823
 4652SOL    HW114855   0.922   6.850   3.902
 4652SOL    HW214856   0.939   6.778   3.756
 4653SOL     OW14857   6.711   6.137   0.358
 4653SOL    HW114858   6.634   6.073   0.360
 4653SOL    HW214859   6.781   6.103   0.295
 4654SOL     OW14860   0.811   0.086   0.354
 4654SOL    HW114861   0.770   7.018   0.381
 4654SOL    HW214862   0.755   0.130   0.284
 4655SOL     OW14863   0.725   5.108   2.641
 4655SOL    HW114864   0.709   5.160   2.726
 4655SOL    HW214865   0.721   5.010   2.661
 4656SOL     OW14866   0.995   6.899   3.322
 4656SOL    HW114867   1.028   6.909   3.416
 4656SOL    HW214868   0.959   6.987   3.290
 4657SOL     OW14869   5.445   6.905   1.697
 4657SOL    HW114870   5.369   6.930   1.758
 4657SOL    HW214871   5.420   6.928   1.603
 4658SOL     OW14872   4.141   0.226   2.873
 4658SOL    HW114873   4.062   0.284   2.857
 4658SOL    HW214874   4.155   0.166   2.794
 4659SOL     OW14875   1.721   3.098   5.434
 4659SOL    HW114876   1.748   3.083   5.339
 4659SOL    HW214877   1.634   3.147   5.436
 4660SOL     OW14878   1.610   1.619   4.981
 4660SOL    HW114879   1.585   1.686   5.050
 4660SOL    HW214880   1.533   1.606   4.917
 4661SOL     OW14881   3.734   3.800   4.899
 4661SOL    HW114882   3.657   3.739   4.920
 4661SOL    HW214883   3.750   3.861   4.977
 4662SOL     OW14884   4.449   0.519   5.517
 4662SOL    HW114885   4.540   0.510   5.477
 4662SOL    HW214886   4.431   0.616   5.538
 4663SOL     OW14887   0.244   2.028   2.452
 4663SOL    HW114888   0.265   1.970   2.373
 4663SOL    HW214889   0.176   2.096   2.427
 4664SOL     OW14890   2.077   2.338   6.534
 4664SOL    HW114891   1.992   2.286   6.543
 4664SOL    HW214892   2.056   2.431   6.503
 4665SOL     OW14893   4.779   6.957   6.961
 4665SOL    HW114894   4.863   6.937   7.012
 4665SOL    HW214895   4.756   0.034   6.972
 4666SOL     OW14896   2.190   1.061   0.253
 4666SOL    HW114897   2.128   0.986   0.277
 4666SOL    HW214898   2.160   1.102   0.167
 4667SOL     OW14899   6.761   4.564   6.044
 4667SOL    HW114900   6.683   4.585   6.102
 4667SOL    HW214901   6.732   4.505   5.969
 4668SOL     OW14902   0.531   1.360   4.823
 4668SOL    HW114903   0.532   1.328   4.728
 4668SOL    HW214904   0.577   1.448   4.829
 4669SOL     OW14905   2.324   5.923   0.491
 4669SOL    HW114906   2.394   5.853   0.500
 4669SOL    HW214907   2.268   5.925   0.574
 4670SOL     OW14908   3.148   1.059   4.826
 4670SOL    HW114909   3.123   1.087   4.919
 4670SOL    HW214910   3.247   1.048   4.819
 4671SOL     OW14911   5.992   3.272   1.483
 4671SOL    HW114912   5.961   3.335   1.554
 4671SOL    HW214913   6.037   3.323   1.410
 4672SOL     OW14914   2.645   4.367   6.184
 4672SOL    HW114915   2.621   4.329   6.273
 4672SOL    HW214916   2.562   4.386   6.132
 4673SOL     OW14917   3.489   6.751   1.431
 4673SOL    HW114918   3.431   6.828   1.456
 4673SOL    HW214919   3.585   6.779   1.432
 4674SOL     OW14920   5.621   6.177   5.670
 4674SOL    HW114921   5.524   6.180   5.644
 4674SOL    HW214922   5.641   6.089   5.713
 4675SOL     OW14923   1.467   3.605   1.153
 4675SOL    HW114924   1.406   3.539   1.198
 4675SOL    HW214925   1.551   3.559   1.127
 4676SOL     OW14926   1.186   5.731   3.528
 4676SOL    HW114927   1.271   5.680   3.534
 4676SOL    HW214928   1.178   5.773   3.438
 4677SOL     OW14929   1.759   1.661   1.037
 4677SOL    HW114930   1.719   1.586   1.090
 4677SOL    HW214931   1.718   1.747   1.066
 4678SOL     OW14932   1.955   4.243   2.779
 4678SOL    HW114933   1.911   4.166   2.732
 4678SOL    HW214934   2.026   4.209   2.841
 4679SOL     OW14935   4.918   6.467   1.804
 4679SOL    HW114936   4.989   6.414   1.852
 4679SOL    HW214937   4.829   6.426   1.821
 4680SOL     OW14938   3.683   0.280   1.288
 4680SOL    HW114939   3.643   0.354   1.342
 4680SOL    HW214940   3.702   0.314   1.195
 4681SOL     OW14941   4.815   4.794   6.775
 4681SOL    HW114942   4.752   4.862   6.812
 4681SOL    HW214943   4.879   4.765   6.847
 4682SOL     OW14944   5.259   3.426   6.239
 4682SOL    HW114945   5.294   3.337   6.213
 4682SOL    HW214946   5.240   3.480   6.157
 4683SOL     OW14947   6.122   4.643   2.990
 4683SOL    HW114948   6.210   4.596   2.985
 4683SOL    HW214949   6.065   4.599   3.059
 4684SOL     OW14950   4.278   6.054   6.549
 4684SOL    HW114951   4.179   6.067   6.556
 4684SOL    HW214952   4.301   5.959   6.572
 4685SOL     OW14953   1.857   3.900   6.290
 4685SOL    HW114954   1.868   3.909   6.191
 4685SOL    HW214955   1.793   3.970   6.323
 4686SOL     OW14956   3.673   5.645   0.170
 4686SOL    HW114957   3.688   5.611   0.263
 4686SOL    HW214958   3.669   5.567   0.107
 4687SOL     OW14959   3.700   1.589   3.578
 4687SOL    HW114960   3.739   1.673   3.618
 4687SOL    HW214961   3.701   1.597   3.478
 4688SOL     OW14962   5.630   2.658   5.871
 4688SOL    HW114963   5.688   2.644   5.951
 4688SOL    HW214964   5.534   2.657   5.900
 4689SOL     OW14965   5.312   0.415   1.420
 4689SOL    HW114966   5.394   0.393   1.367
 4689SOL    HW214967   5.247   0.463   1.363
 4690SOL     OW14968   1.939   0.840   1.271
 4690SOL    HW114969   1.886   0.849   1.356
 4690SOL    HW214970   1.922   0.920   1.214
 4691SOL     OW14971   4.617   4.448   0.694
 4691SOL    HW114972   4.630   4.499   0.780
 4691SOL    HW214973   4.524   4.460   0.662
 4692SOL     OW14974   6.329   4.273   2.842
 4692SOL    HW114975   6.412   4.223   2.818
 4692SOL    HW214976   6.298   4.245   2.933
 4693SOL     OW14977   1.530   1.310   4.297
 4693SOL    HW114978   1.613   1.256   4.313
 4693SOL    HW214979   1.540   1.362   4.212
 4694SOL     OW14980   2.266   1.726   0.436
 4694SOL    HW114981   2.255   1.697   0.341
 4694SOL    HW214982   2.271   1.645   0.495
 4695SOL     OW14983   1.766   5.531   0.509
 4695SOL    HW114984   1.735   5.436   0.501
 4695SOL    HW214985   1.723   5.573   0.589
 4696SOL     OW14986   0.543   5.305   5.999
 4696SOL    HW114987   0.537   5.243   5.921
 4696SOL    HW214988   0.454   5.346   6.017
 4697SOL     OW14989   1.175   3.343   2.184
 4697SOL    HW114990   1.257   3.290   2.165
 4697SOL    HW214991   1.131   3.309   2.268
 4698SOL     OW14992   4.151   0.309   3.234
 4698SOL    HW114993   4.202   0.374   3.290
 4698SOL    HW214994   4.173   0.324   3.137
 4699SOL     OW14995   0.513   6.826   2.260
 4699SOL    HW114996   0.579   6.900   2.247
 4699SOL    HW214997   0.546   6.765   2.333
 4700SOL     OW14998   6.745   1.623   2.684
 4700SOL    HW114999   6.654   1.624   2.642
 4700SOL    HW215000   6.765   1.532   2.719
 4701SOL     OW15001   3.500   1.894   2.308
 4701SOL    HW115002   3.567   1.960   2.276
 4701SOL    HW215003   3.475   1.832   2.234
 4702SOL     OW15004   4.847   5.151   0.141
 4702SOL    HW115005   4.857   5.061   0.183
 4702SOL    HW215006   4.866   5.222   0.209
 4703SOL     OW15007   1.298   5.583   2.290
 4703SOL    HW115008   1.259   5.671   2.315
 4703SOL    HW215009   1.235   5.533   2.231
 4704SOL     OW15010   0.176   6.421   5.486
 4704SOL    HW115011   0.242   6.484   5.529
 4704SOL    HW215012   0.214   6.387   5.400
 4705SOL     OW15013   3.236   2.635   0.821
 4705SOL    HW115014   3.332   2.617   0.801
 4705SOL    HW215015   3.229   2.722   0.870
 4706SOL     OW15016   0.896   0.262   1.013
 4706SOL    HW115017   0.855   0.272   0.923
 4706SOL    HW215018   0.826   0.233   1.079
 4707SOL     OW15019   1.361   6.132   1.509
 4707SOL    HW115020   1.431   6.136   1.581
 4707SOL    HW215021   1.406   6.135   1.420
 4708SOL     OW15022   1.399   2.145   5.142
 4708SOL    HW115023   1.443   2.092   5.215
 4708SOL    HW215024   1.367   2.083   5.071
 4709SOL     OW15025   4.622   5.126   4.746
 4709SOL    HW115026   4.558   5.103   4.819
 4709SOL    HW215027   4.627   5.225   4.735
 4710SOL     OW15028   6.087   6.823   4.470
 4710SOL    HW115029   6.175   6.838   4.515
 4710SOL    HW215030   6.022   6.892   4.500
 4711SOL     OW15031   6.445   2.882   3.672
 4711SOL    HW115032   6.504   2.804   3.650
 4711SOL    HW215033   6.359   2.849   3.711
 4712SOL     OW15034   4.634   4.666   5.957
 4712SOL    HW115035   4.637   4.703   5.864
 4712SOL    HW215036   4.716   4.611   5.974
 4713SOL     OW15037   5.437   5.817   1.034
 4713SOL    HW115038   5.402   5.738   1.084
 4713SOL    HW215039   5.487   5.877   1.096
 4714SOL     OW15040   6.582   1.746   6.289
 4714SOL    HW115041   6.490   1.725   6.322
 4714SOL    HW215042   6.603   1.690   6.209
 4715SOL     OW15043   6.061   2.324   1.362
 4715SOL    HW115044   6.128   2.304   1.290
 4715SOL    HW215045   6.080   2.414   1.401
 4716SOL     OW15046   4.709   5.513   5.843
 4716SOL    HW115047   4.707   5.490   5.746
 4716SOL    HW215048   4.632   5.469   5.890
 4717SOL     OW15049   2.174   5.717   5.696
 4717SOL    HW115050   2.267   5.679   5.695
 4717SOL    HW215051   2.132   5.705   5.606
 4718SOL     OW15052   5.135   3.054   0.906
 4718SOL    HW115053   5.094   2.967   0.878
 4718SOL    HW215054   5.223   3.065   0.860
 4719SOL     OW15055   5.552   3.409   3.620
 4719SOL    HW115056   5.476   3.354   3.586
 4719SOL    HW215057   5.622   3.415   3.549
 4720SOL     OW15058   3.104   4.719   6.383
 4720SOL    HW115059   3.189   4.674   6.412
 4720SOL    HW215060   3.026   4.659   6.402
 4721SOL     OW15061   6.089   2.846   1.348
 4721SOL    HW115062   6.173   2.865   1.399
 4721SOL    HW215063   6.097   2.880   1.255
 4722SOL     OW15064   0.771   5.132   0.490
 4722SOL    HW115065   0.731   5.205   0.434
 4722SOL    HW215066   0.733   5.044   0.462
 4723SOL     OW15067   3.446   4.182   5.281
 4723SOL    HW115068   3.381   4.131   5.225
 4723SOL    HW215069   3.513   4.120   5.320
 4724SOL     OW15070   6.884   6.576   4.124
 4724SOL    HW115071   6.872   6.500   4.187
 4724SOL    HW215072   6.834   6.559   4.039
 4725SOL     OW15073   6.150   5.049   0.399
 4725SOL    HW115074   6.143   5.062   0.300
 4725SOL    HW215075   6.059   5.053   0.439
 4726SOL     OW15076   1.765   3.156   5.810
 4726SOL    HW115077   1.841   3.128   5.753
 4726SOL    HW215078   1.798   3.176   5.903
 4727SOL     OW15079   0.630   5.898   0.186
 4727SOL    HW115080   0.668   5.867   0.099
 4727SOL    HW215081   0.608   5.819   0.243
 4728SOL     OW15082   6.424   1.808   2.749
 4728SOL    HW115083   6.472   1.765   2.673
 4728SOL    HW215084   6.348   1.863   2.714
 4729SOL     OW15085   4.968   0.172   0.076
 4729SOL    HW115086   5.010   0.228   0.005
 4729SOL    HW215087   5.039   0.137   0.137
 4730SOL     OW15088   3.739   6.347   5.049
 4730SOL    HW115089   3.695   6.420   5.102
 4730SOL    HW215090   3.807   6.387   4.988
 4731SOL     OW15091   3.124   0.720   0.916
 4731SOL    HW115092   3.075   0.649   0.966
 4731SOL    HW215093   3.174   0.680   0.840
 4732SOL     OW15094   0.917   3.918   5.188
 4732SOL    HW115095   0.953   3.872   5.269
 4732SOL    HW215096   0.836   3.972   5.214
 4733SOL     OW15097   1.943   4.562   2.973
 4733SOL    HW115098   1.890   4.498   2.918
 4733SOL    HW215099   2.040   4.538   2.969
 4734SOL     OW15100   5.162   3.304   6.717
 4734SOL    HW115101   5.176   3.325   6.814
 4734SOL    HW215102   5.078   3.350   6.685
 4735SOL     OW15103   6.818   5.891   3.524
 4735SOL    HW115104   6.727   5.895   3.566
 4735SOL    HW215105   6.862   5.804   3.548
 4736SOL     OW15106   6.055   1.969   4.128
 4736SOL    HW115107   6.122   1.962   4.202
 4736SOL    HW215108   5.964   1.952   4.166
 4737SOL     OW15109   2.148   3.976   0.566
 4737SOL    HW115110   2.146   3.962   0.467
 4737SOL    HW215111   2.061   4.013   0.597
 4738SOL     OW15112   3.460   6.666   3.770
 4738SOL    HW115113   3.360   6.672   3.777
 4738SOL    HW215114   3.499   6.758   3.773
 4739SOL     OW15115   5.751   2.516   3.886
 4739SOL    HW115116   5.738   2.571   3.803
 4739SOL    HW215117   5.735   2.573   3.966
 4740SOL     OW15118   0.310   0.527   1.418
 4740SOL    HW115119   0.247   0.516   1.341
 4740SOL    HW215120   0.405   0.520   1.385
 4741SOL     OW15121   4.657   5.087   1.330
 4741SOL    HW115122   4.646   4.991   1.304
 4741SOL    HW215123   4.569   5.134   1.321
 4742SOL     OW15124   2.418   5.235   1.404
 4742SOL    HW115125   2.461   5.285   1.329
 4742SOL    HW215126   2.465   5.258   1.490
 4743SOL     OW15127   2.610   0.799   5.909
 4743SOL    HW115128   2.642   0.894   5.900
 4743SOL    HW215129   2.516   0.799   5.944
 4744SOL     OW15130   2.565   2.571   5.406
 4744SOL    HW115131   2.587   2.664   5.435
 4744SOL    HW215132   2.469   2.567   5.379
 4745SOL     OW15133   2.987   5.072   5.965
 4745SOL    HW115134   2.996   5.162   5.924
 4745SOL    HW215135   3.077   5.032   5.980
 4746SOL     OW15136   5.758   5.635   1.065
 4746SOL    HW115137   5.738   5.590   0.978
 4746SOL    HW215138   5.762   5.734   1.052
 4747SOL     OW15139   0.718   3.057   6.753
 4747SOL    HW115140   0.802   3.087   6.797
 4747SOL    HW215141   0.730   3.056   6.654
 4748SOL     OW15142   0.961   0.334   1.584
 4748SOL    HW115143   1.054   0.320   1.617
 4748SOL    HW215144   0.907   0.381   1.655
 4749SOL     OW15145   3.028   6.162   6.479
 4749SOL    HW115146   3.012   6.171   6.577
 4749SOL    HW215147   2.976   6.084   6.444
 4750SOL     OW15148   0.076   1.746   4.518
 4750SOL    HW115149   0.168   1.783   4.512
 4750SOL    HW215150   0.009   1.818   4.501
 4751SOL     OW15151   1.877   3.381   7.017
 4751SOL    HW115152   1.973   3.408   7.013
 4751SOL    HW215153   1.869   3.292   0.044
 4752SOL     OW15154   2.509   6.155   0.647
 4752SOL    HW115155   2.419   6.195   0.663
 4752SOL    HW215156   2.514   6.123   0.552
 4753SOL     OW15157   6.000   0.272   4.495
 4753SOL    HW115158   6.070   0.201   4.504
 4753SOL    HW215159   5.910   0.229   4.493
 4754SOL     OW15160   5.764   0.768   6.289
 4754SOL    HW115161   5.832   0.697   6.272
 4754SOL    HW215162   5.761   0.831   6.211
 4755SOL     OW15163   2.271   0.418   6.201
 4755SOL    HW115164   2.322   0.364   6.267
 4755SOL    HW215165   2.189   0.456   6.246
 4756SOL     OW15166   5.921   2.592   1.905
 4756SOL    HW115167   5.830   2.550   1.902
 4756SOL    HW215168   5.918   2.681   1.859
 4757SOL     OW15169   2.334   2.388   2.032
 4757SOL    HW115170   2.255   2.449   2.041
 4757SOL    HW215171   2.412   2.426   2.081
 4758SOL     OW15172   4.072   6.190   4.736
 4758SOL    HW115173   4.000   6.123   4.717
 4758SOL    HW215174   4.079   6.205   4.834
 4759SOL     OW15175   5.101   5.388   4.887
 4759SOL    HW115176   5.080   5.356   4.980
 4759SOL    HW215177   5.053   5.331   4.821
 4760SOL     OW15178   2.876   1.557   1.294
 4760SOL    HW115179   2.952   1.594   1.240
 4760SOL    HW215180   2.903   1.470   1.335
 4761SOL     OW15181   6.480   0.426   6.734
 4761SOL    HW115182   6.530   0.508   6.708
 4761SOL    HW215183   6.485   0.358   6.660
 4762SOL     OW15184   2.222   4.642   2.736
 4762SOL    HW115185   2.282   4.722   2.737
 4762SOL    HW215186   2.264   4.571   2.679
 4763SOL     OW15187   5.803   5.707   3.024
 4763SOL    HW115188   5.795   5.793   2.974
 4763SOL    HW215189   5.892   5.702   3.068
 4764SOL     OW15190   4.675   4.199   5.164
 4764SOL    HW115191   4.693   4.147   5.081
 4764SOL    HW215192   4.762   4.219   5.210
 4765SOL     OW15193   4.858   6.432   4.781
 4765SOL    HW115194   4.922   6.492   4.733
 4765SOL    HW215195   4.869   6.442   4.880
 4766SOL     OW15196   3.624   0.603   3.482
 4766SOL    HW115197   3.658   0.682   3.431
 4766SOL    HW215198   3.647   0.614   3.579
 4767SOL     OW15199   4.164   6.316   0.548
 4767SOL    HW115200   4.162   6.411   0.517
 4767SOL    HW215201   4.113   6.259   0.484
 4768SOL     OW15202   5.393   1.984   4.596
 4768SOL    HW115203   5.317   2.046   4.615
 4768SOL    HW215204   5.359   1.891   4.585
 4769SOL     OW15205   4.030   5.039   1.263
 4769SOL    HW115206   4.098   4.971   1.291
 4769SOL    HW215207   3.943   5.019   1.308
 4770SOL     OW15208   2.181   0.352   3.376
 4770SOL    HW115209   2.254   0.296   3.336
 4770SOL    HW215210   2.096   0.337   3.325
 4771SOL     OW15211   3.266   5.021   5.917
 4771SOL    HW115212   3.350   4.969   5.932
 4771SOL    HW215213   3.289   5.114   5.890
 4772SOL     OW15214   2.509   6.617   1.000
 4772SOL    HW115215   2.547   6.643   0.912
 4772SOL    HW215216   2.462   6.529   0.992
 4773SOL     OW15217   6.995   5.915   4.604
 4773SOL    HW115218   7.007   5.912   4.505
 4773SOL    HW215219   6.937   5.839   4.634
 4774SOL     OW15220   0.600   2.980   2.757
 4774SOL    HW115221   0.523   2.938   2.806
 4774SOL    HW215222   0.608   2.938   2.666
 4775SOL     OW15223   5.795   0.356   2.976
 4775SOL    HW115224   5.822   0.332   3.070
 4775SOL    HW215225   5.703   0.321   2.959
 4776SOL     OW15226   2.680   6.757   3.069
 4776SOL    HW115227   2.766   6.804   3.090
 4776SOL    HW215228   2.697   6.686   3.000
 4777SOL     OW15229   2.378   4.325   1.057
 4777SOL    HW115230   2.284   4.339   1.026
 4777SOL    HW215231   2.377   4.290   1.151
 4778SOL     OW15232   5.659   2.499   2.011
 4778SOL    HW115233   5.600   2.484   1.932
 4778SOL    HW215234   5.628   2.580   2.061
 4779SOL     OW15235   6.569   0.277   2.515
 4779SOL    HW115236   6.556   0.360   2.569
 4779SOL    HW215237   6.631   0.296   2.438
 4780SOL     OW15238   0.967   0.390   6.515
 4780SOL    HW115239   0.942   0.458   6.583
 4780SOL    HW215240   0.891   0.327   6.500
 4781SOL     OW15241   2.585   5.674   1.271
 4781SOL    HW115242   2.666   5.644   1.321
 4781SOL    HW215243   2.611   5.701   1.178
 4782SOL     OW15244   4.467   0.019   0.076
 4782SOL    HW115245   4.472   0.019   0.176
 4782SOL    HW215246   4.547   0.065   0.038
 4783SOL     OW15247   4.440   4.329   0.093
 4783SOL    HW115248   4.385   4.408   0.066
 4783SOL    HW215249   4.425   4.309   0.190
 4784SOL     OW15250   6.195   5.090   6.208
 4784SOL    HW115251   6.261   5.127   6.273
 4784SOL    HW215252   6.227   5.106   6.114
 4785SOL     OW15253   6.599   6.266   1.107
 4785SOL    HW115254   6.642   6.196   1.163
 4785SOL    HW215255   6.669   6.327   1.070
 4786SOL     OW15256   1.949   1.938   2.185
 4786SOL    HW115257   1.954   1.881   2.103
 4786SOL    HW215258   1.985   2.029   2.166
 4787SOL     OW15259   3.516   2.156   3.701
 4787SOL    HW115260   3.497   2.109   3.787
 4787SOL    HW215261   3.613   2.149   3.680
 4788SOL     OW15262   1.628   5.142   5.904
 4788SOL    HW115263   1.693   5.216   5.920
 4788SOL    HW215264   1.648   5.100   5.815
 4789SOL     OW15265   5.248   0.547   7.012
 4789SOL    HW115266   5.220   0.643   7.006
 4789SOL    HW215267   5.273   0.526   0.088
 4790SOL     OW15268   5.901   3.455   6.751
 4790SOL    HW115269   5.936   3.459   6.658
 4790SOL    HW215270   5.970   3.492   6.814
 4791SOL     OW15271   5.846   1.659   2.057
 4791SOL    HW115272   5.794   1.743   2.041
 4791SOL    HW215273   5.812   1.586   1.998
 4792SOL     OW15274   1.855   3.105   2.226
 4792SOL    HW115275   1.924   3.047   2.268
 4792SOL    HW215276   1.865   3.199   2.260
 4793SOL     OW15277   1.493   1.830   5.563
 4793SOL    HW115278   1.404   1.786   5.575
 4793SOL    HW215279   1.553   1.768   5.512
 4794SOL     OW15280   3.888   0.588   3.050
 4794SOL    HW115281   3.809   0.645   3.073
 4794SOL    HW215282   3.972   0.636   3.076
 4795SOL     OW15283   6.806   2.416   4.278
 4795SOL    HW115284   6.890   2.418   4.333
 4795SOL    HW215285   6.727   2.410   4.338
 4796SOL     OW15286   5.004   2.170   0.005
 4796SOL    HW115287   4.990   2.195   6.928
 4796SOL    HW215288   5.022   2.071   0.011
 4797SOL     OW15289   1.347   6.059   5.235
 4797SOL    HW115290   1.433   6.097   5.203
 4797SOL    HW215291   1.354   6.036   5.332
 4798SOL     OW15292   0.467   4.053   5.563
 4798SOL    HW115293   0.420   4.033   5.477
 4798SOL    HW215294   0.401   4.092   5.629
 4799SOL     OW15295   5.056   1.451   5.375
 4799SOL    HW115296   5.115   1.395   5.434
 4799SOL    HW215297   4.973   1.476   5.425
 4800SOL     OW15298   3.110   3.428   6.098
 4800SOL    HW115299   3.153   3.384   6.019
 4800SOL    HW215300   3.050   3.502   6.066
 4801SOL     OW15301   2.210   1.635   0.191
 4801SOL    HW115302   2.247   1.701   0.126
 4801SOL    HW215303   2.111   1.649   0.201
 4802SOL     OW15304   1.198   6.312   1.950
 4802SOL    HW115305   1.113   6.271   1.983
 4802SOL    HW215306   1.204   6.299   1.851
 4803SOL     OW15307   1.094   6.263   0.750
 4803SOL    HW115308   1.160   6.318   0.699
 4803SOL    HW215309   1.119   6.167   0.743
 4804SOL     OW15310   4.234   5.322   6.557
 4804SOL    HW115311   4.157   5.260   6.545
 4804SOL    HW215312   4.317   5.269   6.574
 4805SOL     OW15313   6.617   6.769   0.663
 4805SOL    HW115314   6.557   6.693   0.688
 4805SOL    HW215315   6.561   6.848   0.637
 4806SOL     OW15316   6.688   3.834   4.005
 4806SOL    HW115317   6.735   3.775   3.939
 4806SOL    HW215318   6.590   3.825   3.994
 4807SOL     OW15319   1.355   5.120   1.200
 4807SOL    HW115320   1.355   5.198   1.137
 4807SOL    HW215321   1.351   5.035   1.147
 4808SOL     OW15322   5.830   3.784   0.679
 4808SOL    HW115323   5.751   3.824   0.726
 4808SOL    HW215324   5.910   3.840   0.697
 4809SOL     OW15325   3.669   4.059   0.029
 4809SOL    HW115326   3.691   4.011   0.114
 4809SOL    HW215327   3.719   4.018   6.972
 4810SOL     OW15328   1.489   4.929   1.009
 4810SOL    HW115329   1.570   4.897   0.959
 4810SOL    HW215330   1.434   4.850   1.036
 4811SOL     OW15331   2.499   4.805   2.011
 4811SOL    HW115332   2.549   4.831   1.928
 4811SOL    HW215333   2.454   4.886   2.049
 4812SOL     OW15334   6.743   4.980   5.448
 4812SOL    HW115335   6.835   5.008   5.419
 4812SOL    HW215336   6.731   4.998   5.546
 4813SOL     OW15337   4.611   1.080   2.000
 4813SOL    HW115338   4.577   1.092   2.093
 4813SOL    HW215339   4.533   1.077   1.937
 4814SOL     OW15340   6.104   5.016   0.119
 4814SOL    HW115341   6.145   4.959   0.048
 4814SOL    HW215342   6.005   4.998   0.124
 4815SOL     OW15343   5.439   5.008   2.224
 4815SOL    HW115344   5.428   5.023   2.125
 4815SOL    HW215345   5.397   4.921   2.249
 4816SOL     OW15346   6.007   5.383   3.170
 4816SOL    HW115347   5.936   5.377   3.099
 4816SOL    HW215348   6.084   5.325   3.144
 4817SOL     OW15349   0.396   2.046   6.283
 4817SOL    HW115350   0.420   1.988   6.205
 4817SOL    HW215351   0.302   2.026   6.311
 4818SOL     OW15352   1.117   6.876   4.174
 4818SOL    HW115353   1.163   6.922   4.249
 4818SOL    HW215354   1.175   6.879   4.092
 4819SOL     OW15355   1.581   2.919   0.678
 4819SOL    HW115356   1.613   2.998   0.730
 4819SOL    HW215357   1.497   2.943   0.629
 4820SOL     OW15358   0.071   3.102   2.024
 4820SOL    HW115359   6.994   3.125   2.008
 4820SOL    HW215360   0.077   3.027   2.089
 4821SOL     OW15361   0.974   5.837   2.027
 4821SOL    HW115362   0.904   5.883   1.972
 4821SOL    HW215363   0.934   5.759   2.074
 4822SOL     OW15364   1.285   4.152   4.142
 4822SOL    HW115365   1.382   4.156   4.168
 4822SOL    HW215366   1.250   4.060   4.157
 4823SOL     OW15367   1.571   1.885   2.611
 4823SOL    HW115368   1.652   1.925   2.568
 4823SOL    HW215369   1.522   1.955   2.663
 4824SOL     OW15370   5.226   2.041   5.216
 4824SOL    HW115371   5.286   1.988   5.276
 4824SOL    HW215372   5.178   1.979   5.153
 4825SOL     OW15373   0.920   1.335   4.358
 4825SOL    HW115374   0.967   1.322   4.445
 4825SOL    HW215375   0.926   1.431   4.331
 4826SOL     OW15376   5.086   0.679   0.828
 4826SOL    HW115377   5.003   0.736   0.823
 4826SOL    HW215378   5.060   0.584   0.841
 4827SOL     OW15379   6.499   1.636   0.253
 4827SOL    HW115380   6.470   1.684   0.336
 4827SOL    HW215381   6.419   1.616   0.197
 4828SOL     OW15382   4.265   0.226   1.622
 4828SOL    HW115383   4.192   0.180   1.570
 4828SOL    HW215384   4.308   0.296   1.564
 4829SOL     OW15385   3.585   6.540   6.477
 4829SOL    HW115386   3.590   6.449   6.518
 4829SOL    HW215387   3.612   6.609   6.545
 4830SOL     OW15388   4.097   5.812   3.568
 4830SOL    HW115389   4.068   5.849   3.480
 4830SOL    HW215390   4.052   5.724   3.585
 4831SOL     OW15391   2.804   5.241   5.666
 4831SOL    HW115392   2.822   5.193   5.580
 4831SOL    HW215393   2.884   5.236   5.725
 4832SOL     OW15394   3.760   3.481   4.413
 4832SOL    HW115395   3.843   3.428   4.396
 4832SOL    HW215396   3.763   3.518   4.506
 4833SOL     OW15397   5.513   2.081   3.624
 4833SOL    HW115398   5.592   2.036   3.666
 4833SOL    HW215399   5.456   2.013   3.579
 4834SOL     OW15400   2.658   5.840   2.515
 4834SOL    HW115401   2.741   5.862   2.566
 4834SOL    HW215402   2.622   5.752   2.546
 4835SOL     OW15403   6.089   3.710   6.083
 4835SOL    HW115404   6.181   3.721   6.045
 4835SOL    HW215405   6.034   3.655   6.019
 4836SOL     OW15406   4.577   1.259   5.167
 4836SOL    HW115407   4.603   1.316   5.245
 4836SOL    HW215408   4.501   1.199   5.193
 4837SOL     OW15409   6.863   3.200   3.317
 4837SOL    HW115410   6.877   3.143   3.236
 4837SOL    HW215411   6.946   3.254   3.334
 4838SOL     OW15412   1.139   5.146   6.301
 4838SOL    HW115413   1.105   5.128   6.209
 4838SOL    HW215414   1.239   5.155   6.298
 4839SOL     OW15415   1.594   3.095   0.263
 4839SOL    HW115416   1.571   3.030   0.335
 4839SOL    HW215417   1.552   3.067   0.177
 4840SOL     OW15418   5.329   4.253   5.228
 4840SOL    HW115419   5.423   4.267   5.198
 4840SOL    HW215420   5.316   4.157   5.252
 4841SOL     OW15421   3.248   5.422   2.965
 4841SOL    HW115422   3.288   5.368   3.039
 4841SOL    HW215423   3.154   5.447   2.989
 4842SOL     OW15424   2.235   5.351   3.441
 4842SOL    HW115425   2.329   5.359   3.474
 4842SOL    HW215426   2.182   5.297   3.506
 4843SOL     OW15427   6.611   2.746   2.169
 4843SOL    HW115428   6.594   2.842   2.189
 4843SOL    HW215429   6.611   2.694   2.255
 4844SOL     OW15430   1.267   4.172   5.814
 4844SOL    HW115431   1.331   4.103   5.778
 4844SOL    HW215432   1.178   4.129   5.831
 4845SOL     OW15433   4.600   4.823   5.093
 4845SOL    HW115434   4.685   4.827   5.145
 4845SOL    HW215435   4.621   4.812   4.995
 4846SOL     OW15436   0.595   2.418   3.600
 4846SOL    HW115437   0.649   2.502   3.603
 4846SOL    HW215438   0.635   2.355   3.533
 4847SOL     OW15439   2.619   0.249   5.597
 4847SOL    HW115440   2.594   0.234   5.501
 4847SOL    HW215441   2.718   0.261   5.604
 4848SOL     OW15442   2.112   1.186   3.887
 4848SOL    HW115443   2.109   1.180   3.987
 4848SOL    HW215444   2.199   1.225   3.858
 4849SOL     OW15445   1.771   6.916   0.351
 4849SOL    HW115446   1.703   6.906   0.279
 4849SOL    HW215447   1.726   6.940   0.437
 4850SOL     OW15448   4.444   0.600   1.159
 4850SOL    HW115449   4.345   0.598   1.171
 4850SOL    HW215450   4.486   0.528   1.214
 4851SOL     OW15451   3.673   5.479   6.980
 4851SOL    HW115452   3.652   5.392   0.007
 4851SOL    HW215453   3.620   5.486   6.896
 4852SOL     OW15454   3.757   5.607   4.643
 4852SOL    HW115455   3.702   5.644   4.568
 4852SOL    HW215456   3.854   5.622   4.624
 4853SOL     OW15457   3.443   0.862   2.987
 4853SOL    HW115458   3.488   0.848   2.898
 4853SOL    HW215459   3.410   0.956   2.993
 4854SOL     OW15460   5.683   6.523   1.887
 4854SOL    HW115461   5.632   6.604   1.915
 4854SOL    HW215462   5.730   6.541   1.800
 4855SOL     OW15463   0.191   3.976   4.783
 4855SOL    HW115464   0.282   3.947   4.755
 4855SOL    HW215465   0.159   3.917   4.857
 4856SOL     OW15466   0.447   3.481   2.798
 4856SOL    HW115467   0.478   3.477   2.703
 4856SOL    HW215468   0.423   3.575   2.822
 4857SOL     OW15469   3.345   2.055   4.271
 4857SOL    HW115470   3.443   2.070   4.287
 4857SOL    HW215471   3.293   2.124   4.321
 4858SOL     OW15472   0.728   0.442   5.147
 4858SOL    HW115473   0.677   0.509   5.201
 4858SOL    HW215474   0.770   0.487   5.068
 4859SOL     OW15475   0.907   5.488   2.184
 4859SOL    HW115476   0.929   5.561   2.248
 4859SOL    HW215477   0.820   5.445   2.210
 4860SOL     OW15478   3.959   5.065   0.169
 4860SOL    HW115479   3.883   5.094   0.110
 4860SOL    HW215480   3.943   5.098   0.262
 4861SOL     OW15481   6.449   4.720   5.298
 4861SOL    HW115482   6.387   4.798   5.292
 4861SOL    HW215483   6.417   4.656   5.368
 4862SOL     OW15484   2.712   4.707   4.773
 4862SOL    HW115485   2.770   4.666   4.844
 4862SOL    HW215486   2.694   4.803   4.796
 4863SOL     OW15487   4.898   3.337   2.870
 4863SOL    HW115488   4.921   3.420   2.921
 4863SOL    HW215489   4.949   3.335   2.785
 4864SOL     OW15490   3.430   1.378   2.031
 4864SOL    HW115491   3.452   1.309   1.962
 4864SOL    HW215492   3.478   1.356   2.116
 4865SOL     OW15493   3.388   5.284   5.904
 4865SOL    HW115494   3.367   5.248   5.995
 4865SOL    HW215495   3.402   5.383   5.909
 4866SOL     OW15496   6.397   4.703   2.070
 4866SOL    HW115497   6.387   4.605   2.050
 4866SOL    HW215498   6.360   4.757   1.995
 4867SOL     OW15499   4.825   5.421   3.180
 4867SOL    HW115500   4.860   5.383   3.265
 4867SOL    HW215501   4.878   5.503   3.156
 4868SOL     OW15502   0.570   5.506   1.376
 4868SOL    HW115503   0.612   5.439   1.437
 4868SOL    HW215504   0.639   5.540   1.312
 4869SOL     OW15505   0.205   2.022   0.337
 4869SOL    HW115506   0.253   1.989   0.256
 4869SOL    HW215507   0.107   2.009   0.326
 4870SOL     OW15508   4.063   5.939   1.939
 4870SOL    HW115509   4.003   5.859   1.943
 4870SOL    HW215510   4.081   5.963   1.844
 4871SOL     OW15511   1.587   1.724   3.369
 4871SOL    HW115512   1.590   1.645   3.308
 4871SOL    HW215513   1.633   1.702   3.455
 4872SOL     OW15514   0.815   6.842   2.868
 4872SOL    HW115515   0.852   6.923   2.914
 4872SOL    HW215516   0.878   6.814   2.796
 4873SOL     OW15517   0.360   5.024   5.333
 4873SOL    HW115518   0.439   5.041   5.273
 4873SOL    HW215519   0.286   4.984   5.278
 4874SOL     OW15520   5.111   3.593   2.723
 4874SOL    HW115521   5.065   3.544   2.649
 4874SOL    HW215522   5.051   3.664   2.759
 4875SOL     OW15523   5.957   1.318   1.191
 4875SOL    HW115524   5.903   1.269   1.261
 4875SOL    HW215525   5.971   1.257   1.113
 4876SOL     OW15526   5.897   0.527   6.176
 4876SOL    HW115527   5.987   0.551   6.213
 4876SOL    HW215528   5.884   0.428   6.184
 4877SOL     OW15529   6.393   2.185   0.960
 4877SOL    HW115530   6.488   2.210   0.980
 4877SOL    HW215531   6.384   2.164   0.863
 4878SOL     OW15532   0.332   1.690   1.919
 4878SOL    HW115533   0.239   1.662   1.893
 4878SOL    HW215534   0.364   1.632   1.994
 4879SOL     OW15535   4.166   4.820   3.104
 4879SOL    HW115536   4.251   4.768   3.096
 4879SOL    HW215537   4.136   4.849   3.013
 4880SOL     OW15538   5.315   1.389   0.142
 4880SOL    HW115539   5.337   1.303   0.096
 4880SOL    HW215540   5.392   1.417   0.200
 4881SOL     OW15541   2.817   6.231   6.087
 4881SOL    HW115542   2.893   6.296   6.085
 4881SOL    HW215543   2.787   6.217   6.182
 4882SOL     OW15544   6.632   1.870   5.044
 4882SOL    HW115545   6.547   1.835   5.004
 4882SOL    HW215546   6.651   1.822   5.129
 4883SOL     OW15547   6.123   3.985   2.185
 4883SOL    HW115548   6.202   3.928   2.158
 4883SOL    HW215549   6.075   4.016   2.103
 4884SOL     OW15550   4.671   0.061   1.452
 4884SOL    HW115551   4.712   0.008   1.527
 4884SOL    HW215552   4.572   0.060   1.461
 4885SOL     OW15553   1.935   6.619   1.205
 4885SOL    HW115554   1.956   6.524   1.227
 4885SOL    HW215555   2.006   6.657   1.146
 4886SOL     OW15556   6.629   6.994   6.702
 4886SOL    HW115557   6.582   0.032   6.635
 4886SOL    HW215558   6.631   6.899   6.669
 4887SOL     OW15559   6.764   2.183   3.993
 4887SOL    HW115560   6.768   2.174   3.894
 4887SOL    HW215561   6.674   2.153   4.026
 4888SOL     OW15562   1.852   6.283   3.031
 4888SOL    HW115563   1.858   6.381   3.046
 4888SOL    HW215564   1.944   6.245   3.023
 4889SOL     OW15565   1.278   2.180   0.424
 4889SOL    HW115566   1.211   2.252   0.444
 4889SOL    HW215567   1.232   2.104   0.379
 4890SOL     OW15568   0.472   1.393   4.051
 4890SOL    HW115569   0.555   1.350   4.015
 4890SOL    HW215570   0.423   1.327   4.108
 4891SOL     OW15571   0.744   4.751   0.658
 4891SOL    HW115572   0.688   4.807   0.596
 4891SOL    HW215573   0.730   4.780   0.752
 4892SOL     OW15574   1.423   5.838   1.851
 4892SOL    HW115575   1.378   5.818   1.764
 4892SOL    HW215576   1.360   5.820   1.926
 4893SOL     OW15577   6.755   4.276   6.397
 4893SOL    HW115578   6.833   4.267   6.458
 4893SOL    HW215579   6.698   4.353   6.427
 4894SOL     OW15580   1.878   0.027   3.303
 4894SOL    HW115581   1.826   0.112   3.302
 4894SOL    HW215582   1.837   6.981   3.240
 4895SOL     OW15583   0.914   3.471   0.639
 4895SOL    HW115584   0.991   3.526   0.606
 4895SOL    HW215585   0.885   3.410   0.566
 4896SOL     OW15586   3.162   5.201   4.273
 4896SOL    HW115587   3.128   5.280   4.221
 4896SOL    HW215588   3.218   5.144   4.213
 4897SOL     OW15589   3.548   4.791   6.602
 4897SOL    HW115590   3.567   4.739   6.685
 4897SOL    HW215591   3.627   4.788   6.541
 4898SOL     OW15592   5.896   2.521   5.458
 4898SOL    HW115593   5.957   2.538   5.536
 4898SOL    HW215594   5.886   2.423   5.444
 4899SOL     OW15595   6.415   4.935   2.945
 4899SOL    HW115596   6.432   5.017   2.890
 4899SOL    HW215597   6.410   4.855   2.885
 4900SOL     OW15598   0.092   6.701   5.512
 4900SOL    HW115599   0.087   6.797   5.483
 4900SOL    HW215600   0.187   6.678   5.533
 4901SOL     OW15601   1.604   0.159   4.320
 4901SOL    HW115602   1.561   0.125   4.236
 4901SOL    HW215603   1.701   0.175   4.304
 4902SOL     OW15604   1.622   4.373   1.785
 4902SOL    HW115605   1.597   4.289   1.832
 4902SOL    HW215606   1.720   4.390   1.797
 4903SOL     OW15607   3.611   6.760   6.667
 4903SOL    HW115608   3.572   6.851   6.686
 4903SOL    HW215609   3.683   6.741   6.734
 4904SOL     OW15610   1.878   5.787   4.757
 4904SOL    HW115611   1.872   5.716   4.687
 4904SOL    HW215612   1.912   5.872   4.716
 4905SOL     OW15613   4.733   2.499   2.160
 4905SOL    HW115614   4.713   2.448   2.076
 4905SOL    HW215615   4.691   2.590   2.154
 4906SOL     OW15616   4.722   6.981   0.583
 4906SOL    HW115617   4.669   0.025   0.640
 4906SOL    HW215618   4.797   0.012   0.539
 4907SOL     OW15619   4.342   6.735   3.728
 4907SOL    HW115620   4.357   6.704   3.822
 4907SOL    HW215621   4.342   6.656   3.666
 4908SOL     OW15622   3.929   5.503   6.828
 4908SOL    HW115623   3.963   5.535   6.740
 4908SOL    HW215624   3.829   5.502   6.828
 4909SOL     OW15625   6.013   6.952   5.061
 4909SOL    HW115626   6.063   7.005   5.128
 4909SOL    HW215627   6.048   6.971   4.969
 4910SOL     OW15628   5.268   0.518   5.307
 4910SOL    HW115629   5.252   0.426   5.270
 4910SOL    HW215630   5.242   0.520   5.403
 4911SOL     OW15631   0.102   2.057   5.934
 4911SOL    HW115632   0.032   2.095   5.994
 4911SOL    HW215633   0.096   2.101   5.844
 4912SOL     OW15634   4.043   1.847   2.142
 4912SOL    HW115635   4.141   1.842   2.120
 4912SOL    HW215636   4.018   1.768   2.199
 4913SOL     OW15637   3.323   4.063   3.625
 4913SOL    HW115638   3.232   4.036   3.593
 4913SOL    HW215639   3.319   4.081   3.723
 4914SOL     OW15640   3.077   0.581   4.082
 4914SOL    HW115641   3.170   0.616   4.099
 4914SOL    HW215642   3.042   0.622   3.998
 4915SOL     OW15643   4.321   6.728   4.238
 4915SOL    HW115644   4.221   6.719   4.234
 4915SOL    HW215645   4.345   6.825   4.240
 4916SOL     OW15646   2.901   2.213   3.079
 4916SOL    HW115647   2.831   2.172   3.020
 4916SOL    HW215648   2.865   2.226   3.171
 4917SOL     OW15649   1.644   3.895   0.824
 4917SOL    HW115650   1.741   3.887   0.847
 4917SOL    HW215651   1.625   3.987   0.789
 4918SOL     OW15652   2.767   0.697   2.562
 4918SOL    HW115653   2.681   0.645   2.566
 4918SOL    HW215654   2.777   0.750   2.646
 4919SOL     OW15655   1.676   1.733   2.845
 4919SOL    HW115656   1.607   1.788   2.798
 4919SOL    HW215657   1.739   1.694   2.778
 4920SOL     OW15658   4.478   0.549   0.120
 4920SOL    HW115659   4.530   0.518   0.040
 4920SOL    HW215660   4.392   0.498   0.125
 4921SOL     OW15661   2.299   3.656   1.676
 4921SOL    HW115662   2.249   3.716   1.740
 4921SOL    HW215663   2.320   3.570   1.722
 4922SOL     OW15664   1.349   3.545   5.544
 4922SOL    HW115665   1.353   3.513   5.639
 4922SOL    HW215666   1.424   3.503   5.492
 4923SOL     OW15667   5.158   6.743   2.013
 4923SOL    HW115668   5.187   6.661   2.063
 4923SOL    HW215669   5.207   6.822   2.049
 4924SOL     OW15670   1.927   3.860   4.178
 4924SOL    HW115671   1.834   3.851   4.143
 4924SOL    HW215672   1.956   3.774   4.220
 4925SOL     OW15673   5.195   6.612   1.090
 4925SOL    HW115674   5.163   6.706   1.076
 4925SOL    HW215675   5.136   6.566   1.157
 4926SOL     OW15676   5.683   3.174   1.614
 4926SOL    HW115677   5.607   3.119   1.581
 4926SOL    HW215678   5.762   3.115   1.634
 4927SOL     OW15679   3.740   2.987   2.670
 4927SOL    HW115680   3.790   3.012   2.587
 4927SOL    HW215681   3.644   2.972   2.647
 4928SOL     OW15682   0.496   6.888   6.439
 4928SOL    HW115683   0.528   6.926   6.352
 4928SOL    HW215684   0.572   6.884   6.504
 4929SOL     OW15685   1.155   4.180   5.294
 4929SOL    HW115686   1.154   4.268   5.246
 4929SOL    HW215687   1.069   4.132   5.277
 4930SOL     OW15688   1.159   1.576   0.690
 4930SOL    HW115689   1.158   1.643   0.616
 4930SOL    HW215690   1.071   1.577   0.737
 4931SOL     OW15691   0.588   0.420   6.808
 4931SOL    HW115692   0.543   0.432   6.719
 4931SOL    HW215693   0.605   0.323   6.824
 4932SOL     OW15694   2.657   2.721   1.562
 4932SOL    HW115695   2.753   2.702   1.581
 4932SOL    HW215696   2.649   2.769   1.474
 4933SOL     OW15697   2.433   1.149   4.247
 4933SOL    HW115698   2.424   1.133   4.346
 4933SOL    HW215699   2.398   1.240   4.225
 4934SOL     OW15700   0.792   5.177   4.169
 4934SOL    HW115701   0.750   5.117   4.237
 4934SOL    HW215702   0.877   5.136   4.136
 4935SOL     OW15703   1.819   1.255   6.607
 4935SOL    HW115704   1.781   1.299   6.526
 4935SOL    HW215705   1.814   1.317   6.685
 4936SOL     OW15706   2.801   5.609   1.422
 4936SOL    HW115707   2.819   5.700   1.458
 4936SOL    HW215708   2.876   5.581   1.362
 4937SOL     OW15709   0.882   3.879   6.268
 4937SOL    HW115710   0.789   3.865   6.303
 4937SOL    HW215711   0.931   3.792   6.269
 4938SOL     OW15712   3.236   4.145   1.369
 4938SOL    HW115713   3.140   4.128   1.392
 4938SOL    HW215714   3.242   4.226   1.312
 4939SOL     OW15715   1.966   1.637   1.735
 4939SOL    HW115716   1.978   1.682   1.647
 4939SOL    HW215717   1.873   1.600   1.742
 4940SOL     OW15718   6.739   2.428   5.014
 4940SOL    HW115719   6.783   2.441   5.103
 4940SOL    HW215720   6.698   2.337   5.011
 4941SOL     OW15721   3.920   2.484   5.313
 4941SOL    HW115722   3.916   2.462   5.411
 4941SOL    HW215723   4.009   2.523   5.291
 4942SOL     OW15724   5.561   3.335   3.905
 4942SOL    HW115725   5.538   3.369   3.814
 4942SOL    HW215726   5.642   3.276   3.899
 4943SOL     OW15727   5.670   3.754   6.864
 4943SOL    HW115728   5.575   3.744   6.835
 4943SOL    HW215729   5.678   3.833   6.924
 4944SOL     OW15730   1.776   4.791   0.890
 4944SOL    HW115731   1.794   4.713   0.950
 4944SOL    HW215732   1.824   4.778   0.803
 4945SOL     OW15733   2.005   1.155   5.146
 4945SOL    HW115734   2.033   1.227   5.083
 4945SOL    HW215735   2.079   1.137   5.211
 4946SOL     OW15736   1.050   4.567   6.979
 4946SOL    HW115737   0.968   4.530   0.003
 4946SOL    HW215738   1.130   4.518   7.013
 4947SOL     OW15739   2.497   0.579   2.563
 4947SOL    HW115740   2.500   0.576   2.463
 4947SOL    HW215741   2.502   0.486   2.599
 4948SOL     OW15742   2.098   2.521   2.089
 4948SOL    HW115743   2.069   2.439   2.138
 4948SOL    HW215744   2.057   2.522   1.998
 4949SOL     OW15745   6.633   3.334   6.095
 4949SOL    HW115746   6.595   3.250   6.136
 4949SOL    HW215747   6.565   3.376   6.035
 4950SOL     OW15748   2.514   4.309   5.469
 4950SOL    HW115749   2.463   4.367   5.533
 4950SOL    HW215750   2.454   4.239   5.432
 4951SOL     OW15751   6.202   6.316   3.840
 4951SOL    HW115752   6.234   6.333   3.933
 4951SOL    HW215753   6.280   6.298   3.780
 4952SOL     OW15754   6.995   0.620   6.598
 4952SOL    HW115755   0.019   0.699   6.640
 4952SOL    HW215756   6.976   0.551   6.669
 4953SOL     OW15757   1.026   1.761   4.715
 4953SOL    HW115758   0.988   1.756   4.807
 4953SOL    HW215759   1.061   1.853   4.698
 4954SOL     OW15760   2.709   4.294   5.686
 4954SOL    HW115761   2.640   4.334   5.625
 4954SOL    HW215762   2.705   4.195   5.679
 4955SOL     OW15763   2.921   5.095   0.197
 4955SOL    HW115764   3.000   5.038   0.173
 4955SOL    HW215765   2.901   5.157   0.121
 4956SOL     OW15766   2.752   0.516   5.249
 4956SOL    HW115767   2.813   0.532   5.171
 4956SOL    HW215768   2.658   0.507   5.217
 4957SOL     OW15769   6.269   4.047   6.840
 4957SOL    HW115770   6.333   4.068   6.766
 4957SOL    HW215771   6.176   4.043   6.804
 4958SOL     OW15772   1.962   6.459   5.773
 4958SOL    HW115773   2.060   6.474   5.760
 4958SOL    HW215774   1.915   6.471   5.686
 4959SOL     OW15775   6.875   2.127   1.333
 4959SOL    HW115776   6.939   2.196   1.366
 4959SOL    HW215777   6.905   2.036   1.362
 4960SOL     OW15778   4.028   5.319   3.473
 4960SOL    HW115779   3.984   5.315   3.563
 4960SOL    HW215780   3.972   5.372   3.411
 4961SOL     OW15781   3.056   0.927   6.949
 4961SOL    HW115782   2.993   1.004   6.936
 4961SOL    HW215783   3.007   0.852   6.994
 4962SOL     OW15784   6.618   2.715   1.007
 4962SOL    HW115785   6.560   2.649   1.054
 4962SOL    HW215786   6.583   2.807   1.022
 4963SOL     OW15787   0.912   4.993   1.009
 4963SOL    HW115788   0.952   5.076   0.970
 4963SOL    HW215789   0.829   5.015   1.058
 4964SOL     OW15790   2.387   6.765   4.725
 4964SOL    HW115791   2.390   6.693   4.656
 4964SOL    HW215792   2.422   6.850   4.685
 4965SOL     OW15793   1.470   6.984   3.048
 4965SOL    HW115794   1.477   6.925   3.128
 4965SOL    HW215795   1.498   6.934   2.967
 4966SOL     OW15796   2.773   5.949   4.423
 4966SOL    HW115797   2.689   5.947   4.368
 4966SOL    HW215798   2.753   5.921   4.516
 4967SOL     OW15799   3.746   4.746   5.487
 4967SOL    HW115800   3.683   4.716   5.559
 4967SOL    HW215801   3.799   4.668   5.455
 4968SOL     OW15802   0.281   0.991   4.238
 4968SOL    HW115803   0.195   1.012   4.285
 4968SOL    HW215804   0.317   0.904   4.273
 4969SOL     OW15805   0.601   6.376   2.400
 4969SOL    HW115806   0.588   6.308   2.473
 4969SOL    HW215807   0.556   6.344   2.316
 4970SOL     OW15808   1.805   0.820   1.519
 4970SOL    HW115809   1.763   0.909   1.501
 4970SOL    HW215810   1.737   0.748   1.508
 4971SOL     OW15811   6.433   6.127   2.890
 4971SOL    HW115812   6.383   6.212   2.871
 4971SOL    HW215813   6.371   6.060   2.932
 4972SOL     OW15814   1.146   3.945   1.059
 4972SOL    HW115815   1.131   4.039   1.090
 4972SOL    HW215816   1.241   3.919   1.076
 4973SOL     OW15817   0.036   0.269   1.849
 4973SOL    HW115818   6.993   0.244   1.923
 4973SOL    HW215819   7.018   0.347   1.799
 4974SOL     OW15820   4.719   4.142   6.396
 4974SOL    HW115821   4.809   4.139   6.351
 4974SOL    HW215822   4.727   4.105   6.488
 4975SOL     OW15823   5.118   3.569   1.098
 4975SOL    HW115824   5.167   3.493   1.056
 4975SOL    HW215825   5.169   3.654   1.085
 4976SOL     OW15826   0.571   0.768   4.610
 4976SOL    HW115827   0.524   0.806   4.690
 4976SOL    HW215828   0.607   0.678   4.631
 4977SOL     OW15829   3.705   3.923   6.688
 4977SOL    HW115830   3.686   3.869   6.770
 4977SOL    HW215831   3.621   3.966   6.656
 4978SOL     OW15832   4.869   4.622   5.292
 4978SOL    HW115833   4.845   4.681   5.370
 4978SOL    HW215834   4.920   4.543   5.324
 4979SOL     OW15835   0.813   6.998   0.006
 4979SOL    HW115836   0.876   0.035   0.058
 4979SOL    HW215837   0.837   7.002   6.928
 4980SOL     OW15838   6.909   4.586   2.736
 4980SOL    HW115839   6.959   4.610   2.819
 4980SOL    HW215840   6.947   4.502   2.698
 4981SOL     OW15841   3.465   4.998   1.977
 4981SOL    HW115842   3.379   4.950   1.995
 4981SOL    HW215843   3.539   4.931   1.968
 4982SOL     OW15844   3.981   1.632   6.683
 4982SOL    HW115845   4.033   1.669   6.759
 4982SOL    HW215846   3.931   1.550   6.712
 4983SOL     OW15847   6.051   5.003   4.035
 4983SOL    HW115848   6.136   4.969   3.996
 4983SOL    HW215849   6.043   4.974   4.130
 4984SOL     OW15850   4.936   4.139   2.743
 4984SOL    HW115851   4.951   4.151   2.645
 4984SOL    HW215852   4.931   4.041   2.764
 4985SOL     OW15853   5.397   6.072   2.397
 4985SOL    HW115854   5.351   6.143   2.451
 4985SOL    HW215855   5.496   6.086   2.401
 4986SOL     OW15856   6.582   4.624   1.571
 4986SOL    HW115857   6.619   4.596   1.659
 4986SOL    HW215858   6.586   4.723   1.562
 4987SOL     OW15859   0.951   6.448   2.775
 4987SOL    HW115860   0.872   6.499   2.809
 4987SOL    HW215861   1.010   6.422   2.852
 4988SOL     OW15862   6.376   1.368   3.404
 4988SOL    HW115863   6.301   1.304   3.394
 4988SOL    HW215864   6.394   1.384   3.501
 4989SOL     OW15865   4.688   0.583   1.612
 4989SOL    HW115866   4.722   0.490   1.597
 4989SOL    HW215867   4.700   0.608   1.708
 4990SOL     OW15868   3.728   1.937   0.244
 4990SOL    HW115869   3.759   1.981   0.159
 4990SOL    HW215870   3.791   1.961   0.318
 4991SOL     OW15871   0.055   5.671   4.282
 4991SOL    HW115872   0.139   5.626   4.254
 4991SOL    HW215873   0.071   5.770   4.291
 4992SOL     OW15874   6.359   1.823   3.018
 4992SOL    HW115875   6.401   1.805   2.929
 4992SOL    HW215876   6.313   1.740   3.050
 4993SOL     OW15877   4.679   6.987   4.873
 4993SOL    HW115878   4.717   6.962   4.962
 4993SOL    HW215879   4.586   0.004   4.886
 4994SOL     OW15880   2.085   5.421   5.146
 4994SOL    HW115881   2.025   5.341   5.140
 4994SOL    HW215882   2.100   5.458   5.055
 4995SOL     OW15883   0.314   0.689   4.796
 4995SOL    HW115884   0.396   0.644   4.832
 4995SOL    HW215885   0.248   0.703   4.870
 4996SOL     OW15886   0.318   1.469   3.860
 4996SOL    HW115887   0.383   1.465   3.937
 4996SOL    HW215888   0.319   1.561   3.821
 4997SOL     OW15889   3.788   2.576   1.414
 4997SOL    HW115890   3.713   2.627   1.370
 4997SOL    HW215891   3.764   2.559   1.510
 4998SOL     OW15892   1.573   3.617   3.256
 4998SOL    HW115893   1.598   3.586   3.164
 4998SOL    HW215894   1.495   3.563   3.289
 4999SOL     OW15895   0.675   3.538   5.311
 4999SOL    HW115896   0.707   3.606   5.378
 4999SOL    HW215897   0.583   3.508   5.336
 5000SOL     OW15898   2.899   6.398   3.548
 5000SOL    HW115899   2.981   6.381   3.603
 5000SOL    HW215900   2.919   6.465   3.477
 5001SOL     OW15901   0.268   5.812   2.517
 5001SOL    HW115902   0.269   5.909   2.496
 5001SOL    HW215903   0.317   5.795   2.602
 5002SOL     OW15904   0.983   4.744   2.770
 5002SOL    HW115905   0.964   4.676   2.698
 5002SOL    HW215906   1.010   4.697   2.853
 5003SOL     OW15907   4.005   6.138   2.971
 5003SOL    HW115908   4.069   6.134   2.894
 5003SOL    HW215909   3.970   6.231   2.980
 5004SOL     OW15910   2.619   5.603   5.453
 5004SOL    HW115911   2.691   5.599   5.522
 5004SOL    HW215912   2.657   5.582   5.363
 5005SOL     OW15913   2.199   3.582   5.888
 5005SOL    HW115914   2.181   3.564   5.984
 5005SOL    HW215915   2.182   3.499   5.834
 5006SOL     OW15916   5.275   1.118   2.232
 5006SOL    HW115917   5.189   1.092   2.277
 5006SOL    HW215918   5.343   1.142   2.302
 5007SOL     OW15919   6.683   0.527   0.755
 5007SOL    HW115920   6.634   0.589   0.817
 5007SOL    HW215921   6.774   0.564   0.736
 5008SOL     OW15922   6.425   5.470   1.395
 5008SOL    HW115923   6.522   5.486   1.409
 5008SOL    HW215924   6.413   5.404   1.321
 5009SOL     OW15925   1.049   2.954   0.296
 5009SOL    HW115926   1.015   2.961   0.390
 5009SOL    HW215927   1.138   2.999   0.290
 5010SOL     OW15928   3.936   2.309   0.693
 5010SOL    HW115929   3.983   2.287   0.607
 5010SOL    HW215930   3.993   2.372   0.747
 5011SOL     OW15931   2.013   4.176   1.176
 5011SOL    HW115932   2.065   4.123   1.243
 5011SOL    HW215933   2.019   4.132   1.086
 5012SOL     OW15934   5.986   2.877   5.231
 5012SOL    HW115935   6.037   2.949   5.185
 5012SOL    HW215936   5.966   2.905   5.325
 5013SOL     OW15937   5.593   0.519   5.753
 5013SOL    HW115938   5.645   0.442   5.718
 5013SOL    HW215939   5.643   0.562   5.828
 5014SOL     OW15940   6.783   4.324   6.974
 5014SOL    HW115941   6.694   4.307   7.016
 5014SOL    HW215942   6.837   4.384   0.013
 5015SOL     OW15943   5.417   0.947   4.600
 5015SOL    HW115944   5.458   0.858   4.618
 5015SOL    HW215945   5.329   0.934   4.553
 5016SOL     OW15946   1.070   2.799   5.184
 5016SOL    HW115947   1.000   2.824   5.117
 5016SOL    HW215948   1.115   2.714   5.155
 5017SOL     OW15949   0.816   2.220   1.186
 5017SOL    HW115950   0.894   2.164   1.215
 5017SOL    HW215951   0.849   2.297   1.131
 5018SOL     OW15952   1.369   4.878   2.298
 5018SOL    HW115953   1.391   4.829   2.382
 5018SOL    HW215954   1.439   4.948   2.281
 5019SOL     OW15955   2.107   5.945   5.863
 5019SOL    HW115956   2.138   6.035   5.833
 5019SOL    HW215957   2.104   5.883   5.784
 5020SOL     OW15958   0.115   6.700   5.175
 5020SOL    HW115959   0.068   6.614   5.194
 5020SOL    HW215960   0.050   6.776   5.181
 5021SOL     OW15961   1.181   0.494   1.427
 5021SOL    HW115962   1.101   0.434   1.433
 5021SOL    HW215963   1.233   0.471   1.345
 5022SOL     OW15964   0.824   2.715   1.253
 5022SOL    HW115965   0.799   2.805   1.217
 5022SOL    HW215966   0.754   2.648   1.228
 5023SOL     OW15967   6.869   4.367   1.517
 5023SOL    HW115968   6.925   4.412   1.586
 5023SOL    HW215969   6.907   4.385   1.426
 5024SOL     OW15970   5.786   5.100   0.924
 5024SOL    HW115971   5.746   5.018   0.883
 5024SOL    HW215972   5.785   5.175   0.857
 5025SOL     OW15973   3.790   1.819   3.710
 5025SOL    HW115974   3.823   1.913   3.706
 5025SOL    HW215975   3.713   1.814   3.774
 5026SOL     OW15976   0.029   5.336   4.770
 5026SOL    HW115977   0.118   5.307   4.804
 5026SOL    HW215978   0.026   5.436   4.763
 5027SOL     OW15979   5.862   0.469   1.013
 5027SOL    HW115980   5.906   0.387   0.976
 5027SOL    HW215981   5.898   0.487   1.105
 5028SOL     OW15982   6.733   2.211   3.727
 5028SOL    HW115983   6.720   2.143   3.655
 5028SOL    HW215984   6.728   2.303   3.687
 5029SOL     OW15985   6.377   2.340   2.391
 5029SOL    HW115986   6.292   2.322   2.440
 5029SOL    HW215987   6.358   2.395   2.310
 5030SOL     OW15988   6.735   6.157   6.296
 5030SOL    HW115989   6.751   6.180   6.199
 5030SOL    HW215990   6.778   6.226   6.354
 5031SOL     OW15991   6.862   0.929   5.507
 5031SOL    HW115992   6.843   0.940   5.409
 5031SOL    HW215993   6.952   0.886   5.519
 5032SOL     OW15994   2.510   1.762   6.018
 5032SOL    HW115995   2.470   1.853   6.030
 5032SOL    HW215996   2.610   1.770   6.014
 5033SOL     OW15997   2.000   0.350   0.174
 5033SOL    HW115998   2.013   0.405   0.256
 5033SOL    HW215999   1.997   0.253   0.199
 5034SOL     OW16000   5.231   6.869   3.965
 5034SOL    HW116001   5.296   6.862   3.889
 5034SOL    HW216002   5.276   6.910   4.044
 5035SOL     OW16003   0.798   3.624   5.866
 5035SOL    HW116004   0.843   3.705   5.828
 5035SOL    HW216005   0.712   3.608   5.817
 5036SOL     OW16006   6.292   5.246   6.427
 5036SOL    HW116007   6.222   5.259   6.498
 5036SOL    HW216008   6.368   5.309   6.444
 5037SOL     OW16009   4.445   4.783   1.452
 5037SOL    HW116010   4.521   4.719   1.456
 5037SOL    HW216011   4.383   4.767   1.529
 5038SOL     OW16012   4.120   3.295   3.868
 5038SOL    HW116013   4.099   3.243   3.951
 5038SOL    HW216014   4.055   3.271   3.796
 5039SOL     OW16015   2.477   3.201   5.753
 5039SOL    HW116016   2.399   3.152   5.792
 5039SOL    HW216017   2.469   3.203   5.653
 5040SOL     OW16018   0.955   6.066   5.166
 5040SOL    HW116019   0.861   6.097   5.179
 5040SOL    HW216020   0.954   5.971   5.135
 5041SOL     OW16021   1.236   2.007   2.072
 5041SOL    HW116022   1.214   2.103   2.056
 5041SOL    HW216023   1.329   1.999   2.107
 5042SOL     OW16024   6.925   3.027   0.524
 5042SOL    HW116025   6.957   3.084   0.600
 5042SOL    HW216026   6.834   2.992   0.546
 5043SOL     OW16027   4.509   0.650   6.770
 5043SOL    HW116028   4.512   0.713   6.693
 5043SOL    HW216029   4.413   0.633   6.795
 5044SOL     OW16030   0.653   5.668   1.160
 5044SOL    HW116031   0.698   5.757   1.155
 5044SOL    HW216032   0.559   5.681   1.193
 5045SOL     OW16033   6.496   5.743   5.912
 5045SOL    HW116034   6.513   5.703   5.823
 5045SOL    HW216035   6.579   5.790   5.944
 5046SOL     OW16036   3.711   3.820   3.820
 5046SOL    HW116037   3.804   3.840   3.852
 5046SOL    HW216038   3.659   3.905   3.812
 5047SOL     OW16039   2.405   4.356   2.995
 5047SOL    HW116040   2.466   4.417   3.045
 5047SOL    HW216041   2.361   4.293   3.059
 5048SOL     OW16042   1.289   0.789   4.600
 5048SOL    HW116043   1.281   0.859   4.671
 5048SOL    HW216044   1.277   0.832   4.510
 5049SOL     OW16045   4.856   1.151   0.151
 5049SOL    HW116046   4.813   1.093   0.220
 5049SOL    HW216047   4.789   1.172   0.079
 5050SOL     OW16048   1.532   1.105   6.849
 5050SOL    HW116049   1.566   1.062   6.933
 5050SOL    HW216050   1.582   1.190   6.833
 5051SOL     OW16051   4.513   4.328   1.231
 5051SOL    HW116052   4.597   4.381   1.244
 5051SOL    HW216053   4.485   4.288   1.318
 5052SOL     OW16054   3.311   2.080   6.254
 5052SOL    HW116055   3.223   2.105   6.294
 5052SOL    HW216056   3.299   2.005   6.190
 5053SOL     OW16057   1.214   5.196   3.170
 5053SOL    HW116058   1.239   5.196   3.073
 5053SOL    HW216059   1.253   5.276   3.215
 5054SOL     OW16060   2.698   4.790   5.193
 5054SOL    HW116061   2.747   4.735   5.125
 5054SOL    HW216062   2.673   4.732   5.271
 5055SOL     OW16063   0.966   2.238   5.805
 5055SOL    HW116064   0.970   2.138   5.806
 5055SOL    HW216065   0.955   2.270   5.712
 5056SOL     OW16066   5.274   3.988   5.371
 5056SOL    HW116067   5.366   3.957   5.393
 5056SOL    HW216068   5.237   4.040   5.448
 5057SOL     OW16069   0.308   6.743   3.068
 5057SOL    HW116070   0.298   6.713   3.163
 5057SOL    HW216071   0.399   6.782   3.055
 5058SOL     OW16072   3.248   4.303   6.885
 5058SOL    HW116073   3.264   4.215   6.840
 5058SOL    HW216074   3.230   4.373   6.815
 5059SOL     OW16075   0.157   1.130   3.349
 5059SOL    HW116076   0.201   1.046   3.317
 5059SOL    HW216077   0.132   1.186   3.271
 5060SOL     OW16078   0.047   2.545   6.531
 5060SOL    HW116079   0.003   2.573   6.616
 5060SOL    HW216080   0.095   2.458   6.546
 5061SOL     OW16081   4.730   2.531   0.359
 5061SOL    HW116082   4.786   2.609   0.390
 5061SOL    HW216083   4.773   2.446   0.389
 5062SOL     OW16084   6.292   0.214   2.564
 5062SOL    HW116085   6.242   0.296   2.535
 5062SOL    HW216086   6.388   0.222   2.538
 5063SOL     OW16087   0.124   6.691   2.214
 5063SOL    HW116088   0.150   6.628   2.287
 5063SOL    HW216089   0.181   6.773   2.218
 5064SOL     OW16090   4.855   2.949   0.683
 5064SOL    HW116091   4.923   2.890   0.726
 5064SOL    HW216092   4.797   2.990   0.754
 5065SOL     OW16093   3.139   0.474   5.596
 5065SOL    HW116094   3.102   0.537   5.664
 5065SOL    HW216095   3.227   0.510   5.562
 5066SOL     OW16096   4.959   4.579   2.212
 5066SOL    HW116097   4.908   4.588   2.298
 5066SOL    HW216098   4.927   4.498   2.162
 5067SOL     OW16099   5.199   1.738   0.785
 5067SOL    HW116100   5.115   1.746   0.839
 5067SOL    HW216101   5.246   1.653   0.810
 5068SOL     OW16102   2.097   4.531   1.156
 5068SOL    HW116103   2.097   4.510   1.254
 5068SOL    HW216104   2.164   4.604   1.138
 5069SOL     OW16105   1.966   4.200   3.101
 5069SOL    HW116106   1.945   4.111   3.061
 5069SOL    HW216107   1.883   4.240   3.140
 5070SOL     OW16108   4.958   3.546   3.699
 5070SOL    HW116109   4.918   3.455   3.689
 5070SOL    HW216110   5.057   3.539   3.706
 5071SOL     OW16111   4.447   2.422   4.900
 5071SOL    HW116112   4.510   2.396   4.972
 5071SOL    HW216113   4.353   2.404   4.930
 5072SOL     OW16114   0.600   5.946   0.597
 5072SOL    HW116115   0.689   5.926   0.555
 5072SOL    HW216116   0.592   5.894   0.683
 5073SOL     OW16117   6.550   6.433   3.031
 5073SOL    HW116118   6.474   6.475   2.981
 5073SOL    HW216119   6.593   6.364   2.973
 5074SOL     OW16120   3.639   3.732   6.885
 5074SOL    HW116121   3.672   3.736   6.979
 5074SOL    HW216122   3.653   3.641   6.847
 5075SOL     OW16123   0.391   1.087   5.898
 5075SOL    HW116124   0.306   1.095   5.950
 5075SOL    HW216125   0.412   1.174   5.855
 5076SOL     OW16126   4.240   1.003   1.223
 5076SOL    HW116127   4.319   0.956   1.264
 5076SOL    HW216128   4.168   1.012   1.292
 5077SOL     OW16129   1.212   2.454   3.709
 5077SOL    HW116130   1.251   2.498   3.790
 5077SOL    HW216131   1.193   2.358   3.729
 5078SOL     OW16132   1.035   1.846   3.354
 5078SOL    HW116133   1.121   1.814   3.394
 5078SOL    HW216134   1.052   1.882   3.263
 5079SOL     OW16135   2.753   4.901   6.272
 5079SOL    HW116136   2.739   4.839   6.194
 5079SOL    HW216137   2.792   4.849   6.348
 5080SOL     OW16138   5.750   6.671   4.836
 5080SOL    HW116139   5.782   6.592   4.785
 5080SOL    HW216140   5.781   6.755   4.791
 5081SOL     OW16141   3.649   3.732   3.224
 5081SOL    HW116142   3.737   3.748   3.179
 5081SOL    HW216143   3.650   3.643   3.269
 5082SOL     OW16144   5.451   6.386   4.958
 5082SOL    HW116145   5.415   6.301   4.997
 5082SOL    HW216146   5.432   6.387   4.860
 5083SOL     OW16147   1.788   6.392   2.476
 5083SOL    HW116148   1.826   6.377   2.567
 5083SOL    HW216149   1.709   6.452   2.482
 5084SOL     OW16150   1.421   4.667   4.465
 5084SOL    HW116151   1.417   4.754   4.515
 5084SOL    HW216152   1.509   4.624   4.480
 5085SOL     OW16153   5.382   2.277   6.344
 5085SOL    HW116154   5.284   2.279   6.321
 5085SOL    HW216155   5.406   2.362   6.390
 5086SOL     OW16156   6.327   5.356   3.872
 5086SOL    HW116157   6.346   5.322   3.780
 5086SOL    HW216158   6.288   5.283   3.927
 5087SOL     OW16159   6.890   6.276   3.881
 5087SOL    HW116160   6.851   6.195   3.924
 5087SOL    HW216161   6.866   6.276   3.783
 5088SOL     OW16162   6.009   1.239   5.653
 5088SOL    HW116163   6.054   1.256   5.566
 5088SOL    HW216164   5.916   1.207   5.637
 5089SOL     OW16165   6.481   3.350   3.532
 5089SOL    HW116166   6.557   3.355   3.597
 5089SOL    HW216167   6.501   3.279   3.464
 5090SOL     OW16168   2.002   3.801   1.208
 5090SOL    HW116169   2.081   3.859   1.223
 5090SOL    HW216170   1.935   3.815   1.282
 5091SOL     OW16171   1.230   6.169   2.902
 5091SOL    HW116172   1.179   6.222   2.969
 5091SOL    HW216173   1.327   6.194   2.906
 5092SOL     OW16174   3.595   2.732   1.318
 5092SOL    HW116175   3.537   2.794   1.265
 5092SOL    HW216176   3.538   2.665   1.366
 5093SOL     OW16177   1.138   1.554   1.797
 5093SOL    HW116178   1.120   1.608   1.715
 5093SOL    HW216179   1.130   1.611   1.878
 5094SOL     OW16180   1.128   0.324   5.521
 5094SOL    HW116181   1.046   0.333   5.464
 5094SOL    HW216182   1.204   0.289   5.465
 5095SOL     OW16183   1.282   0.603   4.324
 5095SOL    HW116184   1.341   0.525   4.346
 5095SOL    HW216185   1.243   0.640   4.409
 5096SOL     OW16186   4.238   3.728   0.636
 5096SOL    HW116187   4.319   3.770   0.677
 5096SOL    HW216188   4.211   3.649   0.691
 5097SOL     OW16189   1.527   0.129   6.332
 5097SOL    HW116190   1.524   0.202   6.264
 5097SOL    HW216191   1.568   0.047   6.291
 5098SOL     OW16192   0.214   0.605   1.762
 5098SOL    HW116193   0.232   0.571   1.854
 5098SOL    HW216194   0.279   0.679   1.741
 5099SOL     OW16195   1.047   0.226   6.118
 5099SOL    HW116196   0.958   0.193   6.148
 5099SOL    HW216197   1.115   0.210   6.189
 5100SOL     OW16198   4.693   6.611   6.156
 5100SOL    HW116199   4.638   6.678   6.106
 5100SOL    HW216200   4.699   6.526   6.103
 5101SOL     OW16201   5.436   6.402   0.081
 5101SOL    HW116202   5.532   6.431   0.075
 5101SOL    HW216203   5.380   6.479   0.111
 5102SOL     OW16204   5.919   0.650   5.470
 5102SOL    HW116205   5.854   0.590   5.423
 5102SOL    HW216206   6.009   0.608   5.468
 5103SOL     OW16207   6.670   1.299   4.203
 5103SOL    HW116208   6.723   1.339   4.128
 5103SOL    HW216209   6.732   1.264   4.273
 5104SOL     OW16210   1.855   6.891   1.218
 5104SOL    HW116211   1.845   6.918   1.123
 5104SOL    HW216212   1.869   6.792   1.224
 5105SOL     OW16213   4.486   3.792   6.843
 5105SOL    HW116214   4.582   3.765   6.851
 5105SOL    HW216215   4.465   3.812   6.747
 5106SOL     OW16216   3.728   0.202   2.461
 5106SOL    HW116217   3.697   0.143   2.535
 5106SOL    HW216218   3.708   0.297   2.484
 5107SOL     OW16219   2.762   0.383   0.279
 5107SOL    HW116220   2.763   0.464   0.337
 5107SOL    HW216221   2.708   0.400   0.197
 5108SOL     OW16222   3.016   3.790   3.627
 5108SOL    HW116223   3.031   3.788   3.529
 5108SOL    HW216224   2.937   3.732   3.650
 5109SOL     OW16225   1.052   1.733   1.148
 5109SOL    HW116226   1.042   1.791   1.067
 5109SOL    HW216227   0.980   1.662   1.146
 5110SOL     OW16228   1.347   6.320   6.240
 5110SOL    HW116229   1.395   6.291   6.157
 5110SOL    HW216230   1.345   6.245   6.306
 5111SOL     OW16231   0.547   0.836   5.793
 5111SOL    HW116232   0.636   0.864   5.757
 5111SOL    HW216233   0.505   0.913   5.841
 5112SOL     OW16234   0.305   6.603   3.632
 5112SOL    HW116235   0.207   6.621   3.623
 5112SOL    HW216236   0.353   6.640   3.553
 5113SOL     OW16237   0.582   0.521   1.296
 5113SOL    HW116238   0.656   0.588   1.296
 5113SOL    HW216239   0.603   0.448   1.231
 5114SOL     OW16240   3.695   3.455   0.109
 5114SOL    HW116241   3.666   3.449   0.204
 5114SOL    HW216242   3.722   3.365   0.077
 5115SOL     OW16243   1.662   4.392   5.677
 5115SOL    HW116244   1.747   4.385   5.728
 5115SOL    HW216245   1.586   4.358   5.734
 5116SOL     OW16246   5.428   5.543   5.881
 5116SOL    HW116247   5.412   5.483   5.804
 5116SOL    HW216248   5.343   5.589   5.907
 5117SOL     OW16249   2.227   4.647   3.869
 5117SOL    HW116250   2.308   4.593   3.893
 5117SOL    HW216251   2.177   4.601   3.795
 5118SOL     OW16252   4.529   6.505   0.454
 5118SOL    HW116253   4.445   6.520   0.505
 5118SOL    HW216254   4.585   6.588   0.456
 5119SOL     OW16255   5.049   0.324   1.907
 5119SOL    HW116256   5.097   0.267   1.973
 5119SOL    HW216257   5.012   0.267   1.834
 5120SOL     OW16258   5.954   1.388   2.895
 5120SOL    HW116259   5.923   1.446   2.970
 5120SOL    HW216260   6.051   1.403   2.879
 5121SOL     OW16261   1.142   2.982   6.423
 5121SOL    HW116262   1.146   2.886   6.452
 5121SOL    HW216263   1.086   3.034   6.489
 5122SOL     OW16264   2.745   0.732   3.585
 5122SOL    HW116265   2.691   0.684   3.516
 5122SOL    HW216266   2.766   0.824   3.551
 5123SOL     OW16267   5.619   3.533   4.086
 5123SOL    HW116268   5.610   3.614   4.029
 5123SOL    HW216269   5.609   3.451   4.030
 5124SOL     OW16270   2.514   5.677   6.374
 5124SOL    HW116271   2.580   5.751   6.387
 5124SOL    HW216272   2.430   5.715   6.337
 5125SOL     OW16273   0.477   3.744   4.438
 5125SOL    HW116274   0.540   3.682   4.393
 5125SOL    HW216275   0.453   3.708   4.529
 5126SOL     OW16276   6.243   4.941   5.372
 5126SOL    HW116277   6.277   4.897   5.455
 5126SOL    HW216278   6.157   4.988   5.392
 5127SOL     OW16279   5.543   4.122   0.621
 5127SOL    HW116280   5.641   4.111   0.606
 5127SOL    HW216281   5.528   4.169   0.708
 5128SOL     OW16282   0.740   0.411   0.043
 5128SOL    HW116283   0.683   0.450   6.989
 5128SOL    HW216284   0.690   0.338   0.089
 5129SOL     OW16285   5.322   0.546   3.056
 5129SOL    HW116286   5.293   0.451   3.054
 5129SOL    HW216287   5.416   0.551   3.090
 5130SOL     OW16288   0.722   5.428   4.514
 5130SOL    HW116289   0.761   5.395   4.600
 5130SOL    HW216290   0.670   5.511   4.531
 5131SOL     OW16291   3.644   4.877   3.521
 5131SOL    HW116292   3.555   4.842   3.489
 5131SOL    HW216293   3.629   4.944   3.594
 5132SOL     OW16294   3.159   1.657   6.709
 5132SOL    HW116295   3.202   1.647   6.619
 5132SOL    HW216296   3.117   1.748   6.715
 5133SOL     OW16297   3.452   5.511   6.152
 5133SOL    HW116298   3.525   5.453   6.187
 5133SOL    HW216299   3.489   5.573   6.083
 5134SOL     OW16300   6.435   0.065   1.653
 5134SOL    HW116301   6.480   0.001   1.716
 5134SOL    HW216302   6.389   0.137   1.706
 5135SOL     OW16303   6.345   3.429   3.170
 5135SOL    HW116304   6.443   3.414   3.156
 5135SOL    HW216305   6.331   3.475   3.258
 5136SOL     OW16306   0.333   0.951   6.201
 5136SOL    HW116307   0.430   0.930   6.197
 5136SOL    HW216308   0.279   0.868   6.186
 5137SOL     OW16309   4.835   2.492   5.485
 5137SOL    HW116310   4.764   2.452   5.543
 5137SOL    HW216311   4.834   2.591   5.493
 5138SOL     OW16312   3.541   4.001   3.972
 5138SOL    HW116313   3.501   4.023   4.061
 5138SOL    HW216314   3.597   3.919   3.981
 5139SOL     OW16315   1.559   0.741   4.635
 5139SOL    HW116316   1.591   0.661   4.585
 5139SOL    HW216317   1.460   0.750   4.624
 5140SOL     OW16318   3.891   1.851   6.363
 5140SOL    HW116319   3.794   1.860   6.343
 5140SOL    HW216320   3.914   1.755   6.377
 5141SOL     OW16321   6.396   3.146   1.479
 5141SOL    HW116322   6.392   3.047   1.468
 5141SOL    HW216323   6.420   3.188   1.391
 5142SOL     OW16324   6.033   6.803   3.811
 5142SOL    HW116325   6.103   6.731   3.809
 5142SOL    HW216326   5.943   6.762   3.799
 5143SOL     OW16327   0.816   4.203   4.756
 5143SOL    HW116328   0.879   4.150   4.813
 5143SOL    HW216329   0.748   4.248   4.814
 5144SOL     OW16330   1.986   3.670   6.750
 5144SOL    HW116331   2.061   3.650   6.813
 5144SOL    HW216332   2.014   3.741   6.686
 5145SOL     OW16333   3.625   5.954   6.299
 5145SOL    HW116334   3.707   5.984   6.348
 5145SOL    HW216335   3.651   5.920   6.209
 5146SOL     OW16336   4.181   4.641   5.581
 5146SOL    HW116337   4.224   4.552   5.596
 5146SOL    HW216338   4.109   4.655   5.648
 5147SOL     OW16339   5.053   3.766   3.289
 5147SOL    HW116340   5.133   3.721   3.249
 5147SOL    HW216341   5.084   3.830   3.360
 5148SOL     OW16342   0.531   0.230   2.006
 5148SOL    HW116343   0.531   0.234   1.906
 5148SOL    HW216344   0.625   0.222   2.039
 5149SOL     OW16345   5.957   4.818   3.722
 5149SOL    HW116346   5.897   4.825   3.802
 5149SOL    HW216347   5.987   4.724   3.711
 5150SOL     OW16348   1.385   5.315   3.544
 5150SOL    HW116349   1.346   5.225   3.563
 5150SOL    HW216350   1.460   5.306   3.479
 5151SOL     OW16351   6.023   4.863   1.055
 5151SOL    HW116352   5.999   4.953   1.018
 5151SOL    HW216353   5.992   4.858   1.150
 5152SOL     OW16354   1.749   6.349   6.591
 5152SOL    HW116355   1.764   6.445   6.568
 5152SOL    HW216356   1.837   6.302   6.596
 5153SOL     OW16357   1.641   0.941   0.663
 5153SOL    HW116358   1.643   0.918   0.566
 5153SOL    HW216359   1.553   0.914   0.702
 5154SOL     OW16360   0.812   2.321   6.685
 5154SOL    HW116361   0.911   2.326   6.689
 5154SOL    HW216362   0.781   2.341   6.592
 5155SOL     OW16363   2.348   1.582   0.661
 5155SOL    HW116364   2.266   1.526   0.671
 5155SOL    HW216365   2.336   1.668   0.711
 5156SOL     OW16366   5.216   4.982   5.009
 5156SOL    HW116367   5.155   4.930   5.069
 5156SOL    HW216368   5.302   5.000   5.055
 5157SOL     OW16369   4.041   1.689   1.855
 5157SOL    HW116370   4.007   1.623   1.923
 5157SOL    HW216371   4.020   1.782   1.886
 5158SOL     OW16372   3.794   1.550   1.493
 5158SOL    HW116373   3.743   1.599   1.564
 5158SOL    HW216374   3.881   1.517   1.530
 5159SOL     OW16375   5.858   3.837   6.658
 5159SOL    HW116376   5.818   3.763   6.713
 5159SOL    HW216377   5.796   3.858   6.582
 5160SOL     OW16378   6.443   6.825   3.403
 5160SOL    HW116379   6.367   6.780   3.451
 5160SOL    HW216380   6.530   6.795   3.443
 5161SOL     OW16381   1.189   3.279   6.919
 5161SOL    HW116382   1.250   3.276   6.841
 5161SOL    HW216383   1.221   3.216   6.990
 5162SOL     OW16384   0.117   5.448   2.952
 5162SOL    HW116385   0.185   5.512   2.987
 5162SOL    HW216386   0.056   5.420   3.026
 5163SOL     OW16387   3.056   5.775   1.771
 5163SOL    HW116388   3.084   5.734   1.858
 5163SOL    HW216389   3.122   5.844   1.743
 5164SOL     OW16390   2.807   2.918   0.512
 5164SOL    HW116391   2.741   2.870   0.453
 5164SOL    HW216392   2.841   2.854   0.581
 5165SOL     OW16393   1.349   4.971   0.180
 5165SOL    HW116394   1.314   4.882   0.151
 5165SOL    HW216395   1.287   5.043   0.148
 5166SOL     OW16396   1.788   5.559   1.787
 5166SOL    HW116397   1.881   5.558   1.824
 5166SOL    HW216398   1.726   5.597   1.856
 5167SOL     OW16399   5.680   3.662   5.661
 5167SOL    HW116400   5.592   3.638   5.701
 5167SOL    HW216401   5.703   3.757   5.685
 5168SOL     OW16402   4.864   2.511   2.483
 5168SOL    HW116403   4.929   2.500   2.408
 5168SOL    HW216404   4.799   2.584   2.461
 5169SOL     OW16405   4.193   1.027   4.034
 5169SOL    HW116406   4.134   1.002   4.111
 5169SOL    HW216407   4.221   1.123   4.044
 5170SOL     OW16408   1.306   3.508   6.424
 5170SOL    HW116409   1.305   3.421   6.375
 5170SOL    HW216410   1.333   3.492   6.519
 5171SOL     OW16411   1.680   5.029   5.665
 5171SOL    HW116412   1.772   5.017   5.627
 5171SOL    HW216413   1.628   4.944   5.654
 5172SOL     OW16414   1.095   5.067   4.084
 5172SOL    HW116415   1.180   5.064   4.031
 5172SOL    HW216416   1.106   5.012   4.166
 5173SOL     OW16417   4.485   3.718   6.304
 5173SOL    HW116418   4.441   3.629   6.291
 5173SOL    HW216419   4.457   3.779   6.229
 5174SOL     OW16420   1.399   0.059   3.779
 5174SOL    HW116421   1.424   0.075   3.684
 5174SOL    HW216422   1.304   0.086   3.793
 5175SOL     OW16423   3.080   4.238   6.616
 5175SOL    HW116424   3.069   4.201   6.523
 5175SOL    HW216425   3.091   4.162   6.681
 5176SOL     OW16426   5.661   5.618   6.184
 5176SOL    HW116427   5.587   5.552   6.195
 5176SOL    HW216428   5.745   5.570   6.159
 5177SOL     OW16429   5.031   0.413   0.902
 5177SOL    HW116430   4.973   0.393   0.824
 5177SOL    HW216431   4.976   0.413   0.986
 5178SOL     OW16432   0.930   4.075   1.778
 5178SOL    HW116433   0.936   3.982   1.741
 5178SOL    HW216434   0.970   4.139   1.712
 5179SOL     OW16435   5.262   4.136   2.666
 5179SOL    HW116436   5.218   4.187   2.740
 5179SOL    HW216437   5.315   4.198   2.609
 5180SOL     OW16438   2.723   6.424   1.213
 5180SOL    HW116439   2.653   6.399   1.281
 5180SOL    HW216440   2.703   6.515   1.177
 5181SOL     OW16441   6.886   1.124   6.643
 5181SOL    HW116442   6.874   1.040   6.590
 5181SOL    HW216443   6.951   1.183   6.596
 5182SOL     OW16444   4.208   4.684   2.625
 5182SOL    HW116445   4.285   4.683   2.560
 5182SOL    HW216446   4.135   4.625   2.590
 5183SOL     OW16447   4.220   1.937   2.994
 5183SOL    HW116448   4.309   1.974   2.966
 5183SOL    HW216449   4.194   1.975   3.082
 5184SOL     OW16450   2.014   2.511   3.820
 5184SOL    HW116451   2.037   2.447   3.893
 5184SOL    HW216452   2.096   2.559   3.790
 5185SOL     OW16453   4.549   0.427   2.468
 5185SOL    HW116454   4.576   0.474   2.552
 5185SOL    HW216455   4.545   0.328   2.485
 5186SOL     OW16456   6.431   3.099   6.040
 5186SOL    HW116457   6.437   3.001   6.019
 5186SOL    HW216458   6.415   3.150   5.955
 5187SOL     OW16459   2.339   5.175   4.540
 5187SOL    HW116460   2.334   5.197   4.637
 5187SOL    HW216461   2.248   5.151   4.506
 5188SOL     OW16462   6.639   6.285   1.653
 5188SOL    HW116463   6.702   6.361   1.667
 5188SOL    HW216464   6.563   6.292   1.717
 5189SOL     OW16465   5.782   0.024   6.314
 5189SOL    HW116466   5.757   0.117   6.284
 5189SOL    HW216467   5.730   6.976   6.261
 5190SOL     OW16468   1.786   2.934   1.765
 5190SOL    HW116469   1.843   2.949   1.685
 5190SOL    HW216470   1.778   3.018   1.818
 5191SOL     OW16471   3.005   5.915   2.415
 5191SOL    HW116472   2.963   5.901   2.504
 5191SOL    HW216473   3.097   5.953   2.426
 5192SOL     OW16474   1.636   5.768   1.385
 5192SOL    HW116475   1.712   5.718   1.343
 5192SOL    HW216476   1.643   5.759   1.485
 5193SOL     OW16477   5.363   0.481   6.733
 5193SOL    HW116478   5.440   0.420   6.747
 5193SOL    HW216479   5.325   0.508   6.822
 5194SOL     OW16480   3.569   1.730   6.489
 5194SOL    HW116481   3.493   1.666   6.477
 5194SOL    HW216482   3.557   1.807   6.426
 5195SOL     OW16483   0.720   0.582   3.466
 5195SOL    HW116484   0.800   0.522   3.464
 5195SOL    HW216485   0.714   0.634   3.381
 5196SOL     OW16486   4.692   6.604   2.884
 5196SOL    HW116487   4.687   6.509   2.853
 5196SOL    HW216488   4.665   6.609   2.980
 5197SOL     OW16489   1.585   3.817   6.678
 5197SOL    HW116490   1.665   3.771   6.640
 5197SOL    HW216491   1.611   3.907   6.714
 5198SOL     OW16492   4.545   5.693   3.122
 5198SOL    HW116493   4.491   5.759   3.069
 5198SOL    HW216494   4.635   5.733   3.142
 5199SOL     OW16495   6.808   5.490   1.036
 5199SOL    HW116496   6.842   5.584   1.038
 5199SOL    HW216497   6.847   5.442   0.957
 5200SOL     OW16498   0.629   3.928   5.285
 5200SOL    HW116499   0.619   3.930   5.185
 5200SOL    HW216500   0.539   3.916   5.327
 5201SOL     OW16501   1.117   6.416   4.238
 5201SOL    HW116502   1.048   6.343   4.237
 5201SOL    HW216503   1.077   6.500   4.202
 5202SOL     OW16504   6.892   3.094   6.814
 5202SOL    HW116505   6.914   3.009   6.765
 5202SOL    HW216506   6.853   3.160   6.751
 5203SOL     OW16507   1.128   2.362   6.851
 5203SOL    HW116508   1.129   2.296   6.775
 5203SOL    HW216509   1.070   2.327   6.924
 5204SOL     OW16510   3.905   4.922   0.597
 5204SOL    HW116511   3.882   4.838   0.547
 5204SOL    HW216512   3.821   4.962   0.634
 5205SOL     OW16513   1.513   0.222   1.595
 5205SOL    HW116514   1.575   0.244   1.519
 5205SOL    HW216515   1.515   0.124   1.612
 5206SOL     OW16516   0.132   4.466   6.622
 5206SOL    HW116517   0.186   4.403   6.567
 5206SOL    HW216518   0.144   4.446   6.719
 5207SOL     OW16519   1.302   5.399   4.528
 5207SOL    HW116520   1.240   5.475   4.546
 5207SOL    HW216521   1.277   5.354   4.443
 5208SOL     OW16522   3.823   0.965   0.378
 5208SOL    HW116523   3.764   1.042   0.404
 5208SOL    HW216524   3.792   0.882   0.425
 5209SOL     OW16525   5.866   6.258   3.581
 5209SOL    HW116526   5.904   6.224   3.667
 5209SOL    HW216527   5.940   6.268   3.514
 5210SOL     OW16528   5.288   3.518   4.957
 5210SOL    HW116529   5.205   3.511   4.903
 5210SOL    HW216530   5.264   3.525   5.054
 5211SOL     OW16531   3.646   3.023   4.229
 5211SOL    HW116532   3.548   3.041   4.231
 5211SOL    HW216533   3.682   3.046   4.138
 5212SOL     OW16534   0.356   2.508   0.373
 5212SOL    HW116535   0.427   2.505   0.444
 5212SOL    HW216536   0.399   2.526   0.284
 5213SOL     OW16537   4.806   2.222   6.307
 5213SOL    HW116538   4.778   2.127   6.321
 5213SOL    HW216539   4.748   2.263   6.236
 5214SOL     OW16540   5.285   1.408   6.029
 5214SOL    HW116541   5.254   1.427   6.122
 5214SOL    HW216542   5.269   1.489   5.971
 5215SOL     OW16543   5.809   5.059   3.090
 5215SOL    HW116544   5.864   5.139   3.067
 5215SOL    HW216545   5.781   5.065   3.186
 5216SOL     OW16546   4.763   5.520   1.198
 5216SOL    HW116547   4.826   5.462   1.148
 5216SOL    HW216548   4.698   5.562   1.135
 5217SOL     OW16549   2.956   5.203   3.719
 5217SOL    HW116550   3.048   5.190   3.756
 5217SOL    HW216551   2.959   5.193   3.619
 5218SOL     OW16552   2.049   0.407   4.019
 5218SOL    HW116553   2.025   0.317   3.982
 5218SOL    HW216554   1.966   0.458   4.041
 5219SOL     OW16555   3.748   0.042   6.456
 5219SOL    HW116556   3.765   0.041   6.554
 5219SOL    HW216557   3.835   0.039   6.407
 5220SOL     OW16558   0.998   5.209   2.197
 5220SOL    HW116559   0.931   5.283   2.199
 5220SOL    HW216560   1.067   5.229   2.127
 5221SOL     OW16561   5.507   2.167   4.430
 5221SOL    HW116562   5.453   2.085   4.448
 5221SOL    HW216563   5.483   2.238   4.496
 5222SOL     OW16564   2.742   6.990   3.988
 5222SOL    HW116565   2.791   6.903   3.992
 5222SOL    HW216566   2.785   0.036   4.052
 5223SOL     OW16567   4.601   0.625   0.939
 5223SOL    HW116568   4.562   0.555   0.878
 5223SOL    HW216569   4.554   0.621   1.028
 5224SOL     OW16570   6.477   2.244   3.141
 5224SOL    HW116571   6.404   2.297   3.097
 5224SOL    HW216572   6.528   2.194   3.071
 5225SOL     OW16573   6.504   0.483   3.056
 5225SOL    HW116574   6.450   0.446   3.132
 5225SOL    HW216575   6.585   0.530   3.092
 5226SOL     OW16576   0.270   6.478   4.979
 5226SOL    HW116577   0.215   6.471   4.896
 5226SOL    HW216578   0.232   6.550   5.038
 5227SOL     OW16579   0.099   4.844   3.807
 5227SOL    HW116580   0.122   4.867   3.901
 5227SOL    HW216581   0.013   4.793   3.806
 5228SOL     OW16582   6.680   2.729   0.086
 5228SOL    HW116583   6.729   2.646   0.110
 5228SOL    HW216584   6.742   2.808   0.095
 5229SOL     OW16585   1.837   4.386   6.716
 5229SOL    HW116586   1.865   4.290   6.727
 5229SOL    HW216587   1.760   4.391   6.653
 5230SOL     OW16588   0.342   0.021   0.720
 5230SOL    HW116589   0.268   6.998   0.772
 5230SOL    HW216590   0.305   0.097   0.666
 5231SOL     OW16591   3.266   3.021   4.844
 5231SOL    HW116592   3.295   2.957   4.915
 5231SOL    HW216593   3.343   3.040   4.783
 5232SOL     OW16594   3.117   2.488   5.941
 5232SOL    HW116595   3.145   2.480   5.845
 5232SOL    HW216596   3.199   2.492   5.999
 5233SOL     OW16597   6.941   6.471   1.352
 5233SOL    HW116598   6.846   6.498   1.337
 5233SOL    HW216599   6.981   6.526   1.426
 5234SOL     OW16600   3.284   0.291   0.280
 5234SOL    HW116601   3.205   0.246   0.238
 5234SOL    HW216602   3.352   0.310   0.209
 5235SOL     OW16603   1.099   3.109   1.105
 5235SOL    HW116604   1.070   3.032   1.049
 5235SOL    HW216605   1.025   3.177   1.108
 5236SOL     OW16606   5.357   3.190   1.613
 5236SOL    HW116607   5.296   3.141   1.551
 5236SOL    HW216608   5.369   3.284   1.581
 5237SOL     OW16609   3.026   1.870   5.309
 5237SOL    HW116610   2.989   1.778   5.294
 5237SOL    HW216611   3.032   1.918   5.221
 5238SOL     OW16612   1.245   4.976   0.446
 5238SOL    HW116613   1.275   4.978   0.351
 5238SOL    HW216614   1.295   5.045   0.498
 5239SOL     OW16615   3.509   3.806   4.388
 5239SOL    HW116616   3.445   3.805   4.465
 5239SOL    HW216617   3.503   3.719   4.339
 5240SOL     OW16618   3.007   1.809   5.582
 5240SOL    HW116619   3.006   1.821   5.483
 5240SOL    HW216620   2.917   1.833   5.620
 5241SOL     OW16621   1.039   5.878   6.276
 5241SOL    HW116622   1.067   5.900   6.370
 5241SOL    HW216623   0.939   5.880   6.269
 5242SOL     OW16624   5.748   0.454   5.388
 5242SOL    HW116625   5.783   0.381   5.447
 5242SOL    HW216626   5.697   0.413   5.312
 5243SOL     OW16627   0.647   5.811   0.839
 5243SOL    HW116628   0.657   5.854   0.929
 5243SOL    HW216629   0.634   5.713   0.850
 5244SOL     OW16630   4.492   3.985   5.611
 5244SOL    HW116631   4.582   3.996   5.569
 5244SOL    HW216632   4.461   3.890   5.600
 5245SOL     OW16633   4.438   3.844   6.044
 5245SOL    HW116634   4.477   3.926   6.086
 5245SOL    HW216635   4.398   3.869   5.955
 5246SOL     OW16636   6.820   4.266   2.465
 5246SOL    HW116637   6.882   4.215   2.406
 5246SOL    HW216638   6.846   4.362   2.466
 5247SOL     OW16639   0.880   6.407   6.949
 5247SOL    HW116640   0.944   6.422   0.005
 5247SOL    HW216641   0.791   6.379   6.987
 5248SOL     OW16642   5.343   0.607   5.775
 5248SOL    HW116643   5.435   0.591   5.738
 5248SOL    HW216644   5.316   0.529   5.832
 5249SOL     OW16645   0.735   5.071   4.875
 5249SOL    HW116646   0.640   5.058   4.846
 5249SOL    HW216647   0.738   5.087   4.973
 5250SOL     OW16648   0.223   1.277   6.203
 5250SOL    HW116649   0.315   1.238   6.198
 5250SOL    HW216650   0.169   1.246   6.125
 5251SOL     OW16651   0.361   3.074   1.275
 5251SOL    HW116652   0.342   3.088   1.372
 5251SOL    HW216653   0.286   3.022   1.234
 5252SOL     OW16654   1.812   5.319   1.056
 5252SOL    HW116655   1.725   5.307   1.009
 5252SOL    HW216656   1.817   5.257   1.135
 5253SOL     OW16657   5.916   3.599   4.587
 5253SOL    HW116658   5.964   3.525   4.539
 5253SOL    HW216659   5.831   3.619   4.539
 5254SOL     OW16660   5.278   1.682   3.319
 5254SOL    HW116661   5.275   1.610   3.389
 5254SOL    HW216662   5.325   1.648   3.238
 5255SOL     OW16663   4.146   0.231   4.309
 5255SOL    HW116664   4.164   0.329   4.322
 5255SOL    HW216665   4.191   0.180   4.383
 5256SOL     OW16666   5.296   0.961   3.100
 5256SOL    HW116667   5.289   0.895   3.175
 5256SOL    HW216668   5.305   0.911   3.014
 5257SOL     OW16669   4.555   0.127   2.084
 5257SOL    HW116670   4.612   0.189   2.029
 5257SOL    HW216671   4.467   0.115   2.038
 5258SOL     OW16672   5.196   4.502   1.868
 5258SOL    HW116673   5.144   4.571   1.818
 5258SOL    HW216674   5.208   4.531   1.963
 5259SOL     OW16675   4.396   6.081   1.606
 5259SOL    HW116676   4.369   6.159   1.550
 5259SOL    HW216677   4.494   6.086   1.626
 5260SOL     OW16678   4.722   3.318   0.579
 5260SOL    HW116679   4.668   3.398   0.556
 5260SOL    HW216680   4.696   3.241   0.520
 5261SOL     OW16681   1.333   2.646   5.187
 5261SOL    HW116682   1.412   2.659   5.247
 5261SOL    HW216683   1.283   2.564   5.215
 5262SOL     OW16684   2.698   6.953   2.595
 5262SOL    HW116685   2.735   6.864   2.570
 5262SOL    HW216686   2.607   6.964   2.555
 5263SOL     OW16687   1.378   6.625   6.285
 5263SOL    HW116688   1.293   6.645   6.332
 5263SOL    HW216689   1.384   6.526   6.268
 5264SOL     OW16690   6.372   1.165   1.397
 5264SOL    HW116691   6.415   1.236   1.453
 5264SOL    HW216692   6.384   1.076   1.441
 5265SOL     OW16693   5.347   4.058   2.306
 5265SOL    HW116694   5.296   3.974   2.287
 5265SOL    HW216695   5.284   4.134   2.315
 5266SOL     OW16696   2.834   6.244   1.596
 5266SOL    HW116697   2.910   6.212   1.653
 5266SOL    HW216698   2.754   6.187   1.612
 5267SOL     OW16699   4.929   4.957   5.765
 5267SOL    HW116700   4.940   4.875   5.822
 5267SOL    HW216701   4.832   4.973   5.747
 5268SOL     OW16702   6.399   5.869   5.170
 5268SOL    HW116703   6.437   5.867   5.262
 5268SOL    HW216704   6.330   5.941   5.163
 5269SOL     OW16705   2.114   6.513   3.830
 5269SOL    HW116706   2.072   6.604   3.826
 5269SOL    HW216707   2.117   6.473   3.738
 5270SOL     OW16708   4.702   1.892   1.464
 5270SOL    HW116709   4.742   1.821   1.406
 5270SOL    HW216710   4.767   1.967   1.476
 5271SOL     OW16711   4.218   5.136   4.237
 5271SOL    HW116712   4.172   5.059   4.192
 5271SOL    HW216713   4.314   5.112   4.253
 5272SOL     OW16714   0.578   6.319   3.858
 5272SOL    HW116715   0.667   6.362   3.842
 5272SOL    HW216716   0.564   6.307   3.956
 5273SOL     OW16717   1.191   2.979   3.623
 5273SOL    HW116718   1.258   2.909   3.647
 5273SOL    HW216719   1.136   2.947   3.545
 5274SOL     OW16720   6.362   5.207   2.835
 5274SOL    HW116721   6.344   5.221   2.738
 5274SOL    HW216722   6.396   5.291   2.876
 5275SOL     OW16723   3.185   0.339   6.527
 5275SOL    HW116724   3.185   0.410   6.456
 5275SOL    HW216725   3.255   0.359   6.595
 5276SOL     OW16726   0.151   6.315   0.242
 5276SOL    HW116727   0.226   6.316   0.175
 5276SOL    HW216728   0.068   6.280   0.199
 5277SOL     OW16729   2.123   1.810   2.883
 5277SOL    HW116730   2.056   1.736   2.875
 5277SOL    HW216731   2.207   1.775   2.923
 5278SOL     OW16732   5.562   6.796   5.696
 5278SOL    HW116733   5.623   6.778   5.619
 5278SOL    HW216734   5.498   6.720   5.706
 5279SOL     OW16735   1.110   6.181   6.845
 5279SOL    HW116736   1.148   6.089   6.835
 5279SOL    HW216737   1.069   6.210   6.759
 5280SOL     OW16738   4.000   6.005   5.405
 5280SOL    HW116739   4.051   5.920   5.397
 5280SOL    HW216740   3.929   5.995   5.474
 5281SOL     OW16741   0.911   1.493   3.929
 5281SOL    HW116742   0.988   1.429   3.929
 5281SOL    HW216743   0.915   1.549   3.846
 5282SOL     OW16744   2.144   0.107   2.593
 5282SOL    HW116745   2.197   0.070   2.670
 5282SOL    HW216746   2.165   0.204   2.583
 5283SOL     OW16747   1.534   0.742   3.547
 5283SOL    HW116748   1.469   0.808   3.585
 5283SOL    HW216749   1.577   0.691   3.622
 5284SOL     OW16750   4.577   2.619   2.943
 5284SOL    HW116751   4.659   2.603   2.999
 5284SOL    HW216752   4.528   2.533   2.931
 5285SOL     OW16753   0.926   3.828   4.226
 5285SOL    HW116754   0.864   3.834   4.304
 5285SOL    HW216755   1.021   3.831   4.258
 5286SOL     OW16756   6.281   3.054   0.916
 5286SOL    HW116757   6.211   3.030   0.847
 5286SOL    HW216758   6.251   3.135   0.966
 5287SOL     OW16759   2.833   5.134   1.452
 5287SOL    HW116760   2.782   5.048   1.460
 5287SOL    HW216761   2.911   5.131   1.514
 5288SOL     OW16762   4.786   0.727   2.925
 5288SOL    HW116763   4.874   0.773   2.918
 5288SOL    HW216764   4.723   0.782   2.981
 5289SOL     OW16765   2.818   5.104   6.460
 5289SOL    HW116766   2.750   5.056   6.404
 5289SOL    HW216767   2.804   5.203   6.451
 5290SOL     OW16768   1.404   3.945   5.705
 5290SOL    HW116769   1.362   3.893   5.630
 5290SOL    HW216770   1.489   3.900   5.733
 5291SOL     OW16771   3.109   4.469   5.881
 5291SOL    HW116772   3.125   4.556   5.927
 5291SOL    HW216773   3.044   4.482   5.806
 5292SOL     OW16774   5.936   4.817   6.149
 5292SOL    HW116775   5.928   4.901   6.096
 5292SOL    HW216776   5.878   4.747   6.108
 5293SOL     OW16777   1.999   6.616   5.091
 5293SOL    HW116778   1.988   6.641   5.187
 5293SOL    HW216779   2.087   6.649   5.058
 5294SOL     OW16780   4.646   1.971   5.470
 5294SOL    HW116781   4.550   1.951   5.451
 5294SOL    HW216782   4.694   1.887   5.495
 5295SOL     OW16783   3.698   0.793   3.105
 5295SOL    HW116784   3.606   0.776   3.071
 5295SOL    HW216785   3.739   0.869   3.054
 5296SOL     OW16786   3.720   3.978   0.309
 5296SOL    HW116787   3.668   3.944   0.387
 5296SOL    HW216788   3.791   4.041   0.341
 5297SOL     OW16789   1.781   3.244   0.420
 5297SOL    HW116790   1.741   3.335   0.433
 5297SOL    HW216791   1.710   3.181   0.388
 5298SOL     OW16792   1.660   5.778   6.306
 5298SOL    HW116793   1.607   5.716   6.250
 5298SOL    HW216794   1.757   5.770   6.283
 5299SOL     OW16795   2.954   2.792   0.714
 5299SOL    HW116796   3.042   2.799   0.668
 5299SOL    HW216797   2.931   2.696   0.729
 5300SOL     OW16798   0.741   5.309   1.099
 5300SOL    HW116799   0.768   5.399   1.066
 5300SOL    HW216800   0.801   5.281   1.174
 5301SOL     OW16801   4.089   1.142   6.052
 5301SOL    HW116802   4.022   1.168   5.982
 5301SOL    HW216803   4.140   1.062   6.020
 5302SOL     OW16804   5.634   6.100   3.464
 5302SOL    HW116805   5.706   6.152   3.508
 5302SOL    HW216806   5.644   6.003   3.487
 5303SOL     OW16807   0.204   5.211   4.987
 5303SOL    HW116808   0.287   5.185   5.038
 5303SOL    HW216809   0.141   5.133   4.985
 5304SOL     OW16810   6.050   1.130   0.420
 5304SOL    HW116811   6.032   1.043   0.373
 5304SOL    HW216812   6.147   1.137   0.442
 5305SOL     OW16813   0.846   5.573   2.745
 5305SOL    HW116814   0.901   5.624   2.679
 5305SOL    HW216815   0.781   5.634   2.790
 5306SOL     OW16816   0.840   4.554   5.740
 5306SOL    HW116817   0.865   4.467   5.698
 5306SOL    HW216818   0.866   4.552   5.837
 5307SOL     OW16819   3.669   1.942   0.551
 5307SOL    HW116820   3.756   1.933   0.503
 5307SOL    HW216821   3.607   1.868   0.523
 5308SOL     OW16822   1.481   4.394   2.146
 5308SOL    HW116823   1.440   4.390   2.055
 5308SOL    HW216824   1.510   4.488   2.165
 5309SOL     OW16825   3.981   4.906   2.107
 5309SOL    HW116826   3.902   4.896   2.168
 5309SOL    HW216827   4.046   4.832   2.124
 5310SOL     OW16828   6.254   3.573   1.402
 5310SOL    HW116829   6.297   3.639   1.341
 5310SOL    HW216830   6.224   3.619   1.486
 5311SOL     OW16831   5.803   6.688   0.234
 5311SOL    HW116832   5.762   6.641   0.156
 5311SOL    HW216833   5.781   6.785   0.230
 5312SOL     OW16834   0.742   5.505   1.690
 5312SOL    HW116835   0.717   5.571   1.761
 5312SOL    HW216836   0.680   5.426   1.695
 5313SOL     OW16837   1.282   3.269   6.284
 5313SOL    HW116838   1.314   3.175   6.296
 5313SOL    HW216839   1.273   3.290   6.187
 5314SOL     OW16840   3.848   6.731   0.337
 5314SOL    HW116841   3.754   6.748   0.307
 5314SOL    HW216842   3.869   6.634   0.327
 5315SOL     OW16843   5.115   3.443   2.147
 5315SOL    HW116844   5.173   3.414   2.071
 5315SOL    HW216845   5.042   3.376   2.161
 5316SOL     OW16846   0.949   3.140   5.328
 5316SOL    HW116847   0.904   3.228   5.342
 5316SOL    HW216848   0.904   3.070   5.383
 5317SOL     OW16849   5.976   2.267   5.435
 5317SOL    HW116850   5.934   2.199   5.375
 5317SOL    HW216851   6.076   2.265   5.423
 5318SOL     OW16852   0.823   2.715   0.677
 5318SOL    HW116853   0.779   2.657   0.608
 5318SOL    HW216854   0.755   2.777   0.716
 5319SOL     OW16855   4.515   6.195   0.961
 5319SOL    HW116856   4.543   6.260   0.890
 5319SOL    HW216857   4.502   6.243   1.047
 5320SOL     OW16858   4.144   5.035   0.591
 5320SOL    HW116859   4.055   5.008   0.628
 5320SOL    HW216860   4.148   5.011   0.494
 5321SOL     OW16861   1.967   4.386   4.857
 5321SOL    HW116862   1.887   4.426   4.903
 5321SOL    HW216863   1.998   4.306   4.908
 5322SOL     OW16864   5.227   6.020   0.433
 5322SOL    HW116865   5.322   6.028   0.404
 5322SOL    HW216866   5.172   6.088   0.386
 5323SOL     OW16867   3.174   1.587   5.862
 5323SOL    HW116868   3.271   1.564   5.855
 5323SOL    HW216869   3.131   1.577   5.772
 5324SOL     OW16870   3.278   2.015   0.805
 5324SOL    HW116871   3.312   2.105   0.833
 5324SOL    HW216872   3.293   2.003   0.706
 5325SOL     OW16873   4.302   0.476   4.340
 5325SOL    HW116874   4.364   0.463   4.417
 5325SOL    HW216875   4.350   0.519   4.264
 5326SOL     OW16876   6.461   5.806   3.456
 5326SOL    HW116877   6.433   5.711   3.467
 5326SOL    HW216878   6.404   5.850   3.387
 5327SOL     OW16879   5.792   3.326   5.334
 5327SOL    HW116880   5.849   3.392   5.382
 5327SOL    HW216881   5.725   3.287   5.397
 5328SOL     OW16882   3.588   3.798   6.183
 5328SOL    HW116883   3.548   3.743   6.257
 5328SOL    HW216884   3.557   3.762   6.095
 5329SOL     OW16885   0.309   5.208   6.417
 5329SOL    HW116886   0.328   5.112   6.434
 5329SOL    HW216887   0.393   5.255   6.388
 5330SOL     OW16888   4.701   3.672   0.120
 5330SOL    HW116889   4.694   3.770   0.140
 5330SOL    HW216890   4.618   3.626   0.151
 5331SOL     OW16891   6.223   1.665   5.761
 5331SOL    HW116892   6.146   1.617   5.804
 5331SOL    HW216893   6.245   1.747   5.814
 5332SOL     OW16894   0.675   3.179   1.715
 5332SOL    HW116895   0.742   3.171   1.789
 5332SOL    HW216896   0.657   3.276   1.696
 5333SOL     OW16897   1.026   0.832   3.137
 5333SOL    HW116898   1.104   0.807   3.080
 5333SOL    HW216899   1.017   0.932   3.138
 5334SOL     OW16900   3.312   7.013   4.416
 5334SOL    HW116901   3.313   0.094   4.409
 5334SOL    HW216902   3.405   6.980   4.427
 5335SOL     OW16903   0.154   6.116   0.635
 5335SOL    HW116904   0.058   6.139   0.618
 5335SOL    HW216905   0.166   6.017   0.632
 5336SOL     OW16906   1.987   3.176   2.528
 5336SOL    HW116907   2.062   3.162   2.594
 5336SOL    HW216908   1.998   3.266   2.486
 5337SOL     OW16909   4.951   4.614   1.095
 5337SOL    HW116910   4.964   4.623   0.996
 5337SOL    HW216911   5.023   4.666   1.142
 5338SOL     OW16912   5.825   1.838   0.388
 5338SOL    HW116913   5.752   1.887   0.340
 5338SOL    HW216914   5.830   1.871   0.483
 5339SOL     OW16915   6.965   1.749   4.026
 5339SOL    HW116916   6.904   1.797   4.089
 5339SOL    HW216917   6.982   1.807   3.946
 5340SOL     OW16918   4.720   4.844   1.113
 5340SOL    HW116919   4.783   4.770   1.089
 5340SOL    HW216920   4.762   4.932   1.090
 5341SOL     OW16921   3.947   2.669   6.532
 5341SOL    HW116922   3.889   2.646   6.454
 5341SOL    HW216923   3.977   2.586   6.577
 5342SOL     OW16924   3.884   0.016   4.101
 5342SOL    HW116925   3.875   6.944   4.059
 5342SOL    HW216926   3.796   0.043   4.139
 5343SOL     OW16927   3.321   4.014   4.696
 5343SOL    HW116928   3.242   4.031   4.756
 5343SOL    HW216929   3.403   4.052   4.740
 5344SOL     OW16930   1.838   2.699   2.211
 5344SOL    HW116931   1.905   2.754   2.162
 5344SOL    HW216932   1.766   2.758   2.247
 5345SOL     OW16933   4.077   5.795   1.509
 5345SOL    HW116934   4.107   5.704   1.483
 5345SOL    HW216935   3.979   5.795   1.526
 5346SOL     OW16936   3.218   6.023   4.135
 5346SOL    HW116937   3.155   6.088   4.177
 5346SOL    HW216938   3.312   6.045   4.161
 5347SOL     OW16939   0.630   2.517   2.282
 5347SOL    HW116940   0.662   2.487   2.372
 5347SOL    HW216941   0.531   2.513   2.279
 5348SOL     OW16942   6.906   1.427   0.985
 5348SOL    HW116943   6.926   1.343   0.934
 5348SOL    HW216944   6.825   1.412   1.041
 5349SOL     OW16945   1.216   2.693   0.215
 5349SOL    HW116946   1.246   2.608   0.172
 5349SOL    HW216947   1.201   2.678   0.312
 5350SOL     OW16948   1.430   0.288   5.837
 5350SOL    HW116949   1.341   0.246   5.850
 5350SOL    HW216950   1.494   0.221   5.798
 5351SOL     OW16951   5.704   5.474   1.778
 5351SOL    HW116952   5.745   5.386   1.751
 5351SOL    HW216953   5.773   5.530   1.824
 5352SOL     OW16954   1.783   5.488   4.447
 5352SOL    HW116955   1.698   5.450   4.484
 5352SOL    HW216956   1.766   5.522   4.354
 5353SOL     OW16957   3.699   5.858   4.167
 5353SOL    HW116958   3.702   5.771   4.216
 5353SOL    HW216959   3.664   5.843   4.075
 5354SOL     OW16960   1.929   5.074   1.791
 5354SOL    HW116961   1.924   4.977   1.769
 5354SOL    HW216962   1.839   5.116   1.781
 5355SOL     OW16963   4.882   2.592   3.724
 5355SOL    HW116964   4.844   2.500   3.718
 5355SOL    HW216965   4.846   2.648   3.648
 5356SOL     OW16966   6.013   4.584   1.256
 5356SOL    HW116967   6.110   4.581   1.280
 5356SOL    HW216968   5.957   4.582   1.339
 5357SOL     OW16969   3.221   6.742   0.172
 5357SOL    HW116970   3.140   6.745   0.112
 5357SOL    HW216971   3.277   6.664   0.147
 5358SOL     OW16972   4.264   1.474   0.447
 5358SOL    HW116973   4.309   1.508   0.365
 5358SOL    HW216974   4.253   1.374   0.439
 5359SOL     OW16975   1.936   1.683   0.162
 5359SOL    HW116976   1.919   1.643   0.072
 5359SOL    HW216977   1.878   1.639   0.230
 5360SOL     OW16978   4.550   6.480   5.428
 5360SOL    HW116979   4.462   6.431   5.419
 5360SOL    HW216980   4.602   6.469   5.343
 5361SOL     OW16981   1.971   6.953   4.787
 5361SOL    HW116982   2.037   6.894   4.835
 5361SOL    HW216983   2.007   6.978   4.698
 5362SOL     OW16984   5.336   4.770   3.641
 5362SOL    HW116985   5.363   4.791   3.735
 5362SOL    HW216986   5.404   4.805   3.578
 5363SOL     OW16987   0.721   0.236   6.366
 5363SOL    HW116988   0.744   0.222   6.270
 5363SOL    HW216989   0.631   0.278   6.373
 5364SOL     OW16990   6.796   5.801   1.593
 5364SOL    HW116991   6.784   5.896   1.565
 5364SOL    HW216992   6.803   5.797   1.693
 5365SOL     OW16993   3.574   3.193   6.891
 5365SOL    HW116994   3.531   3.128   6.828
 5365SOL    HW216995   3.509   3.266   6.913
 5366SOL     OW16996   4.910   5.968   1.549
 5366SOL    HW116997   4.820   5.938   1.579
 5366SOL    HW216998   4.919   6.067   1.565
 5367SOL     OW16999   0.333   5.921   0.483
 5367SOL    HW117000   0.428   5.919   0.513
 5367SOL    HW217001   0.279   5.859   0.540
 5368SOL     OW17002   5.046   0.751   2.621
 5368SOL    HW117003   5.112   0.817   2.583
 5368SOL    HW217004   5.042   0.761   2.720
 5369SOL     OW17005   3.379   0.054   2.419
 5369SOL    HW117006   3.349   6.978   2.412
 5369SOL    HW217007   3.347   0.092   2.506
 5370SOL     OW17008   4.582   2.620   1.350
 5370SOL    HW117009   4.525   2.680   1.407
 5370SOL    HW217010   4.660   2.673   1.316
 5371SOL     OW17011   1.915   3.800   4.600
 5371SOL    HW117012   1.863   3.790   4.515
 5371SOL    HW217013   2.006   3.762   4.588
 5372SOL     OW17014   2.185   5.926   3.927
 5372SOL    HW117015   2.190   6.017   3.886
 5372SOL    HW217016   2.217   5.858   3.861
 5373SOL     OW17017   3.051   5.425   4.150
 5373SOL    HW117018   3.094   5.516   4.146
 5373SOL    HW217019   2.957   5.434   4.183
 5374SOL     OW17020   0.753   4.190   0.387
 5374SOL    HW117021   0.829   4.249   0.414
 5374SOL    HW217022   0.756   4.173   0.289
 5375SOL     OW17023   1.789   4.077   4.491
 5375SOL    HW117024   1.830   4.068   4.401
 5375SOL    HW217025   1.847   4.031   4.559
 5376SOL     OW17026   1.913   3.279   0.803
 5376SOL    HW117027   1.899   3.364   0.853
 5376SOL    HW217028   1.964   3.215   0.861
 5377SOL     OW17029   6.741   6.982   1.688
 5377SOL    HW117030   6.707   0.049   1.728
 5377SOL    HW217031   6.840   6.977   1.700
 5378SOL     OW17032   0.074   0.483   2.423
 5378SOL    HW117033   0.120   0.499   2.510
 5378SOL    HW217034   7.015   0.423   2.437
 5379SOL     OW17035   1.242   5.587   5.288
 5379SOL    HW117036   1.314   5.538   5.239
 5379SOL    HW217037   1.203   5.656   5.227
 5380SOL     OW17038   1.567   1.310   3.565
 5380SOL    HW117039   1.664   1.331   3.552
 5380SOL    HW217040   1.513   1.362   3.499
 5381SOL     OW17041   6.463   4.142   0.821
 5381SOL    HW117042   6.462   4.184   0.730
 5381SOL    HW217043   6.395   4.069   0.825
 5382SOL     OW17044   3.221   0.663   2.304
 5382SOL    HW117045   3.253   0.655   2.399
 5382SOL    HW217046   3.280   0.724   2.253
 5383SOL     OW17047   2.597   2.331   5.518
 5383SOL    HW117048   2.560   2.257   5.462
 5383SOL    HW217049   2.566   2.419   5.481
 5384SOL     OW17050   6.203   0.372   3.937
 5384SOL    HW117051   6.236   0.451   3.988
 5384SOL    HW217052   6.278   0.308   3.922
 5385SOL     OW17053   2.858   3.479   3.836
 5385SOL    HW117054   2.883   3.569   3.872
 5385SOL    HW217055   2.840   3.416   3.911
 5386SOL     OW17056   4.547   0.110   4.414
 5386SOL    HW117057   4.554   0.182   4.346
 5386SOL    HW217058   4.572   0.022   4.373
 5387SOL     OW17059   2.862   5.965   3.695
 5387SOL    HW117060   2.803   6.038   3.732
 5387SOL    HW217061   2.942   5.955   3.754
 5388SOL     OW17062   6.238   0.536   3.354
 5388SOL    HW117063   6.147   0.535   3.314
 5388SOL    HW217064   6.291   0.459   3.317
 5389SOL     OW17065   5.022   0.757   1.819
 5389SOL    HW117066   5.018   0.762   1.719
 5389SOL    HW217067   4.930   0.763   1.857
 5390SOL     OW17068   4.717   4.069   3.180
 5390SOL    HW117069   4.752   4.142   3.121
 5390SOL    HW217070   4.635   4.100   3.227
 5391SOL     OW17071   1.619   2.439   1.362
 5391SOL    HW117072   1.531   2.483   1.380
 5391SOL    HW217073   1.614   2.388   1.276
 5392SOL     OW17074   6.045   3.203   0.667
 5392SOL    HW117075   6.048   3.111   0.708
 5392SOL    HW217076   6.101   3.265   0.721
 5393SOL     OW17077   5.566   0.180   6.050
 5393SOL    HW117078   5.611   0.108   5.996
 5393SOL    HW217079   5.493   0.139   6.104
 5394SOL     OW17080   6.421   4.189   6.663
 5394SOL    HW117081   6.431   4.266   6.726
 5394SOL    HW217082   6.509   4.141   6.655
 5395SOL     OW17083   4.810   0.985   1.777
 5395SOL    HW117084   4.769   1.020   1.861
 5395SOL    HW217085   4.909   0.979   1.789
 5396SOL     OW17086   5.139   4.225   2.921
 5396SOL    HW117087   5.058   4.192   2.872
 5396SOL    HW217088   5.142   4.324   2.916
 5397SOL     OW17089   6.806   3.129   1.926
 5397SOL    HW117090   6.752   3.132   1.842
 5397SOL    HW217091   6.766   3.063   1.989
 5398SOL     OW17092   3.560   1.439   2.360
 5398SOL    HW117093   3.549   1.518   2.420
 5398SOL    HW217094   3.573   1.471   2.266
 5399SOL     OW17095   2.438   5.460   6.775
 5399SOL    HW117096   2.341   5.437   6.765
 5399SOL    HW217097   2.447   5.558   6.793
 5400SOL     OW17098   2.639   3.801   0.818
 5400SOL    HW117099   2.733   3.778   0.841
 5400SOL    HW217100   2.582   3.720   0.824
 5401SOL     OW17101   5.939   3.719   1.652
 5401SOL    HW117102   5.921   3.622   1.633
 5401SOL    HW217103   6.034   3.740   1.630
 5402SOL     OW17104   2.098   4.530   1.654
 5402SOL    HW117105   2.052   4.568   1.734
 5402SOL    HW217106   2.097   4.430   1.660
 5403SOL     OW17107   6.182   2.448   6.206
 5403SOL    HW117108   6.165   2.540   6.171
 5403SOL    HW217109   6.152   2.442   6.301
 5404SOL     OW17110   0.923   1.565   2.828
 5404SOL    HW117111   1.009   1.532   2.789
 5404SOL    HW217112   0.855   1.575   2.755
 5405SOL     OW17113   5.968   5.788   7.016
 5405SOL    HW117114   5.975   5.885   0.018
 5405SOL    HW217115   5.874   5.758   0.009
 5406SOL     OW17116   2.296   0.412   0.096
 5406SOL    HW117117   2.219   0.431   0.157
 5406SOL    HW217118   2.377   0.393   0.151
 5407SOL     OW17119   4.294   2.882   1.058
 5407SOL    HW117120   4.354   2.803   1.048
 5407SOL    HW217121   4.350   2.965   1.068
 5408SOL     OW17122   3.262   1.248   6.673
 5408SOL    HW117123   3.286   1.301   6.754
 5408SOL    HW217124   3.167   1.268   6.647
 5409SOL     OW17125   5.875   0.931   3.634
 5409SOL    HW117126   5.970   0.906   3.652
 5409SOL    HW217127   5.829   0.950   3.721
 5410SOL     OW17128   2.815   2.269   1.278
 5410SOL    HW117129   2.783   2.180   1.309
 5410SOL    HW217130   2.852   2.261   1.186
 5411SOL     OW17131   6.342   5.304   5.355
 5411SOL    HW117132   6.431   5.347   5.340
 5411SOL    HW217133   6.284   5.319   5.274
 5412SOL     OW17134   4.273   1.113   6.916
 5412SOL    HW117135   4.310   1.094   7.007
 5412SOL    HW217136   4.173   1.117   6.922
 5413SOL     OW17137   2.157   1.711   1.321
 5413SOL    HW117138   2.204   1.779   1.266
 5413SOL    HW217139   2.191   1.714   1.415
 5414SOL     OW17140   4.795   2.373   4.886
 5414SOL    HW117141   4.868   2.440   4.885
 5414SOL    HW217142   4.795   2.324   4.973
 5415SOL     OW17143   1.668   5.577   0.815
 5415SOL    HW117144   1.615   5.494   0.800
 5415SOL    HW217145   1.662   5.604   0.911
 5416SOL     OW17146   4.711   5.299   6.178
 5416SOL    HW117147   4.636   5.294   6.112
 5416SOL    HW217148   4.773   5.374   6.153
 5417SOL     OW17149   3.943   6.754   5.281
 5417SOL    HW117150   4.036   6.763   5.244
 5417SOL    HW217151   3.940   6.677   5.344
 5418SOL     OW17152   3.511   6.395   3.736
 5418SOL    HW117153   3.483   6.324   3.800
 5418SOL    HW217154   3.485   6.485   3.772
 5419SOL     OW17155   3.182   4.955   0.712
 5419SOL    HW117156   3.187   4.932   0.810
 5419SOL    HW217157   3.223   5.045   0.697
 5420SOL     OW17158   1.143   2.425   2.357
 5420SOL    HW117159   1.152   2.327   2.372
 5420SOL    HW217160   1.234   2.465   2.345
 5421SOL     OW17161   2.187   2.906   2.615
 5421SOL    HW117162   2.251   2.859   2.676
 5421SOL    HW217163   2.167   2.847   2.536
 5422SOL     OW17164   0.399   5.584   0.179
 5422SOL    HW117165   0.421   5.534   0.096
 5422SOL    HW217166   0.317   5.545   0.220
 5423SOL     OW17167   6.202   2.795   0.052
 5423SOL    HW117168   6.250   2.883   0.053
 5423SOL    HW217169   6.252   2.729   0.107
 5424SOL     OW17170   5.379   3.272   4.069
 5424SOL    HW117171   5.415   3.246   4.159
 5424SOL    HW217172   5.454   3.295   4.008
 5425SOL     OW17173   4.018   1.284   3.741
 5425SOL    HW117174   4.082   1.269   3.817
 5425SOL    HW217175   3.992   1.381   3.739
 5426SOL     OW17176   6.695   5.119   3.817
 5426SOL    HW117177   6.656   5.143   3.906
 5426SOL    HW217178   6.768   5.184   3.794
 5427SOL     OW17179   4.571   4.845   0.096
 5427SOL    HW117180   4.605   4.875   0.007
 5427SOL    HW217181   4.604   4.906   0.167
 5428SOL     OW17182   0.035   6.861   1.938
 5428SOL    HW117183   0.134   6.849   1.929
 5428SOL    HW217184   7.008   6.778   1.905
 5429SOL     OW17185   1.558   1.801   6.642
 5429SOL    HW117186   1.639   1.859   6.651
 5429SOL    HW217187   1.516   1.788   6.732
 5430SOL     OW17188   0.356   3.063   6.129
 5430SOL    HW117189   0.321   3.141   6.180
 5430SOL    HW217190   0.456   3.069   6.122
 5431SOL     OW17191   3.474   5.750   0.461
 5431SOL    HW117192   3.478   5.818   0.388
 5431SOL    HW217193   3.409   5.679   0.435
 5432SOL     OW17194   5.277   6.681   6.731
 5432SOL    HW117195   5.290   6.748   6.658
 5432SOL    HW217196   5.351   6.614   6.727
 5433SOL     OW17197   0.545   1.658   4.036
 5433SOL    HW117198   0.550   1.575   4.091
 5433SOL    HW217199   0.478   1.720   4.076
 5434SOL     OW17200   3.914   0.701   5.320
 5434SOL    HW117201   3.941   0.797   5.319
 5434SOL    HW217202   3.973   0.650   5.257
 5435SOL     OW17203   5.049   1.005   1.929
 5435SOL    HW117204   5.105   0.923   1.924
 5435SOL    HW217205   5.097   1.075   1.981
 5436SOL     OW17206   5.432   4.098   4.136
 5436SOL    HW117207   5.401   4.126   4.045
 5436SOL    HW217208   5.451   4.000   4.135
 5437SOL     OW17209   3.166   4.698   6.051
 5437SOL    HW117210   3.264   4.714   6.044
 5437SOL    HW217211   3.132   4.736   6.137
 5438SOL     OW17212   6.595   3.698   2.611
 5438SOL    HW117213   6.688   3.713   2.647
 5438SOL    HW217214   6.551   3.626   2.663
 5439SOL     OW17215   0.880   2.470   0.767
 5439SOL    HW117216   0.908   2.423   0.684
 5439SOL    HW217217   0.867   2.567   0.748
 5440SOL     OW17218   0.841   1.157   1.891
 5440SOL    HW117219   0.896   1.073   1.894
 5440SOL    HW217220   0.900   1.234   1.866
 5441SOL     OW17221   5.204   2.464   2.848
 5441SOL    HW117222   5.154   2.490   2.764
 5441SOL    HW217223   5.292   2.511   2.849
 5442SOL     OW17224   3.058   5.828   3.568
 5442SOL    HW117225   2.979   5.883   3.597
 5442SOL    HW217226   3.040   5.788   3.479
 5443SOL     OW17227   2.412   0.609   3.785
 5443SOL    HW117228   2.482   0.577   3.849
 5443SOL    HW217229   2.453   0.622   3.695
 5444SOL     OW17230   2.005   0.601   4.713
 5444SOL    HW117231   1.916   0.647   4.719
 5444SOL    HW217232   1.996   0.521   4.654
 5445SOL     OW17233   5.892   3.768   3.636
 5445SOL    HW117234   5.859   3.844   3.580
 5445SOL    HW217235   5.903   3.799   3.731
 5446SOL     OW17236   6.806   5.237   4.935
 5446SOL    HW117237   6.770   5.183   5.011
 5446SOL    HW217238   6.887   5.192   4.898
 5447SOL     OW17239   2.453   1.489   6.507
 5447SOL    HW117240   2.510   1.422   6.459
 5447SOL    HW217241   2.475   1.581   6.473
 5448SOL     OW17242   4.683   2.733   5.304
 5448SOL    HW117243   4.770   2.759   5.264
 5448SOL    HW217244   4.620   2.810   5.301
 5449SOL     OW17245   1.668   2.798   6.459
 5449SOL    HW117246   1.696   2.841   6.545
 5449SOL    HW217247   1.578   2.832   6.433
 5450SOL     OW17248   1.443   0.513   1.906
 5450SOL    HW117249   1.490   0.532   1.819
 5450SOL    HW217250   1.356   0.466   1.887
 5451SOL     OW17251   1.502   6.557   3.129
 5451SOL    HW117252   1.500   6.490   3.203
 5451SOL    HW217253   1.500   6.649   3.168
 5452SOL     OW17254   2.099   4.495   6.957
 5452SOL    HW117255   2.163   4.572   6.948
 5452SOL    HW217256   2.005   4.529   6.951
 5453SOL     OW17257   5.668   4.830   1.664
 5453SOL    HW117258   5.585   4.781   1.636
 5453SOL    HW217259   5.688   4.810   1.760
 5454SOL     OW17260   0.120   4.084   6.531
 5454SOL    HW117261   0.180   4.133   6.468
 5454SOL    HW217262   0.045   4.144   6.560
 5455SOL     OW17263   6.080   3.399   0.443
 5455SOL    HW117264   6.088   3.313   0.493
 5455SOL    HW217265   5.984   3.420   0.428
 5456SOL     OW17266   3.459   0.292   0.059
 5456SOL    HW117267   3.479   0.198   0.084
 5456SOL    HW217268   3.523   0.321   7.006
 5457SOL     OW17269   6.039   2.530   0.127
 5457SOL    HW117270   5.975   2.472   0.177
 5457SOL    HW217271   6.108   2.473   0.082
 5458SOL     OW17272   0.657   4.767   0.136
 5458SOL    HW117273   0.599   4.695   0.175
 5458SOL    HW217274   0.654   4.761   0.036
 5459SOL     OW17275   2.513   4.161   6.877
 5459SOL    HW117276   2.440   4.205   6.929
 5459SOL    HW217277   2.477   4.126   6.791
 5460SOL     OW17278   3.622   0.292   2.895
 5460SOL    HW117279   3.587   0.253   2.980
 5460SOL    HW217280   3.571   0.375   2.873
 5461SOL     OW17281   5.891   6.731   5.102
 5461SOL    HW117282   5.944   6.813   5.077
 5461SOL    HW217283   5.874   6.677   5.020
 5462SOL     OW17284   1.183   0.180   6.837
 5462SOL    HW117285   1.103   0.232   6.866
 5462SOL    HW217286   1.255   0.189   6.905
 5463SOL     OW17287   6.703   2.239   0.039
 5463SOL    HW117288   6.767   2.271   6.989
 5463SOL    HW217289   6.670   2.317   0.092
 5464SOL     OW17290   1.125   1.293   3.906
 5464SOL    HW117291   1.152   1.262   3.997
 5464SOL    HW217292   1.200   1.343   3.863
 5465SOL     OW17293   4.077   6.323   3.263
 5465SOL    HW117294   4.078   6.352   3.168
 5465SOL    HW217295   4.171   6.313   3.296
 5466SOL     OW17296   5.585   4.166   5.317
 5466SOL    HW117297   5.658   4.112   5.358
 5466SOL    HW217298   5.622   4.253   5.284
 5467SOL     OW17299   5.293   2.763   2.961
 5467SOL    HW117300   5.380   2.724   2.988
 5467SOL    HW217301   5.308   2.855   2.923
 5468SOL     OW17302   5.475   2.359   4.603
 5468SOL    HW117303   5.396   2.416   4.583
 5468SOL    HW217304   5.485   2.349   4.702
 5469SOL     OW17305   3.624   5.231   6.527
 5469SOL    HW117306   3.722   5.237   6.543
 5469SOL    HW217307   3.604   5.151   6.469
 5470SOL     OW17308   3.254   6.014   2.473
 5470SOL    HW117309   3.334   6.002   2.415
 5470SOL    HW217310   3.270   5.972   2.562
 5471SOL     OW17311   4.807   0.129   2.305
 5471SOL    HW117312   4.798   0.083   2.393
 5471SOL    HW217313   4.816   0.061   2.232
 5472SOL     OW17314   4.030   3.733   5.978
 5472SOL    HW117315   4.042   3.639   6.010
 5472SOL    HW217316   4.097   3.753   5.907
 5473SOL     OW17317   0.075   3.352   3.322
 5473SOL    HW117318   0.078   3.341   3.223
 5473SOL    HW217319   0.169   3.355   3.358
 5474SOL     OW17320   1.685   4.276   4.712
 5474SOL    HW117321   1.758   4.241   4.654
 5474SOL    HW217322   1.719   4.287   4.805
 5475SOL     OW17323   2.480   2.330   1.350
 5475SOL    HW117324   2.543   2.292   1.418
 5475SOL    HW217325   2.497   2.427   1.339
 5476SOL     OW17326   1.824   4.304   5.443
 5476SOL    HW117327   1.881   4.238   5.492
 5476SOL    HW217328   1.764   4.351   5.508
 5477SOL     OW17329   2.256   4.532   3.488
 5477SOL    HW117330   2.348   4.548   3.522
 5477SOL    HW217331   2.213   4.459   3.540
 5478SOL     OW17332   4.220   5.188   5.285
 5478SOL    HW117333   4.159   5.119   5.325
 5478SOL    HW217334   4.169   5.272   5.268
 5479SOL     OW17335   4.824   1.395   6.526
 5479SOL    HW117336   4.814   1.354   6.435
 5479SOL    HW217337   4.872   1.332   6.586
 5480SOL     OW17338   6.928   3.670   3.600
 5480SOL    HW117339   6.876   3.634   3.523
 5480SOL    HW217340   0.005   3.680   3.574
 5481SOL     OW17341   4.441   1.217   4.043
 5481SOL    HW117342   4.452   1.125   4.006
 5481SOL    HW217343   4.375   1.267   3.987
 5482SOL     OW17344   3.784   4.518   1.648
 5482SOL    HW117345   3.850   4.592   1.634
 5482SOL    HW217346   3.703   4.554   1.694
 5483SOL     OW17347   0.106   2.170   5.697
 5483SOL    HW117348   0.062   2.159   5.608
 5483SOL    HW217349   0.204   2.186   5.684
 5484SOL     OW17350   4.722   0.801   4.863
 5484SOL    HW117351   4.722   0.899   4.848
 5484SOL    HW217352   4.807   0.774   4.910
 5485SOL     OW17353   4.144   0.227   5.288
 5485SOL    HW117354   4.095   0.313   5.277
 5485SOL    HW217355   4.157   0.183   5.199
 5486SOL     OW17356   2.911   5.955   5.621
 5486SOL    HW117357   2.857   5.885   5.668
 5486SOL    HW217358   2.851   6.007   5.560
 5487SOL     OW17359   3.744   3.531   6.763
 5487SOL    HW117360   3.697   3.443   6.755
 5487SOL    HW217361   3.840   3.516   6.787
 5488SOL     OW17362   6.255   0.795   1.148
 5488SOL    HW117363   6.216   0.883   1.177
 5488SOL    HW217364   6.343   0.812   1.103
 5489SOL     OW17365   6.684   3.574   1.179
 5489SOL    HW117366   6.732   3.660   1.160
 5489SOL    HW217367   6.691   3.553   1.276
 5490SOL     OW17368   2.125   6.936   2.382
 5490SOL    HW117369   2.137   7.011   2.448
 5490SOL    HW217370   2.137   6.971   2.289
 5491SOL     OW17371   0.430   3.206   0.133
 5491SOL    HW117372   0.458   3.153   0.213
 5491SOL    HW217373   0.478   3.171   0.052
 5492SOL     OW17374   0.897   2.939   5.823
 5492SOL    HW117375   0.797   2.940   5.833
 5492SOL    HW217376   0.921   2.977   5.734
 5493SOL     OW17377   3.898   3.783   3.139
 5493SOL    HW117378   3.939   3.725   3.070
 5493SOL    HW217379   3.955   3.784   3.221
 5494SOL     OW17380   6.839   4.031   5.255
 5494SOL    HW117381   6.842   3.993   5.348
 5494SOL    HW217382   6.857   3.958   5.189
 5495SOL     OW17383   5.797   0.846   1.061
 5495SOL    HW117384   5.718   0.881   1.011
 5495SOL    HW217385   5.881   0.874   1.014
 5496SOL     OW17386   4.277   0.733   3.657
 5496SOL    HW117387   4.270   0.828   3.688
 5496SOL    HW217388   4.334   0.682   3.721
 5497SOL     OW17389   0.259   1.082   5.616
 5497SOL    HW117390   0.316   1.113   5.540
 5497SOL    HW217391   0.318   1.054   5.692
 5498SOL     OW17392   6.988   5.061   2.101
 5498SOL    HW117393   0.037   4.988   2.095
 5498SOL    HW217394   6.908   5.037   2.045
 5499SOL     OW17395   0.764   0.659   3.819
 5499SOL    HW117396   0.758   0.672   3.720
 5499SOL    HW217397   0.728   0.740   3.865
 5500SOL     OW17398   1.245   0.311   0.158
 5500SOL    HW117399   1.289   0.261   0.084
 5500SOL    HW217400   1.246   0.409   0.139
 5501SOL     OW17401   3.885   1.934   0.975
 5501SOL    HW117402   3.828   1.860   1.010
 5501SOL    HW217403   3.837   1.980   0.900
 5502SOL     OW17404   5.511   3.541   6.326
 5502SOL    HW117405   5.428   3.487   6.313
 5502SOL    HW217406   5.542   3.532   6.421
 5503SOL     OW17407   0.229   4.536   1.090
 5503SOL    HW117408   0.280   4.482   1.023
 5503SOL    HW217409   0.158   4.589   1.043
 5504SOL     OW17410   4.318   1.103   5.239
 5504SOL    HW117411   4.244   1.165   5.263
 5504SOL    HW217412   4.360   1.067   5.322
 5505SOL     OW17413   2.339   4.920   3.288
 5505SOL    HW117414   2.284   5.004   3.287
 5505SOL    HW217415   2.284   4.844   3.255
 5506SOL     OW17416   0.117   3.172   0.274
 5506SOL    HW117417   0.143   3.203   0.182
 5506SOL    HW217418   0.166   3.088   0.296
 5507SOL     OW17419   3.661   0.629   5.289
 5507SOL    HW117420   3.602   0.684   5.230
 5507SOL    HW217421   3.755   0.664   5.285
 5508SOL     OW17422   0.861   0.557   0.232
 5508SOL    HW117423   0.927   0.491   0.268
 5508SOL    HW217424   0.797   0.509   0.171
 5509SOL     OW17425   0.325   5.607   0.504
 5509SOL    HW117426   0.418   5.570   0.503
 5509SOL    HW217427   0.261   5.537   0.471
 5510SOL     OW17428   4.937   5.073   6.583
 5510SOL    HW117429   4.845   5.076   6.621
 5510SOL    HW217430   5.003   5.062   6.657
 5511SOL     OW17431   1.089   1.290   5.068
 5511SOL    HW117432   1.028   1.369   5.056
 5511SOL    HW217433   1.174   1.320   5.111
 5512SOL     OW17434   3.186   1.272   0.747
 5512SOL    HW117435   3.103   1.327   0.755
 5512SOL    HW217436   3.171   1.183   0.790
 5513SOL     OW17437   3.243   5.163   5.466
 5513SOL    HW117438   3.277   5.069   5.459
 5513SOL    HW217439   3.182   5.182   5.389
 5514SOL     OW17440   3.426   0.118   5.391
 5514SOL    HW117441   3.450   0.161   5.304
 5514SOL    HW217442   3.495   0.049   5.415
 5515SOL     OW17443   1.642   5.705   1.962
 5515SOL    HW117444   1.600   5.639   2.025
 5515SOL    HW217445   1.574   5.775   1.937
 5516SOL     OW17446   2.253   2.861   4.906
 5516SOL    HW117447   2.303   2.891   4.987
 5516SOL    HW217448   2.218   2.940   4.856
 5517SOL     OW17449   2.042   3.642   1.884
 5517SOL    HW117450   1.953   3.599   1.895
 5517SOL    HW217451   2.112   3.587   1.931
 5518SOL     OW17452   6.235   4.478   5.506
 5518SOL    HW117453   6.318   4.423   5.501
 5518SOL    HW217454   6.187   4.474   5.418
 5519SOL     OW17455   5.656   3.139   3.533
 5519SOL    HW117456   5.594   3.166   3.459
 5519SOL    HW217457   5.723   3.213   3.549
 5520SOL     OW17458   5.357   6.256   2.601
 5520SOL    HW117459   5.258   6.263   2.614
 5520SOL    HW217460   5.392   6.341   2.562
 5521SOL     OW17461   5.509   6.041   1.425
 5521SOL    HW117462   5.484   6.134   1.452
 5521SOL    HW217463   5.546   6.042   1.333
 5522SOL     OW17464   6.761   5.246   1.575
 5522SOL    HW117465   6.682   5.225   1.517
 5522SOL    HW217466   6.819   5.166   1.583
 5523SOL     OW17467   4.811   1.025   2.475
 5523SOL    HW117468   4.758   1.090   2.421
 5523SOL    HW217469   4.831   1.064   2.565
 5524SOL     OW17470   3.685   6.669   4.861
 5524SOL    HW117471   3.657   6.764   4.851
 5524SOL    HW217472   3.765   6.665   4.921
 5525SOL     OW17473   0.541   2.527   0.163
 5525SOL    HW117474   0.484   2.510   0.083
 5525SOL    HW217475   0.633   2.492   0.146
 5526SOL     OW17476   4.472   4.513   2.803
 5526SOL    HW117477   4.544   4.486   2.868
 5526SOL    HW217478   4.392   4.545   2.854
 5527SOL     OW17479   4.893   3.732   3.511
 5527SOL    HW117480   4.957   3.729   3.434
 5527SOL    HW217481   4.929   3.676   3.585
 5528SOL     OW17482   1.485   1.307   1.503
 5528SOL    HW117483   1.466   1.383   1.566
 5528SOL    HW217484   1.563   1.255   1.538
 5529SOL     OW17485   2.884   6.854   3.724
 5529SOL    HW117486   2.853   6.849   3.629
 5529SOL    HW217487   2.814   6.814   3.783
 5530SOL     OW17488   6.771   2.502   1.921
 5530SOL    HW117489   6.792   2.406   1.935
 5530SOL    HW217490   6.675   2.519   1.946
 5531SOL     OW17491   3.962   3.700   1.639
 5531SOL    HW117492   4.019   3.642   1.697
 5531SOL    HW217493   3.911   3.765   1.695
 5532SOL     OW17494   2.010   2.831   0.900
 5532SOL    HW117495   1.996   2.788   0.811
 5532SOL    HW217496   2.080   2.781   0.951
 5533SOL     OW17497   4.922   1.787   3.915
 5533SOL    HW117498   4.822   1.789   3.914
 5533SOL    HW217499   4.954   1.726   3.843
 5534SOL     OW17500   1.007   1.418   6.134
 5534SOL    HW117501   1.023   1.483   6.060
 5534SOL    HW217502   1.026   1.325   6.100
 5535SOL     OW17503   0.764   1.391   2.603
 5535SOL    HW117504   0.699   1.462   2.579
 5535SOL    HW217505   0.830   1.379   2.529
 5536SOL     OW17506   3.800   0.497   4.333
 5536SOL    HW117507   3.862   0.541   4.267
 5536SOL    HW217508   3.744   0.430   4.285
 5537SOL     OW17509   3.872   1.673   2.549
 5537SOL    HW117510   3.884   1.773   2.550
 5537SOL    HW217511   3.961   1.629   2.537
 5538SOL     OW17512   4.269   6.039   4.420
 5538SOL    HW117513   4.176   6.061   4.449
 5538SOL    HW217514   4.283   6.070   4.326
 5539SOL     OW17515   1.684   3.435   1.102
 5539SOL    HW117516   1.674   3.336   1.118
 5539SOL    HW217517   1.776   3.464   1.130
 5540SOL     OW17518   4.775   4.986   3.722
 5540SOL    HW117519   4.813   4.931   3.648
 5540SOL    HW217520   4.769   4.930   3.805
 5541SOL     OW17521   4.278   1.351   6.051
 5541SOL    HW117522   4.283   1.391   6.143
 5541SOL    HW217523   4.234   1.262   6.056
 5542SOL     OW17524   4.080   3.484   6.176
 5542SOL    HW117525   4.068   3.393   6.136
 5542SOL    HW217526   4.156   3.481   6.242
 5543SOL     OW17527   5.642   4.051   6.948
 5543SOL    HW117528   5.568   4.041   6.882
 5543SOL    HW217529   5.609   4.100   0.010
 5544SOL     OW17530   5.466   0.996   6.252
 5544SOL    HW117531   5.405   0.962   6.324
 5544SOL    HW217532   5.486   0.922   6.188
 5545SOL     OW17533   4.175   2.245   2.667
 5545SOL    HW117534   4.123   2.238   2.582
 5545SOL    HW217535   4.271   2.227   2.649
 5546SOL     OW17536   1.400   5.379   5.640
 5546SOL    HW117537   1.467   5.452   5.634
 5546SOL    HW217538   1.418   5.309   5.570
 5547SOL     OW17539   3.175   5.746   4.899
 5547SOL    HW117540   3.203   5.831   4.857
 5547SOL    HW217541   3.123   5.691   4.833
 5548SOL     OW17542   6.215   3.525   5.568
 5548SOL    HW117543   6.123   3.564   5.570
 5548SOL    HW217544   6.269   3.563   5.643
 5549SOL     OW17545   3.146   5.027   6.698
 5549SOL    HW117546   3.202   5.078   6.633
 5549SOL    HW217547   3.062   5.078   6.717
 5550SOL     OW17548   2.429   5.891   1.699
 5550SOL    HW117549   2.336   5.922   1.720
 5550SOL    HW217550   2.477   5.869   1.784
 5551SOL     OW17551   1.557   0.466   3.408
 5551SOL    HW117552   1.608   0.545   3.440
 5551SOL    HW217553   1.461   0.491   3.397
 5552SOL     OW17554   0.224   1.376   0.873
 5552SOL    HW117555   0.147   1.319   0.845
 5552SOL    HW217556   0.200   1.426   0.957
 5553SOL     OW17557   4.369   6.613   0.033
 5553SOL    HW117558   4.394   6.605   6.956
 5553SOL    HW217559   4.385   6.707   0.064
 5554SOL     OW17560   2.947   2.316   5.337
 5554SOL    HW117561   2.952   2.392   5.402
 5554SOL    HW217562   3.028   2.316   5.279
 5555SOL     OW17563   0.344   5.420   3.327
 5555SOL    HW117564   0.310   5.344   3.272
 5555SOL    HW217565   0.335   5.397   3.424
 5556SOL     OW17566   1.121   1.993   4.914
 5556SOL    HW117567   1.080   2.083   4.903
 5556SOL    HW217568   1.209   1.990   4.866
 5557SOL     OW17569   2.147   6.157   3.794
 5557SOL    HW117570   2.048   6.142   3.788
 5557SOL    HW217571   2.164   6.253   3.815
 5558SOL     OW17572   5.075   3.018   5.440
 5558SOL    HW117573   5.080   2.920   5.420
 5558SOL    HW217574   5.128   3.068   5.372
 5559SOL     OW17575   2.366   6.776   0.747
 5559SOL    HW117576   2.300   6.813   0.813
 5559SOL    HW217577   2.458   6.803   0.774
 5560SOL     OW17578   0.520   0.983   3.124
 5560SOL    HW117579   0.554   1.052   3.187
 5560SOL    HW217580   0.458   1.026   3.058
 5561SOL     OW17581   1.480   3.385   3.548
 5561SOL    HW117582   1.439   3.421   3.465
 5561SOL    HW217583   1.408   3.351   3.609
 5562SOL     OW17584   2.170   2.854   6.264
 5562SOL    HW117585   2.123   2.847   6.353
 5562SOL    HW217586   2.124   2.795   6.198
 5563SOL     OW17587   4.390   6.122   2.236
 5563SOL    HW117588   4.391   6.170   2.323
 5563SOL    HW217589   4.298   6.087   2.218
 5564SOL     OW17590   4.972   4.142   1.702
 5564SOL    HW117591   4.879   4.160   1.670
 5564SOL    HW217592   4.970   4.114   1.798
 5565SOL     OW17593   4.006   2.146   5.585
 5565SOL    HW117594   3.914   2.163   5.619
 5565SOL    HW217595   4.025   2.048   5.586
 5566SOL     OW17596   2.052   5.237   0.673
 5566SOL    HW117597   2.019   5.225   0.580
 5566SOL    HW217598   2.002   5.311   0.718
 5567SOL     OW17599   1.823   5.582   1.287
 5567SOL    HW117600   1.880   5.559   1.365
 5567SOL    HW217601   1.820   5.504   1.224
 5568SOL     OW17602   4.329   1.270   1.275
 5568SOL    HW117603   4.419   1.312   1.263
 5568SOL    HW217604   4.340   1.171   1.290
 5569SOL     OW17605   4.340   1.702   1.398
 5569SOL    HW117606   4.258   1.723   1.345
 5569SOL    HW217607   4.344   1.603   1.415
 5570SOL     OW17608   6.668   4.605   5.024
 5570SOL    HW117609   6.704   4.697   5.007
 5570SOL    HW217610   6.648   4.561   4.937
 5571SOL     OW17611   6.808   5.708   0.605
 5571SOL    HW117612   6.812   5.682   0.701
 5571SOL    HW217613   6.717   5.691   0.569
 5572SOL     OW17614   4.161   2.347   6.186
 5572SOL    HW117615   4.092   2.281   6.213
 5572SOL    HW217616   4.122   2.412   6.121
 5573SOL     OW17617   1.198   3.791   0.654
 5573SOL    HW117618   1.166   3.769   0.746
 5573SOL    HW217619   1.154   3.730   0.587
 5574SOL     OW17620   0.341   6.411   4.625
 5574SOL    HW117621   0.266   6.409   4.560
 5574SOL    HW217622   0.397   6.493   4.610
 5575SOL     OW17623   1.163   1.220   0.943
 5575SOL    HW117624   1.243   1.220   0.883
 5575SOL    HW217625   1.160   1.134   0.994
 5576SOL     OW17626   5.661   5.845   0.572
 5576SOL    HW117627   5.634   5.876   0.663
 5576SOL    HW217628   5.758   5.861   0.558
 5577SOL     OW17629   2.099   3.697   5.417
 5577SOL    HW117630   2.127   3.742   5.332
 5577SOL    HW217631   2.064   3.605   5.396
 5578SOL     OW17632   4.308   2.588   0.471
 5578SOL    HW117633   4.255   2.650   0.529
 5578SOL    HW217634   4.400   2.580   0.507
 5579SOL     OW17635   5.367   3.728   6.877
 5579SOL    HW117636   5.435   3.695   6.942
 5579SOL    HW217637   5.279   3.736   6.923
 5580SOL     OW17638   5.350   0.932   0.550
 5580SOL    HW117639   5.327   1.029   0.550
 5580SOL    HW217640   5.301   0.886   0.475
 5581SOL     OW17641   2.155   0.731   6.582
 5581SOL    HW117642   2.124   0.691   6.668
 5581SOL    HW217643   2.248   0.699   6.563
 5582SOL     OW17644   3.688   3.440   3.862
 5582SOL    HW117645   3.604   3.462   3.912
 5582SOL    HW217646   3.696   3.500   3.783
 5583SOL     OW17647   3.252   6.767   1.815
 5583SOL    HW117648   3.184   6.794   1.883
 5583SOL    HW217649   3.341   6.804   1.841
 5584SOL     OW17650   6.544   4.099   2.870
 5584SOL    HW117651   6.634   4.140   2.885
 5584SOL    HW217652   6.527   4.031   2.941
 5585SOL     OW17653   6.563   0.666   3.843
 5585SOL    HW117654   6.540   0.574   3.875
 5585SOL    HW217655   6.645   0.663   3.786
 5586SOL     OW17656   2.379   1.217   5.798
 5586SOL    HW117657   2.445   1.150   5.831
 5586SOL    HW217658   2.412   1.309   5.819
 5587SOL     OW17659   4.057   0.229   3.484
 5587SOL    HW117660   4.121   0.242   3.408
 5587SOL    HW217661   3.997   0.308   3.491
 5588SOL     OW17662   2.598   0.174   5.323
 5588SOL    HW117663   2.582   0.088   5.372
 5588SOL    HW217664   2.694   0.179   5.295
 5589SOL     OW17665   4.900   2.824   6.236
 5589SOL    HW117666   4.862   2.753   6.176
 5589SOL    HW217667   4.955   2.781   6.308
 5590SOL     OW17668   0.061   5.951   4.863
 5590SOL    HW117669   0.042   5.928   4.767
 5590SOL    HW217670   7.015   5.903   4.922
 5591SOL     OW17671   5.606   0.470   0.154
 5591SOL    HW117672   5.701   0.472   0.123
 5591SOL    HW217673   5.594   0.533   0.231
 5592SOL     OW17674   1.791   3.830   2.405
 5592SOL    HW117675   1.794   3.753   2.470
 5592SOL    HW217676   1.708   3.883   2.422
 5593SOL     OW17677   1.651   2.767   6.022
 5593SOL    HW117678   1.690   2.675   6.017
 5593SOL    HW217679   1.592   2.782   5.943
 5594SOL     OW17680   2.223   6.958   0.565
 5594SOL    HW117681   2.294   6.892   0.539
 5594SOL    HW217682   2.176   6.926   0.647
 5595SOL     OW17683   6.730   1.427   5.859
 5595SOL    HW117684   6.746   1.507   5.917
 5595SOL    HW217685   6.811   1.409   5.803
 5596SOL     OW17686   5.299   0.464   2.466
 5596SOL    HW117687   5.277   0.492   2.559
 5596SOL    HW217688   5.267   0.370   2.451
 5597SOL     OW17689   6.392   1.318   6.393
 5597SOL    HW117690   6.299   1.335   6.426
 5597SOL    HW217691   6.458   1.344   6.464
 5598SOL     OW17692   6.046   1.834   3.715
 5598SOL    HW117693   5.947   1.826   3.725
 5598SOL    HW217694   6.089   1.832   3.806
 5599SOL     OW17695   4.782   4.120   2.161
 5599SOL    HW117696   4.840   4.165   2.230
 5599SOL    HW217697   4.716   4.186   2.125
 5600SOL     OW17698   2.536   1.333   2.786
 5600SOL    HW117699   2.450   1.349   2.834
 5600SOL    HW217700   2.535   1.381   2.698
 5601SOL     OW17701   5.369   3.104   5.800
 5601SOL    HW117702   5.319   3.142   5.723
 5601SOL    HW217703   5.439   3.041   5.767
 5602SOL     OW17704   0.480   2.499   3.256
 5602SOL    HW117705   0.577   2.498   3.232
 5602SOL    HW217706   0.462   2.571   3.322
 5603SOL     OW17707   4.096   2.206   4.539
 5603SOL    HW117708   4.139   2.294   4.522
 5603SOL    HW217709   4.143   2.135   4.487
 5604SOL     OW17710   0.584   0.210   3.594
 5604SOL    HW117711   0.658   0.158   3.552
 5604SOL    HW217712   0.574   0.181   3.690
 5605SOL     OW17713   2.527   5.864   4.587
 5605SOL    HW117714   2.449   5.910   4.630
 5605SOL    HW217715   2.505   5.767   4.574
 5606SOL     OW17716   4.490   2.297   0.524
 5606SOL    HW117717   4.571   2.241   0.545
 5606SOL    HW217718   4.500   2.336   0.432
 5607SOL     OW17719   5.833   2.995   1.915
 5607SOL    HW117720   5.928   2.969   1.932
 5607SOL    HW217721   5.785   2.918   1.871
 5608SOL     OW17722   4.598   1.152   3.744
 5608SOL    HW117723   4.697   1.150   3.753
 5608SOL    HW217724   4.558   1.074   3.792
 5609SOL     OW17725   6.343   6.699   0.784
 5609SOL    HW117726   6.419   6.741   0.833
 5609SOL    HW217727   6.372   6.611   0.745
 5610SOL     OW17728   5.172   4.627   0.136
 5610SOL    HW117729   5.272   4.631   0.126
 5610SOL    HW217730   5.146   4.537   0.170
 5611SOL     OW17731   0.107   5.232   1.892
 5611SOL    HW117732   0.079   5.263   1.983
 5611SOL    HW217733   0.032   5.246   1.827
 5612SOL     OW17734   2.806   0.898   0.920
 5612SOL    HW117735   2.795   0.863   1.013
 5612SOL    HW217736   2.822   0.822   0.857
 5613SOL     OW17737   6.647   5.475   4.871
 5613SOL    HW117738   6.682   5.557   4.824
 5613SOL    HW217739   6.717   5.404   4.870
 5614SOL     OW17740   6.015   2.083   4.486
 5614SOL    HW117741   5.932   2.106   4.435
 5614SOL    HW217742   6.075   2.026   4.429
 5615SOL     OW17743   6.923   3.476   2.733
 5615SOL    HW117744   6.857   3.447   2.802
 5615SOL    HW217745   6.994   3.406   2.722
 5616SOL     OW17746   1.501   3.270   3.086
 5616SOL    HW117747   1.546   3.267   2.996
 5616SOL    HW217748   1.566   3.244   3.157
 5617SOL     OW17749   1.756   5.018   6.615
 5617SOL    HW117750   1.751   5.104   6.666
 5617SOL    HW217751   1.741   5.036   6.518
 5618SOL     OW17752   6.817   6.032   4.006
 5618SOL    HW117753   6.782   6.011   4.097
 5618SOL    HW217754   6.851   5.949   3.963
 5619SOL     OW17755   3.538   3.114   4.767
 5619SOL    HW117756   3.585   3.036   4.725
 5619SOL    HW217757   3.562   3.198   4.717
 5620SOL     OW17758   4.975   4.379   5.683
 5620SOL    HW117759   4.909   4.320   5.637
 5620SOL    HW217760   5.008   4.334   5.766
 5621SOL     OW17761   2.139   2.372   5.165
 5621SOL    HW117762   2.110   2.466   5.144
 5621SOL    HW217763   2.066   2.325   5.214
 5622SOL     OW17764   4.806   5.556   4.600
 5622SOL    HW117765   4.750   5.506   4.667
 5622SOL    HW217766   4.836   5.493   4.528
 5623SOL     OW17767   5.206   6.192   4.226
 5623SOL    HW117768   5.175   6.272   4.277
 5623SOL    HW217769   5.156   6.111   4.257
 5624SOL     OW17770   6.981   4.914   4.404
 5624SOL    HW117771   0.007   4.989   4.452
 5624SOL    HW217772   6.910   4.875   4.462
 5625SOL     OW17773   0.940   5.567   4.677
 5625SOL    HW117774   0.933   5.467   4.680
 5625SOL    HW217775   1.012   5.593   4.613
 5626SOL     OW17776   2.165   4.027   4.448
 5626SOL    HW117777   2.183   3.929   4.459
 5626SOL    HW217778   2.153   4.068   4.539
 5627SOL     OW17779   0.875   5.530   0.059
 5627SOL    HW117780   0.873   5.588   0.141
 5627SOL    HW217781   0.881   5.434   0.088
 5628SOL     OW17782   2.446   3.128   0.847
 5628SOL    HW117783   2.403   3.217   0.859
 5628SOL    HW217784   2.505   3.130   0.766
 5629SOL     OW17785   5.162   4.249   1.296
 5629SOL    HW117786   5.143   4.151   1.289
 5629SOL    HW217787   5.152   4.277   1.392
 5630SOL     OW17788   2.043   3.883   6.516
 5630SOL    HW117789   2.009   3.863   6.424
 5630SOL    HW217790   1.990   3.959   6.555
 5631SOL     OW17791   4.302   0.631   2.456
 5631SOL    HW117792   4.223   0.624   2.395
 5631SOL    HW217793   4.375   0.683   2.411
 5632SOL     OW17794   5.879   6.804   5.726
 5632SOL    HW117795   5.789   6.843   5.742
 5632SOL    HW217796   5.876   6.742   5.647
 5633SOL     OW17797   0.237   4.707   5.613
 5633SOL    HW117798   0.252   4.628   5.554
 5633SOL    HW217799   0.171   4.768   5.570
 5634SOL     OW17800   2.955   6.133   6.730
 5634SOL    HW117801   2.948   6.191   6.812
 5634SOL    HW217802   2.984   6.041   6.757
 5635SOL     OW17803   2.519   6.874   6.427
 5635SOL    HW117804   2.529   6.973   6.416
 5635SOL    HW217805   2.447   6.856   6.493
 5636SOL     OW17806   6.742   1.131   5.781
 5636SOL    HW117807   6.684   1.145   5.700
 5636SOL    HW217808   6.733   1.209   5.843
 5637SOL     OW17809   5.171   6.148   4.589
 5637SOL    HW117810   5.110   6.081   4.546
 5637SOL    HW217811   5.155   6.238   4.550
 5638SOL     OW17812   4.940   5.279   0.854
 5638SOL    HW117813   5.028   5.251   0.817
 5638SOL    HW217814   4.943   5.276   0.954
 5639SOL     OW17815   0.649   0.074   1.560
 5639SOL    HW117816   0.680   6.999   1.543
 5639SOL    HW217817   0.553   0.082   1.533
 5640SOL     OW17818   3.298   5.872   3.129
 5640SOL    HW117819   3.250   5.954   3.097
 5640SOL    HW217820   3.393   5.895   3.148
 5641SOL     OW17821   0.827   4.863   4.262
 5641SOL    HW117822   0.884   4.781   4.269
 5641SOL    HW217823   0.852   4.927   4.334
 5642SOL     OW17824   1.268   4.688   0.156
 5642SOL    HW117825   1.256   4.647   0.246
 5642SOL    HW217826   1.213   4.639   0.089
 5643SOL     OW17827   4.331   2.400   4.467
 5643SOL    HW117828   4.322   2.424   4.564
 5643SOL    HW217829   4.397   2.460   4.424
 5644SOL     OW17830   4.998   1.321   4.990
 5644SOL    HW117831   4.942   1.392   5.034
 5644SOL    HW217832   5.064   1.286   5.057
 5645SOL     OW17833   5.567   5.886   3.004
 5645SOL    HW117834   5.546   5.790   3.027
 5645SOL    HW217835   5.549   5.943   3.084
 5646SOL     OW17836   0.089   6.020   3.652
 5646SOL    HW117837   0.187   6.037   3.647
 5646SOL    HW217838   0.065   5.941   3.595
 5647SOL     OW17839   5.919   6.097   6.975
 5647SOL    HW117840   5.921   6.146   6.889
 5647SOL    HW217841   5.835   6.119   0.006
 5648SOL     OW17842   1.883   1.442   3.585
 5648SOL    HW117843   1.854   1.347   3.580
 5648SOL    HW217844   1.983   1.447   3.581
 5649SOL     OW17845   0.922   0.810   4.567
 5649SOL    HW117846   0.926   0.871   4.489
 5649SOL    HW217847   0.855   0.737   4.550
 5650SOL     OW17848   6.755   4.787   6.597
 5650SOL    HW117849   6.697   4.776   6.678
 5650SOL    HW217850   6.697   4.795   6.515
 5651SOL     OW17851   0.086   1.482   1.963
 5651SOL    HW117852   0.110   1.387   1.943
 5651SOL    HW217853   0.059   1.489   2.059
 5652SOL     OW17854   5.020   5.671   1.746
 5652SOL    HW117855   4.957   5.666   1.824
 5652SOL    HW217856   5.033   5.766   1.719
 5653SOL     OW17857   0.165   5.308   5.381
 5653SOL    HW117858   0.258   5.332   5.407
 5653SOL    HW217859   0.149   5.333   5.286
 5654SOL     OW17860   0.064   0.429   5.352
 5654SOL    HW117861   0.158   0.450   5.381
 5654SOL    HW217862   0.046   0.472   5.264
 5655SOL     OW17863   0.986   3.716   3.666
 5655SOL    HW117864   1.031   3.785   3.723
 5655SOL    HW217865   0.949   3.644   3.724
 5656SOL     OW17866   3.180   3.307   0.724
 5656SOL    HW117867   3.126   3.259   0.792
 5656SOL    HW217868   3.266   3.337   0.765
 5657SOL     OW17869   4.355   0.128   1.884
 5657SOL    HW117870   4.323   0.212   1.839
 5657SOL    HW217871   4.298   0.051   1.854
 5658SOL     OW17872   3.608   6.915   5.472
 5658SOL    HW117873   3.594   6.893   5.375
 5658SOL    HW217874   3.594   6.833   5.527
 5659SOL     OW17875   2.959   3.698   2.879
 5659SOL    HW117876   3.036   3.643   2.911
 5659SOL    HW217877   2.908   3.647   2.810
 5660SOL     OW17878   5.095   0.339   6.911
 5660SOL    HW117879   5.100   0.340   6.811
 5660SOL    HW217880   5.163   0.402   6.948
 5661SOL     OW17881   0.263   6.100   5.326
 5661SOL    HW117882   0.169   6.083   5.354
 5661SOL    HW217883   0.326   6.056   5.390
 5662SOL     OW17884   2.536   4.609   3.557
 5662SOL    HW117885   2.556   4.586   3.462
 5662SOL    HW217886   2.610   4.664   3.595
 5663SOL     OW17887   0.859   3.805   0.667
 5663SOL    HW117888   0.892   3.854   0.586
 5663SOL    HW217889   0.935   3.788   0.729
 5664SOL     OW17890   0.149   4.773   2.686
 5664SOL    HW117891   0.236   4.745   2.646
 5664SOL    HW217892   0.113   4.852   2.637
 5665SOL     OW17893   2.019   2.569   6.328
 5665SOL    HW117894   2.006   2.612   6.238
 5665SOL    HW217895   2.037   2.639   6.396
 5666SOL     OW17896   4.565   5.782   0.680
 5666SOL    HW117897   4.568   5.770   0.581
 5666SOL    HW217898   4.485   5.838   0.704
 5667SOL     OW17899   6.941   5.039   3.125
 5667SOL    HW117900   6.975   4.945   3.125
 5667SOL    HW217901   6.913   5.065   3.218
 5668SOL     OW17902   4.332   1.811   6.106
 5668SOL    HW117903   4.243   1.771   6.084
 5668SOL    HW217904   4.348   1.805   6.204
 5669SOL     OW17905   0.375   4.957   6.011
 5669SOL    HW117906   0.300   5.023   5.999
 5669SOL    HW217907   0.456   4.989   5.961
 5670SOL     OW17908   0.412   3.423   4.150
 5670SOL    HW117909   0.358   3.468   4.079
 5670SOL    HW217910   0.439   3.332   4.119
 5671SOL     OW17911   2.023   6.803   6.507
 5671SOL    HW117912   1.975   6.891   6.502
 5671SOL    HW217913   1.958   6.731   6.529
 5672SOL     OW17914   5.306   3.990   5.829
 5672SOL    HW117915   5.255   4.012   5.746
 5672SOL    HW217916   5.291   4.061   5.898
 5673SOL     OW17917   0.462   0.354   2.427
 5673SOL    HW117918   0.433   0.448   2.444
 5673SOL    HW217919   0.541   0.332   2.484
 5674SOL     OW17920   0.010   3.552   1.481
 5674SOL    HW117921   0.006   3.453   1.499
 5674SOL    HW217922   6.972   3.599   1.548
 5675SOL     OW17923   4.612   2.348   5.548
 5675SOL    HW117924   4.565   2.429   5.513
 5675SOL    HW217925   4.568   2.318   5.633
 5676SOL     OW17926   1.528   0.719   1.510
 5676SOL    HW117927   1.508   0.785   1.583
 5676SOL    HW217928   1.524   0.626   1.547
 5677SOL     OW17929   6.441   1.924   3.684
 5677SOL    HW117930   6.528   1.918   3.732
 5677SOL    HW217931   6.382   1.991   3.728
 5678SOL     OW17932   3.961   6.401   3.003
 5678SOL    HW117933   3.871   6.415   3.045
 5678SOL    HW217934   3.964   6.447   2.914
 5679SOL     OW17935   1.619   6.532   5.049
 5679SOL    HW117936   1.647   6.468   4.977
 5679SOL    HW217937   1.627   6.626   5.014
 5680SOL     OW17938   1.301   5.331   6.503
 5680SOL    HW117939   1.360   5.250   6.507
 5680SOL    HW217940   1.347   5.407   6.549
 5681SOL     OW17941   1.092   2.204   6.605
 5681SOL    HW117942   1.174   2.235   6.556
 5681SOL    HW217943   1.104   2.108   6.631
 5682SOL     OW17944   1.493   2.804   5.803
 5682SOL    HW117945   1.561   2.832   5.736
 5682SOL    HW217946   1.427   2.742   5.760
 5683SOL     OW17947   3.769   2.610   6.340
 5683SOL    HW117948   3.744   2.705   6.320
 5683SOL    HW217949   3.710   2.549   6.287
 5684SOL     OW17950   3.835   3.681   4.224
 5684SOL    HW117951   3.810   3.615   4.295
 5684SOL    HW217952   3.772   3.674   4.147
 5685SOL     OW17953   0.615   5.284   2.802
 5685SOL    HW117954   0.600   5.356   2.734
 5685SOL    HW217955   0.528   5.261   2.845
 5686SOL     OW17956   4.082   0.332   0.840
 5686SOL    HW117957   4.056   0.403   0.906
 5686SOL    HW217958   4.151   0.272   0.881
 5687SOL     OW17959   6.012   4.522   4.837
 5687SOL    HW117960   6.080   4.462   4.793
 5687SOL    HW217961   5.978   4.588   4.770
 5688SOL     OW17962   5.463   2.743   1.780
 5688SOL    HW117963   5.459   2.644   1.769
 5688SOL    HW217964   5.411   2.787   1.707
 5689SOL     OW17965   4.797   1.517   0.587
 5689SOL    HW117966   4.740   1.591   0.554
 5689SOL    HW217967   4.752   1.470   0.664
 5690SOL     OW17968   4.159   6.130   0.321
 5690SOL    HW117969   4.180   6.184   0.240
 5690SOL    HW217970   4.243   6.107   0.369
 5691SOL     OW17971   2.824   6.446   2.337
 5691SOL    HW117972   2.857   6.518   2.276
 5691SOL    HW217973   2.902   6.399   2.377
 5692SOL     OW17974   6.541   1.632   5.709
 5692SOL    HW117975   6.589   1.574   5.775
 5692SOL    HW217976   6.444   1.605   5.705
 5693SOL     OW17977   5.190   2.850   2.580
 5693SOL    HW117978   5.258   2.907   2.626
 5693SOL    HW217979   5.136   2.907   2.517
 5694SOL     OW17980   0.361   1.305   3.447
 5694SOL    HW117981   0.320   1.213   3.446
 5694SOL    HW217982   0.364   1.338   3.541
 5695SOL     OW17983   1.175   2.420   4.097
 5695SOL    HW117984   1.203   2.489   4.030
 5695SOL    HW217985   1.242   2.346   4.100
 5696SOL     OW17986   2.583   1.653   4.865
 5696SOL    HW117987   2.558   1.667   4.961
 5696SOL    HW217988   2.655   1.718   4.841
 5697SOL     OW17989   0.051   2.417   0.578
 5697SOL    HW117990   0.008   2.403   0.668
 5697SOL    HW217991   0.010   2.497   0.535
 5698SOL     OW17992   0.609   2.567   2.014
 5698SOL    HW117993   0.654   2.569   2.103
 5698SOL    HW217994   0.535   2.634   2.012
 5699SOL     OW17995   6.274   1.084   4.107
 5699SOL    HW117996   6.302   0.998   4.065
 5699SOL    HW217997   6.191   1.068   4.161
 5700SOL     OW17998   1.251   6.237   4.811
 5700SOL    HW117999   1.237   6.276   4.720
 5700SOL    HW218000   1.291   6.306   4.872
 5701SOL     OW18001   0.532   6.212   2.621
 5701SOL    HW118002   0.450   6.250   2.665
 5701SOL    HW218003   0.610   6.221   2.683
 5702SOL     OW18004   1.573   6.636   5.637
 5702SOL    HW118005   1.563   6.735   5.627
 5702SOL    HW218006   1.614   6.614   5.725
 5703SOL     OW18007   4.437   5.155   6.670
 5703SOL    HW118008   4.391   5.138   6.757
 5703SOL    HW218009   4.523   5.105   6.668
 5704SOL     OW18010   4.550   5.400   3.401
 5704SOL    HW118011   4.637   5.405   3.451
 5704SOL    HW218012   4.549   5.317   3.345
 5705SOL     OW18013   5.621   0.587   0.990
 5705SOL    HW118014   5.572   0.510   0.950
 5705SOL    HW218015   5.714   0.559   1.015
 5706SOL     OW18016   1.874   1.583   0.416
 5706SOL    HW118017   1.946   1.653   0.419
 5706SOL    HW218018   1.822   1.586   0.502
 5707SOL     OW18019   1.698   0.255   6.507
 5707SOL    HW118020   1.670   0.229   6.600
 5707SOL    HW218021   1.644   0.203   6.441
 5708SOL     OW18022   4.805   6.551   2.475
 5708SOL    HW118023   4.785   6.552   2.573
 5708SOL    HW218024   4.810   6.645   2.442
 5709SOL     OW18025   0.865   6.689   3.637
 5709SOL    HW118026   0.785   6.722   3.587
 5709SOL    HW218027   0.875   6.591   3.622
 5710SOL     OW18028   2.959   3.667   6.035
 5710SOL    HW118029   2.865   3.656   6.070
 5710SOL    HW218030   2.960   3.648   5.937
 5711SOL     OW18031   4.851   1.200   3.845
 5711SOL    HW118032   4.821   1.178   3.938
 5711SOL    HW218033   4.951   1.205   3.842
 5712SOL     OW18034   6.657   0.194   5.425
 5712SOL    HW118035   6.719   0.269   5.449
 5712SOL    HW218036   6.582   0.229   5.370
 5713SOL     OW18037   0.385   2.315   1.880
 5713SOL    HW118038   0.385   2.359   1.791
 5713SOL    HW218039   0.307   2.347   1.933
 5714SOL     OW18040   1.519   6.948   6.886
 5714SOL    HW118041   1.494   6.975   6.793
 5714SOL    HW218042   1.566   6.859   6.883
 5715SOL     OW18043   1.263   6.394   2.569
 5715SOL    HW118044   1.203   6.329   2.615
 5715SOL    HW218045   1.321   6.346   2.503
 5716SOL     OW18046   1.631   3.817   5.786
 5716SOL    HW118047   1.714   3.841   5.836
 5716SOL    HW218048   1.625   3.717   5.777
 5717SOL     OW18049   0.872   4.634   1.233
 5717SOL    HW118050   0.789   4.689   1.231
 5717SOL    HW218051   0.873   4.578   1.316
 5718SOL     OW18052   1.573   4.891   6.791
 5718SOL    HW118053   1.631   4.917   6.714
 5718SOL    HW218054   1.482   4.865   6.756
 5719SOL     OW18055   3.538   1.090   6.157
 5719SOL    HW118056   3.549   1.060   6.062
 5719SOL    HW218057   3.568   1.017   6.218
 5720SOL     OW18058   0.476   5.158   5.066
 5720SOL    HW118059   0.480   5.256   5.046
 5720SOL    HW218060   0.483   5.106   4.981
 5721SOL     OW18061   0.829   2.881   6.998
 5721SOL    HW118062   0.823   2.976   0.010
 5721SOL    HW218063   0.924   2.859   6.977
 5722SOL     OW18064   5.352   1.081   4.845
 5722SOL    HW118065   5.423   1.128   4.898
 5722SOL    HW218066   5.392   1.049   4.759
 5723SOL     OW18067   3.578   5.093   0.438
 5723SOL    HW118068   3.523   5.062   0.360
 5723SOL    HW218069   3.570   5.193   0.447
 5724SOL     OW18070   4.460   2.203   6.616
 5724SOL    HW118071   4.487   2.138   6.545
 5724SOL    HW218072   4.533   2.271   6.628
 5725SOL     OW18073   5.233   5.346   3.857
 5725SOL    HW118074   5.248   5.295   3.942
 5725SOL    HW218075   5.319   5.354   3.807
 5726SOL     OW18076   6.324   3.441   5.178
 5726SOL    HW118077   6.281   3.443   5.088
 5726SOL    HW218078   6.313   3.530   5.222
 5727SOL     OW18079   6.067   2.747   3.099
 5727SOL    HW118080   6.031   2.783   3.185
 5727SOL    HW218081   6.006   2.771   3.024
 5728SOL     OW18082   6.280   1.030   5.657
 5728SOL    HW118083   6.317   1.119   5.685
 5728SOL    HW218084   6.226   0.992   5.732
 5729SOL     OW18085   0.184   1.865   0.054
 5729SOL    HW118086   0.282   1.849   0.064
 5729SOL    HW218087   0.165   1.896   6.980
 5730SOL     OW18088   3.975   6.005   5.052
 5730SOL    HW118089   3.913   5.991   5.130
 5730SOL    HW218090   4.060   5.954   5.067
 5731SOL     OW18091   1.646   6.771   4.041
 5731SOL    HW118092   1.731   6.721   4.058
 5731SOL    HW218093   1.578   6.745   4.109
 5732SOL     OW18094   6.015   4.915   4.300
 5732SOL    HW118095   6.000   4.817   4.290
 5732SOL    HW218096   5.937   4.956   4.347
 5733SOL     OW18097   3.845   0.573   0.021
 5733SOL    HW118098   3.772   0.544   0.083
 5733SOL    HW218099   3.805   0.605   6.954
 5734SOL     OW18100   1.494   6.874   5.364
 5734SOL    HW118101   1.531   6.911   5.279
 5734SOL    HW218102   1.554   6.900   5.440
 5735SOL     OW18103   4.001   0.811   2.716
 5735SOL    HW118104   3.949   0.863   2.784
 5735SOL    HW218105   4.028   0.872   2.641
 5736SOL     OW18106   5.091   4.525   6.278
 5736SOL    HW118107   5.042   4.463   6.340
 5736SOL    HW218108   5.029   4.597   6.247
 5737SOL     OW18109   5.274   6.278   1.226
 5737SOL    HW118110   5.353   6.275   1.164
 5737SOL    HW218111   5.306   6.298   1.319
 5738SOL     OW18112   3.590   1.155   6.835
 5738SOL    HW118113   3.654   1.217   6.880
 5738SOL    HW218114   3.584   1.070   6.889
 5739SOL     OW18115   1.915   6.703   5.966
 5739SOL    HW118116   1.917   6.628   5.900
 5739SOL    HW218117   1.953   6.672   6.053
 5740SOL     OW18118   4.796   3.391   0.827
 5740SOL    HW118119   4.810   3.488   0.810
 5740SOL    HW218120   4.779   3.343   0.741
 5741SOL     OW18121   0.722   3.877   4.441
 5741SOL    HW118122   0.624   3.857   4.440
 5741SOL    HW218123   0.736   3.973   4.415
 5742SOL     OW18124   3.844   6.710   3.738
 5742SOL    HW118125   3.872   6.806   3.727
 5742SOL    HW218126   3.805   6.677   3.653
 5743SOL     OW18127   4.036   4.597   5.823
 5743SOL    HW118128   4.049   4.561   5.915
 5743SOL    HW218129   3.954   4.557   5.782
 5744SOL     OW18130   5.972   0.321   3.235
 5744SOL    HW118131   6.051   0.289   3.183
 5744SOL    HW218132   5.975   0.420   3.242
 5745SOL     OW18133   2.256   2.610   3.714
 5745SOL    HW118134   2.219   2.696   3.679
 5745SOL    HW218135   2.287   2.554   3.637
 5746SOL     OW18136   3.943   6.996   3.448
 5746SOL    HW118137   4.022   6.949   3.489
 5746SOL    HW218138   3.946   0.074   3.473
 5747SOL     OW18139   0.896   5.923   1.757
 5747SOL    HW118140   0.868   5.999   1.697
 5747SOL    HW218141   0.995   5.908   1.746
 5748SOL     OW18142   0.491   6.425   0.471
 5748SOL    HW118143   0.414   6.369   0.501
 5748SOL    HW218144   0.571   6.366   0.455
 5749SOL     OW18145   1.901   6.910   5.188
 5749SOL    HW118146   1.894   6.840   5.259
 5749SOL    HW218147   1.946   6.872   5.108
 5750SOL     OW18148   6.677   4.147   4.822
 5750SOL    HW118149   6.639   4.078   4.884
 5750SOL    HW218150   6.602   4.191   4.772
 5751SOL     OW18151   2.100   3.589   4.228
 5751SOL    HW118152   2.130   3.540   4.310
 5751SOL    HW218153   2.077   3.524   4.156
 5752SOL     OW18154   5.480   0.362   0.961
 5752SOL    HW118155   5.482   0.267   0.994
 5752SOL    HW218156   5.396   0.406   0.992
 5753SOL     OW18157   2.902   3.793   5.139
 5753SOL    HW118158   2.909   3.892   5.128
 5753SOL    HW218159   2.984   3.750   5.101
 5754SOL     OW18160   1.496   6.447   1.794
 5754SOL    HW118161   1.565   6.497   1.847
 5754SOL    HW218162   1.477   6.497   1.709
 5755SOL     OW18163   2.021   1.839   6.770
 5755SOL    HW118164   2.044   1.793   6.685
 5755SOL    HW218165   1.968   1.778   6.828
 5756SOL     OW18166   6.845   0.331   2.451
 5756SOL    HW118167   6.833   0.371   2.542
 5756SOL    HW218168   6.880   0.238   2.460
 5757SOL     OW18169   6.918   5.766   3.999
 5757SOL    HW118170   6.940   5.744   4.094
 5757SOL    HW218171   6.843   5.708   3.968
 5758SOL     OW18172   1.775   6.849   3.136
 5758SOL    HW118173   1.819   6.852   3.046
 5758SOL    HW218174   1.705   6.777   3.136
 5759SOL     OW18175   4.515   6.666   1.759
 5759SOL    HW118176   4.584   6.726   1.719
 5759SOL    HW218177   4.438   6.720   1.793
 5760SOL     OW18178   6.905   3.610   2.057
 5760SOL    HW118179   6.966   3.676   2.102
 5760SOL    HW218180   6.942   3.518   2.069
 5761SOL     OW18181   5.111   5.760   4.858
 5761SOL    HW118182   5.202   5.726   4.836
 5761SOL    HW218183   5.086   5.730   4.950
 5762SOL     OW18184   5.138   4.442   0.818
 5762SOL    HW118185   5.089   4.357   0.798
 5762SOL    HW218186   5.077   4.520   0.802
 5763SOL     OW18187   5.198   6.619   0.120
 5763SOL    HW118188   5.272   6.685   0.129
 5763SOL    HW218189   5.150   6.610   0.208
 5764SOL     OW18190   4.101   5.246   3.136
 5764SOL    HW118191   4.115   5.342   3.158
 5764SOL    HW218192   4.133   5.228   3.043
 5765SOL     OW18193   6.350   4.215   0.562
 5765SOL    HW118194   6.391   4.304   0.583
 5765SOL    HW218195   6.364   4.194   0.465
 5766SOL     OW18196   1.322   1.663   4.543
 5766SOL    HW118197   1.385   1.741   4.542
 5766SOL    HW218198   1.235   1.690   4.502
 5767SOL     OW18199   1.918   0.059   0.134
 5767SOL    HW118200   1.863   0.035   0.214
 5767SOL    HW218201   2.015   0.060   0.159
 5768SOL     OW18202   7.001   6.949   3.422
 5768SOL    HW118203   6.992   7.013   3.498
 5768SOL    HW218204   7.009   6.856   3.458
 5769SOL     OW18205   2.218   5.092   6.096
 5769SOL    HW118206   2.263   5.117   6.182
 5769SOL    HW218207   2.273   5.024   6.049
 5770SOL     OW18208   0.833   6.611   6.776
 5770SOL    HW118209   0.861   6.527   6.823
 5770SOL    HW218210   0.843   6.689   6.838
 5771SOL     OW18211   2.166   6.720   3.578
 5771SOL    HW118212   2.249   6.692   3.529
 5771SOL    HW218213   2.192   6.774   3.658
 5772SOL     OW18214   4.366   1.086   1.858
 5772SOL    HW118215   4.329   1.177   1.839
 5772SOL    HW218216   4.351   1.027   1.779
 5773SOL     OW18217   4.473   1.403   2.097
 5773SOL    HW118218   4.514   1.340   2.031
 5773SOL    HW218219   4.374   1.393   2.095
 5774SOL     OW18220   1.878   0.423   5.266
 5774SOL    HW118221   1.877   0.501   5.203
 5774SOL    HW218222   1.900   0.340   5.216
 5775SOL     OW18223   0.992   6.296   2.544
 5775SOL    HW118224   0.973   6.382   2.592
 5775SOL    HW218225   0.961   6.304   2.449
 5776SOL     OW18226   1.196   0.189   3.267
 5776SOL    HW118227   1.221   0.178   3.171
 5776SOL    HW218228   1.115   0.133   3.287
 5777SOL     OW18229   1.373   0.595   3.932
 5777SOL    HW118230   1.461   0.612   3.888
 5777SOL    HW218231   1.299   0.634   3.877
 5778SOL     OW18232   1.208   0.723   0.621
 5778SOL    HW118233   1.118   0.680   0.613
 5778SOL    HW218234   1.222   0.754   0.715
 5779SOL     OW18235   4.828   2.891   6.570
 5779SOL    HW118236   4.913   2.939   6.546
 5779SOL    HW218237   4.850   2.802   6.610
 5780SOL     OW18238   5.736   5.740   4.739
 5780SOL    HW118239   5.643   5.747   4.775
 5780SOL    HW218240   5.784   5.826   4.755
 5781SOL     OW18241   6.415   5.103   4.987
 5781SOL    HW118242   6.362   5.022   4.962
 5781SOL    HW218243   6.492   5.075   5.044
 5782SOL     OW18244   1.011   1.347   0.534
 5782SOL    HW118245   0.979   1.317   0.624
 5782SOL    HW218246   1.064   1.432   0.544
 5783SOL     OW18247   1.243   0.986   2.372
 5783SOL    HW118248   1.204   1.022   2.457
 5783SOL    HW218249   1.341   0.969   2.386
 5784SOL     OW18250   0.393   6.019   7.012
 5784SOL    HW118251   0.426   5.957   6.940
 5784SOL    HW218252   0.348   5.966   0.065
 5785SOL     OW18253   2.379   1.409   0.241
 5785SOL    HW118254   2.336   1.485   0.193
 5785SOL    HW218255   2.317   1.375   0.311
 5786SOL     OW18256   6.452   4.138   0.308
 5786SOL    HW118257   6.495   4.050   0.329
 5786SOL    HW218258   6.363   4.122   0.266
 5787SOL     OW18259   2.313   1.564   5.581
 5787SOL    HW118260   2.265   1.596   5.500
 5787SOL    HW218261   2.324   1.639   5.646
 5788SOL     OW18262   2.795   1.361   2.889
 5788SOL    HW118263   2.728   1.355   2.816
 5788SOL    HW218264   2.753   1.401   2.970
 5789SOL     OW18265   3.431   5.056   6.599
 5789SOL    HW118266   3.452   4.962   6.625
 5789SOL    HW218267   3.512   5.114   6.615
 5790SOL     OW18268   1.242   3.517   4.630
 5790SOL    HW118269   1.153   3.493   4.591
 5790SOL    HW218270   1.236   3.517   4.729
 5791SOL     OW18271   4.025   0.216   2.031
 5791SOL    HW118272   3.954   0.274   1.991
 5791SOL    HW218273   4.007   0.204   2.128
 5792SOL     OW18274   6.895   2.455   2.914
 5792SOL    HW118275   6.858   2.364   2.935
 5792SOL    HW218276   6.992   2.446   2.891
 5793SOL     OW18277   5.389   1.362   3.142
 5793SOL    HW118278   5.389   1.452   3.100
 5793SOL    HW218279   5.303   1.315   3.123
 5794SOL     OW18280   3.756   2.062   0.778
 5794SOL    HW118281   3.736   1.995   0.707
 5794SOL    HW218282   3.831   2.121   0.748
 5795SOL     OW18283   6.142   5.621   5.764
 5795SOL    HW118284   6.140   5.559   5.843
 5795SOL    HW218285   6.183   5.575   5.686
 5796SOL     OW18286   3.988   0.926   0.143
 5796SOL    HW118287   3.954   0.860   0.076
 5796SOL    HW218288   3.926   0.930   0.221
 5797SOL     OW18289   4.005   1.901   5.017
 5797SOL    HW118290   3.983   1.897   5.114
 5797SOL    HW218291   3.995   1.996   4.984
 5798SOL     OW18292   1.241   4.285   5.539
 5798SOL    HW118293   1.209   4.275   5.633
 5798SOL    HW218294   1.219   4.203   5.487
 5799SOL     OW18295   5.546   1.612   3.735
 5799SOL    HW118296   5.526   1.548   3.810
 5799SOL    HW218297   5.499   1.698   3.753
 5800SOL     OW18298   5.337   6.133   0.653
 5800SOL    HW118299   5.400   6.064   0.689
 5800SOL    HW218300   5.293   6.098   0.570
 5801SOL     OW18301   1.125   2.505   4.641
 5801SOL    HW118302   1.097   2.601   4.640
 5801SOL    HW218303   1.188   2.488   4.565
 5802SOL     OW18304   0.869   4.584   0.312
 5802SOL    HW118305   0.894   4.509   0.374
 5802SOL    HW218306   0.891   4.671   0.355
 5803SOL     OW18307   1.063   4.423   1.999
 5803SOL    HW118308   0.989   4.358   2.016
 5803SOL    HW218309   1.085   4.472   2.084
 5804SOL     OW18310   6.281   4.339   3.376
 5804SOL    HW118311   6.297   4.403   3.451
 5804SOL    HW218312   6.279   4.245   3.412
 5805SOL     OW18313   3.655   4.327   6.715
 5805SOL    HW118314   3.674   4.231   6.698
 5805SOL    HW218315   3.579   4.357   6.657
 5806SOL     OW18316   0.148   6.398   6.266
 5806SOL    HW118317   0.146   6.298   6.267
 5806SOL    HW218318   0.200   6.431   6.345
 5807SOL     OW18319   1.524   3.824   1.908
 5807SOL    HW118320   1.440   3.775   1.885
 5807SOL    HW218321   1.502   3.902   1.968
 5808SOL     OW18322   6.033   3.951   3.290
 5808SOL    HW118323   5.997   4.018   3.225
 5808SOL    HW218324   6.033   3.860   3.248
 5809SOL     OW18325   0.352   2.248   5.034
 5809SOL    HW118326   0.350   2.289   5.125
 5809SOL    HW218327   0.387   2.315   4.968
 5810SOL     OW18328   3.191   0.958   3.960
 5810SOL    HW118329   3.239   0.979   3.875
 5810SOL    HW218330   3.102   0.918   3.939
 5811SOL     OW18331   2.767   0.124   4.950
 5811SOL    HW118332   2.686   0.176   4.977
 5811SOL    HW218333   2.748   0.074   4.865
 5812SOL     OW18334   5.597   0.512   4.068
 5812SOL    HW118335   5.600   0.590   4.006
 5812SOL    HW218336   5.525   0.524   4.135
 5813SOL     OW18337   1.222   0.860   0.343
 5813SOL    HW118338   1.279   0.909   0.410
 5813SOL    HW218339   1.166   0.926   0.293
 5814SOL     OW18340   6.097   4.490   0.988
 5814SOL    HW118341   6.045   4.515   1.070
 5814SOL    HW218342   6.195   4.495   1.007
 5815SOL     OW18343   4.517   2.509   4.133
 5815SOL    HW118344   4.573   2.502   4.216
 5815SOL    HW218345   4.436   2.451   4.143
 5816SOL     OW18346   4.773   5.779   6.929
 5816SOL    HW118347   4.762   5.855   6.993
 5816SOL    HW218348   4.836   5.806   6.856
 5817SOL     OW18349   5.127   3.225   5.630
 5817SOL    HW118350   5.095   3.138   5.593
 5817SOL    HW218351   5.051   3.271   5.677
 5818SOL     OW18352   6.494   6.465   5.151
 5818SOL    HW118353   6.402   6.505   5.151
 5818SOL    HW218354   6.558   6.529   5.108
 5819SOL     OW18355   4.542   0.381   6.824
 5819SOL    HW118356   4.474   0.333   6.768
 5819SOL    HW218357   4.547   0.477   6.796
 5820SOL     OW18358   4.663   6.512   3.948
 5820SOL    HW118359   4.677   6.575   3.871
 5820SOL    HW218360   4.712   6.545   4.028
 5821SOL     OW18361   0.887   0.034   2.100
 5821SOL    HW118362   0.956   0.106   2.108
 5821SOL    HW218363   0.816   0.048   2.170
 5822SOL     OW18364   0.332   2.533   2.543
 5822SOL    HW118365   0.341   2.464   2.615
 5822SOL    HW218366   0.245   2.580   2.553
 5823SOL     OW18367   0.890   1.149   6.076
 5823SOL    HW118368   0.839   1.154   6.163
 5823SOL    HW218369   0.882   1.056   6.039
 5824SOL     OW18370   6.630   5.933   2.855
 5824SOL    HW118371   6.553   5.987   2.823
 5824SOL    HW218372   6.655   5.962   2.948
 5825SOL     OW18373   2.292   1.611   5.057
 5825SOL    HW118374   2.218   1.647   5.000
 5825SOL    HW218375   2.376   1.662   5.037
 5826SOL     OW18376   0.046   5.392   5.163
 5826SOL    HW118377   6.967   5.406   5.180
 5826SOL    HW218378   0.065   5.403   5.065
 5827SOL     OW18379   1.849   4.926   4.998
 5827SOL    HW118380   1.894   4.868   5.066
 5827SOL    HW218381   1.791   4.870   4.939
 5828SOL     OW18382   6.829   3.076   1.572
 5828SOL    HW118383   6.764   3.038   1.507
 5828SOL    HW218384   6.836   3.015   1.651
 5829SOL     OW18385   2.894   1.839   2.744
 5829SOL    HW118386   2.914   1.838   2.842
 5829SOL    HW218387   2.932   1.757   2.701
 5830SOL     OW18388   4.026   0.260   5.529
 5830SOL    HW118389   4.050   0.195   5.601
 5830SOL    HW218390   4.076   0.237   5.445
 5831SOL     OW18391   6.809   0.645   3.668
 5831SOL    HW118392   6.901   0.641   3.630
 5831SOL    HW218393   6.743   0.660   3.594
 5832SOL     OW18394   3.672   4.437   5.312
 5832SOL    HW118395   3.584   4.447   5.357
 5832SOL    HW218396   3.710   4.347   5.331
 5833SOL     OW18397   3.977   3.179   4.842
 5833SOL    HW118398   4.009   3.247   4.776
 5833SOL    HW218399   3.966   3.091   4.797
 5834SOL     OW18400   6.032   2.535   0.600
 5834SOL    HW118401   6.082   2.458   0.640
 5834SOL    HW218402   6.084   2.573   0.524
 5835SOL     OW18403   4.829   3.096   2.918
 5835SOL    HW118404   4.826   3.194   2.896
 5835SOL    HW218405   4.918   3.073   2.958
 5836SOL     OW18406   2.974   6.900   3.091
 5836SOL    HW118407   3.047   6.925   3.154
 5836SOL    HW218408   3.007   6.830   3.027
 5837SOL     OW18409   4.722   5.063   6.057
 5837SOL    HW118410   4.679   4.984   6.102
 5837SOL    HW218411   4.737   5.135   6.124
 5838SOL     OW18412   2.441   1.494   5.880
 5838SOL    HW118413   2.481   1.542   5.958
 5838SOL    HW218414   2.501   1.504   5.801
 5839SOL     OW18415   0.344   2.829   2.852
 5839SOL    HW118416   0.403   2.752   2.875
 5839SOL    HW218417   0.250   2.798   2.846
 5840SOL     OW18418   1.556   5.397   0.091
 5840SOL    HW118419   1.578   5.319   0.033
 5840SOL    HW218420   1.640   5.442   0.121
 5841SOL     OW18421   5.739   2.170   2.333
 5841SOL    HW118422   5.744   2.259   2.288
 5841SOL    HW218423   5.829   2.147   2.372
 5842SOL     OW18424   4.218   3.160   1.638
 5842SOL    HW118425   4.184   3.088   1.577
 5842SOL    HW218426   4.175   3.247   1.613
 5843SOL     OW18427   2.131   3.660   2.215
 5843SOL    HW118428   2.176   3.596   2.152
 5843SOL    HW218429   2.149   3.754   2.185
 5844SOL     OW18430   0.445   6.935   5.820
 5844SOL    HW118431   0.524   6.935   5.759
 5844SOL    HW218432   0.435   6.845   5.862
 5845SOL     OW18433   1.456   0.362   3.033
 5845SOL    HW118434   1.376   0.303   3.018
 5845SOL    HW218435   1.539   0.307   3.027
 5846SOL     OW18436   6.446   3.220   4.520
 5846SOL    HW118437   6.523   3.174   4.476
 5846SOL    HW218438   6.371   3.228   4.455
 5847SOL     OW18439   2.156   1.782   2.314
 5847SOL    HW118440   2.245   1.827   2.307
 5847SOL    HW218441   2.083   1.846   2.290
 5848SOL     OW18442   2.243   5.544   2.924
 5848SOL    HW118443   2.231   5.447   2.902
 5848SOL    HW218444   2.171   5.573   2.987
 5849SOL     OW18445   6.609   1.021   6.425
 5849SOL    HW118446   6.518   1.059   6.439
 5849SOL    HW218447   6.610   0.965   6.342
 5850SOL     OW18448   0.777   3.482   2.452
 5850SOL    HW118449   0.803   3.438   2.538
 5850SOL    HW218450   0.835   3.561   2.436
 5851SOL     OW18451   5.235   3.539   2.985
 5851SOL    HW118452   5.146   3.584   2.997
 5851SOL    HW218453   5.245   3.509   2.891
 5852SOL     OW18454   4.822   6.777   3.146
 5852SOL    HW118455   4.795   6.688   3.181
 5852SOL    HW218456   4.752   6.845   3.168
 5853SOL     OW18457   2.987   5.767   5.111
 5853SOL    HW118458   3.070   5.751   5.057
 5853SOL    HW218459   2.983   5.701   5.186
 5854SOL     OW18460   6.228   3.710   5.332
 5854SOL    HW118461   6.141   3.692   5.285
 5854SOL    HW218462   6.230   3.658   5.417
 5855SOL     OW18463   0.395   0.561   4.272
 5855SOL    HW118464   0.410   0.659   4.284
 5855SOL    HW218465   0.483   0.515   4.261
 5856SOL     OW18466   2.203   6.033   3.541
 5856SOL    HW118467   2.188   6.062   3.635
 5856SOL    HW218468   2.292   5.989   3.533
 5857SOL     OW18469   6.272   2.752   5.286
 5857SOL    HW118470   6.194   2.705   5.245
 5857SOL    HW218471   6.250   2.779   5.380
 5858SOL     OW18472   2.629   2.266   2.121
 5858SOL    HW118473   2.594   2.323   2.196
 5858SOL    HW218474   2.727   2.285   2.108
 5859SOL     OW18475   5.298   0.098   0.831
 5859SOL    HW118476   5.324   0.001   0.825
 5859SOL    HW218477   5.352   0.142   0.903
 5860SOL     OW18478   2.231   3.842   1.864
 5860SOL    HW118479   2.231   3.899   1.946
 5860SOL    HW218480   2.163   3.769   1.874
 5861SOL     OW18481   5.016   1.455   4.104
 5861SOL    HW118482   4.918   1.473   4.096
 5861SOL    HW218483   5.067   1.538   4.085
 5862SOL     OW18484   5.006   4.960   3.424
 5862SOL    HW118485   4.937   5.014   3.376
 5862SOL    HW218486   5.085   4.946   3.365
 5863SOL     OW18487   3.347   0.538   4.680
 5863SOL    HW118488   3.272   0.507   4.738
 5863SOL    HW218489   3.387   0.620   4.720
 5864SOL     OW18490   4.301   3.755   1.669
 5864SOL    HW118491   4.276   3.771   1.574
 5864SOL    HW218492   4.292   3.658   1.689
 5865SOL     OW18493   5.754   0.304   4.227
 5865SOL    HW118494   5.731   0.383   4.170
 5865SOL    HW218495   5.691   0.298   4.304
 5866SOL     OW18496   3.615   5.735   6.580
 5866SOL    HW118497   3.585   5.828   6.602
 5866SOL    HW218498   3.714   5.734   6.566
 5867SOL     OW18499   0.473   3.550   0.731
 5867SOL    HW118500   0.447   3.586   0.641
 5867SOL    HW218501   0.390   3.528   0.783
 5868SOL     OW18502   6.802   1.034   5.234
 5868SOL    HW118503   6.773   1.027   5.138
 5868SOL    HW218504   6.792   1.129   5.264
 5869SOL     OW18505   2.050   5.459   3.276
 5869SOL    HW118506   2.077   5.534   3.216
 5869SOL    HW218507   2.127   5.433   3.334
 5870SOL     OW18508   4.456   5.663   4.586
 5870SOL    HW118509   4.511   5.734   4.630
 5870SOL    HW218510   4.488   5.573   4.616
 5871SOL     OW18511   4.239   3.541   0.130
 5871SOL    HW118512   4.152   3.493   0.139
 5871SOL    HW218513   4.251   3.573   0.036
 5872SOL     OW18514   3.928   4.954   6.505
 5872SOL    HW118515   3.931   4.934   6.407
 5872SOL    HW218516   3.962   4.875   6.556
 5873SOL     OW18517   2.137   2.538   0.803
 5873SOL    HW118518   2.047   2.505   0.830
 5873SOL    HW218519   2.170   2.604   0.871
 5874SOL     OW18520   2.758   2.642   1.235
 5874SOL    HW118521   2.837   2.591   1.203
 5874SOL    HW218522   2.788   2.717   1.294
 5875SOL     OW18523   3.518   1.420   1.098
 5875SOL    HW118524   3.468   1.496   1.057
 5875SOL    HW218525   3.612   1.419   1.064
 5876SOL     OW18526   3.167   2.830   0.086
 5876SOL    HW118527   3.199   2.833   0.181
 5876SOL    HW218528   3.130   2.740   0.066
 5877SOL     OW18529   6.117   0.015   0.856
 5877SOL    HW118530   6.103   6.948   0.905
 5877SOL    HW218531   6.213   0.025   0.832
 5878SOL     OW18532   5.253   5.101   2.931
 5878SOL    HW118533   5.159   5.072   2.918
 5878SOL    HW218534   5.262   5.197   2.904
 5879SOL     OW18535   2.796   3.234   6.075
 5879SOL    HW118536   2.861   3.310   6.068
 5879SOL    HW218537   2.831   3.166   6.139
 5880SOL     OW18538   4.544   4.366   6.343
 5880SOL    HW118539   4.593   4.289   6.383
 5880SOL    HW218540   4.599   4.450   6.352
 5881SOL     OW18541   1.021   6.781   2.597
 5881SOL    HW118542   0.994   6.755   2.504
 5881SOL    HW218543   1.101   6.727   2.625
 5882SOL     OW18544   0.580   6.694   5.685
 5882SOL    HW118545   0.639   6.681   5.765
 5882SOL    HW218546   0.630   6.745   5.615
 5883SOL     OW18547   0.361   1.616   0.408
 5883SOL    HW118548   0.418   1.535   0.404
 5883SOL    HW218549   0.364   1.655   0.500
 5884SOL     OW18550   6.448   0.813   4.881
 5884SOL    HW118551   6.533   0.789   4.833
 5884SOL    HW218552   6.370   0.802   4.820
 5885SOL     OW18553   0.641   5.517   0.834
 5885SOL    HW118554   0.558   5.480   0.876
 5885SOL    HW218555   0.704   5.442   0.814
 5886SOL     OW18556   1.336   3.509   3.356
 5886SOL    HW118557   1.283   3.546   3.433
 5886SOL    HW218558   1.276   3.459   3.295
 5887SOL     OW18559   3.039   1.781   2.017
 5887SOL    HW118560   3.081   1.777   2.108
 5887SOL    HW218561   2.988   1.867   2.007
 5888SOL     OW18562   2.732   6.689   1.098
 5888SOL    HW118563   2.799   6.680   1.024
 5888SOL    HW218564   2.643   6.656   1.066
 5889SOL     OW18565   6.721   1.174   0.839
 5889SOL    HW118566   6.648   1.111   0.813
 5889SOL    HW218567   6.688   1.268   0.827
 5890SOL     OW18568   1.743   6.784   2.631
 5890SOL    HW118569   1.720   6.744   2.542
 5890SOL    HW218570   1.802   6.863   2.617
 5891SOL     OW18571   2.636   3.614   0.076
 5891SOL    HW118572   2.607   3.680   0.007
 5891SOL    HW218573   2.560   3.598   0.140
 5892SOL     OW18574   0.187   4.886   1.393
 5892SOL    HW118575   0.088   4.899   1.394
 5892SOL    HW218576   0.208   4.793   1.365
 5893SOL     OW18577   1.713   4.938   1.284
 5893SOL    HW118578   1.753   4.846   1.281
 5893SOL    HW218579   1.615   4.931   1.303
 5894SOL     OW18580   0.867   5.840   5.360
 5894SOL    HW118581   0.778   5.824   5.316
 5894SOL    HW218582   0.886   5.938   5.361
 5895SOL     OW18583   6.446   3.352   4.198
 5895SOL    HW118584   6.515   3.282   4.189
 5895SOL    HW218585   6.489   3.442   4.202
 5896SOL     OW18586   4.968   1.510   1.693
 5896SOL    HW118587   4.950   1.473   1.601
 5896SOL    HW218588   4.882   1.512   1.745
 5897SOL     OW18589   4.009   1.370   1.946
 5897SOL    HW118590   3.972   1.315   1.872
 5897SOL    HW218591   3.959   1.350   2.030
 5898SOL     OW18592   2.643   1.065   5.864
 5898SOL    HW118593   2.647   1.160   5.895
 5898SOL    HW218594   2.680   1.059   5.771
 5899SOL     OW18595   0.230   5.192   5.897
 5899SOL    HW118596   0.247   5.274   5.953
 5899SOL    HW218597   0.224   5.218   5.801
 5900SOL     OW18598   0.007   5.337   3.507
 5900SOL    HW118599   0.005   5.433   3.480
 5900SOL    HW218600   0.098   5.314   3.540
 5901SOL     OW18601   1.199   0.962   1.025
 5901SOL    HW118602   1.171   0.877   0.981
 5901SOL    HW218603   1.228   0.943   1.119
 5902SOL     OW18604   5.766   3.563   5.109
 5902SOL    HW118605   5.671   3.593   5.106
 5902SOL    HW218606   5.773   3.471   5.071
 5903SOL     OW18607   5.452   2.642   6.865
 5903SOL    HW118608   5.537   2.663   6.815
 5903SOL    HW218609   5.450   2.696   6.950
 5904SOL     OW18610   1.784   4.310   1.152
 5904SOL    HW118611   1.874   4.268   1.167
 5904SOL    HW218612   1.723   4.244   1.109
 5905SOL     OW18613   5.515   1.049   3.640
 5905SOL    HW118614   5.462   1.084   3.563
 5905SOL    HW218615   5.601   1.012   3.607
 5906SOL     OW18616   5.434   1.655   5.187
 5906SOL    HW118617   5.497   1.615   5.253
 5906SOL    HW218618   5.459   1.626   5.095
 5907SOL     OW18619   1.649   6.667   0.462
 5907SOL    HW118620   1.552   6.670   0.440
 5907SOL    HW218621   1.701   6.643   0.380
 5908SOL     OW18622   5.207   3.788   0.160
 5908SOL    HW118623   5.233   3.695   0.186
 5908SOL    HW218624   5.118   3.810   0.199
 5909SOL     OW18625   0.565   4.196   5.861
 5909SOL    HW118626   0.482   4.228   5.815
 5909SOL    HW218627   0.593   4.263   5.929
 5910SOL     OW18628   1.364   4.216   0.705
 5910SOL    HW118629   1.318   4.302   0.725
 5910SOL    HW218630   1.297   4.146   0.680
 5911SOL     OW18631   0.498   6.031   5.840
 5911SOL    HW118632   0.406   5.996   5.825
 5911SOL    HW218633   0.502   6.127   5.812
 5912SOL     OW18634   5.933   3.137   6.633
 5912SOL    HW118635   6.028   3.168   6.630
 5912SOL    HW218636   5.881   3.181   6.560
 5913SOL     OW18637   2.216   3.003   5.806
 5913SOL    HW118638   2.252   2.955   5.725
 5913SOL    HW218639   2.244   2.954   5.888
 5914SOL     OW18640   2.557   5.726   0.151
 5914SOL    HW118641   2.627   5.759   0.214
 5914SOL    HW218642   2.564   5.627   0.141
 5915SOL     OW18643   5.643   3.624   2.298
 5915SOL    HW118644   5.570   3.562   2.268
 5915SOL    HW218645   5.665   3.687   2.224
 5916SOL     OW18646   4.550   0.531   5.925
 5916SOL    HW118647   4.606   0.575   5.854
 5916SOL    HW218648   4.458   0.517   5.890
 5917SOL     OW18649   3.570   3.231   3.442
 5917SOL    HW118650   3.489   3.244   3.499
 5917SOL    HW218651   3.633   3.168   3.488
 5918SOL     OW18652   2.124   3.534   4.676
 5918SOL    HW118653   2.045   3.532   4.738
 5918SOL    HW218654   2.207   3.551   4.728
 5919SOL     OW18655   2.828   1.799   0.347
 5919SOL    HW118656   2.831   1.743   0.264
 5919SOL    HW218657   2.918   1.799   0.390
 5920SOL     OW18658   3.575   7.017   6.771
 5920SOL    HW118659   3.511   0.075   6.773
 5920SOL    HW218660   3.555   6.956   6.847
 5921SOL     OW18661   3.491   5.150   5.227
 5921SOL    HW118662   3.575   5.111   5.265
 5921SOL    HW218663   3.416   5.085   5.237
 5922SOL     OW18664   6.698   4.919   3.438
 5922SOL    HW118665   6.681   4.927   3.536
 5922SOL    HW218666   6.745   5.001   3.406
 5923SOL     OW18667   6.402   0.772   2.842
 5923SOL    HW118668   6.411   0.870   2.825
 5923SOL    HW218669   6.380   0.757   2.939
 5924SOL     OW18670   5.621   2.656   5.042
 5924SOL    HW118671   5.627   2.670   5.141
 5924SOL    HW218672   5.665   2.569   5.019
 5925SOL     OW18673   4.691   6.040   2.813
 5925SOL    HW118674   4.665   6.071   2.905
 5925SOL    HW218675   4.633   5.963   2.786
 5926SOL     OW18676   3.035   5.028   1.626
 5926SOL    HW118677   2.990   4.940   1.615
 5926SOL    HW218678   3.100   5.023   1.701
 5927SOL     OW18679   1.863   4.514   1.841
 5927SOL    HW118680   1.931   4.514   1.915
 5927SOL    HW218681   1.794   4.584   1.860
 5928SOL     OW18682   2.482   0.273   2.529
 5928SOL    HW118683   2.566   0.237   2.490
 5928SOL    HW218684   2.424   0.308   2.456
 5929SOL     OW18685   0.553   6.292   5.784
 5929SOL    HW118686   0.477   6.343   5.743
 5929SOL    HW218687   0.609   6.354   5.839
 5930SOL     OW18688   5.769   1.228   3.726
 5930SOL    HW118689   5.858   1.229   3.772
 5930SOL    HW218690   5.779   1.264   3.633
 5931SOL     OW18691   5.682   4.909   2.340
 5931SOL    HW118692   5.664   4.830   2.282
 5931SOL    HW218693   5.613   4.980   2.321
 5932SOL     OW18694   2.231   6.537   0.785
 5932SOL    HW118695   2.151   6.553   0.842
 5932SOL    HW218696   2.290   6.617   0.786
 5933SOL     OW18697   6.969   4.767   1.936
 5933SOL    HW118698   6.921   4.753   2.023
 5933SOL    HW218699   6.978   4.679   1.889
 5934SOL     OW18700   3.476   3.850   3.554
 5934SOL    HW118701   3.441   3.763   3.518
 5934SOL    HW218702   3.400   3.912   3.571
 5935SOL     OW18703   3.680   3.638   4.651
 5935SOL    HW118704   3.583   3.628   4.672
 5935SOL    HW218705   3.722   3.704   4.714
 5936SOL     OW18706   4.269   3.528   6.485
 5936SOL    HW118707   4.316   3.606   6.527
 5936SOL    HW218708   4.171   3.536   6.502
 5937SOL     OW18709   0.536   3.799   2.074
 5937SOL    HW118710   0.466   3.797   2.002
 5937SOL    HW218711   0.605   3.729   2.056
 5938SOL     OW18712   1.430   5.008   4.501
 5938SOL    HW118713   1.489   5.010   4.420
 5938SOL    HW218714   1.484   4.980   4.581
 5939SOL     OW18715   3.219   0.519   3.273
 5939SOL    HW118716   3.258   0.524   3.181
 5939SOL    HW218717   3.286   0.478   3.335
 5940SOL     OW18718   4.264   6.761   1.993
 5940SOL    HW118719   4.362   6.769   2.014
 5940SOL    HW218720   4.224   6.852   1.982
 5941SOL     OW18721   6.284   4.439   1.999
 5941SOL    HW118722   6.229   4.522   2.000
 5941SOL    HW218723   6.239   4.369   2.055
 5942SOL     OW18724   4.402   2.701   6.587
 5942SOL    HW118725   4.343   2.693   6.507
 5942SOL    HW218726   4.371   2.776   6.644
 5943SOL     OW18727   2.685   5.994   0.140
 5943SOL    HW118728   2.646   5.902   0.130
 5943SOL    HW218729   2.641   6.056   0.075
 5944SOL     OW18730   5.670   1.564   1.834
 5944SOL    HW118731   5.689   1.657   1.803
 5944SOL    HW218732   5.574   1.558   1.863
 5945SOL     OW18733   6.949   4.640   5.570
 5945SOL    HW118734   6.992   4.722   5.534
 5945SOL    HW218735   6.873   4.665   5.630
 5946SOL     OW18736   3.478   4.227   5.654
 5946SOL    HW118737   3.461   4.279   5.738
 5946SOL    HW218738   3.390   4.199   5.614
 5947SOL     OW18739   3.985   2.990   1.878
 5947SOL    HW118740   4.033   3.076   1.861
 5947SOL    HW218741   3.952   2.953   1.792
 5948SOL     OW18742   3.846   5.122   3.128
 5948SOL    HW118743   3.936   5.165   3.130
 5948SOL    HW218744   3.853   5.029   3.163
 5949SOL     OW18745   3.916   4.155   1.392
 5949SOL    HW118746   4.008   4.130   1.423
 5949SOL    HW218747   3.873   4.077   1.348
 5950SOL     OW18748   5.552   2.440   5.311
 5950SOL    HW118749   5.593   2.388   5.385
 5950SOL    HW218750   5.455   2.456   5.330
 5951SOL     OW18751   0.531   6.431   4.882
 5951SOL    HW118752   0.433   6.437   4.900
 5951SOL    HW218753   0.553   6.486   4.802
 5952SOL     OW18754   6.237   6.641   3.855
 5952SOL    HW118755   6.230   6.545   3.879
 5952SOL    HW218756   6.305   6.686   3.913
 5953SOL     OW18757   7.007   3.055   5.334
 5953SOL    HW118758   0.086   3.072   5.330
 5953SOL    HW218759   6.987   2.992   5.409
 5954SOL     OW18760   6.740   4.471   5.479
 5954SOL    HW118761   6.804   4.545   5.498
 5954SOL    HW218762   6.724   4.466   5.380
 5955SOL     OW18763   6.005   6.009   2.211
 5955SOL    HW118764   6.041   6.093   2.253
 5955SOL    HW218765   6.036   6.005   2.115
 5956SOL     OW18766   3.275   1.862   1.032
 5956SOL    HW118767   3.294   1.909   0.946
 5956SOL    HW218768   3.278   1.763   1.018
 5957SOL     OW18769   4.617   6.807   5.660
 5957SOL    HW118770   4.703   6.849   5.631
 5957SOL    HW218771   4.548   6.821   5.590
 5958SOL     OW18772   6.031   6.233   2.838
 5958SOL    HW118773   6.057   6.266   2.929
 5958SOL    HW218774   6.112   6.203   2.789
 5959SOL     OW18775   3.275   1.690   5.356
 5959SOL    HW118776   3.235   1.772   5.398
 5959SOL    HW218777   3.300   1.710   5.262
 5960SOL     OW18778   3.579   6.921   3.768
 5960SOL    HW118779   3.584   6.994   3.699
 5960SOL    HW218780   3.642   6.942   3.843
 5961SOL     OW18781   4.343   1.227   3.228
 5961SOL    HW118782   4.371   1.179   3.311
 5961SOL    HW218783   4.337   1.325   3.246
 5962SOL     OW18784   5.140   5.526   2.096
 5962SOL    HW118785   5.041   5.519   2.101
 5962SOL    HW218786   5.177   5.446   2.049
 5963SOL     OW18787   3.832   3.360   4.096
 5963SOL    HW118788   3.812   3.398   4.006
 5963SOL    HW218789   3.747   3.347   4.147
 5964SOL     OW18790   0.026   5.099   6.053
 5964SOL    HW118791   0.071   5.133   5.970
 5964SOL    HW218792   0.061   5.151   6.132
 5965SOL     OW18793   1.793   1.999   6.325
 5965SOL    HW118794   1.832   2.074   6.378
 5965SOL    HW218795   1.695   1.992   6.344
 5966SOL     OW18796   2.739   5.588   5.203
 5966SOL    HW118797   2.704   5.615   5.114
 5966SOL    HW218798   2.826   5.540   5.192
 5967SOL     OW18799   3.847   6.648   2.311
 5967SOL    HW118800   3.857   6.574   2.244
 5967SOL    HW218801   3.807   6.611   2.396
 5968SOL     OW18802   5.676   1.755   3.122
 5968SOL    HW118803   5.647   1.832   3.178
 5968SOL    HW218804   5.718   1.789   3.038
 5969SOL     OW18805   6.346   2.007   5.107
 5969SOL    HW118806   6.425   2.068   5.103
 5969SOL    HW218807   6.285   2.026   5.030
 5970SOL     OW18808   0.594   4.542   2.383
 5970SOL    HW118809   0.648   4.457   2.381
 5970SOL    HW218810   0.497   4.520   2.370
 5971SOL     OW18811   2.136   0.125   3.088
 5971SOL    HW118812   2.128   0.113   2.989
 5971SOL    HW218813   2.049   0.156   3.126
 5972SOL     OW18814   4.137   6.611   0.498
 5972SOL    HW118815   4.060   6.606   0.435
 5972SOL    HW218816   4.208   6.670   0.460
 5973SOL     OW18817   1.812   5.308   2.443
 5973SOL    HW118818   1.886   5.244   2.421
 5973SOL    HW218819   1.774   5.286   2.532
 5974SOL     OW18820   6.003   4.181   5.854
 5974SOL    HW118821   6.011   4.084   5.874
 5974SOL    HW218822   6.094   4.220   5.841
 5975SOL     OW18823   3.944   2.308   1.045
 5975SOL    HW118824   3.899   2.300   0.957
 5975SOL    HW218825   3.923   2.396   1.086
 5976SOL     OW18826   2.950   3.376   5.176
 5976SOL    HW118827   2.918   3.386   5.270
 5976SOL    HW218828   2.886   3.318   5.125
 5977SOL     OW18829   1.156   4.557   1.255
 5977SOL    HW118830   1.079   4.613   1.225
 5977SOL    HW218831   1.240   4.590   1.212
 5978SOL     OW18832   5.905   4.781   2.804
 5978SOL    HW118833   5.808   4.787   2.824
 5978SOL    HW218834   5.958   4.800   2.886
 5979SOL     OW18835   6.734   1.112   3.278
 5979SOL    HW118836   6.637   1.097   3.258
 5979SOL    HW218837   6.790   1.064   3.210
 5980SOL     OW18838   4.078   4.519   6.797
 5980SOL    HW118839   4.177   4.519   6.783
 5980SOL    HW218840   4.046   4.426   6.812
 5981SOL     OW18841   6.857   1.747   1.884
 5981SOL    HW118842   6.948   1.746   1.925
 5981SOL    HW218843   6.859   1.804   1.802
 5982SOL     OW18844   5.925   1.586   6.505
 5982SOL    HW118845   5.979   1.548   6.430
 5982SOL    HW218846   5.872   1.513   6.548
 5983SOL     OW18847   2.315   1.582   4.389
 5983SOL    HW118848   2.323   1.590   4.489
 5983SOL    HW218849   2.245   1.645   4.356
 5984SOL     OW18850   0.227   0.268   4.638
 5984SOL    HW118851   0.215   0.226   4.548
 5984SOL    HW218852   0.150   0.328   4.657
 5985SOL     OW18853   5.443   2.844   4.302
 5985SOL    HW118854   5.476   2.750   4.307
 5985SOL    HW218855   5.346   2.847   4.326
 5986SOL     OW18856   3.110   3.051   4.250
 5986SOL    HW118857   3.076   3.109   4.325
 5986SOL    HW218858   3.209   3.062   4.242
 5987SOL     OW18859   4.368   1.163   4.889
 5987SOL    HW118860   4.390   1.104   4.811
 5987SOL    HW218861   4.350   1.106   4.969
 5988SOL     OW18862   4.296   6.776   4.532
 5988SOL    HW118863   4.243   6.697   4.565
 5988SOL    HW218864   4.271   6.795   4.437
 5989SOL     OW18865   2.274   6.325   6.639
 5989SOL    HW118866   2.246   6.332   6.734
 5989SOL    HW218867   2.364   6.280   6.634
 5990SOL     OW18868   3.938   4.079   0.857
 5990SOL    HW118869   3.975   4.039   0.774
 5990SOL    HW218870   3.967   4.175   0.864
 5991SOL     OW18871   4.089   4.907   4.891
 5991SOL    HW118872   4.135   4.828   4.850
 5991SOL    HW218873   4.011   4.933   4.834
 5992SOL     OW18874   3.618   0.377   4.156
 5992SOL    HW118875   3.520   0.396   4.147
 5992SOL    HW218876   3.631   0.280   4.179
 5993SOL     OW18877   3.640   6.759   6.133
 5993SOL    HW118878   3.558   6.722   6.089
 5993SOL    HW218879   3.720   6.733   6.079
 5994SOL     OW18880   6.147   2.108   1.779
 5994SOL    HW118881   6.126   2.109   1.877
 5994SOL    HW218882   6.219   2.175   1.760
 5995SOL     OW18883   6.946   5.405   1.384
 5995SOL    HW118884   6.916   5.390   1.478
 5995SOL    HW218885   6.868   5.425   1.326
 5996SOL     OW18886   0.510   6.012   6.435
 5996SOL    HW118887   0.593   5.999   6.380
 5996SOL    HW218888   0.448   5.936   6.417
 5997SOL     OW18889   0.629   6.660   2.448
 5997SOL    HW118890   0.610   6.707   2.534
 5997SOL    HW218891   0.617   6.562   2.461
 5998SOL     OW18892   5.564   2.269   2.626
 5998SOL    HW118893   5.513   2.329   2.688
 5998SOL    HW218894   5.590   2.320   2.544
 5999SOL     OW18895   1.072   1.993   3.087
 5999SOL    HW118896   1.022   2.072   3.052
 5999SOL    HW218897   1.076   1.922   3.018
 6000SOL     OW18898   3.973   5.327   2.069
 6000SOL    HW118899   3.876   5.307   2.081
 6000SOL    HW218900   4.009   5.368   2.152
 6001SOL     OW18901   0.535   3.707   6.648
 6001SOL    HW118902   0.613   3.756   6.685
 6001SOL    HW218903   0.451   3.744   6.689
 6002SOL     OW18904   6.996   6.658   1.540
 6002SOL    HW118905   6.984   6.757   1.548
 6002SOL    HW218906   0.046   6.627   1.606
 6003SOL     OW18907   5.958   3.294   4.805
 6003SOL    HW118908   5.933   3.298   4.902
 6003SOL    HW218909   6.044   3.245   4.794
 6004SOL     OW18910   0.142   3.836   3.500
 6004SOL    HW118911   0.130   3.779   3.418
 6004SOL    HW218912   0.214   3.904   3.483
 6005SOL     OW18913   4.169   4.846   3.984
 6005SOL    HW118914   4.226   4.916   3.941
 6005SOL    HW218915   4.095   4.821   3.922
 6006SOL     OW18916   3.545   0.215   6.551
 6006SOL    HW118917   3.586   0.295   6.594
 6006SOL    HW218918   3.616   0.162   6.504
 6007SOL     OW18919   4.996   2.968   3.474
 6007SOL    HW118920   5.012   3.014   3.562
 6007SOL    HW218921   5.063   3.000   3.407
 6008SOL     OW18922   3.011   5.314   5.817
 6008SOL    HW118923   2.989   5.394   5.873
 6008SOL    HW218924   3.101   5.325   5.776
 6009SOL     OW18925   2.603   1.457   5.105
 6009SOL    HW118926   2.697   1.424   5.093
 6009SOL    HW218927   2.540   1.390   5.067
 6010SOL     OW18928   2.101   4.462   1.973
 6010SOL    HW118929   2.092   4.452   2.072
 6010SOL    HW218930   2.171   4.531   1.953
 6011SOL     OW18931   5.439   2.470   1.812
 6011SOL    HW118932   5.404   2.426   1.895
 6011SOL    HW218933   5.477   2.402   1.750
 6012SOL     OW18934   6.941   2.238   0.233
 6012SOL    HW118935   6.921   2.221   0.329
 6012SOL    HW218936   6.880   2.182   0.176
 6013SOL     OW18937   5.979   1.573   2.461
 6013SOL    HW118938   5.939   1.570   2.553
 6013SOL    HW218939   5.912   1.539   2.394
 6014SOL     OW18940   4.988   2.082   0.601
 6014SOL    HW118941   4.983   2.084   0.701
 6014SOL    HW218942   5.061   2.143   0.570
 6015SOL     OW18943   5.952   2.668   5.940
 6015SOL    HW118944   6.035   2.722   5.949
 6015SOL    HW218945   5.884   2.699   6.007
 6016SOL     OW18946   1.158   1.096   5.970
 6016SOL    HW118947   1.063   1.126   5.981
 6016SOL    HW218948   1.162   0.997   5.963
 6017SOL     OW18949   5.977   5.365   2.607
 6017SOL    HW118950   6.005   5.277   2.645
 6017SOL    HW218951   5.886   5.389   2.640
 6018SOL     OW18952   3.522   2.596   0.157
 6018SOL    HW118953   3.609   2.559   0.125
 6018SOL    HW218954   3.476   2.645   0.083
 6019SOL     OW18955   4.718   1.975   3.753
 6019SOL    HW118956   4.666   1.955   3.837
 6019SOL    HW218957   4.668   1.939   3.674
 6020SOL     OW18958   2.225   6.623   1.572
 6020SOL    HW118959   2.153   6.686   1.599
 6020SOL    HW218960   2.314   6.665   1.589
 6021SOL     OW18961   4.576   6.813   2.732
 6021SOL    HW118962   4.568   6.902   2.778
 6021SOL    HW218963   4.623   6.749   2.792
 6022SOL     OW18964   4.610   0.740   4.614
 6022SOL    HW118965   4.621   0.812   4.545
 6022SOL    HW218966   4.677   0.754   4.687
 6023SOL     OW18967   6.590   1.473   3.309
 6023SOL    HW118968   6.514   1.422   3.349
 6023SOL    HW218969   6.572   1.571   3.317
 6024SOL     OW18970   0.449   5.059   2.607
 6024SOL    HW118971   0.403   5.100   2.686
 6024SOL    HW218972   0.548   5.068   2.618
 6025SOL     OW18973   4.543   0.484   1.892
 6025SOL    HW118974   4.497   0.429   1.961
 6025SOL    HW218975   4.488   0.566   1.873
 6026SOL     OW18976   0.582   4.464   4.359
 6026SOL    HW118977   0.538   4.397   4.419
 6026SOL    HW218978   0.641   4.523   4.414
 6027SOL     OW18979   1.911   3.977   6.006
 6027SOL    HW118980   1.884   4.057   5.951
 6027SOL    HW218981   1.923   3.898   5.945
 6028SOL     OW18982   0.864   3.919   0.410
 6028SOL    HW118983   0.825   3.884   0.325
 6028SOL    HW218984   0.831   4.012   0.425
 6029SOL     OW18985   2.077   6.517   6.739
 6029SOL    HW118986   2.083   6.443   6.671
 6029SOL    HW218987   2.123   6.489   6.823
 6030SOL     OW18988   2.373   0.835   3.068
 6030SOL    HW118989   2.310   0.898   3.023
 6030SOL    HW218990   2.320   0.769   3.121
 6031SOL     OW18991   4.166   5.199   4.945
 6031SOL    HW118992   4.174   5.257   5.026
 6031SOL    HW218993   4.099   5.127   4.963
 6032SOL     OW18994   1.545   3.356   2.294
 6032SOL    HW118995   1.528   3.448   2.328
 6032SOL    HW218996   1.484   3.337   2.216
 6033SOL     OW18997   1.889   2.471   2.881
 6033SOL    HW118998   1.876   2.526   2.963
 6033SOL    HW218999   1.827   2.393   2.884
 6034SOL     OW19000   2.172   4.902   4.422
 6034SOL    HW119001   2.244   4.943   4.366
 6034SOL    HW219002   2.156   4.808   4.391
 6035SOL     OW19003   6.028   1.179   3.794
 6035SOL    HW119004   6.069   1.091   3.817
 6035SOL    HW219005   6.097   1.251   3.802
 6036SOL     OW19006   0.367   0.120   4.838
 6036SOL    HW119007   0.325   0.168   4.760
 6036SOL    HW219008   0.326   0.030   4.849
 6037SOL     OW19009   5.054   5.597   6.380
 6037SOL    HW119010   5.033   5.553   6.292
 6037SOL    HW219011   5.035   5.533   6.454
 6038SOL     OW19012   0.622   3.128   6.106
 6038SOL    HW119013   0.716   3.096   6.091
 6038SOL    HW219014   0.618   3.226   6.090
 6039SOL     OW19015   3.394   3.654   3.063
 6039SOL    HW119016   3.463   3.652   3.136
 6039SOL    HW219017   3.342   3.738   3.069
 6040SOL     OW19018   0.054   1.733   6.467
 6040SOL    HW119019   0.046   1.685   6.380
 6040SOL    HW219020   0.102   1.675   6.533
 6041SOL     OW19021   1.535   1.554   6.284
 6041SOL    HW119022   1.601   1.628   6.274
 6041SOL    HW219023   1.567   1.474   6.234
 6042SOL     OW19024   5.823   4.987   1.964
 6042SOL    HW119025   5.854   5.023   2.052
 6042SOL    HW219026   5.752   4.919   1.979
 6043SOL     OW19027   1.075   4.783   5.191
 6043SOL    HW119028   1.069   4.787   5.092
 6043SOL    HW219029   1.138   4.854   5.223
 6044SOL     OW19030   6.893   1.827   0.906
 6044SOL    HW119031   6.812   1.883   0.923
 6044SOL    HW219032   6.907   1.817   0.808
 6045SOL     OW19033   5.190   5.673   0.813
 6045SOL    HW119034   5.142   5.748   0.858
 6045SOL    HW219035   5.247   5.709   0.740
 6046SOL     OW19036   3.060   2.316   0.818
 6046SOL    HW119037   3.138   2.294   0.759
 6046SOL    HW219038   2.991   2.245   0.810
 6047SOL     OW19039   6.647   1.363   3.681
 6047SOL    HW119040   6.708   1.344   3.604
 6047SOL    HW219041   6.615   1.276   3.720
 6048SOL     OW19042   4.545   0.072   3.397
 6048SOL    HW119043   4.445   0.066   3.398
 6048SOL    HW219044   4.574   0.155   3.445
 6049SOL     OW19045   5.066   3.195   6.451
 6049SOL    HW119046   5.126   3.193   6.531
 6049SOL    HW219047   4.994   3.263   6.464
 6050SOL     OW19048   4.141   4.135   5.962
 6050SOL    HW119049   4.121   4.201   6.035
 6050SOL    HW219050   4.062   4.074   5.950
 6051SOL     OW19051   2.283   2.164   3.030
 6051SOL    HW119052   2.341   2.086   3.007
 6051SOL    HW219053   2.222   2.185   2.953
 6052SOL     OW19054   6.507   0.154   0.385
 6052SOL    HW119055   6.589   0.153   0.442
 6052SOL    HW219056   6.533   0.139   0.289
 6053SOL     OW19057   3.329   0.357   6.745
 6053SOL    HW119058   3.301   0.410   6.825
 6053SOL    HW219059   3.307   0.261   6.759
 6054SOL     OW19060   2.235   3.969   0.963
 6054SOL    HW119061   2.333   3.980   0.950
 6054SOL    HW219062   2.201   3.896   0.903
 6055SOL     OW19063   5.457   0.812   5.497
 6055SOL    HW119064   5.391   0.742   5.470
 6055SOL    HW219065   5.507   0.781   5.578
 6056SOL     OW19066   4.345   1.762   5.239
 6056SOL    HW119067   4.340   1.664   5.219
 6056SOL    HW219068   4.294   1.812   5.169
 6057SOL     OW19069   4.286   1.934   4.626
 6057SOL    HW119070   4.335   1.849   4.608
 6057SOL    HW219071   4.330   1.983   4.701
 6058SOL     OW19072   5.689   2.834   3.076
 6058SOL    HW119073   5.698   2.864   3.171
 6058SOL    HW219074   5.672   2.735   3.074
 6059SOL     OW19075   4.486   5.403   6.008
 6059SOL    HW119076   4.406   5.373   6.061
 6059SOL    HW219077   4.466   5.395   5.911
 6060SOL     OW19078   3.637   3.905   5.821
 6060SOL    HW119079   3.727   3.948   5.827
 6060SOL    HW219080   3.630   3.835   5.892
 6061SOL     OW19081   3.430   2.818   0.627
 6061SOL    HW119082   3.356   2.885   0.626
 6061SOL    HW219083   3.435   2.772   0.539
 6062SOL     OW19084   2.343   1.543   4.677
 6062SOL    HW119085   2.294   1.576   4.758
 6062SOL    HW219086   2.433   1.507   4.705
 6063SOL     OW19087   3.851   1.206   6.490
 6063SOL    HW119088   3.829   1.108   6.487
 6063SOL    HW219089   3.929   1.220   6.552
 6064SOL     OW19090   2.417   5.532   2.667
 6064SOL    HW119091   2.320   5.537   2.689
 6064SOL    HW219092   2.440   5.440   2.636
 6065SOL     OW19093   6.179   6.497   0.924
 6065SOL    HW119094   6.170   6.531   1.017
 6065SOL    HW219095   6.235   6.414   0.924
 6066SOL     OW19096   4.541   1.517   1.061
 6066SOL    HW119097   4.543   1.611   1.097
 6066SOL    HW219098   4.593   1.458   1.122
 6067SOL     OW19099   6.516   1.868   6.584
 6067SOL    HW119100   6.492   1.966   6.583
 6067SOL    HW219101   6.615   1.858   6.590
 6068SOL     OW19102   5.677   3.323   4.828
 6068SOL    HW119103   5.639   3.408   4.793
 6068SOL    HW219104   5.767   3.307   4.787
 6069SOL     OW19105   6.376   3.721   6.057
 6069SOL    HW119106   6.357   3.698   6.153
 6069SOL    HW219107   6.463   3.682   6.030
 6070SOL     OW19108   2.935   1.973   6.429
 6070SOL    HW119109   2.909   1.880   6.452
 6070SOL    HW219110   2.853   2.026   6.407
 6071SOL     OW19111   4.545   5.845   5.973
 6071SOL    HW119112   4.446   5.835   5.987
 6071SOL    HW219113   4.568   5.942   5.967
 6072SOL     OW19114   1.047   0.954   1.868
 6072SOL    HW119115   1.123   0.917   1.923
 6072SOL    HW219116   1.082   0.987   1.780
 6073SOL     OW19117   6.299   3.145   0.441
 6073SOL    HW119118   6.217   3.106   0.482
 6073SOL    HW219119   6.330   3.223   0.495
 6074SOL     OW19120   1.285   6.675   4.401
 6074SOL    HW119121   1.196   6.636   4.422
 6074SOL    HW219122   1.357   6.613   4.432
 6075SOL     OW19123   6.556   2.941   6.676
 6075SOL    HW119124   6.477   2.921   6.619
 6075SOL    HW219125   6.545   3.030   6.719
 6076SOL     OW19126   2.386   0.020   5.140
 6076SOL    HW119127   2.424   7.010   5.228
 6076SOL    HW219128   2.435   0.100   5.107
 6077SOL     OW19129   4.961   5.731   2.514
 6077SOL    HW119130   5.023   5.809   2.527
 6077SOL    HW219131   4.873   5.764   2.482
 6078SOL     OW19132   3.562   5.034   2.455
 6078SOL    HW119133   3.632   5.106   2.454
 6078SOL    HW219134   3.575   4.975   2.534
 6079SOL     OW19135   3.176   3.652   6.554
 6079SOL    HW119136   3.185   3.613   6.462
 6079SOL    HW219137   3.259   3.632   6.606
 6080SOL     OW19138   0.223   1.633   0.717
 6080SOL    HW119139   0.263   1.670   0.801
 6080SOL    HW219140   0.275   1.554   0.687
 6081SOL     OW19141   6.485   3.909   4.242
 6081SOL    HW119142   6.545   3.848   4.294
 6081SOL    HW219143   6.404   3.859   4.212
 6082SOL     OW19144   3.767   0.828   3.384
 6082SOL    HW119145   3.861   0.791   3.385
 6082SOL    HW219146   3.728   0.818   3.293
 6083SOL     OW19147   0.944   5.563   6.107
 6083SOL    HW119148   0.980   5.519   6.189
 6083SOL    HW219149   0.864   5.618   6.131
 6084SOL     OW19150   6.892   5.301   4.351
 6084SOL    HW119151   6.878   5.285   4.253
 6084SOL    HW219152   6.822   5.251   4.403
 6085SOL     OW19153   6.605   3.886   6.902
 6085SOL    HW119154   6.610   3.981   6.872
 6085SOL    HW219155   6.682   3.835   6.863
 6086SOL     OW19156   3.692   1.300   4.566
 6086SOL    HW119157   3.671   1.267   4.474
 6086SOL    HW219158   3.763   1.371   4.561
 6087SOL     OW19159   5.182   7.005   6.752
 6087SOL    HW119160   5.158   7.008   6.655
 6087SOL    HW219161   5.281   6.994   6.761
 6088SOL     OW19162   0.122   6.266   4.489
 6088SOL    HW119163   0.212   6.264   4.444
 6088SOL    HW219164   0.134   6.248   4.587
 6089SOL     OW19165   0.351   3.820   1.868
 6089SOL    HW119166   0.385   3.891   1.805
 6089SOL    HW219167   0.255   3.802   1.848
 6090SOL     OW19168   0.484   6.290   6.221
 6090SOL    HW119169   0.484   6.277   6.122
 6090SOL    HW219170   0.400   6.250   6.260
 6091SOL     OW19171   0.676   1.398   2.327
 6091SOL    HW119172   0.580   1.373   2.319
 6091SOL    HW219173   0.733   1.329   2.282
 6092SOL     OW19174   2.865   0.552   3.202
 6092SOL    HW119175   2.891   0.464   3.163
 6092SOL    HW219176   2.929   0.623   3.171
 6093SOL     OW19177   1.616   2.855   2.340
 6093SOL    HW119178   1.565   2.785   2.390
 6093SOL    HW219179   1.673   2.907   2.404
 6094SOL     OW19180   2.195   1.487   1.726
 6094SOL    HW119181   2.116   1.547   1.737
 6094SOL    HW219182   2.167   1.406   1.674
 6095SOL     OW19183   4.794   3.192   6.875
 6095SOL    HW119184   4.846   3.118   6.918
 6095SOL    HW219185   4.831   3.280   6.905
 6096SOL     OW19186   5.957   0.687   3.961
 6096SOL    HW119187   5.880   0.694   4.025
 6096SOL    HW219188   5.963   0.593   3.927
 6097SOL     OW19189   2.376   0.574   3.290
 6097SOL    HW119190   2.342   0.489   3.330
 6097SOL    HW219191   2.405   0.558   3.196
 6098SOL     OW19192   1.821   2.057   5.529
 6098SOL    HW119193   1.859   1.976   5.574
 6098SOL    HW219194   1.777   2.115   5.598
 6099SOL     OW19195   5.475   5.807   5.496
 6099SOL    HW119196   5.462   5.819   5.594
 6099SOL    HW219197   5.422   5.875   5.445
 6100SOL     OW19198   5.893   3.381   6.206
 6100SOL    HW119199   5.863   3.467   6.247
 6100SOL    HW219200   5.838   3.363   6.124
 6101SOL     OW19201   6.759   1.839   5.926
 6101SOL    HW119202   6.709   1.923   5.906
 6101SOL    HW219203   6.828   1.824   5.855
 6102SOL     OW19204   3.360   1.126   4.337
 6102SOL    HW119205   3.275   1.113   4.288
 6102SOL    HW219206   3.343   1.177   4.422
 6103SOL     OW19207   0.374   0.584   3.847
 6103SOL    HW119208   0.376   0.561   3.749
 6103SOL    HW219209   0.283   0.569   3.883
 6104SOL     OW19210   6.230   2.020   6.672
 6104SOL    HW119211   6.261   1.925   6.676
 6104SOL    HW219212   6.139   2.027   6.712
 6105SOL     OW19213   3.373   6.320   5.314
 6105SOL    HW119214   3.465   6.342   5.345
 6105SOL    HW219215   3.328   6.263   5.383
 6106SOL     OW19216   2.384   4.855   6.304
 6106SOL    HW119217   2.302   4.872   6.359
 6106SOL    HW219218   2.442   4.788   6.350
 6107SOL     OW19219   2.191   4.863   4.046
 6107SOL    HW119220   2.202   4.779   3.994
 6107SOL    HW219221   2.153   4.934   3.987
 6108SOL     OW19222   0.746   1.935   3.399
 6108SOL    HW119223   0.839   1.909   3.374
 6108SOL    HW219224   0.681   1.871   3.356
 6109SOL     OW19225   5.301   2.878   6.885
 6109SOL    HW119226   5.313   2.783   6.857
 6109SOL    HW219227   5.237   2.923   6.822
 6110SOL     OW19228   2.548   2.707   6.611
 6110SOL    HW119229   2.522   2.735   6.519
 6110SOL    HW219230   2.532   2.782   6.675
 6111SOL     OW19231   1.206   5.038   2.648
 6111SOL    HW119232   1.227   4.941   2.661
 6111SOL    HW219233   1.139   5.047   2.574
 6112SOL     OW19234   1.727   2.190   2.672
 6112SOL    HW119235   1.742   2.211   2.769
 6112SOL    HW219236   1.809   2.148   2.634
 6113SOL     OW19237   0.823   0.884   5.935
 6113SOL    HW119238   0.867   0.844   5.854
 6113SOL    HW219239   0.750   0.822   5.966
 6114SOL     OW19240   4.972   5.305   0.350
 6114SOL    HW119241   5.056   5.281   0.302
 6114SOL    HW219242   4.983   5.393   0.396
 6115SOL     OW19243   4.869   5.317   3.441
 6115SOL    HW119244   4.804   5.241   3.452
 6115SOL    HW219245   4.918   5.331   3.526
 6116SOL     OW19246   3.191   1.336   1.422
 6116SOL    HW119247   3.157   1.404   1.487
 6116SOL    HW219248   3.127   1.259   1.417
 6117SOL     OW19249   6.088   0.218   4.830
 6117SOL    HW119250   6.036   0.238   4.912
 6117SOL    HW219251   6.149   0.295   4.809
 6118SOL     OW19252   0.085   2.161   1.794
 6118SOL    HW119253   0.090   2.067   1.830
 6118SOL    HW219254   0.142   2.221   1.849
 6119SOL     OW19255   0.169   4.291   4.678
 6119SOL    HW119256   0.267   4.269   4.684
 6119SOL    HW219257   0.159   4.386   4.650
 6120SOL     OW19258   3.094   6.920   3.863
 6120SOL    HW119259   3.017   6.900   3.802
 6120SOL    HW219260   3.114   7.018   3.861
 6121SOL     OW19261   0.020   2.804   4.565
 6121SOL    HW119262   7.010   2.816   4.660
 6121SOL    HW219263   6.963   2.765   4.512
 6122SOL     OW19264   3.713   6.542   2.536
 6122SOL    HW119265   3.786   6.593   2.582
 6122SOL    HW219266   3.693   6.459   2.588
 6123SOL     OW19267   0.032   1.037   1.639
 6123SOL    HW119268   0.071   0.961   1.586
 6123SOL    HW219269   0.049   1.022   1.736
 6124SOL     OW19270   3.624   6.594   5.182
 6124SOL    HW119271   3.524   6.593   5.184
 6124SOL    HW219272   3.655   6.687   5.163
 6125SOL     OW19273   2.283   5.744   1.187
 6125SOL    HW119274   2.374   5.714   1.215
 6125SOL    HW219275   2.222   5.665   1.182
 6126SOL     OW19276   5.245   5.757   4.576
 6126SOL    HW119277   5.167   5.810   4.609
 6126SOL    HW219278   5.236   5.662   4.607
 6127SOL     OW19279   2.284   6.971   1.397
 6127SOL    HW119280   2.356   7.005   1.457
 6127SOL    HW219281   2.325   6.925   1.318
 6128SOL     OW19282   6.846   3.198   0.293
 6128SOL    HW119283   6.848   3.154   0.382
 6128SOL    HW219284   6.938   3.200   0.254
 6129SOL     OW19285   6.441   3.818   2.930
 6129SOL    HW119286   6.378   3.741   2.927
 6129SOL    HW219287   6.535   3.783   2.925
 6130SOL     OW19288   6.602   3.295   4.764
 6130SOL    HW119289   6.566   3.259   4.678
 6130SOL    HW219290   6.653   3.223   4.811
 6131SOL     OW19291   0.008   1.175   5.538
 6131SOL    HW119292   6.963   1.099   5.546
 6131SOL    HW219293   0.100   1.144   5.564
 6132SOL     OW19294   3.737   1.007   1.039
 6132SOL    HW119295   3.687   0.957   1.110
 6132SOL    HW219296   3.681   1.084   1.007
 6133SOL     OW19297   0.394   3.181   2.481
 6133SOL    HW119298   0.493   3.185   2.494
 6133SOL    HW219299   0.374   3.184   2.383
 6134SOL     OW19300   3.865   3.157   6.408
 6134SOL    HW119301   3.964   3.143   6.402
 6134SOL    HW219302   3.838   3.231   6.346
 6135SOL     OW19303   6.760   0.381   2.196
 6135SOL    HW119304   6.769   0.368   2.295
 6135SOL    HW219305   6.805   0.306   2.148
 6136SOL     OW19306   0.472   1.043   2.535
 6136SOL    HW119307   0.510   0.981   2.603
 6136SOL    HW219308   0.546   1.078   2.476
 6137SOL     OW19309   3.818   0.960   5.997
 6137SOL    HW119310   3.820   1.059   5.984
 6137SOL    HW219311   3.756   0.919   5.931
 6138SOL     OW19312   3.220   6.760   2.738
 6138SOL    HW119313   3.188   6.694   2.806
 6138SOL    HW219314   3.311   6.735   2.707
 6139SOL     OW19315   1.921   3.328   5.557
 6139SOL    HW119316   1.878   3.240   5.537
 6139SOL    HW219317   1.979   3.355   5.481
 6140SOL     OW19318   0.436   6.748   1.978
 6140SOL    HW119319   0.398   6.729   2.069
 6140SOL    HW219320   0.535   6.740   1.980
 6141SOL     OW19321   6.174   6.446   4.633
 6141SOL    HW119322   6.239   6.481   4.701
 6141SOL    HW219323   6.091   6.414   4.679
 6142SOL     OW19324   0.045   4.959   0.628
 6142SOL    HW119325   0.063   4.881   0.687
 6142SOL    HW219326   6.973   4.996   0.648
 6143SOL     OW19327   6.153   4.621   6.403
 6143SOL    HW119328   6.140   4.523   6.385
 6143SOL    HW219329   6.164   4.670   6.317
 6144SOL     OW19330   0.036   4.282   2.728
 6144SOL    HW119331   0.122   4.242   2.760
 6144SOL    HW219332   0.000   4.227   2.653
 6145SOL     OW19333   4.984   5.803   3.865
 6145SOL    HW119334   4.884   5.814   3.858
 6145SOL    HW219335   5.029   5.882   3.823
 6146SOL     OW19336   4.438   1.402   3.742
 6146SOL    HW119337   4.491   1.320   3.762
 6146SOL    HW219338   4.440   1.420   3.644
 6147SOL     OW19339   1.909   4.978   2.806
 6147SOL    HW119340   1.955   4.918   2.871
 6147SOL    HW219341   1.819   5.004   2.842
 6148SOL     OW19342   6.871   6.495   4.510
 6148SOL    HW119343   6.918   6.421   4.460
 6148SOL    HW219344   6.856   6.572   4.449
 6149SOL     OW19345   3.909   4.850   3.565
 6149SOL    HW119346   3.811   4.837   3.549
 6149SOL    HW219347   3.956   4.860   3.477
 6150SOL     OW19348   4.519   5.425   6.743
 6150SOL    HW119349   4.482   5.335   6.722
 6150SOL    HW219350   4.527   5.436   6.843
 6151SOL     OW19351   5.910   3.232   5.079
 6151SOL    HW119352   5.988   3.174   5.103
 6151SOL    HW219353   5.861   3.259   5.163
 6152SOL     OW19354   5.454   5.014   6.005
 6152SOL    HW119355   5.506   4.982   5.925
 6152SOL    HW219356   5.510   5.005   6.087
 6153SOL     OW19357   4.721   4.110   1.438
 6153SOL    HW119358   4.691   4.140   1.529
 6153SOL    HW219359   4.711   4.011   1.430
 6154SOL     OW19360   5.375   1.678   1.891
 6154SOL    HW119361   5.360   1.599   1.831
 6154SOL    HW219362   5.334   1.759   1.851
 6155SOL     OW19363   1.296   3.248   4.523
 6155SOL    HW119364   1.304   3.340   4.562
 6155SOL    HW219365   1.267   3.255   4.427
 6156SOL     OW19366   4.650   6.342   2.728
 6156SOL    HW119367   4.749   6.338   2.737
 6156SOL    HW219368   4.619   6.269   2.667
 6157SOL     OW19369   1.573   2.608   3.528
 6157SOL    HW119370   1.598   2.522   3.484
 6157SOL    HW219371   1.628   2.621   3.610
 6158SOL     OW19372   4.486   0.826   6.577
 6158SOL    HW119373   4.493   0.924   6.563
 6158SOL    HW219374   4.505   0.778   6.492
 6159SOL     OW19375   5.307   1.707   0.317
 6159SOL    HW119376   5.335   1.789   0.367
 6159SOL    HW219377   5.379   1.637   0.324
 6160SOL     OW19378   5.341   5.786   0.611
 6160SOL    HW119379   5.305   5.800   0.518
 6160SOL    HW219380   5.368   5.691   0.622
 6161SOL     OW19381   6.202   1.564   5.478
 6161SOL    HW119382   6.204   1.631   5.552
 6161SOL    HW219383   6.109   1.527   5.470
 6162SOL     OW19384   0.900   4.841   4.604
 6162SOL    HW119385   0.890   4.923   4.549
 6162SOL    HW219386   0.836   4.771   4.572
 6163SOL     OW19387   5.482   5.241   1.081
 6163SOL    HW119388   5.540   5.313   1.119
 6163SOL    HW219389   5.467   5.170   1.150
 6164SOL     OW19390   2.252   2.472   1.686
 6164SOL    HW119391   2.253   2.374   1.667
 6164SOL    HW219392   2.343   2.500   1.719
 6165SOL     OW19393   3.616   5.918   0.105
 6165SOL    HW119394   3.600   5.821   0.124
 6165SOL    HW219395   3.713   5.939   0.116
 6166SOL     OW19396   2.911   0.897   5.937
 6166SOL    HW119397   2.831   0.884   5.878
 6166SOL    HW219398   2.890   0.964   6.008
 6167SOL     OW19399   0.955   4.823   2.485
 6167SOL    HW119400   1.024   4.876   2.435
 6167SOL    HW219401   0.960   4.845   2.582
 6168SOL     OW19402   0.439   3.552   1.427
 6168SOL    HW119403   0.527   3.535   1.471
 6168SOL    HW219404   0.442   3.639   1.378
 6169SOL     OW19405   1.825   3.278   1.699
 6169SOL    HW119406   1.839   3.333   1.616
 6169SOL    HW219407   1.915   3.255   1.738
 6170SOL     OW19408   0.422   3.466   5.348
 6170SOL    HW119409   0.406   3.375   5.309
 6170SOL    HW219410   0.376   3.473   5.437
 6171SOL     OW19411   0.583   0.944   0.409
 6171SOL    HW119412   0.494   0.953   0.363
 6171SOL    HW219413   0.572   0.964   0.506
 6172SOL     OW19414   1.052   2.540   3.116
 6172SOL    HW119415   1.056   2.473   3.191
 6172SOL    HW219416   1.005   2.622   3.148
 6173SOL     OW19417   6.461   5.690   3.162
 6173SOL    HW119418   6.418   5.755   3.099
 6173SOL    HW219419   6.414   5.602   3.157
 6174SOL     OW19420   4.977   5.062   2.917
 6174SOL    HW119421   4.970   5.120   2.837
 6174SOL    HW219422   4.900   5.080   2.979
 6175SOL     OW19423   3.605   0.380   4.878
 6175SOL    HW119424   3.615   0.416   4.785
 6175SOL    HW219425   3.670   0.306   4.892
 6176SOL     OW19426   4.515   3.623   5.342
 6176SOL    HW119427   4.579   3.627   5.265
 6176SOL    HW219428   4.425   3.594   5.309
 6177SOL     OW19429   6.158   1.887   1.584
 6177SOL    HW119430   6.150   1.797   1.626
 6177SOL    HW219431   6.169   1.956   1.656
 6178SOL     OW19432   4.917   3.696   2.004
 6178SOL    HW119433   4.882   3.604   1.986
 6178SOL    HW219434   4.884   3.759   1.933
 6179SOL     OW19435   6.635   4.907   1.569
 6179SOL    HW119436   6.635   4.991   1.515
 6179SOL    HW219437   6.687   4.922   1.654
 6180SOL     OW19438   3.268   4.625   0.856
 6180SOL    HW119439   3.305   4.550   0.910
 6180SOL    HW219440   3.172   4.640   0.880
 6181SOL     OW19441   5.201   5.639   6.008
 6181SOL    HW119442   5.103   5.630   6.024
 6181SOL    HW219443   5.226   5.736   6.008
 6182SOL     OW19444   3.755   3.109   0.043
 6182SOL    HW119445   3.685   3.143   6.999
 6182SOL    HW219446   3.845   3.116   7.019
 6183SOL     OW19447   1.540   2.209   1.185
 6183SOL    HW119448   1.449   2.219   1.226
 6183SOL    HW219449   1.593   2.142   1.237
 6184SOL     OW19450   3.026   0.629   5.780
 6184SOL    HW119451   2.978   0.590   5.859
 6184SOL    HW219452   2.991   0.721   5.761
 6185SOL     OW19453   2.940   3.041   5.702
 6185SOL    HW119454   3.012   3.111   5.699
 6185SOL    HW219455   2.910   3.027   5.796
 6186SOL     OW19456   6.884   1.891   1.652
 6186SOL    HW119457   6.815   1.963   1.641
 6186SOL    HW219458   6.942   1.887   1.571
 6187SOL     OW19459   4.814   2.238   5.154
 6187SOL    HW119460   4.826   2.225   5.252
 6187SOL    HW219461   4.727   2.199   5.126
 6188SOL     OW19462   1.989   1.390   5.375
 6188SOL    HW119463   1.961   1.484   5.394
 6188SOL    HW219464   1.908   1.331   5.370
 6189SOL     OW19465   4.026   5.415   2.314
 6189SOL    HW119466   4.095   5.486   2.329
 6189SOL    HW219467   3.936   5.451   2.334
 6190SOL     OW19468   6.465   3.461   5.901
 6190SOL    HW119469   6.454   3.546   5.848
 6190SOL    HW219470   6.407   3.390   5.861
 6191SOL     OW19471   2.520   3.301   6.057
 6191SOL    HW119472   2.618   3.291   6.076
 6191SOL    HW219473   2.507   3.360   5.977
 6192SOL     OW19474   2.269   1.368   6.692
 6192SOL    HW119475   2.200   1.328   6.632
 6192SOL    HW219476   2.346   1.401   6.636
 6193SOL     OW19477   5.182   4.962   0.209
 6193SOL    HW119478   5.266   4.929   0.165
 6193SOL    HW219479   5.157   4.900   0.283
 6194SOL     OW19480   6.526   1.009   6.877
 6194SOL    HW119481   6.511   1.076   6.951
 6194SOL    HW219482   6.549   0.920   6.917
 6195SOL     OW19483   5.762   0.500   4.976
 6195SOL    HW119484   5.804   0.410   4.979
 6195SOL    HW219485   5.830   0.569   5.001
 6196SOL     OW19486   5.204   4.424   2.711
 6196SOL    HW119487   5.282   4.482   2.736
 6196SOL    HW219488   5.217   4.391   2.617
 6197SOL     OW19489   2.529   5.532   1.923
 6197SOL    HW119490   2.628   5.523   1.928
 6197SOL    HW219491   2.487   5.441   1.925
 6198SOL     OW19492   5.424   6.535   5.993
 6198SOL    HW119493   5.447   6.452   6.043
 6198SOL    HW219494   5.447   6.615   6.049
 6199SOL     OW19495   0.577   0.289   0.426
 6199SOL    HW119496   0.648   0.249   0.485
 6199SOL    HW219497   0.560   0.383   0.455
 6200SOL     OW19498   1.456   1.088   2.864
 6200SOL    HW119499   1.476   1.108   2.769
 6200SOL    HW219500   1.497   1.000   2.889
 6201SOL     OW19501   6.733   4.479   3.960
 6201SOL    HW119502   6.769   4.533   4.036
 6201SOL    HW219503   6.738   4.382   3.984
 6202SOL     OW19504   5.773   1.926   3.507
 6202SOL    HW119505   5.872   1.909   3.504
 6202SOL    HW219506   5.724   1.844   3.477
 6203SOL     OW19507   6.716   5.723   1.867
 6203SOL    HW119508   6.648   5.693   1.934
 6203SOL    HW219509   6.804   5.679   1.886
 6204SOL     OW19510   0.994   6.112   4.854
 6204SOL    HW119511   0.960   6.126   4.947
 6204SOL    HW219512   1.085   6.150   4.845
 6205SOL     OW19513   4.724   4.852   2.297
 6205SOL    HW119514   4.813   4.817   2.326
 6205SOL    HW219515   4.684   4.789   2.231
 6206SOL     OW19516   5.010   1.600   3.679
 6206SOL    HW119517   5.051   1.512   3.655
 6206SOL    HW219518   4.915   1.602   3.650
 6207SOL     OW19519   1.355   5.839   4.406
 6207SOL    HW119520   1.432   5.781   4.379
 6207SOL    HW219521   1.387   5.912   4.467
 6208SOL     OW19522   3.590   2.771   6.094
 6208SOL    HW119523   3.514   2.805   6.039
 6208SOL    HW219524   3.656   2.844   6.109
 6209SOL     OW19525   3.690   4.265   1.136
 6209SOL    HW119526   3.701   4.365   1.133
 6209SOL    HW219527   3.646   4.239   1.222
 6210SOL     OW19528   4.935   3.540   3.073
 6210SOL    HW119529   4.907   3.628   3.037
 6210SOL    HW219530   4.903   3.529   3.167
 6211SOL     OW19531   4.467   5.570   4.960
 6211SOL    HW119532   4.423   5.615   4.882
 6211SOL    HW219533   4.413   5.586   5.042
 6212SOL     OW19534   2.448   4.934   4.960
 6212SOL    HW119535   2.400   4.848   4.946
 6212SOL    HW219536   2.436   4.965   5.054
 6213SOL     OW19537   4.913   6.561   0.292
 6213SOL    HW119538   4.893   6.514   0.206
 6213SOL    HW219539   4.892   6.500   0.368
 6214SOL     OW19540   5.895   5.750   5.113
 6214SOL    HW119541   5.984   5.725   5.151
 6214SOL    HW219542   5.824   5.693   5.156
 6215SOL     OW19543   4.909   3.280   6.168
 6215SOL    HW119544   4.955   3.327   6.242
 6215SOL    HW219545   4.966   3.206   6.134
 6216SOL     OW19546   5.767   2.881   3.349
 6216SOL    HW119547   5.713   2.897   3.432
 6216SOL    HW219548   5.841   2.817   3.369
 6217SOL     OW19549   0.936   5.270   2.715
 6217SOL    HW119550   0.873   5.211   2.664
 6217SOL    HW219551   0.888   5.352   2.744
 6218SOL     OW19552   5.129   5.953   0.065
 6218SOL    HW119553   5.133   6.007   7.000
 6218SOL    HW219554   5.220   5.945   0.104
 6219SOL     OW19555   1.000   0.999   5.078
 6219SOL    HW119556   0.969   0.967   4.988
 6219SOL    HW219557   1.019   1.097   5.074
 6220SOL     OW19558   3.589   0.382   0.658
 6220SOL    HW119559   3.659   0.414   0.723
 6220SOL    HW219560   3.504   0.364   0.708
 6221SOL     OW19561   6.863   6.349   6.475
 6221SOL    HW119562   6.898   6.341   6.568
 6221SOL    HW219563   6.908   6.426   6.429
 6222SOL     OW19564   5.891   1.072   1.802
 6222SOL    HW119565   5.865   0.982   1.837
 6222SOL    HW219566   5.941   1.122   1.872
 6223SOL     OW19567   0.561   4.992   3.944
 6223SOL    HW119568   0.526   5.052   3.872
 6223SOL    HW219569   0.659   4.978   3.932
 6224SOL     OW19570   4.190   1.348   6.632
 6224SOL    HW119571   4.103   1.375   6.674
 6224SOL    HW219572   4.193   1.248   6.624
 6225SOL     OW19573   3.885   0.857   6.891
 6225SOL    HW119574   3.815   0.811   6.837
 6225SOL    HW219575   3.976   0.833   6.856
 6226SOL     OW19576   1.303   1.483   4.202
 6226SOL    HW119577   1.395   1.516   4.182
 6226SOL    HW219578   1.292   1.474   4.301
 6227SOL     OW19579   3.246   4.597   5.536
 6227SOL    HW119580   3.233   4.696   5.547
 6227SOL    HW219581   3.170   4.559   5.485
 6228SOL     OW19582   2.154   2.408   3.460
 6228SOL    HW119583   2.131   2.505   3.451
 6228SOL    HW219584   2.075   2.359   3.498
 6229SOL     OW19585   0.146   3.564   4.870
 6229SOL    HW119586   0.080   3.603   4.806
 6229SOL    HW219587   0.102   3.492   4.924
 6230SOL     OW19588   0.238   1.594   2.572
 6230SOL    HW119589   0.289   1.666   2.620
 6230SOL    HW219590   0.173   1.636   2.509
 6231SOL     OW19591   5.471   4.556   0.734
 6231SOL    HW119592   5.430   4.624   0.794
 6231SOL    HW219593   5.549   4.596   0.687
 6232SOL     OW19594   5.564   0.675   0.346
 6232SOL    HW119595   5.639   0.736   0.373
 6232SOL    HW219596   5.496   0.727   0.295
 6233SOL     OW19597   0.612   3.490   2.247
 6233SOL    HW119598   0.670   3.476   2.327
 6233SOL    HW219599   0.667   3.482   2.164
 6234SOL     OW19600   0.229   7.017   4.475
 6234SOL    HW119601   0.239   6.928   4.431
 6234SOL    HW219602   0.301   0.059   4.442
 6235SOL     OW19603   6.813   0.996   2.520
 6235SOL    HW119604   6.871   1.077   2.507
 6235SOL    HW219605   6.863   0.928   2.572
 6236SOL     OW19606   0.647   4.473   1.068
 6236SOL    HW119607   0.708   4.412   1.118
 6236SOL    HW219608   0.616   4.546   1.129
 6237SOL     OW19609   3.434   0.059   0.698
 6237SOL    HW119610   3.424   0.081   0.601
 6237SOL    HW219611   3.420   0.141   0.753
 6238SOL     OW19612   3.024   6.548   3.953
 6238SOL    HW119613   3.040   6.525   4.049
 6238SOL    HW219614   2.997   6.466   3.904
 6239SOL     OW19615   4.554   0.162   2.582
 6239SOL    HW119616   4.506   0.107   2.650
 6239SOL    HW219617   4.651   0.136   2.582
 6240SOL     OW19618   3.008   3.147   4.945
 6240SOL    HW119619   2.973   3.125   5.036
 6240SOL    HW219620   3.090   3.092   4.926
 6241SOL     OW19621   3.207   6.673   3.800
 6241SOL    HW119622   3.136   6.626   3.854
 6241SOL    HW219623   3.199   6.772   3.814
 6242SOL     OW19624   3.206   2.144   2.711
 6242SOL    HW119625   3.143   2.173   2.639
 6242SOL    HW219626   3.176   2.181   2.798
 6243SOL     OW19627   5.974   1.217   6.233
 6243SOL    HW119628   5.975   1.189   6.137
 6243SOL    HW219629   5.972   1.135   6.291
 6244SOL     OW19630   4.429   4.723   3.045
 6244SOL    HW119631   4.413   4.822   3.043
 6244SOL    HW219632   4.526   4.705   3.061
 6245SOL     OW19633   1.376   4.818   2.644
 6245SOL    HW119634   1.466   4.798   2.681
 6245SOL    HW219635   1.345   4.740   2.589
 6246SOL     OW19636   1.385   6.888   4.600
 6246SOL    HW119637   1.298   6.855   4.566
 6246SOL    HW219638   1.442   6.811   4.629
 6247SOL     OW19639   6.827   5.327   3.722
 6247SOL    HW119640   6.900   5.316   3.654
 6247SOL    HW219641   6.755   5.385   3.685
 6248SOL     OW19642   4.209   2.678   6.370
 6248SOL    HW119643   4.125   2.693   6.422
 6248SOL    HW219644   4.187   2.656   6.275
 6249SOL     OW19645   0.095   2.864   1.444
 6249SOL    HW119646   0.049   2.872   1.533
 6249SOL    HW219647   0.171   2.800   1.452
 6250SOL     OW19648   6.835   6.875   0.879
 6250SOL    HW119649   6.894   6.817   0.935
 6250SOL    HW219650   6.754   6.823   0.851
 6251SOL     OW19651   3.056   7.008   4.332
 6251SOL    HW119652   3.006   6.931   4.291
 6251SOL    HW219653   3.094   6.980   4.419
 6252SOL     OW19654   2.818   5.602   6.819
 6252SOL    HW119655   2.865   5.587   6.906
 6252SOL    HW219656   2.833   5.524   6.759
 6253SOL     OW19657   3.110   4.885   4.394
 6253SOL    HW119658   3.013   4.902   4.374
 6253SOL    HW219659   3.129   4.915   4.488
 6254SOL     OW19660   6.932   5.395   0.781
 6254SOL    HW119661   6.971   5.314   0.824
 6254SOL    HW219662   6.922   5.379   0.683
 6255SOL     OW19663   1.439   1.758   1.482
 6255SOL    HW119664   1.387   1.814   1.418
 6255SOL    HW219665   1.483   1.682   1.432
 6256SOL     OW19666   4.922   5.562   2.306
 6256SOL    HW119667   4.885   5.632   2.246
 6256SOL    HW219668   4.942   5.602   2.396
 6257SOL     OW19669   4.298   3.788   0.367
 6257SOL    HW119670   4.380   3.842   0.381
 6257SOL    HW219671   4.262   3.759   0.456
 6258SOL     OW19672   4.432   0.041   5.939
 6258SOL    HW119673   4.457   0.051   5.842
 6258SOL    HW219674   4.465   0.120   5.990
 6259SOL     OW19675   1.832   6.826   5.744
 6259SOL    HW119676   1.813   6.786   5.834
 6259SOL    HW219677   1.914   6.784   5.705
 6260SOL     OW19678   1.608   0.418   0.181
 6260SOL    HW119679   1.664   0.501   0.178
 6260SOL    HW219680   1.561   0.413   0.269
 6261SOL     OW19681   4.789   0.060   1.210
 6261SOL    HW119682   4.741   0.091   1.292
 6261SOL    HW219683   4.827   6.988   1.226
 6262SOL     OW19684   6.236   6.655   2.312
 6262SOL    HW119685   6.258   6.565   2.348
 6262SOL    HW219686   6.145   6.653   2.270
 6263SOL     OW19687   0.264   6.733   4.425
 6263SOL    HW119688   0.219   6.681   4.352
 6263SOL    HW219689   0.363   6.716   4.420
 6264SOL     OW19690   0.362   6.929   1.205
 6264SOL    HW119691   0.350   6.851   1.143
 6264SOL    HW219692   0.296   6.922   1.279
 6265SOL     OW19693   4.085   2.695   0.652
 6265SOL    HW119694   3.994   2.701   0.611
 6265SOL    HW219695   4.092   2.610   0.704
 6266SOL     OW19696   3.338   5.231   3.164
 6266SOL    HW119697   3.421   5.200   3.118
 6266SOL    HW219698   3.284   5.151   3.191
 6267SOL     OW19699   0.962   6.574   5.479
 6267SOL    HW119700   0.882   6.631   5.462
 6267SOL    HW219701   0.970   6.557   5.577
 6268SOL     OW19702   3.710   0.493   1.722
 6268SOL    HW119703   3.610   0.483   1.723
 6268SOL    HW219704   3.743   0.490   1.627
 6269SOL     OW19705   5.592   6.485   1.322
 6269SOL    HW119706   5.543   6.525   1.245
 6269SOL    HW219707   5.649   6.409   1.290
 6270SOL     OW19708   1.388   6.243   6.834
 6270SOL    HW119709   1.461   6.298   6.793
 6270SOL    HW219710   1.299   6.277   6.803
 6271SOL     OW19711   6.061   3.314   6.927
 6271SOL    HW119712   6.002   3.277   6.999
 6271SOL    HW219713   6.020   3.296   6.838
 6272SOL     OW19714   5.728   0.128   0.013
 6272SOL    HW119715   5.654   0.183   6.994
 6272SOL    HW219716   5.775   0.080   6.958
 6273SOL     OW19717   6.944   6.510   2.555
 6273SOL    HW119718   0.007   6.568   2.551
 6273SOL    HW219719   6.894   6.529   2.640
 6274SOL     OW19720   3.143   6.099   4.608
 6274SOL    HW119721   3.051   6.137   4.603
 6274SOL    HW219722   3.207   6.159   4.561
 6275SOL     OW19723   2.230   5.817   0.800
 6275SOL    HW119724   2.152   5.852   0.852
 6275SOL    HW219725   2.243   5.720   0.821
 6276SOL     OW19726   2.290   5.679   3.473
 6276SOL    HW119727   2.284   5.580   3.461
 6276SOL    HW219728   2.346   5.719   3.401
 6277SOL     OW19729   5.350   2.844   1.563
 6277SOL    HW119730   5.371   2.793   1.480
 6277SOL    HW219731   5.254   2.870   1.563
 6278SOL     OW19732   3.171   0.032   5.407
 6278SOL    HW119733   3.139   6.980   5.469
 6278SOL    HW219734   3.269   0.048   5.423
 6279SOL     OW19735   3.484   6.040   1.274
 6279SOL    HW119736   3.546   5.988   1.216
 6279SOL    HW219737   3.403   6.066   1.221
 6280SOL     OW19738   6.485   1.606   6.829
 6280SOL    HW119739   6.486   1.509   6.852
 6280SOL    HW219740   6.396   1.645   6.854
 6281SOL     OW19741   5.953   4.238   4.571
 6281SOL    HW119742   6.024   4.222   4.503
 6281SOL    HW219743   5.888   4.163   4.569
 6282SOL     OW19744   0.372   3.515   6.424
 6282SOL    HW119745   0.281   3.545   6.393
 6282SOL    HW219746   0.376   3.518   6.524
 6283SOL     OW19747   0.966   5.791   5.112
 6283SOL    HW119748   0.921   5.768   5.198
 6283SOL    HW219749   0.917   5.747   5.036
 6284SOL     OW19750   2.119   4.098   6.854
 6284SOL    HW119751   2.154   4.135   6.768
 6284SOL    HW219752   2.052   4.161   6.893
 6285SOL     OW19753   1.733   3.604   2.575
 6285SOL    HW119754   1.673   3.541   2.624
 6285SOL    HW219755   1.821   3.610   2.623
 6286SOL     OW19756   1.061   3.219   4.672
 6286SOL    HW119757   1.045   3.120   4.674
 6286SOL    HW219758   1.159   3.237   4.675
 6287SOL     OW19759   4.224   4.918   5.133
 6287SOL    HW119760   4.194   4.931   5.039
 6287SOL    HW219761   4.155   4.953   5.196
 6288SOL     OW19762   3.801   3.346   6.222
 6288SOL    HW119763   3.752   3.380   6.141
 6288SOL    HW219764   3.861   3.418   6.257
 6289SOL     OW19765   2.644   4.408   6.533
 6289SOL    HW119766   2.725   4.377   6.583
 6289SOL    HW219767   2.595   4.329   6.497
 6290SOL     OW19768   6.106   5.381   5.933
 6290SOL    HW119769   6.041   5.361   5.860
 6290SOL    HW219770   6.187   5.322   5.922
 6291SOL     OW19771   3.410   3.170   2.969
 6291SOL    HW119772   3.350   3.104   2.924
 6291SOL    HW219773   3.456   3.225   2.900
 6292SOL     OW19774   2.010   2.868   4.316
 6292SOL    HW119775   2.087   2.848   4.377
 6292SOL    HW219776   1.941   2.796   4.326
 6293SOL     OW19777   5.253   1.088   6.889
 6293SOL    HW119778   5.260   1.121   6.794
 6293SOL    HW219779   5.337   1.111   6.938
 6294SOL     OW19780   2.838   1.096   4.037
 6294SOL    HW119781   2.847   1.000   4.061
 6294SOL    HW219782   2.800   1.104   3.945
 6295SOL     OW19783   5.429   4.733   5.324
 6295SOL    HW119784   5.407   4.666   5.253
 6295SOL    HW219785   5.355   4.737   5.391
 6296SOL     OW19786   0.205   2.982   6.424
 6296SOL    HW119787   0.281   2.937   6.470
 6296SOL    HW219788   0.238   3.028   6.341
 6297SOL     OW19789   6.392   0.369   4.592
 6297SOL    HW119790   6.352   0.290   4.545
 6297SOL    HW219791   6.490   0.372   4.574
 6298SOL     OW19792   5.612   4.609   6.835
 6298SOL    HW119793   5.630   4.513   6.857
 6298SOL    HW219794   5.697   4.653   6.807
 6299SOL     OW19795   4.858   2.962   3.181
 6299SOL    HW119796   4.805   2.984   3.099
 6299SOL    HW219797   4.883   3.046   3.228
 6300SOL     OW19798   3.966   1.317   6.274
 6300SOL    HW119799   4.033   1.264   6.223
 6300SOL    HW219800   3.934   1.263   6.352
 6301SOL     OW19801   3.317   6.684   6.747
 6301SOL    HW119802   3.260   6.759   6.780
 6301SOL    HW219803   3.275   6.643   6.666
 6302SOL     OW19804   2.580   0.532   5.744
 6302SOL    HW119805   2.677   0.544   5.765
 6302SOL    HW219806   2.569   0.510   5.647
 6303SOL     OW19807   0.981   6.367   5.923
 6303SOL    HW119808   1.009   6.282   5.878
 6303SOL    HW219809   1.020   6.371   6.014
 6304SOL     OW19810   4.533   1.098   3.035
 6304SOL    HW119811   4.572   1.019   3.084
 6304SOL    HW219812   4.465   1.143   3.093
 6305SOL     OW19813   0.318   5.714   5.275
 6305SOL    HW119814   0.352   5.637   5.328
 6305SOL    HW219815   0.218   5.708   5.268
 6306SOL     OW19816   6.859   4.563   4.243
 6306SOL    HW119817   6.862   4.472   4.285
 6306SOL    HW219818   6.946   4.609   4.257
 6307SOL     OW19819   4.040   3.847   3.668
 6307SOL    HW119820   4.045   3.847   3.768
 6307SOL    HW219821   3.992   3.929   3.637
 6308SOL     OW19822   0.308   2.559   6.423
 6308SOL    HW119823   0.302   2.515   6.333
 6308SOL    HW219824   0.227   2.537   6.476
 6309SOL     OW19825   1.209   6.673   4.835
 6309SOL    HW119826   1.286   6.684   4.773
 6309SOL    HW219827   1.132   6.631   4.786
 6310SOL     OW19828   1.919   6.518   3.268
 6310SOL    HW119829   1.967   6.598   3.305
 6310SOL    HW219830   1.925   6.519   3.168
 6311SOL     OW19831   5.748   1.252   5.890
 6311SOL    HW119832   5.709   1.264   5.981
 6311SOL    HW219833   5.847   1.236   5.898
 6312SOL     OW19834   3.234   6.352   6.692
 6312SOL    HW119835   3.257   6.275   6.632
 6312SOL    HW219836   3.212   6.432   6.636
 6313SOL     OW19837   4.885   6.279   3.024
 6313SOL    HW119838   4.958   6.260   3.089
 6313SOL    HW219839   4.924   6.314   2.939
 6314SOL     OW19840   2.827   0.140   1.541
 6314SOL    HW119841   2.896   0.196   1.588
 6314SOL    HW219842   2.763   0.199   1.493
 6315SOL     OW19843   1.908   3.170   4.217
 6315SOL    HW119844   1.991   3.206   4.175
 6315SOL    HW219845   1.930   3.087   4.268
 6316SOL     OW19846   5.374   1.977   4.882
 6316SOL    HW119847   5.452   1.971   4.944
 6316SOL    HW219848   5.322   2.060   4.902
 6317SOL     OW19849   5.189   4.663   2.115
 6317SOL    HW119850   5.117   4.632   2.177
 6317SOL    HW219851   5.171   4.757   2.086
 6318SOL     OW19852   6.511   0.716   6.426
 6318SOL    HW119853   6.549   0.670   6.346
 6318SOL    HW219854   6.585   0.760   6.477
 6319SOL     OW19855   5.572   3.071   4.412
 6319SOL    HW119856   5.576   3.050   4.510
 6319SOL    HW219857   5.539   2.990   4.363
 6320SOL     OW19858   0.464   0.857   3.823
 6320SOL    HW119859   0.440   0.762   3.846
 6320SOL    HW219860   0.432   0.917   3.897
 6321SOL     OW19861   5.584   2.325   0.576
 6321SOL    HW119862   5.583   2.322   0.676
 6321SOL    HW219863   5.660   2.383   0.546
 6322SOL     OW19864   1.924   0.762   1.006
 6322SOL    HW119865   1.922   0.831   0.934
 6322SOL    HW219866   1.945   0.805   1.093
 6323SOL     OW19867   2.804   2.847   0.943
 6323SOL    HW119868   2.867   2.832   0.867
 6323SOL    HW219869   2.730   2.779   0.939
 6324SOL     OW19870   4.611   1.465   0.803
 6324SOL    HW119871   4.546   1.488   0.730
 6324SOL    HW219872   4.573   1.492   0.891
 6325SOL     OW19873   1.593   2.443   2.172
 6325SOL    HW119874   1.660   2.414   2.104
 6325SOL    HW219875   1.641   2.466   2.257
 6326SOL     OW19876   5.012   5.223   5.842
 6326SOL    HW119877   4.960   5.137   5.839
 6326SOL    HW219878   5.107   5.204   5.867
 6327SOL     OW19879   0.107   2.344   3.722
 6327SOL    HW119880   0.097   2.250   3.691
 6327SOL    HW219881   0.090   2.349   3.820
 6328SOL     OW19882   4.484   3.345   5.893
 6328SOL    HW119883   4.491   3.437   5.931
 6328SOL    HW219884   4.562   3.290   5.924
 6329SOL     OW19885   1.625   2.805   5.236
 6329SOL    HW119886   1.684   2.742   5.287
 6329SOL    HW219887   1.604   2.766   5.146
 6330SOL     OW19888   6.530   1.225   3.127
 6330SOL    HW119889   6.436   1.236   3.159
 6330SOL    HW219890   6.574   1.315   3.122
 6331SOL     OW19891   6.670   3.040   4.509
 6331SOL    HW119892   6.646   2.962   4.567
 6331SOL    HW219893   6.740   3.012   4.444
 6332SOL     OW19894   1.865   1.779   1.498
 6332SOL    HW119895   1.771   1.772   1.532
 6332SOL    HW219896   1.869   1.743   1.405
 6333SOL     OW19897   5.015   0.375   0.408
 6333SOL    HW119898   4.921   0.410   0.398
 6333SOL    HW219899   5.013   0.290   0.460
 6334SOL     OW19900   2.871   1.413   2.253
 6334SOL    HW119901   2.900   1.507   2.275
 6334SOL    HW219902   2.776   1.414   2.222
 6335SOL     OW19903   5.778   0.869   0.386
 6335SOL    HW119904   5.870   0.861   0.348
 6335SOL    HW219905   5.781   0.851   0.484
 6336SOL     OW19906   0.349   3.800   6.030
 6336SOL    HW119907   0.383   3.815   5.937
 6336SOL    HW219908   0.406   3.731   6.076
 6337SOL     OW19909   4.120   5.498   4.716
 6337SOL    HW119910   4.175   5.414   4.714
 6337SOL    HW219911   4.034   5.480   4.763
 6338SOL     OW19912   3.100   1.997   4.111
 6338SOL    HW119913   3.057   1.949   4.188
 6338SOL    HW219914   3.189   2.034   4.141
 6339SOL     OW19915   1.152   4.270   2.692
 6339SOL    HW119916   1.201   4.200   2.745
 6339SOL    HW219917   1.078   4.307   2.748
 6340SOL     OW19918   2.395   4.001   1.418
 6340SOL    HW119919   2.474   4.055   1.390
 6340SOL    HW219920   2.382   4.010   1.517
 6341SOL     OW19921   1.184   4.402   4.216
 6341SOL    HW119922   1.178   4.327   4.150
 6341SOL    HW219923   1.249   4.378   4.288
 6342SOL     OW19924   1.615   0.992   2.040
 6342SOL    HW119925   1.566   0.905   2.049
 6342SOL    HW219926   1.621   1.037   2.128
 6343SOL     OW19927   3.154   6.228   0.335
 6343SOL    HW119928   3.194   6.147   0.379
 6343SOL    HW219929   3.116   6.288   0.405
 6344SOL     OW19930   5.969   2.682   3.373
 6344SOL    HW119931   5.911   2.608   3.408
 6344SOL    HW219932   6.062   2.646   3.358
 6345SOL     OW19933   5.318   3.482   1.720
 6345SOL    HW119934   5.280   3.477   1.628
 6345SOL    HW219935   5.287   3.567   1.764
 6346SOL     OW19936   0.825   4.401   6.069
 6346SOL    HW119937   0.821   4.374   6.165
 6346SOL    HW219938   0.842   4.500   6.063
 6347SOL     OW19939   2.729   2.352   2.679
 6347SOL    HW119940   2.811   2.334   2.624
 6347SOL    HW219941   2.704   2.448   2.671
 6348SOL     OW19942   0.134   1.581   5.827
 6348SOL    HW119943   0.219   1.566   5.777
 6348SOL    HW219944   0.111   1.499   5.878
 6349SOL     OW19945   0.732   0.481   0.753
 6349SOL    HW119946   0.674   0.490   0.672
 6349SOL    HW219947   0.759   0.385   0.765
 6350SOL     OW19948   0.744   4.505   2.123
 6350SOL    HW119949   0.674   4.562   2.081
 6350SOL    HW219950   0.808   4.562   2.174
 6351SOL     OW19951   6.524   3.712   3.650
 6351SOL    HW119952   6.545   3.796   3.598
 6351SOL    HW219953   6.458   3.733   3.721
 6352SOL     OW19954   2.467   0.325   4.428
 6352SOL    HW119955   2.453   0.251   4.362
 6352SOL    HW219956   2.562   0.357   4.422
 6353SOL     OW19957   2.254   6.029   6.539
 6353SOL    HW119958   2.157   6.007   6.537
 6353SOL    HW219959   2.290   6.029   6.445
 6354SOL     OW19960   5.071   4.475   3.101
 6354SOL    HW119961   5.163   4.439   3.118
 6354SOL    HW219962   5.076   4.574   3.088
 6355SOL     OW19963   2.749   4.488   0.500
 6355SOL    HW119964   2.684   4.414   0.518
 6355SOL    HW219965   2.839   4.448   0.483
 6356SOL     OW19966   5.037   5.389   6.555
 6356SOL    HW119967   5.135   5.378   6.541
 6356SOL    HW219968   5.011   5.345   6.641
 6357SOL     OW19969   5.950   2.235   1.606
 6357SOL    HW119970   5.984   2.281   1.524
 6357SOL    HW219971   6.028   2.208   1.663
 6358SOL     OW19972   1.547   1.971   6.407
 6358SOL    HW119973   1.551   1.901   6.478
 6358SOL    HW219974   1.452   1.985   6.379
 6359SOL     OW19975   5.589   6.432   0.828
 6359SOL    HW119976   5.665   6.498   0.827
 6359SOL    HW219977   5.534   6.443   0.746
 6360SOL     OW19978   6.908   2.520   3.557
 6360SOL    HW119979   6.988   2.485   3.605
 6360SOL    HW219980   6.928   2.526   3.459
 6361SOL     OW19981   0.122   0.662   0.016
 6361SOL    HW119982   0.193   0.607   6.992
 6361SOL    HW219983   0.135   0.759   7.012
 6362SOL     OW19984   0.808   5.595   6.750
 6362SOL    HW119985   0.731   5.547   6.709
 6362SOL    HW219986   0.835   5.672   6.692
 6363SOL     OW19987   2.574   5.030   3.192
 6363SOL    HW119988   2.500   4.974   3.229
 6363SOL    HW219989   2.564   5.124   3.223
 6364SOL     OW19990   2.730   2.045   4.973
 6364SOL    HW119991   2.665   2.121   4.972
 6364SOL    HW219992   2.716   1.990   5.055
 6365SOL     OW19993   6.081   6.082   4.131
 6365SOL    HW119994   6.009   6.133   4.178
 6365SOL    HW219995   6.063   5.984   4.138
 6366SOL     OW19996   6.058   6.288   5.030
 6366SOL    HW119997   6.075   6.308   5.127
 6366SOL    HW219998   5.959   6.281   5.015
 6367SOL     OW19999   3.329   2.094   3.249
 6367SOL    HW120000   3.242   2.143   3.250
 6367SOL    HW220001   3.387   2.126   3.323
 6368SOL     OW20002   4.839   4.100   3.717
 6368SOL    HW120003   4.868   4.014   3.759
 6368SOL    HW220004   4.805   4.082   3.625
 6369SOL     OW20005   3.416   6.358   5.988
 6369SOL    HW120006   3.451   6.390   6.076
 6369SOL    HW220007   3.411   6.258   5.988
 6370SOL     OW20008   5.185   3.908   3.706
 6370SOL    HW120009   5.122   3.881   3.779
 6370SOL    HW220010   5.135   3.961   3.637
 6371SOL     OW20011   5.158   4.303   1.554
 6371SOL    HW120012   5.078   4.303   1.615
 6371SOL    HW220013   5.241   4.287   1.608
 6372SOL     OW20014   0.362   1.121   2.952
 6372SOL    HW120015   0.270   1.149   2.979
 6372SOL    HW220016   0.429   1.187   2.986
 6373SOL     OW20017   5.703   4.725   1.206
 6373SOL    HW120018   5.698   4.636   1.254
 6373SOL    HW220019   5.755   4.714   1.121
 6374SOL     OW20020   4.902   2.798   0.173
 6374SOL    HW120021   4.957   2.716   0.185
 6374SOL    HW220022   4.861   2.824   0.260
 6375SOL     OW20023   6.845   3.043   2.621
 6375SOL    HW120024   6.752   3.011   2.638
 6375SOL    HW220025   6.862   3.046   2.522
 6376SOL     OW20026   4.072   1.225   5.309
 6376SOL    HW120027   3.990   1.219   5.366
 6376SOL    HW220028   4.054   1.286   5.231
 6377SOL     OW20029   6.955   0.122   0.047
 6377SOL    HW120030   6.950   0.100   0.145
 6377SOL    HW220031   6.997   0.212   0.035
 6378SOL     OW20032   5.714   5.545   2.830
 6378SOL    HW120033   5.631   5.576   2.784
 6378SOL    HW220034   5.741   5.610   2.900
 6379SOL     OW20035   2.142   5.715   6.071
 6379SOL    HW120036   2.159   5.765   5.986
 6379SOL    HW220037   2.104   5.625   6.049
 6380SOL     OW20038   1.034   3.151   5.074
 6380SOL    HW120039   1.029   3.146   5.173
 6380SOL    HW220040   1.122   3.190   5.046
 6381SOL     OW20041   4.566   3.140   0.392
 6381SOL    HW120042   4.471   3.167   0.379
 6381SOL    HW220043   4.570   3.041   0.408
 6382SOL     OW20044   2.726   2.008   1.353
 6382SOL    HW120045   2.722   1.936   1.423
 6382SOL    HW220046   2.802   1.990   1.291
 6383SOL     OW20047   2.041   2.646   2.761
 6383SOL    HW120048   2.005   2.737   2.781
 6383SOL    HW220049   1.981   2.577   2.801
 6384SOL     OW20050   6.193   2.693   2.190
 6384SOL    HW120051   6.261   2.627   2.157
 6384SOL    HW220052   6.233   2.785   2.188
 6385SOL     OW20053   0.641   3.468   1.131
 6385SOL    HW120054   0.599   3.524   1.059
 6385SOL    HW220055   0.586   3.385   1.144
 6386SOL     OW20056   1.703   3.502   0.540
 6386SOL    HW120057   1.696   3.502   0.640
 6386SOL    HW220058   1.649   3.577   0.503
 6387SOL     OW20059   6.371   1.282   0.331
 6387SOL    HW120060   6.374   1.372   0.289
 6387SOL    HW220061   6.326   1.288   0.420
 6388SOL     OW20062   6.240   5.368   2.559
 6388SOL    HW120063   6.144   5.354   2.584
 6388SOL    HW220064   6.246   5.443   2.493
 6389SOL     OW20065   1.547   6.917   0.168
 6389SOL    HW120066   1.579   6.983   0.100
 6389SOL    HW220067   1.547   6.825   0.129
 6390SOL     OW20068   5.911   0.819   0.071
 6390SOL    HW120069   5.955   0.858   7.009
 6390SOL    HW220070   5.812   0.819   0.058
 6391SOL     OW20071   1.014   0.855   5.304
 6391SOL    HW120072   1.003   0.907   5.219
 6391SOL    HW220073   1.023   0.758   5.283
 6392SOL     OW20074   3.054   5.443   3.383
 6392SOL    HW120075   3.107   5.518   3.345
 6392SOL    HW220076   2.957   5.460   3.370
 6393SOL     OW20077   5.798   6.656   1.639
 6393SOL    HW120078   5.814   6.755   1.642
 6393SOL    HW220079   5.875   6.612   1.593
 6394SOL     OW20080   0.715   4.701   0.924
 6394SOL    HW120081   0.706   4.775   0.991
 6394SOL    HW220082   0.679   4.616   0.963
 6395SOL     OW20083   0.911   4.331   2.851
 6395SOL    HW120084   0.833   4.298   2.904
 6395SOL    HW220085   0.959   4.402   2.904
 6396SOL     OW20086   6.234   3.605   0.568
 6396SOL    HW120087   6.235   3.688   0.511
 6396SOL    HW220088   6.215   3.526   0.510
 6397SOL     OW20089   5.710   2.351   3.045
 6397SOL    HW120090   5.765   2.343   2.962
 6397SOL    HW220091   5.701   2.261   3.087
 6398SOL     OW20092   0.980   6.121   1.131
 6398SOL    HW120093   1.002   6.039   1.077
 6398SOL    HW220094   1.026   6.200   1.091
 6399SOL     OW20095   2.150   0.001   6.309
 6399SOL    HW120096   2.078   0.061   6.275
 6399SOL    HW220097   2.148   6.934   6.257
 6400SOL     OW20098   1.586   5.688   2.741
 6400SOL    HW120099   1.528   5.769   2.739
 6400SOL    HW220100   1.668   5.705   2.687
 6401SOL     OW20101   3.829   4.999   2.763
 6401SOL    HW120102   3.902   4.977   2.699
 6401SOL    HW220103   3.861   5.071   2.825
 6402SOL     OW20104   1.929   4.711   4.062
 6402SOL    HW120105   1.958   4.715   4.157
 6402SOL    HW220106   1.978   4.779   4.008
 6403SOL     OW20107   5.278   6.140   4.930
 6403SOL    HW120108   5.198   6.185   4.971
 6403SOL    HW220109   5.259   6.119   4.834
 6404SOL     OW20110   3.550   0.840   2.501
 6404SOL    HW120111   3.589   0.844   2.409
 6404SOL    HW220112   3.468   0.781   2.499
 6405SOL     OW20113   5.223   1.111   2.826
 6405SOL    HW120114   5.291   1.101   2.899
 6405SOL    HW220115   5.180   1.201   2.833
 6406SOL     OW20116   1.264   2.617   2.752
 6406SOL    HW120117   1.216   2.668   2.681
 6406SOL    HW220118   1.294   2.680   2.824
 6407SOL     OW20119   2.327   6.390   3.585
 6407SOL    HW120120   2.401   6.335   3.545
 6407SOL    HW220121   2.337   6.485   3.555
 6408SOL     OW20122   6.959   0.530   0.668
 6408SOL    HW120123   6.890   0.474   0.621
 6408SOL    HW220124   0.027   0.481   0.671
 6409SOL     OW20125   6.345   4.806   3.542
 6409SOL    HW120126   6.429   4.847   3.577
 6409SOL    HW220127   6.267   4.863   3.568
 6410SOL     OW20128   2.992   1.064   5.542
 6410SOL    HW120129   3.072   1.022   5.586
 6410SOL    HW220130   3.002   1.060   5.443
 6411SOL     OW20131   0.126   2.724   2.518
 6411SOL    HW120132   0.175   2.810   2.533
 6411SOL    HW220133   0.063   2.707   2.593
 6412SOL     OW20134   3.443   0.659   6.744
 6412SOL    HW120135   3.382   0.708   6.682
 6412SOL    HW220136   3.407   0.567   6.761
 6413SOL     OW20137   4.173   4.839   4.254
 6413SOL    HW120138   4.128   4.812   4.169
 6413SOL    HW220139   4.248   4.776   4.274
 6414SOL     OW20140   0.873   0.068   6.765
 6414SOL    HW120141   0.863   0.079   6.667
 6414SOL    HW220142   0.916   0.150   6.804
 6415SOL     OW20143   1.343   3.110   3.316
 6415SOL    HW120144   1.397   3.084   3.236
 6415SOL    HW220145   1.392   3.083   3.399
 6416SOL     OW20146   2.789   0.239   6.385
 6416SOL    HW120147   2.809   0.320   6.440
 6416SOL    HW220148   2.875   0.201   6.350
 6417SOL     OW20149   4.859   1.990   0.936
 6417SOL    HW120150   4.795   1.947   0.873
 6417SOL    HW220151   4.930   1.924   0.962
 6418SOL     OW20152   4.189   4.846   1.381
 6418SOL    HW120153   4.151   4.764   1.339
 6418SOL    HW220154   4.287   4.835   1.393
 6419SOL     OW20155   1.009   6.528   6.537
 6419SOL    HW120156   0.983   6.453   6.598
 6419SOL    HW220157   0.926   6.569   6.499
 6420SOL     OW20158   1.585   3.527   3.947
 6420SOL    HW120159   1.586   3.609   3.890
 6420SOL    HW220160   1.571   3.446   3.890
 6421SOL     OW20161   5.174   0.157   1.496
 6421SOL    HW120162   5.124   0.173   1.411
 6421SOL    HW220163   5.234   0.235   1.515
 6422SOL     OW20164   0.216   2.860   4.917
 6422SOL    HW120165   0.240   2.956   4.902
 6422SOL    HW220166   0.132   2.838   4.866
 6423SOL     OW20167   2.321   5.019   4.217
 6423SOL    HW120168   2.260   4.975   4.151
 6423SOL    HW220169   2.414   4.982   4.207
 6424SOL     OW20170   0.593   3.487   4.874
 6424SOL    HW120171   0.569   3.397   4.836
 6424SOL    HW220172   0.680   3.481   4.922
 6425SOL     OW20173   0.056   5.910   3.107
 6425SOL    HW120174   0.153   5.933   3.119
 6425SOL    HW220175   0.043   5.812   3.118
 6426SOL     OW20176   4.567   4.508   4.882
 6426SOL    HW120177   4.529   4.506   4.789
 6426SOL    HW220178   4.493   4.519   4.948
 6427SOL     OW20179   3.112   3.275   3.686
 6427SOL    HW120180   3.091   3.179   3.704
 6427SOL    HW220181   3.031   3.321   3.649
 6428SOL     OW20182   4.848   2.699   6.949
 6428SOL    HW120183   4.777   2.755   6.907
 6428SOL    HW220184   4.873   2.737   0.019
 6429SOL     OW20185   2.443   0.785   4.968
 6429SOL    HW120186   2.504   0.767   4.891
 6429SOL    HW220187   2.352   0.748   4.947
 6430SOL     OW20188   6.928   0.667   5.230
 6430SOL    HW120189   6.838   0.656   5.273
 6430SOL    HW220190   6.984   0.727   5.286
 6431SOL     OW20191   4.390   5.567   2.789
 6431SOL    HW120192   4.359   5.492   2.847
 6431SOL    HW220193   4.466   5.536   2.731
 6432SOL     OW20194   3.170   4.531   6.716
 6432SOL    HW120195   3.144   4.581   6.799
 6432SOL    HW220196   3.096   4.535   6.650
 6433SOL     OW20197   2.653   5.360   6.562
 6433SOL    HW120198   2.740   5.404   6.584
 6433SOL    HW220199   2.579   5.403   6.615
 6434SOL     OW20200   3.048   5.995   6.101
 6434SOL    HW120201   2.975   6.054   6.067
 6434SOL    HW220202   3.067   5.923   6.033
 6435SOL     OW20203   5.557   0.387   0.689
 6435SOL    HW120204   5.528   0.400   0.784
 6435SOL    HW220205   5.593   0.295   0.677
 6436SOL     OW20206   0.690   4.051   3.841
 6436SOL    HW120207   0.639   4.015   3.763
 6436SOL    HW220208   0.705   4.149   3.828
 6437SOL     OW20209   0.990   0.995   5.539
 6437SOL    HW120210   0.989   0.943   5.453
 6437SOL    HW220211   1.081   0.989   5.580
 6438SOL     OW20212   0.539   5.888   6.822
 6438SOL    HW120213   0.608   5.860   6.888
 6438SOL    HW220214   0.484   5.809   6.795
 6439SOL     OW20215   5.816   1.070   3.408
 6439SOL    HW120216   5.815   1.167   3.429
 6439SOL    HW220217   5.865   1.020   3.480
 6440SOL     OW20218   2.112   0.649   6.073
 6440SOL    HW120219   2.083   0.638   6.168
 6440SOL    HW220220   2.158   0.566   6.042
 6441SOL     OW20221   0.349   0.294   3.229
 6441SOL    HW120222   0.344   0.387   3.193
 6441SOL    HW220223   0.352   0.297   3.329
 6442SOL     OW20224   2.511   2.108   5.363
 6442SOL    HW120225   2.507   2.032   5.428
 6442SOL    HW220226   2.433   2.102   5.300
 6443SOL     OW20227   4.339   2.124   0.818
 6443SOL    HW120228   4.250   2.107   0.860
 6443SOL    HW220229   4.350   2.223   0.803
 6444SOL     OW20230   0.042   2.563   5.468
 6444SOL    HW120231   7.019   2.567   5.558
 6444SOL    HW220232   0.137   2.533   5.477
 6445SOL     OW20233   2.954   3.490   3.230
 6445SOL    HW120234   3.017   3.481   3.307
 6445SOL    HW220235   2.975   3.420   3.162
 6446SOL     OW20236   1.668   1.555   6.572
 6446SOL    HW120237   1.614   1.639   6.580
 6446SOL    HW220238   1.730   1.563   6.493
 6447SOL     OW20239   6.424   4.322   1.048
 6447SOL    HW120240   6.418   4.265   0.966
 6447SOL    HW220241   6.517   4.320   1.084
 6448SOL     OW20242   4.578   5.444   1.981
 6448SOL    HW120243   4.602   5.435   2.078
 6448SOL    HW220244   4.657   5.421   1.925
 6449SOL     OW20245   2.848   5.540   1.826
 6449SOL    HW120246   2.822   5.492   1.742
 6449SOL    HW220247   2.830   5.638   1.815
 6450SOL     OW20248   0.830   4.104   1.424
 6450SOL    HW120249   0.871   4.024   1.469
 6450SOL    HW220250   0.731   4.104   1.439
 6451SOL     OW20251   3.536   2.230   0.578
 6451SOL    HW120252   3.506   2.258   0.669
 6451SOL    HW220253   3.561   2.133   0.579
 6452SOL     OW20254   5.496   3.767   3.514
 6452SOL    HW120255   5.533   3.727   3.430
 6452SOL    HW220256   5.463   3.694   3.574
 6453SOL     OW20257   3.497   0.119   1.411
 6453SOL    HW120258   3.418   0.105   1.351
 6453SOL    HW220259   3.556   0.190   1.371
 6454SOL     OW20260   6.579   2.339   2.564
 6454SOL    HW120261   6.523   2.350   2.482
 6454SOL    HW220262   6.534   2.275   2.627
 6455SOL     OW20263   6.827   4.111   2.958
 6455SOL    HW120264   6.887   4.031   2.963
 6455SOL    HW220265   6.882   4.194   2.966
 6456SOL     OW20266   0.594   1.336   3.006
 6456SOL    HW120267   0.647   1.298   2.931
 6456SOL    HW220268   0.564   1.428   2.983
 6457SOL     OW20269   4.951   6.828   1.288
 6457SOL    HW120270   4.956   6.729   1.272
 6457SOL    HW220271   5.023   6.854   1.353
 6458SOL     OW20272   0.946   5.110   3.629
 6458SOL    HW120273   1.008   5.058   3.687
 6458SOL    HW220274   0.851   5.088   3.654
 6459SOL     OW20275   6.323   2.410   3.005
 6459SOL    HW120276   6.336   2.448   2.913
 6459SOL    HW220277   6.227   2.417   3.032
 6460SOL     OW20278   0.001   6.055   5.337
 6460SOL    HW120279   6.961   6.134   5.354
 6460SOL    HW220280   6.990   5.978   5.393
 6461SOL     OW20281   3.286   4.509   0.435
 6461SOL    HW120282   3.305   4.606   0.452
 6461SOL    HW220283   3.308   4.457   0.518
 6462SOL     OW20284   1.869   3.811   5.034
 6462SOL    HW120285   1.954   3.851   4.999
 6462SOL    HW220286   1.798   3.817   4.964
 6463SOL     OW20287   4.757   1.249   0.878
 6463SOL    HW120288   4.774   1.204   0.791
 6463SOL    HW220289   4.705   1.334   0.862
 6464SOL     OW20290   0.879   6.202   4.202
 6464SOL    HW120291   0.952   6.137   4.178
 6464SOL    HW220292   0.821   6.161   4.272
 6465SOL     OW20293   5.407   3.093   2.584
 6465SOL    HW120294   5.402   3.158   2.660
 6465SOL    HW220295   5.443   3.006   2.617
 6466SOL     OW20296   6.817   3.530   6.707
 6466SOL    HW120297   6.811   3.441   6.661
 6466SOL    HW220298   6.904   3.537   6.755
 6467SOL     OW20299   3.308   0.646   0.686
 6467SOL    HW120300   3.290   0.741   0.660
 6467SOL    HW220301   3.252   0.585   0.629
 6468SOL     OW20302   3.595   0.085   0.184
 6468SOL    HW120303   3.606   7.006   0.170
 6468SOL    HW220304   3.679   0.132   0.158
 6469SOL     OW20305   3.271   1.773   3.580
 6469SOL    HW120306   3.252   1.849   3.642
 6469SOL    HW220307   3.241   1.687   3.622
 6470SOL     OW20308   6.898   2.434   6.873
 6470SOL    HW120309   6.980   2.378   6.860
 6470SOL    HW220310   6.924   2.530   6.882
 6471SOL     OW20311   0.162   6.205   4.766
 6471SOL    HW120312   0.258   6.182   4.749
 6471SOL    HW220313   0.113   6.125   4.799
 6472SOL     OW20314   6.965   6.170   2.278
 6472SOL    HW120315   6.960   6.270   2.279
 6472SOL    HW220316   6.974   6.138   2.183
 6473SOL     OW20317   1.909   1.415   3.975
 6473SOL    HW120318   1.996   1.375   3.945
 6473SOL    HW220319   1.925   1.506   4.012
 6474SOL     OW20320   3.485   5.133   4.811
 6474SOL    HW120321   3.508   5.068   4.738
 6474SOL    HW220322   3.565   5.190   4.831
 6475SOL     OW20323   5.642   5.498   3.499
 6475SOL    HW120324   5.593   5.487   3.412
 6475SOL    HW220325   5.659   5.409   3.540
 6476SOL     OW20326   3.546   2.165   6.705
 6476SOL    HW120327   3.477   2.096   6.727
 6476SOL    HW220328   3.633   2.121   6.683
 6477SOL     OW20329   0.111   6.109   1.066
 6477SOL    HW120330   0.194   6.062   1.098
 6477SOL    HW220331   0.133   6.164   0.985
 6478SOL     OW20332   2.763   5.795   1.814
 6478SOL    HW120333   2.858   5.810   1.841
 6478SOL    HW220334   2.756   5.796   1.714
 6479SOL     OW20335   3.048   5.684   4.305
 6479SOL    HW120336   3.129   5.670   4.248
 6479SOL    HW220337   2.973   5.716   4.248
 6480SOL     OW20338   2.746   0.906   6.713
 6480SOL    HW120339   2.758   0.923   6.615
 6480SOL    HW220340   2.764   0.991   6.763
 6481SOL     OW20341   3.094   2.327   1.717
 6481SOL    HW120342   3.034   2.351   1.793
 6481SOL    HW220343   3.048   2.349   1.630
 6482SOL     OW20344   6.818   3.133   5.168
 6482SOL    HW120345   6.877   3.103   5.243
 6482SOL    HW220346   6.764   3.211   5.197
 6483SOL     OW20347   1.562   5.396   4.599
 6483SOL    HW120348   1.574   5.302   4.630
 6483SOL    HW220349   1.476   5.403   4.549
 6484SOL     OW20350   2.946   1.111   3.601
 6484SOL    HW120351   3.027   1.169   3.610
 6484SOL    HW220352   2.975   1.015   3.598
 6485SOL     OW20353   1.986   6.626   4.750
 6485SOL    HW120354   2.041   6.684   4.810
 6485SOL    HW220355   1.957   6.544   4.800
 6486SOL     OW20356   1.562   5.148   3.246
 6486SOL    HW120357   1.621   5.073   3.216
 6486SOL    HW220358   1.524   5.194   3.165
 6487SOL     OW20359   0.567   5.209   4.471
 6487SOL    HW120360   0.618   5.282   4.426
 6487SOL    HW220361   0.530   5.244   4.558
 6488SOL     OW20362   5.166   5.196   4.539
 6488SOL    HW120363   5.146   5.167   4.445
 6488SOL    HW220364   5.082   5.201   4.591
 6489SOL     OW20365   3.959   3.328   6.655
 6489SOL    HW120366   4.012   3.297   6.734
 6489SOL    HW220367   3.901   3.253   6.622
 6490SOL     OW20368   1.597   1.379   6.815
 6490SOL    HW120369   1.592   1.421   6.906
 6490SOL    HW220370   1.636   1.445   6.750
 6491SOL     OW20371   1.757   0.450   1.103
 6491SOL    HW120372   1.657   0.439   1.102
 6491SOL    HW220373   1.799   0.382   1.043
 6492SOL     OW20374   3.037   3.847   4.620
 6492SOL    HW120375   3.069   3.920   4.559
 6492SOL    HW220376   3.022   3.885   4.711
 6493SOL     OW20377   1.943   4.464   6.077
 6493SOL    HW120378   1.886   4.500   6.150
 6493SOL    HW220379   2.023   4.523   6.065
 6494SOL     OW20380   6.055   6.478   2.018
 6494SOL    HW120381   5.991   6.495   1.942
 6494SOL    HW220382   6.020   6.522   2.101
 6495SOL     OW20383   0.079   0.053   4.157
 6495SOL    HW120384   0.038   6.982   4.166
 6495SOL    HW220385   0.178   0.044   4.143
 6496SOL     OW20386   4.487   6.523   2.271
 6496SOL    HW120387   4.453   6.476   2.190
 6496SOL    HW220388   4.515   6.456   2.340
 6497SOL     OW20389   0.677   1.310   0.894
 6497SOL    HW120390   0.636   1.282   0.980
 6497SOL    HW220391   0.647   1.403   0.872
 6498SOL     OW20392   0.774   4.605   4.533
 6498SOL    HW120393   0.821   4.614   4.445
 6498SOL    HW220394   0.828   4.548   4.595
 6499SOL     OW20395   5.742   4.472   4.005
 6499SOL    HW120396   5.730   4.482   3.906
 6499SOL    HW220397   5.752   4.375   4.027
 6500SOL     OW20398   1.037   3.700   2.379
 6500SOL    HW120399   1.081   3.687   2.291
 6500SOL    HW220400   1.104   3.734   2.445
 6501SOL     OW20401   6.644   1.984   0.911
 6501SOL    HW120402   6.646   2.061   0.975
 6501SOL    HW220403   6.659   2.017   0.818
 6502SOL     OW20404   5.983   4.164   1.113
 6502SOL    HW120405   5.919   4.176   1.189
 6502SOL    HW220406   6.023   4.073   1.117
 6503SOL     OW20407   6.456   2.846   5.928
 6503SOL    HW120408   6.360   2.828   5.908
 6503SOL    HW220409   6.493   2.910   5.861
 6504SOL     OW20410   4.521   6.606   6.806
 6504SOL    HW120411   4.561   6.528   6.854
 6504SOL    HW220412   4.583   6.684   6.810
 6505SOL     OW20413   5.652   6.176   0.081
 6505SOL    HW120414   5.640   6.239   0.157
 6505SOL    HW220415   5.570   6.175   0.024
 6506SOL     OW20416   0.282   3.040   3.638
 6506SOL    HW120417   0.322   2.950   3.653
 6506SOL    HW220418   0.223   3.038   3.557
 6507SOL     OW20419   3.325   5.646   6.639
 6507SOL    HW120420   3.383   5.703   6.581
 6507SOL    HW220421   3.229   5.658   6.611
 6508SOL     OW20422   1.197   6.688   1.449
 6508SOL    HW120423   1.256   6.767   1.465
 6508SOL    HW220424   1.189   6.635   1.533
 6509SOL     OW20425   3.544   1.201   5.836
 6509SOL    HW120426   3.593   1.266   5.894
 6509SOL    HW220427   3.449   1.231   5.825
 6510SOL     OW20428   4.413   5.992   5.716
 6510SOL    HW120429   4.438   5.904   5.757
 6510SOL    HW220430   4.495   6.039   5.686
 6511SOL     OW20431   3.938   1.590   6.400
 6511SOL    HW120432   3.939   1.594   6.499
 6511SOL    HW220433   3.936   1.495   6.370
 6512SOL     OW20434   2.865   0.884   1.885
 6512SOL    HW120435   2.939   0.855   1.824
 6512SOL    HW220436   2.882   0.979   1.913
 6513SOL     OW20437   2.655   5.616   4.922
 6513SOL    HW120438   2.686   5.709   4.905
 6513SOL    HW220439   2.707   5.552   4.865
 6514SOL     OW20440   5.565   0.416   5.191
 6514SOL    HW120441   5.595   0.471   5.113
 6514SOL    HW220442   5.525   0.476   5.261
 6515SOL     OW20443   2.223   4.949   2.141
 6515SOL    HW120444   2.128   4.981   2.137
 6515SOL    HW220445   2.225   4.855   2.175
 6516SOL     OW20446   0.268   3.188   1.858
 6516SOL    HW120447   0.226   3.255   1.798
 6516SOL    HW220448   0.208   3.171   1.936
 6517SOL     OW20449   6.740   2.271   6.719
 6517SOL    HW120450   6.659   2.313   6.678
 6517SOL    HW220451   6.800   2.343   6.755
 6518SOL     OW20452   0.268   0.956   2.735
 6518SOL    HW120453   0.286   0.986   2.829
 6518SOL    HW220454   0.336   0.996   2.674
 6519SOL     OW20455   0.950   1.117   3.157
 6519SOL    HW120456   0.886   1.182   3.117
 6519SOL    HW220457   0.914   1.083   3.244
 6520SOL     OW20458   6.863   5.659   6.953
 6520SOL    HW120459   6.946   5.616   6.989
 6520SOL    HW220460   6.796   5.589   6.928
 6521SOL     OW20461   1.555   3.289   3.835
 6521SOL    HW120462   1.611   3.220   3.789
 6521SOL    HW220463   1.464   3.252   3.852
 6522SOL     OW20464   3.010   3.833   5.653
 6522SOL    HW120465   2.934   3.862   5.595
 6522SOL    HW220466   3.096   3.844   5.603
 6523SOL     OW20467   6.056   0.889   0.304
 6523SOL    HW120468   6.125   0.828   0.344
 6523SOL    HW220469   6.017   0.847   0.223
 6524SOL     OW20470   2.849   2.055   1.929
 6524SOL    HW120471   2.870   2.132   1.990
 6524SOL    HW220472   2.862   2.084   1.834
 6525SOL     OW20473   1.613   5.345   3.805
 6525SOL    HW120474   1.645   5.352   3.899
 6525SOL    HW220475   1.531   5.288   3.802
 6526SOL     OW20476   6.998   0.052   1.237
 6526SOL    HW120477   6.920   0.000   1.202
 6526SOL    HW220478   6.997   0.052   1.337
 6527SOL     OW20479   0.416   2.854   0.872
 6527SOL    HW120480   0.347   2.926   0.881
 6527SOL    HW220481   0.373   2.772   0.835
 6528SOL     OW20482   6.375   1.335   5.683
 6528SOL    HW120483   6.336   1.302   5.769
 6528SOL    HW220484   6.302   1.372   5.625
 6529SOL     OW20485   0.302   1.427   2.325
 6529SOL    HW120486   0.289   1.500   2.392
 6529SOL    HW220487   0.295   1.338   2.370
 6530SOL     OW20488   0.796   2.727   2.467
 6530SOL    HW120489   0.784   2.709   2.369
 6530SOL    HW220490   0.709   2.754   2.507
 6531SOL     OW20491   4.292   3.293   5.699
 6531SOL    HW120492   4.367   3.303   5.765
 6531SOL    HW220493   4.312   3.217   5.637
 6532SOL     OW20494   1.587   0.687   0.898
 6532SOL    HW120495   1.600   0.716   0.993
 6532SOL    HW220496   1.641   0.605   0.881
 6533SOL     OW20497   4.546   4.424   6.888
 6533SOL    HW120498   4.634   4.467   6.908
 6533SOL    HW220499   4.509   4.383   6.971
 6534SOL     OW20500   5.718   4.664   2.177
 6534SOL    HW120501   5.698   4.566   2.188
 6534SOL    HW220502   5.805   4.685   2.221
 6535SOL     OW20503   5.786   3.816   4.737
 6535SOL    HW120504   5.822   3.740   4.684
 6535SOL    HW220505   5.832   3.820   4.826
 6536SOL     OW20506   0.577   2.012   5.485
 6536SOL    HW120507   0.610   2.086   5.426
 6536SOL    HW220508   0.590   1.924   5.440
 6537SOL     OW20509   5.956   4.430   5.083
 6537SOL    HW120510   5.885   4.365   5.055
 6537SOL    HW220511   6.001   4.467   5.002
 6538SOL     OW20512   2.223   3.825   5.213
 6538SOL    HW120513   2.222   3.766   5.132
 6538SOL    HW220514   2.286   3.901   5.198
 6539SOL     OW20515   5.549   1.085   6.801
 6539SOL    HW120516   5.507   0.997   6.778
 6539SOL    HW220517   5.549   1.145   6.722
 6540SOL     OW20518   3.437   2.336   5.455
 6540SOL    HW120519   3.512   2.394   5.487
 6540SOL    HW220520   3.354   2.392   5.444
 6541SOL     OW20521   5.823   2.182   5.648
 6541SOL    HW120522   5.905   2.221   5.605
 6541SOL    HW220523   5.745   2.191   5.586
 6542SOL     OW20524   1.524   3.525   4.781
 6542SOL    HW120525   1.547   3.595   4.713
 6542SOL    HW220526   1.438   3.551   4.826
 6543SOL     OW20527   3.369   2.050   5.030
 6543SOL    HW120528   3.453   2.079   5.075
 6543SOL    HW220529   3.290   2.086   5.080
 6544SOL     OW20530   0.262   6.935   2.267
 6544SOL    HW120531   0.357   6.904   2.276
 6544SOL    HW220532   0.258   7.011   2.201
 6545SOL     OW20533   4.495   6.581   1.024
 6545SOL    HW120534   4.482   6.488   1.060
 6545SOL    HW220535   4.409   6.631   1.029
 6546SOL     OW20536   4.911   4.725   6.264
 6546SOL    HW120537   4.900   4.754   6.359
 6546SOL    HW220538   4.941   4.802   6.209
 6547SOL     OW20539   5.380   6.651   6.364
 6547SOL    HW120540   5.282   6.670   6.365
 6547SOL    HW220541   5.396   6.558   6.331
 6548SOL     OW20542   1.073   2.732   6.288
 6548SOL    HW120543   1.033   2.717   6.378
 6548SOL    HW220544   1.006   2.777   6.228
 6549SOL     OW20545   4.814   6.958   1.683
 6549SOL    HW120546   4.724   6.999   1.695
 6549SOL    HW220547   4.821   6.874   1.738
 6550SOL     OW20548   6.387   0.336   3.278
 6550SOL    HW120549   6.371   0.240   3.300
 6550SOL    HW220550   6.440   0.380   3.351
 6551SOL     OW20551   3.002   3.406   1.678
 6551SOL    HW120552   2.961   3.392   1.588
 6551SOL    HW220553   3.052   3.493   1.678
 6552SOL     OW20554   1.674   6.492   0.208
 6552SOL    HW120555   1.668   6.394   0.191
 6552SOL    HW220556   1.768   6.518   0.228
 6553SOL     OW20557   0.197   1.878   2.917
 6553SOL    HW120558   0.232   1.885   2.823
 6553SOL    HW220559   0.259   1.821   2.972
 6554SOL     OW20560   2.970   1.050   4.625
 6554SOL    HW120561   3.018   1.002   4.552
 6554SOL    HW220562   3.034   1.068   4.700
 6555SOL     OW20563   6.976   1.989   4.648
 6555SOL    HW120564   0.003   2.069   4.687
 6555SOL    HW220565   6.907   1.956   4.712
 6556SOL     OW20566   5.900   3.081   3.188
 6556SOL    HW120567   5.831   3.021   3.226
 6556SOL    HW220568   5.967   3.105   3.259
 6557SOL     OW20569   1.412   6.805   2.488
 6557SOL    HW120570   1.347   6.856   2.431
 6557SOL    HW220571   1.361   6.755   2.558
 6558SOL     OW20572   5.832   5.151   0.217
 6558SOL    HW120573   5.772   5.229   0.232
 6558SOL    HW220574   5.864   5.115   0.305
 6559SOL     OW20575   0.051   3.652   6.782
 6559SOL    HW120576   0.035   3.749   6.763
 6559SOL    HW220577   0.051   3.637   6.880
 6560SOL     OW20578   4.277   4.541   0.109
 6560SOL    HW120579   4.210   4.472   0.138
 6560SOL    HW220580   4.231   4.616   0.063
 6561SOL     OW20581   4.045   4.661   0.027
 6561SOL    HW120582   4.036   4.607   6.963
 6561SOL    HW220583   3.960   4.656   0.080
 6562SOL     OW20584   5.623   2.730   0.700
 6562SOL    HW120585   5.582   2.752   0.788
 6562SOL    HW220586   5.586   2.792   0.630
 6563SOL     OW20587   5.181   0.562   5.541
 6563SOL    HW120588   5.250   0.574   5.613
 6563SOL    HW220589   5.091   0.551   5.583
 6564SOL     OW20590   6.407   3.951   2.207
 6564SOL    HW120591   6.453   3.933   2.293
 6564SOL    HW220592   6.474   3.959   2.133
 6565SOL     OW20593   5.821   7.001   2.379
 6565SOL    HW120594   5.815   0.062   2.439
 6565SOL    HW220595   5.773   0.002   2.293
 6566SOL     OW20596   3.694   5.341   2.036
 6566SOL    HW120597   3.622   5.331   2.105
 6566SOL    HW220598   3.681   5.273   1.965
 6567SOL     OW20599   4.432   0.695   1.489
 6567SOL    HW120600   4.452   0.757   1.414
 6567SOL    HW220601   4.517   0.650   1.518
 6568SOL     OW20602   3.868   1.239   2.133
 6568SOL    HW120603   3.768   1.238   2.134
 6568SOL    HW220604   3.903   1.270   2.221
 6569SOL     OW20605   0.573   2.747   6.203
 6569SOL    HW120606   0.579   2.800   6.288
 6569SOL    HW220607   0.478   2.718   6.189
 6570SOL     OW20608   4.260   0.422   2.631
 6570SOL    HW120609   4.255   0.328   2.599
 6570SOL    HW220610   4.291   0.481   2.556
 6571SOL     OW20611   2.264   5.224   3.136
 6571SOL    HW120612   2.262   5.233   3.037
 6571SOL    HW220613   2.315   5.300   3.176
 6572SOL     OW20614   0.584   4.463   4.088
 6572SOL    HW120615   0.569   4.486   4.185
 6572SOL    HW220616   0.681   4.447   4.072
 6573SOL     OW20617   1.660   0.722   3.284
 6573SOL    HW120618   1.581   0.671   3.250
 6573SOL    HW220619   1.637   0.764   3.372
 6574SOL     OW20620   2.528   6.270   3.431
 6574SOL    HW120621   2.543   6.355   3.381
 6574SOL    HW220622   2.495   6.199   3.369
 6575SOL     OW20623   0.133   6.947   2.792
 6575SOL    HW120624   0.130   6.968   2.889
 6575SOL    HW220625   0.223   6.973   2.755
 6576SOL     OW20626   3.315   4.941   6.916
 6576SOL    HW120627   3.249   4.974   6.985
 6576SOL    HW220628   3.285   4.971   6.825
 6577SOL     OW20629   1.995   2.658   3.410
 6577SOL    HW120630   1.903   2.697   3.415
 6577SOL    HW220631   2.057   2.714   3.465
 6578SOL     OW20632   1.054   5.481   1.323
 6578SOL    HW120633   0.994   5.402   1.312
 6578SOL    HW220634   1.147   5.450   1.340
 6579SOL     OW20635   0.316   1.863   4.487
 6579SOL    HW120636   0.309   1.945   4.431
 6579SOL    HW220637   0.350   1.888   4.578
 6580SOL     OW20638   0.997   0.265   0.498
 6580SOL    HW120639   1.016   0.352   0.451
 6580SOL    HW220640   0.940   0.208   0.439
 6581SOL     OW20641   1.365   0.961   0.549
 6581SOL    HW120642   1.331   0.870   0.573
 6581SOL    HW220643   1.454   0.953   0.504
 6582SOL     OW20644   6.883   0.698   2.899
 6582SOL    HW120645   6.839   0.691   2.809
 6582SOL    HW220646   6.819   0.740   2.964
 6583SOL     OW20647   4.529   6.800   6.039
 6583SOL    HW120648   4.474   6.726   6.001
 6583SOL    HW220649   4.563   6.858   5.965
 6584SOL     OW20650   3.647   2.414   1.029
 6584SOL    HW120651   3.607   2.326   1.053
 6584SOL    HW220652   3.580   2.487   1.046
 6585SOL     OW20653   6.735   0.131   0.545
 6585SOL    HW120654   6.774   0.040   0.530
 6585SOL    HW220655   6.728   0.148   0.643
 6586SOL     OW20656   6.486   2.000   6.217
 6586SOL    HW120657   6.422   2.027   6.289
 6586SOL    HW220658   6.541   1.923   6.249
 6587SOL     OW20659   1.609   4.256   6.076
 6587SOL    HW120660   1.661   4.202   6.010
 6587SOL    HW220661   1.522   4.284   6.035
 6588SOL     OW20662   0.513   3.466   0.270
 6588SOL    HW120663   0.548   3.408   0.196
 6588SOL    HW220664   0.589   3.513   0.314
 6589SOL     OW20665   5.826   0.695   1.480
 6589SOL    HW120666   5.787   0.634   1.549
 6589SOL    HW220667   5.761   0.708   1.405
 6590SOL     OW20668   0.843   0.565   4.452
 6590SOL    HW120669   0.762   0.509   4.437
 6590SOL    HW220670   0.853   0.629   4.376
 6591SOL     OW20671   5.141   5.426   4.280
 6591SOL    HW120672   5.196   5.510   4.277
 6591SOL    HW220673   5.186   5.355   4.226
 6592SOL     OW20674   4.914   0.541   3.124
 6592SOL    HW120675   4.863   0.459   3.149
 6592SOL    HW220676   4.857   0.599   3.066
 6593SOL     OW20677   2.819   2.307   2.383
 6593SOL    HW120678   2.735   2.360   2.395
 6593SOL    HW220679   2.844   2.307   2.286
 6594SOL     OW20680   3.614   1.905   6.267
 6594SOL    HW120681   3.571   1.846   6.198
 6594SOL    HW220682   3.569   1.995   6.266
 6595SOL     OW20683   1.661   2.534   4.476
 6595SOL    HW120684   1.615   2.453   4.440
 6595SOL    HW220685   1.693   2.515   4.569
 6596SOL     OW20686   4.783   5.848   3.133
 6596SOL    HW120687   4.742   5.938   3.123
 6596SOL    HW220688   4.870   5.845   3.084
 6597SOL     OW20689   1.362   5.151   1.880
 6597SOL    HW120690   1.335   5.055   1.886
 6597SOL    HW220691   1.316   5.194   1.802
 6598SOL     OW20692   1.750   4.608   3.885
 6598SOL    HW120693   1.781   4.657   3.967
 6598SOL    HW220694   1.797   4.645   3.805
 6599SOL     OW20695   5.894   5.581   6.680
 6599SOL    HW120696   5.871   5.677   6.659
 6599SOL    HW220697   5.897   5.529   6.595
 6600SOL     OW20698   4.552   0.368   4.863
 6600SOL    HW120699   4.563   0.464   4.889
 6600SOL    HW220700   4.549   0.361   4.763
 6601SOL     OW20701   0.910   2.753   3.178
 6601SOL    HW120702   0.860   2.763   3.092
 6601SOL    HW220703   0.855   2.701   3.243
 6602SOL     OW20704   2.573   0.204   1.364
 6602SOL    HW120705   2.549   0.143   1.440
 6602SOL    HW220706   2.577   0.151   1.279
 6603SOL     OW20707   0.642   3.279   3.943
 6603SOL    HW120708   0.653   3.373   3.911
 6603SOL    HW220709   0.587   3.228   3.877
 6604SOL     OW20710   2.467   0.248   2.027
 6604SOL    HW120711   2.413   0.265   2.109
 6604SOL    HW220712   2.564   0.242   2.051
 6605SOL     OW20713   6.030   5.321   2.099
 6605SOL    HW120714   6.098   5.247   2.107
 6605SOL    HW220715   5.964   5.314   2.173
 6606SOL     OW20716   1.221   4.061   2.860
 6606SOL    HW120717   1.159   4.025   2.930
 6606SOL    HW220718   1.271   3.986   2.817
 6607SOL     OW20719   6.300   4.947   3.925
 6607SOL    HW120720   6.289   4.991   3.835
 6607SOL    HW220721   6.383   4.892   3.925
 6608SOL     OW20722   6.572   0.027   0.146
 6608SOL    HW120723   6.654   6.989   0.145
 6608SOL    HW220724   6.518   0.010   0.064
 6609SOL     OW20725   4.475   1.659   6.412
 6609SOL    HW120726   4.453   1.715   6.492
 6609SOL    HW220727   4.491   1.565   6.441
 6610SOL     OW20728   2.052   6.323   0.354
 6610SOL    HW120729   1.995   6.246   0.381
 6610SOL    HW220730   2.039   6.398   0.419
 6611SOL     OW20731   5.319   2.626   3.980
 6611SOL    HW120732   5.389   2.561   4.009
 6611SOL    HW220733   5.251   2.636   4.052
 6612SOL     OW20734   6.257   1.952   6.387
 6612SOL    HW120735   6.257   1.984   6.482
 6612SOL    HW220736   6.244   1.853   6.385
 6613SOL     OW20737   5.600   0.562   6.373
 6613SOL    HW120738   5.524   0.610   6.416
 6613SOL    HW220739   5.663   0.629   6.332
 6614SOL     OW20740   4.530   6.304   1.221
 6614SOL    HW120741   4.506   6.308   1.318
 6614SOL    HW220742   4.628   6.315   1.210
 6615SOL     OW20743   2.928   5.265   0.432
 6615SOL    HW120744   2.897   5.357   0.411
 6615SOL    HW220745   2.898   5.202   0.361
 6616SOL     OW20746   4.300   6.895   6.509
 6616SOL    HW120747   4.292   6.837   6.429
 6616SOL    HW220748   4.211   6.934   6.532
 6617SOL     OW20749   4.152   6.828   3.537
 6617SOL    HW120750   4.172   6.792   3.629
 6617SOL    HW220751   4.140   6.752   3.473
 6618SOL     OW20752   1.013   1.142   2.835
 6618SOL    HW120753   0.945   1.212   2.852
 6618SOL    HW220754   1.060   1.162   2.749
 6619SOL     OW20755   4.520   0.007   4.096
 6619SOL    HW120756   4.556   0.006   4.003
 6619SOL    HW220757   4.596   0.004   4.161
 6620SOL     OW20758   1.457   3.863   3.288
 6620SOL    HW120759   1.503   3.786   3.243
 6620SOL    HW220760   1.441   3.936   3.222
 6621SOL     OW20761   3.589   3.153   5.055
 6621SOL    HW120762   3.536   3.130   4.974
 6621SOL    HW220763   3.646   3.074   5.081
 6622SOL     OW20764   5.999   5.680   1.322
 6622SOL    HW120765   6.024   5.763   1.271
 6622SOL    HW220766   6.031   5.688   1.416
 6623SOL     OW20767   3.545   4.099   4.828
 6623SOL    HW120768   3.614   4.111   4.756
 6623SOL    HW220769   3.588   4.108   4.917
 6624SOL     OW20770   1.060   2.984   4.840
 6624SOL    HW120771   1.154   2.960   4.816
 6624SOL    HW220772   1.055   3.004   4.938
 6625SOL     OW20773   6.381   2.593   5.613
 6625SOL    HW120774   6.434   2.636   5.540
 6625SOL    HW220775   6.287   2.627   5.611
 6626SOL     OW20776   3.412   0.085   4.792
 6626SOL    HW120777   3.463   0.170   4.802
 6626SOL    HW220778   3.327   0.103   4.742
 6627SOL     OW20779   1.459   6.101   4.445
 6627SOL    HW120780   1.392   6.111   4.371
 6627SOL    HW220781   1.549   6.130   4.413
 6628SOL     OW20782   5.354   5.804   4.077
 6628SOL    HW120783   5.354   5.723   4.020
 6628SOL    HW220784   5.374   5.885   4.021
 6629SOL     OW20785   5.041   5.342   6.997
 6629SOL    HW120786   5.096   5.319   0.058
 6629SOL    HW220787   5.014   5.438   7.001
 6630SOL     OW20788   3.402   1.539   1.729
 6630SOL    HW120789   3.458   1.613   1.691
 6630SOL    HW220790   3.319   1.577   1.770
 6631SOL     OW20791   1.435   5.433   5.213
 6631SOL    HW120792   1.472   5.430   5.120
 6631SOL    HW220793   1.477   5.361   5.268
 6632SOL     OW20794   1.249   0.817   1.267
 6632SOL    HW120795   1.167   0.820   1.325
 6632SOL    HW220796   1.289   0.725   1.272
 6633SOL     OW20797   2.814   5.150   6.145
 6633SOL    HW120798   2.887   5.128   6.081
 6633SOL    HW220799   2.768   5.066   6.174
 6634SOL     OW20800   5.082   2.192   5.525
 6634SOL    HW120801   4.994   2.174   5.480
 6634SOL    HW220802   5.151   2.214   5.456
 6635SOL     OW20803   4.620   4.401   2.595
 6635SOL    HW120804   4.558   4.460   2.647
 6635SOL    HW220805   4.665   4.337   2.657
 6636SOL     OW20806   2.847   0.733   2.138
 6636SOL    HW120807   2.848   0.771   2.046
 6636SOL    HW220808   2.823   0.805   2.203
 6637SOL     OW20809   1.895   0.590   0.575
 6637SOL    HW120810   1.898   0.492   0.557
 6637SOL    HW220811   1.845   0.608   0.659
 6638SOL     OW20812   3.007   3.147   3.352
 6638SOL    HW120813   2.956   3.195   3.280
 6638SOL    HW220814   2.971   3.174   3.442
 6639SOL     OW20815   4.006   3.140   6.969
 6639SOL    HW120816   4.004   3.237   6.993
 6639SOL    HW220817   4.070   3.126   6.894
 6640SOL     OW20818   0.381   2.224   5.364
 6640SOL    HW120819   0.481   2.232   5.363
 6640SOL    HW220820   0.341   2.305   5.407
 6641SOL     OW20821   3.686   1.831   1.174
 6641SOL    HW120822   3.595   1.836   1.215
 6641SOL    HW220823   3.733   1.749   1.209
 6642SOL     OW20824   1.782   5.067   0.047
 6642SOL    HW120825   1.795   5.131   6.990
 6642SOL    HW220826   1.858   5.077   0.111
 6643SOL     OW20827   5.705   6.578   0.466
 6643SOL    HW120828   5.756   6.630   0.397
 6643SOL    HW220829   5.667   6.641   0.533
 6644SOL     OW20830   1.861   6.464   2.749
 6644SOL    HW120831   1.898   6.518   2.824
 6644SOL    HW220832   1.762   6.455   2.761
 6645SOL     OW20833   5.999   2.621   1.015
 6645SOL    HW120834   5.978   2.574   1.101
 6645SOL    HW220835   5.924   2.606   0.950
 6646SOL     OW20836   4.053   0.754   6.584
 6646SOL    HW120837   4.108   0.769   6.667
 6646SOL    HW220838   4.107   0.701   6.518
 6647SOL     OW20839   4.476   5.320   1.314
 6647SOL    HW120840   4.517   5.402   1.355
 6647SOL    HW220841   4.411   5.279   1.379
 6648SOL     OW20842   3.768   6.032   4.864
 6648SOL    HW120843   3.843   6.020   4.930
 6648SOL    HW220844   3.806   6.037   4.772
 6649SOL     OW20845   5.780   2.958   6.342
 6649SOL    HW120846   5.794   3.047   6.386
 6649SOL    HW220847   5.728   2.899   6.405
 6650SOL     OW20848   3.803   0.908   4.829
 6650SOL    HW120849   3.822   0.821   4.875
 6650SOL    HW220850   3.841   0.906   4.737
 6651SOL     OW20851   1.497   1.777   6.921
 6651SOL    HW120852   1.422   1.785   6.987
 6651SOL    HW220853   1.574   1.833   6.950
 6652SOL     OW20854   0.805   4.473   0.074
 6652SOL    HW120855   0.733   4.528   0.034
 6652SOL    HW220856   0.835   4.514   0.160
 6653SOL     OW20857   5.148   2.726   0.405
 6653SOL    HW120858   5.113   2.817   0.381
 6653SOL    HW220859   5.124   2.661   0.332
 6654SOL     OW20860   0.331   5.181   2.844
 6654SOL    HW120861   0.274   5.121   2.901
 6654SOL    HW220862   0.329   5.273   2.882
 6655SOL     OW20863   0.091   6.242   2.029
 6655SOL    HW120864   0.094   6.205   1.936
 6655SOL    HW220865   0.138   6.179   2.091
 6656SOL     OW20866   4.526   1.830   2.669
 6656SOL    HW120867   4.429   1.811   2.658
 6656SOL    HW220868   4.540   1.928   2.681
 6657SOL     OW20869   5.492   2.310   4.863
 6657SOL    HW120870   5.579   2.340   4.902
 6657SOL    HW220871   5.426   2.296   4.936
 6658SOL     OW20872   6.701   0.640   5.424
 6658SOL    HW120873   6.734   0.703   5.494
 6658SOL    HW220874   6.605   0.660   5.403
 6659SOL     OW20875   1.222   4.553   1.556
 6659SOL    HW120876   1.183   4.575   1.467
 6659SOL    HW220877   1.157   4.575   1.629
 6660SOL     OW20878   1.553   5.109   2.199
 6660SOL    HW120879   1.559   5.181   2.268
 6660SOL    HW220880   1.567   5.147   2.108
 6661SOL     OW20881   2.746   0.114   4.598
 6661SOL    HW120882   2.844   0.133   4.599
 6661SOL    HW220883   2.726   0.034   4.654
 6662SOL     OW20884   1.699   0.312   1.419
 6662SOL    HW120885   1.792   0.275   1.420
 6662SOL    HW220886   1.657   0.293   1.330
 6663SOL     OW20887   0.865   6.123   5.624
 6663SOL    HW120888   0.879   6.104   5.721
 6663SOL    HW220889   0.950   6.159   5.585
 6664SOL     OW20890   2.557   0.404   1.698
 6664SOL    HW120891   2.643   0.385   1.746
 6664SOL    HW220892   2.482   0.356   1.744
 6665SOL     OW20893   2.222   6.532   5.806
 6665SOL    HW120894   2.252   6.618   5.847
 6665SOL    HW220895   2.200   6.466   5.878
 6666SOL     OW20896   6.408   5.858   4.834
 6666SOL    HW120897   6.383   5.897   4.923
 6666SOL    HW220898   6.356   5.773   4.819
 6667SOL     OW20899   6.916   6.643   5.935
 6667SOL    HW120900   6.964   6.654   5.848
 6667SOL    HW220901   6.818   6.663   5.922
 6668SOL     OW20902   6.718   6.070   1.243
 6668SOL    HW120903   6.781   6.049   1.168
 6668SOL    HW220904   6.764   6.053   1.330
 6669SOL     OW20905   3.398   1.841   1.790
 6669SOL    HW120906   3.396   1.880   1.698
 6669SOL    HW220907   3.439   1.907   1.853
 6670SOL     OW20908   2.942   1.492   6.761
 6670SOL    HW120909   3.012   1.559   6.734
 6670SOL    HW220910   2.859   1.509   6.708
 6671SOL     OW20911   4.754   6.399   0.940
 6671SOL    HW120912   4.666   6.400   0.893
 6671SOL    HW220913   4.825   6.436   0.879
 6672SOL     OW20914   1.662   2.367   0.504
 6672SOL    HW120915   1.731   2.440   0.507
 6672SOL    HW220916   1.615   2.362   0.592
 6673SOL     OW20917   5.379   3.825   4.439
 6673SOL    HW120918   5.362   3.792   4.532
 6673SOL    HW220919   5.402   3.747   4.380
 6674SOL     OW20920   0.432   2.835   6.512
 6674SOL    HW120921   0.386   2.747   6.500
 6674SOL    HW220922   0.505   2.824   6.580
 6675SOL     OW20923   4.202   2.137   0.076
 6675SOL    HW120924   4.170   2.229   0.099
 6675SOL    HW220925   4.299   2.140   0.054
 6676SOL     OW20926   1.499   4.303   2.610
 6676SOL    HW120927   1.432   4.293   2.537
 6676SOL    HW220928   1.452   4.301   2.698
 6677SOL     OW20929   0.807   0.814   6.786
 6677SOL    HW120930   0.854   0.847   6.868
 6677SOL    HW220931   0.765   0.892   6.739
 6678SOL     OW20932   1.464   3.903   0.633
 6678SOL    HW120933   1.539   3.881   0.696
 6678SOL    HW220934   1.384   3.848   0.659
 6679SOL     OW20935   3.439   0.731   3.847
 6679SOL    HW120936   3.401   0.803   3.788
 6679SOL    HW220937   3.529   0.759   3.878
 6680SOL     OW20938   4.825   6.449   0.063
 6680SOL    HW120939   4.789   6.412   6.996
 6680SOL    HW220940   4.750   6.481   0.120
 6681SOL     OW20941   4.816   5.327   1.841
 6681SOL    HW120942   4.887   5.396   1.852
 6681SOL    HW220943   4.803   5.308   1.744
 6682SOL     OW20944   2.686   4.783   6.724
 6682SOL    HW120945   2.708   4.850   6.795
 6682SOL    HW220946   2.624   4.714   6.762
 6683SOL     OW20947   6.237   3.292   5.917
 6683SOL    HW120948   6.267   3.346   5.995
 6683SOL    HW220949   6.139   3.303   5.905
 6684SOL     OW20950   3.249   6.680   2.237
 6684SOL    HW120951   3.226   6.756   2.177
 6684SOL    HW220952   3.330   6.633   2.202
 6685SOL     OW20953   4.423   3.066   6.321
 6685SOL    HW120954   4.517   3.049   6.292
 6685SOL    HW220955   4.380   3.130   6.256
 6686SOL     OW20956   6.085   5.626   3.095
 6686SOL    HW120957   6.055   5.535   3.124
 6686SOL    HW220958   6.121   5.622   3.002
 6687SOL     OW20959   0.218   2.174   1.276
 6687SOL    HW120960   0.130   2.188   1.322
 6687SOL    HW220961   0.272   2.258   1.280
 6688SOL     OW20962   4.124   3.978   0.680
 6688SOL    HW120963   4.214   4.019   0.663
 6688SOL    HW220964   4.130   3.879   0.667
 6689SOL     OW20965   4.288   4.185   5.646
 6689SOL    HW120966   4.363   4.120   5.659
 6689SOL    HW220967   4.317   4.276   5.674
 6690SOL     OW20968   1.483   6.754   6.518
 6690SOL    HW120969   1.401   6.787   6.566
 6690SOL    HW220970   1.457   6.723   6.426
 6691SOL     OW20971   1.181   0.428   2.550
 6691SOL    HW120972   1.251   0.461   2.614
 6691SOL    HW220973   1.224   0.404   2.463
 6692SOL     OW20974   4.131   4.049   1.517
 6692SOL    HW120975   4.098   3.963   1.557
 6692SOL    HW220976   4.218   4.074   1.560
 6693SOL     OW20977   4.545   1.947   4.338
 6693SOL    HW120978   4.622   1.924   4.278
 6693SOL    HW220979   4.497   2.026   4.301
 6694SOL     OW20980   3.498   5.205   1.143
 6694SOL    HW120981   3.563   5.159   1.083
 6694SOL    HW220982   3.502   5.304   1.128
 6695SOL     OW20983   2.298   1.792   7.012
 6695SOL    HW120984   2.238   1.870   6.992
 6695SOL    HW220985   2.353   1.770   6.931
 6696SOL     OW20986   4.014   3.827   3.941
 6696SOL    HW120987   4.049   3.887   4.012
 6696SOL    HW220988   4.049   3.734   3.954
 6697SOL     OW20989   5.456   2.527   2.717
 6697SOL    HW120990   5.372   2.543   2.665
 6697SOL    HW220991   5.527   2.589   2.685
 6698SOL     OW20992   2.867   3.344   1.423
 6698SOL    HW120993   2.900   3.368   1.332
 6698SOL    HW220994   2.772   3.314   1.417
 6699SOL     OW20995   1.832   5.551   5.855
 6699SOL    HW120996   1.814   5.481   5.786
 6699SOL    HW220997   1.911   5.524   5.911
 6700SOL     OW20998   5.827   0.820   0.666
 6700SOL    HW120999   5.732   0.795   0.686
 6700SOL    HW221000   5.881   0.736   0.654
 6701SOL     OW21001   5.935   6.922   1.661
 6701SOL    HW121002   6.011   6.891   1.720
 6701SOL    HW221003   5.971   6.981   1.589
 6702SOL     OW21004   2.336   2.220   1.568
 6702SOL    HW121005   2.429   2.205   1.601
 6702SOL    HW221006   2.339   2.241   1.470
 6703SOL     OW21007   1.052   0.924   6.554
 6703SOL    HW121008   1.108   0.875   6.620
 6703SOL    HW221009   1.025   0.861   6.481
 6704SOL     OW21010   3.638   1.215   4.296
 6704SOL    HW121011   3.649   1.275   4.217
 6704SOL    HW221012   3.542   1.191   4.307
 6705SOL     OW21013   5.986   2.977   0.818
 6705SOL    HW121014   5.981   2.924   0.733
 6705SOL    HW221015   5.937   2.928   0.890
 6706SOL     OW21016   1.220   5.749   0.713
 6706SOL    HW121017   1.159   5.828   0.729
 6706SOL    HW221018   1.183   5.669   0.760
 6707SOL     OW21019   5.020   0.348   2.418
 6707SOL    HW121020   5.002   0.425   2.479
 6707SOL    HW221021   4.933   0.311   2.386
 6708SOL     OW21022   6.042   4.848   1.840
 6708SOL    HW121023   5.962   4.892   1.880
 6708SOL    HW221024   6.040   4.858   1.740
 6709SOL     OW21025   0.900   4.465   2.611
 6709SOL    HW121026   0.894   4.417   2.524
 6709SOL    HW221027   0.889   4.399   2.686
 6710SOL     OW21028   4.695   1.494   1.862
 6710SOL    HW121029   4.604   1.518   1.831
 6710SOL    HW221030   4.695   1.483   1.961
 6711SOL     OW21031   4.726   6.412   5.950
 6711SOL    HW121032   4.784   6.372   6.020
 6711SOL    HW221033   4.768   6.400   5.860
 6712SOL     OW21034   6.036   3.585   0.749
 6712SOL    HW121035   6.090   3.593   0.666
 6712SOL    HW221036   5.944   3.620   0.732
 6713SOL     OW21037   1.409   1.418   3.385
 6713SOL    HW121038   1.335   1.353   3.403
 6713SOL    HW221039   1.373   1.511   3.388
 6714SOL     OW21040   5.965   1.366   0.829
 6714SOL    HW121041   5.996   1.300   0.898
 6714SOL    HW221042   5.899   1.323   0.768
 6715SOL     OW21043   1.687   1.095   1.497
 6715SOL    HW121044   1.608   1.081   1.437
 6715SOL    HW221045   1.662   1.073   1.591
 6716SOL     OW21046   6.401   5.739   2.549
 6716SOL    HW121047   6.489   5.700   2.522
 6716SOL    HW221048   6.327   5.679   2.518
 6717SOL     OW21049   2.703   2.332   6.314
 6717SOL    HW121050   2.790   2.314   6.267
 6717SOL    HW221051   2.661   2.413   6.276
 6718SOL     OW21052   4.469   1.613   0.611
 6718SOL    HW121053   4.405   1.578   0.542
 6718SOL    HW221054   4.432   1.696   0.652
 6719SOL     OW21055   1.929   6.631   0.212
 6719SOL    HW121056   2.024   6.626   0.242
 6719SOL    HW221057   1.919   6.703   0.144
 6720SOL     OW21058   2.831   0.823   4.974
 6720SOL    HW121059   2.833   0.854   5.069
 6720SOL    HW221060   2.923   0.795   4.946
 6721SOL     OW21061   6.968   0.264   0.860
 6721SOL    HW121062   6.998   0.168   0.853
 6721SOL    HW221063   6.875   0.272   0.825
 6722SOL     OW21064   0.544   2.549   0.590
 6722SOL    HW121065   0.607   2.561   0.513
 6722SOL    HW221066   0.517   2.453   0.597
 6723SOL     OW21067   2.044   0.219   6.784
 6723SOL    HW121068   2.134   0.186   6.815
 6723SOL    HW221069   2.051   0.245   6.688
 6724SOL     OW21070   2.421   2.609   6.299
 6724SOL    HW121071   2.490   2.565   6.241
 6724SOL    HW221072   2.338   2.553   6.299
 6725SOL     OW21073   6.005   3.118   2.951
 6725SOL    HW121074   6.077   3.186   2.941
 6725SOL    HW221075   5.993   3.095   3.048
 6726SOL     OW21076   0.388   2.030   4.728
 6726SOL    HW121077   0.397   2.120   4.686
 6726SOL    HW221078   0.300   2.024   4.775
 6727SOL     OW21079   1.002   4.068   5.835
 6727SOL    HW121080   0.982   4.085   5.931
 6727SOL    HW221081   0.964   4.142   5.780
 6728SOL     OW21082   3.658   1.857   3.256
 6728SOL    HW121083   3.634   1.928   3.190
 6728SOL    HW221084   3.581   1.840   3.317
 6729SOL     OW21085   6.605   2.033   6.876
 6729SOL    HW121086   6.620   2.076   6.965
 6729SOL    HW221087   6.608   2.103   6.804
 6730SOL     OW21088   1.446   0.606   1.267
 6730SOL    HW121089   1.452   0.632   1.363
 6730SOL    HW221090   1.517   0.654   1.215
 6731SOL     OW21091   1.592   6.243   1.051
 6731SOL    HW121092   1.517   6.288   1.001
 6731SOL    HW221093   1.672   6.236   0.991
 6732SOL     OW21094   5.243   4.177   4.372
 6732SOL    HW121095   5.342   4.189   4.383
 6732SOL    HW221096   5.225   4.090   4.328
 6733SOL     OW21097   3.952   5.210   6.529
 6733SOL    HW121098   3.983   5.242   6.618
 6733SOL    HW221099   3.929   5.113   6.534
 6734SOL     OW21100   5.329   2.002   5.852
 6734SOL    HW121101   5.305   2.059   5.931
 6734SOL    HW221102   5.360   2.061   5.777
 6735SOL     OW21103   5.923   4.116   4.113
 6735SOL    HW121104   5.829   4.145   4.129
 6735SOL    HW221105   5.967   4.177   4.047
 6736SOL     OW21106   3.263   4.034   6.826
 6736SOL    HW121107   3.323   3.977   6.883
 6736SOL    HW221108   3.168   4.025   6.858
 6737SOL     OW21109   0.620   2.666   1.058
 6737SOL    HW121110   0.640   2.710   0.970
 6737SOL    HW221111   0.542   2.711   1.100
 6738SOL     OW21112   1.706   5.771   3.859
 6738SOL    HW121113   1.763   5.843   3.821
 6738SOL    HW221114   1.707   5.692   3.797
 6739SOL     OW21115   6.546   6.108   3.910
 6739SOL    HW121116   6.469   6.064   3.957
 6739SOL    HW221117   6.630   6.092   3.961
 6740SOL     OW21118   6.404   6.669   4.534
 6740SOL    HW121119   6.367   6.761   4.549
 6740SOL    HW221120   6.357   6.604   4.594
 6741SOL     OW21121   3.987   2.152   6.020
 6741SOL    HW121122   3.912   2.099   5.980
 6741SOL    HW221123   4.071   2.099   6.015
 6742SOL     OW21124   5.964   5.654   3.685
 6742SOL    HW121125   5.941   5.594   3.608
 6742SOL    HW221126   5.881   5.695   3.722
 6743SOL     OW21127   3.941   4.027   6.603
 6743SOL    HW121128   3.862   3.973   6.634
 6743SOL    HW221129   4.004   4.041   6.678
 6744SOL     OW21130   0.073   6.394   5.979
 6744SOL    HW121131   0.123   6.381   6.065
 6744SOL    HW221132   7.009   6.447   5.997
 6745SOL     OW21133   6.861   6.182   3.626
 6745SOL    HW121134   6.796   6.106   3.622
 6745SOL    HW221135   6.953   6.147   3.641
 6746SOL     OW21136   1.628   0.729   2.591
 6746SOL    HW121137   1.607   0.768   2.681
 6746SOL    HW221138   1.714   0.768   2.558
 6747SOL     OW21139   6.041   6.757   6.407
 6747SOL    HW121140   6.120   6.735   6.350
 6747SOL    HW221141   6.048   6.851   6.441
 6748SOL     OW21142   2.747   2.045   3.848
 6748SOL    HW121143   2.787   1.982   3.781
 6748SOL    HW221144   2.815   2.115   3.873
 6749SOL     OW21145   3.964   4.350   0.878
 6749SOL    HW121146   4.058   4.385   0.874
 6749SOL    HW221147   3.906   4.416   0.926
 6750SOL     OW21148   2.913   1.724   4.057
 6750SOL    HW121149   2.901   1.820   4.031
 6750SOL    HW221150   2.834   1.671   4.026
 6751SOL     OW21151   4.815   0.619   3.509
 6751SOL    HW121152   4.901   0.670   3.505
 6751SOL    HW221153   4.826   0.532   3.462
 6752SOL     OW21154   1.921   0.159   3.942
 6752SOL    HW121155   1.949   0.083   3.884
 6752SOL    HW221156   1.828   0.188   3.917
 6753SOL     OW21157   3.149   1.983   5.855
 6753SOL    HW121158   3.067   1.927   5.846
 6753SOL    HW221159   3.182   2.011   5.765
 6754SOL     OW21160   6.120   0.874   1.468
 6754SOL    HW121161   6.028   0.890   1.504
 6754SOL    HW221162   6.129   0.918   1.378
 6755SOL     OW21163   3.515   4.237   1.357
 6755SOL    HW121164   3.573   4.242   1.439
 6755SOL    HW221165   3.469   4.324   1.343
 6756SOL     OW21166   3.574   0.544   5.603
 6756SOL    HW121167   3.629   0.461   5.595
 6756SOL    HW221168   3.486   0.531   5.557
 6757SOL     OW21169   4.005   1.497   1.642
 6757SOL    HW121170   3.986   1.418   1.699
 6757SOL    HW221171   4.044   1.570   1.698
 6758SOL     OW21172   6.189   3.159   1.672
 6758SOL    HW121173   6.269   3.153   1.613
 6758SOL    HW221174   6.116   3.207   1.625
 6759SOL     OW21175   6.925   3.051   3.082
 6759SOL    HW121176   6.862   3.001   3.022
 6759SOL    HW221177   7.018   3.017   3.068
 6760SOL     OW21178   6.137   3.692   2.064
 6760SOL    HW121179   6.082   3.634   2.004
 6760SOL    HW221180   6.209   3.736   2.010
 6761SOL     OW21181   5.174   2.827   5.110
 6761SOL    HW121182   5.239   2.774   5.055
 6761SOL    HW221183   5.146   2.908   5.059
 6762SOL     OW21184   0.271   4.727   4.593
 6762SOL    HW121185   0.286   4.746   4.691
 6762SOL    HW221186   0.229   4.807   4.550
 6763SOL     OW21187   4.939   5.262   4.717
 6763SOL    HW121188   4.938   5.163   4.728
 6763SOL    HW221189   4.858   5.302   4.759
 6764SOL     OW21190   2.038   5.681   2.212
 6764SOL    HW121191   2.108   5.746   2.186
 6764SOL    HW221192   1.950   5.709   2.174
 6765SOL     OW21193   6.367   4.239   3.140
 6765SOL    HW121194   6.349   4.268   3.234
 6765SOL    HW221195   6.338   4.145   3.128
 6766SOL     OW21196   4.992   6.227   5.795
 6766SOL    HW121197   5.047   6.151   5.829
 6766SOL    HW221198   4.939   6.196   5.716
 6767SOL     OW21199   3.210   0.355   1.390
 6767SOL    HW121200   3.163   0.413   1.324
 6767SOL    HW221201   3.277   0.409   1.441
 6768SOL     OW21202   2.071   0.241   5.724
 6768SOL    HW121203   2.053   0.267   5.629
 6768SOL    HW221204   2.120   0.315   5.770
 6769SOL     OW21205   2.979   1.832   1.040
 6769SOL    HW121206   2.923   1.875   0.969
 6769SOL    HW221207   3.075   1.835   1.013
 6770SOL     OW21208   6.775   1.027   1.737
 6770SOL    HW121209   6.847   1.013   1.805
 6770SOL    HW221210   6.789   1.115   1.692
 6771SOL     OW21211   4.804   2.816   3.619
 6771SOL    HW121212   4.853   2.877   3.556
 6771SOL    HW221213   4.777   2.867   3.701
 6772SOL     OW21214   3.473   0.880   3.518
 6772SOL    HW121215   3.562   0.844   3.490
 6772SOL    HW221216   3.401   0.838   3.464
 6773SOL     OW21217   6.851   5.445   1.753
 6773SOL    HW121218   6.797   5.394   1.686
 6773SOL    HW221219   6.850   5.396   1.841
 6774SOL     OW21220   0.653   2.301   5.726
 6774SOL    HW121221   0.631   2.378   5.666
 6774SOL    HW221222   0.728   2.327   5.787
 6775SOL     OW21223   2.654   3.053   1.620
 6775SOL    HW121224   2.733   3.051   1.681
 6775SOL    HW221225   2.601   3.137   1.636
 6776SOL     OW21226   4.336   4.515   6.724
 6776SOL    HW121227   4.402   4.476   6.789
 6776SOL    HW221228   4.342   4.614   6.725
 6777SOL     OW21229   4.095   3.810   6.810
 6777SOL    HW121230   4.023   3.783   6.746
 6777SOL    HW221231   4.161   3.736   6.819
 6778SOL     OW21232   6.227   4.653   2.328
 6778SOL    HW121233   6.312   4.675   2.279
 6778SOL    HW221234   6.239   4.569   2.380
 6779SOL     OW21235   6.722   5.094   5.703
 6779SOL    HW121236   6.774   5.059   5.780
 6779SOL    HW221237   6.625   5.103   5.729
 6780SOL     OW21238   1.250   2.205   2.443
 6780SOL    HW121239   1.340   2.178   2.410
 6780SOL    HW221240   1.207   2.127   2.490
 6781SOL     OW21241   5.681   0.120   4.849
 6781SOL    HW121242   5.764   0.154   4.893
 6781SOL    HW221243   5.638   0.051   4.908
 6782SOL     OW21244   0.336   0.207   3.488
 6782SOL    HW121245   0.423   0.191   3.536
 6782SOL    HW221246   0.264   0.228   3.554
 6783SOL     OW21247   6.285   0.958   6.460
 6783SOL    HW121248   6.241   0.870   6.474
 6783SOL    HW221249   6.304   1.001   6.548
 6784SOL     OW21250   3.260   3.361   0.389
 6784SOL    HW121251   3.215   3.278   0.423
 6784SOL    HW221252   3.357   3.342   0.373
 6785SOL     OW21253   5.404   4.801   2.623
 6785SOL    HW121254   5.432   4.787   2.528
 6785SOL    HW221255   5.401   4.712   2.670
 6786SOL     OW21256   1.559   1.915   0.273
 6786SOL    HW121257   1.471   1.935   0.231
 6786SOL    HW221258   1.566   1.961   0.361
 6787SOL     OW21259   1.488   2.893   1.063
 6787SOL    HW121260   1.576   2.900   1.016
 6787SOL    HW221261   1.453   2.985   1.082
 6788SOL     OW21262   2.516   3.299   1.685
 6788SOL    HW121263   2.600   3.301   1.739
 6788SOL    HW221264   2.442   3.342   1.737
 6789SOL     OW21265   6.838   6.297   2.957
 6789SOL    HW121266   6.833   6.198   2.965
 6789SOL    HW221267   6.771   6.328   2.890
 6790SOL     OW21268   1.481   3.851   1.041
 6790SOL    HW121269   1.526   3.839   0.953
 6790SOL    HW221270   1.471   3.763   1.086
 6791SOL     OW21271   4.440   2.722   1.588
 6791SOL    HW121272   4.394   2.671   1.661
 6791SOL    HW221273   4.425   2.820   1.601
 6792SOL     OW21274   6.756   6.221   6.047
 6792SOL    HW121275   6.793   6.237   5.956
 6792SOL    HW221276   6.660   6.193   6.040
 6793SOL     OW21277   1.101   2.022   0.258
 6793SOL    HW121278   1.059   1.931   0.249
 6793SOL    HW221279   1.030   2.091   0.267
 6794SOL     OW21280   4.845   1.704   5.689
 6794SOL    HW121281   4.910   1.779   5.690
 6794SOL    HW221282   4.854   1.650   5.773
 6795SOL     OW21283   2.617   6.587   0.744
 6795SOL    HW121284   2.581   6.630   0.662
 6795SOL    HW221285   2.651   6.495   0.722
 6796SOL     OW21286   6.041   0.739   2.206
 6796SOL    HW121287   5.958   0.783   2.240
 6796SOL    HW221288   6.121   0.779   2.250
 6797SOL     OW21289   5.547   3.790   1.556
 6797SOL    HW121290   5.606   3.726   1.506
 6797SOL    HW221291   5.537   3.759   1.650
 6798SOL     OW21292   5.442   6.109   2.845
 6798SOL    HW121293   5.527   6.125   2.896
 6798SOL    HW221294   5.443   6.163   2.761
 6799SOL     OW21295   6.525   5.793   0.086
 6799SOL    HW121296   6.504   5.853   0.163
 6799SOL    HW221297   6.550   5.848   0.006
 6800SOL     OW21298   2.199   3.984   1.251
 6800SOL    HW121299   2.274   3.988   1.317
 6800SOL    HW221300   2.235   3.996   1.158
 6801SOL     OW21301   0.883   0.651   2.945
 6801SOL    HW121302   0.940   0.615   2.871
 6801SOL    HW221303   0.940   0.702   3.010
 6802SOL     OW21304   3.152   5.804   0.219
 6802SOL    HW121305   3.096   5.832   0.140
 6802SOL    HW221306   3.233   5.756   0.186
 6803SOL     OW21307   5.039   2.699   6.447
 6803SOL    HW121308   5.110   2.759   6.485
 6803SOL    HW221309   4.990   2.655   6.522
 6804SOL     OW21310   2.636   5.253   3.361
 6804SOL    HW121311   2.567   5.285   3.426
 6804SOL    HW221312   2.727   5.278   3.395
 6805SOL     OW21313   5.677   5.600   5.229
 6805SOL    HW121314   5.601   5.664   5.214
 6805SOL    HW221315   5.678   5.571   5.324
 6806SOL     OW21316   5.758   0.756   3.458
 6806SOL    HW121317   5.812   0.802   3.529
 6806SOL    HW221318   5.781   0.795   3.369
 6807SOL     OW21319   3.171   2.570   0.581
 6807SOL    HW121320   3.233   2.495   0.557
 6807SOL    HW221321   3.187   2.597   0.676
 6808SOL     OW21322   0.117   1.807   5.472
 6808SOL    HW121323   0.131   1.906   5.475
 6808SOL    HW221324   0.193   1.764   5.422
 6809SOL     OW21325   1.156   3.202   1.651
 6809SOL    HW121326   1.124   3.141   1.723
 6809SOL    HW221327   1.090   3.202   1.576
 6810SOL     OW21328   1.767   0.305   1.944
 6810SOL    HW121329   1.716   0.372   1.998
 6810SOL    HW221330   1.774   0.335   1.849
 6811SOL     OW21331   4.968   3.882   0.290
 6811SOL    HW121332   5.018   3.919   0.368
 6811SOL    HW221333   4.902   3.814   0.322
 6812SOL     OW21334   3.371   3.252   3.637
 6812SOL    HW121335   3.272   3.247   3.649
 6812SOL    HW221336   3.416   3.198   3.708
 6813SOL     OW21337   4.960   2.364   2.226
 6813SOL    HW121338   5.052   2.383   2.191
 6813SOL    HW221339   4.900   2.441   2.205
 6814SOL     OW21340   3.104   2.125   0.359
 6814SOL    HW121341   3.137   2.082   0.443
 6814SOL    HW221342   3.064   2.056   0.299
 6815SOL     OW21343   2.986   6.990   1.370
 6815SOL    HW121344   2.930   0.024   1.434
 6815SOL    HW221345   2.951   6.896   1.364
 6816SOL     OW21346   0.243   6.882   6.628
 6816SOL    HW121347   0.317   6.877   6.560
 6816SOL    HW221348   0.280   6.917   6.714
 6817SOL     OW21349   0.886   2.093   4.721
 6817SOL    HW121350   0.985   2.093   4.707
 6817SOL    HW221351   0.853   2.187   4.721
 6818SOL     OW21352   3.029   5.297   1.885
 6818SOL    HW121353   2.987   5.207   1.874
 6818SOL    HW221354   2.962   5.369   1.866
 6819SOL     OW21355   4.909   1.136   4.376
 6819SOL    HW121356   4.881   1.227   4.409
 6819SOL    HW221357   4.943   1.082   4.453
 6820SOL     OW21358   0.913   5.736   3.002
 6820SOL    HW121359   0.983   5.807   2.988
 6820SOL    HW221360   0.952   5.646   2.980
 6821SOL     OW21361   3.213   0.826   5.296
 6821SOL    HW121362   3.241   0.835   5.200
 6821SOL    HW221363   3.281   0.773   5.346
 6822SOL     OW21364   5.964   2.373   5.961
 6822SOL    HW121365   5.981   2.471   5.948
 6822SOL    HW221366   6.051   2.326   5.971
 6823SOL     OW21367   3.566   3.366   4.272
 6823SOL    HW121368   3.623   3.421   4.334
 6823SOL    HW221369   3.512   3.427   4.214
 6824SOL     OW21370   1.158   3.065   6.098
 6824SOL    HW121371   1.181   3.028   6.188
 6824SOL    HW221372   1.213   3.020   6.028
 6825SOL     OW21373   5.013   6.371   2.357
 6825SOL    HW121374   4.957   6.438   2.406
 6825SOL    HW221375   4.959   6.288   2.341
 6826SOL     OW21376   2.222   4.068   2.673
 6826SOL    HW121377   2.255   4.013   2.596
 6826SOL    HW221378   2.223   4.013   2.756
 6827SOL     OW21379   4.505   5.694   6.962
 6827SOL    HW121380   4.595   5.717   6.925
 6827SOL    HW221381   4.449   5.652   6.890
 6828SOL     OW21382   2.873   1.621   1.898
 6828SOL    HW121383   2.902   1.531   1.930
 6828SOL    HW221384   2.929   1.691   1.942
 6829SOL     OW21385   4.971   6.784   4.195
 6829SOL    HW121386   5.059   6.738   4.202
 6829SOL    HW221387   4.963   6.830   4.107
 6830SOL     OW21388   5.248   1.483   3.874
 6830SOL    HW121389   5.328   1.471   3.933
 6830SOL    HW221390   5.169   1.439   3.917
 6831SOL     OW21391   1.198   0.478   6.265
 6831SOL    HW121392   1.190   0.427   6.351
 6831SOL    HW221393   1.278   0.538   6.271
 6832SOL     OW21394   2.996   3.922   1.104
 6832SOL    HW121395   2.936   3.843   1.115
 6832SOL    HW221396   3.046   3.938   1.190
 6833SOL     OW21397   4.618   4.794   6.472
 6833SOL    HW121398   4.661   4.705   6.484
 6833SOL    HW221399   4.533   4.797   6.524
 6834SOL     OW21400   5.375   6.792   1.318
 6834SOL    HW121401   5.283   6.769   1.351
 6834SOL    HW221402   5.443   6.756   1.382
 6835SOL     OW21403   3.801   0.162   4.988
 6835SOL    HW121404   3.872   0.226   4.960
 6835SOL    HW221405   3.841   0.090   5.045
 6836SOL     OW21406   3.068   5.635   0.395
 6836SOL    HW121407   3.104   5.699   0.327
 6836SOL    HW221408   2.979   5.601   0.364
 6837SOL     OW21409   1.600   1.788   1.862
 6837SOL    HW121410   1.695   1.816   1.877
 6837SOL    HW221411   1.549   1.798   1.947
 6838SOL     OW21412   2.464   5.957   0.821
 6838SOL    HW121413   2.374   5.914   0.820
 6838SOL    HW221414   2.472   6.020   0.744
 6839SOL     OW21415   5.133   0.754   6.670
 6839SOL    HW121416   5.127   0.672   6.612
 6839SOL    HW221417   5.088   0.830   6.624
 6840SOL     OW21418   3.048   1.875   4.805
 6840SOL    HW121419   3.068   1.966   4.768
 6840SOL    HW221420   3.078   1.870   4.900
 6841SOL     OW21421   5.348   4.185   6.283
 6841SOL    HW121422   5.295   4.126   6.344
 6841SOL    HW221423   5.445   4.177   6.305
 6842SOL     OW21424   3.019   4.376   1.080
 6842SOL    HW121425   2.972   4.305   1.132
 6842SOL    HW221426   3.044   4.340   0.991
 6843SOL     OW21427   5.347   6.472   0.357
 6843SOL    HW121428   5.372   6.470   0.454
 6843SOL    HW221429   5.328   6.567   0.330
 6844SOL     OW21430   5.521   0.995   4.201
 6844SOL    HW121431   5.503   0.995   4.103
 6844SOL    HW221432   5.506   1.086   4.238
 6845SOL     OW21433   6.076   3.460   3.259
 6845SOL    HW121434   6.135   3.499   3.330
 6845SOL    HW221435   6.130   3.440   3.177
 6846SOL     OW21436   3.762   3.732   0.092
 6846SOL    HW121437   3.748   3.757   0.188
 6846SOL    HW221438   3.781   3.634   0.085
 6847SOL     OW21439   0.284   3.954   5.334
 6847SOL    HW121440   0.314   3.870   5.290
 6847SOL    HW221441   0.203   3.936   5.390
 6848SOL     OW21442   5.366   4.410   3.202
 6848SOL    HW121443   5.461   4.391   3.178
 6848SOL    HW221444   5.363   4.489   3.263
 6849SOL     OW21445   4.052   4.038   5.669
 6849SOL    HW121446   4.061   3.959   5.609
 6849SOL    HW221447   4.136   4.092   5.666
 6850SOL     OW21448   5.298   3.059   2.897
 6850SOL    HW121449   5.391   3.092   2.913
 6850SOL    HW221450   5.243   3.132   2.857
 6851SOL     OW21451   1.098   2.167   2.748
 6851SOL    HW121452   1.063   2.188   2.840
 6851SOL    HW221453   1.183   2.217   2.732
 6852SOL     OW21454   2.994   4.656   0.894
 6852SOL    HW121455   2.962   4.572   0.850
 6852SOL    HW221456   2.916   4.709   0.927
 6853SOL     OW21457   5.391   4.440   6.381
 6853SOL    HW121458   5.491   4.438   6.385
 6853SOL    HW221459   5.359   4.372   6.315
 6854SOL     OW21460   5.637   7.010   5.874
 6854SOL    HW121461   5.584   6.954   5.810
 6854SOL    HW221462   5.707   6.953   5.917
 6855SOL     OW21463   4.363   5.990   3.411
 6855SOL    HW121464   4.391   5.894   3.411
 6855SOL    HW221465   4.306   6.009   3.491
 6856SOL     OW21466   0.690   1.979   5.160
 6856SOL    HW121467   0.741   1.930   5.090
 6856SOL    HW221468   0.599   1.940   5.170
 6857SOL     OW21469   1.005   3.195   6.628
 6857SOL    HW121470   1.013   3.180   6.727
 6857SOL    HW221471   1.014   3.292   6.608
 6858SOL     OW21472   3.690   4.112   1.887
 6858SOL    HW121473   3.668   4.097   1.983
 6858SOL    HW221474   3.620   4.171   1.846
 6859SOL     OW21475   0.120   0.816   1.518
 6859SOL    HW121476   0.148   0.847   1.427
 6859SOL    HW221477   0.142   0.719   1.529
 6860SOL     OW21478   6.696   4.496   1.333
 6860SOL    HW121479   6.683   4.509   1.431
 6860SOL    HW221480   6.787   4.527   1.307
 6861SOL     OW21481   5.009   4.130   6.272
 6861SOL    HW121482   4.981   4.116   6.177
 6861SOL    HW221483   5.003   4.044   6.322
 6862SOL     OW21484   0.047   4.855   5.471
 6862SOL    HW121485   0.067   4.948   5.501
 6862SOL    HW221486   0.042   4.852   5.371
 6863SOL     OW21487   6.299   6.271   5.735
 6863SOL    HW121488   6.376   6.255   5.673
 6863SOL    HW221489   6.225   6.207   5.715
 6864SOL     OW21490   2.145   4.595   5.018
 6864SOL    HW121491   2.122   4.635   4.929
 6864SOL    HW221492   2.191   4.508   5.004
 6865SOL     OW21493   1.310   0.198   5.373
 6865SOL    HW121494   1.334   0.143   5.452
 6865SOL    HW221495   1.393   0.228   5.327
 6866SOL     OW21496   5.839   4.420   2.498
 6866SOL    HW121497   5.898   4.464   2.565
 6866SOL    HW221498   5.837   4.322   2.514
 6867SOL     OW21499   1.919   3.546   1.184
 6867SOL    HW121500   1.954   3.638   1.202
 6867SOL    HW221501   1.986   3.495   1.130
 6868SOL     OW21502   2.238   6.815   5.134
 6868SOL    HW121503   2.286   6.902   5.137
 6868SOL    HW221504   2.304   6.740   5.145
 6869SOL     OW21505   4.865   1.108   5.789
 6869SOL    HW121506   4.889   1.206   5.793
 6869SOL    HW221507   4.767   1.099   5.770
 6870SOL     OW21508   0.297   4.064   1.331
 6870SOL    HW121509   0.345   4.146   1.299
 6870SOL    HW221510   0.198   4.080   1.327
 6871SOL     OW21511   6.436   3.912   2.508
 6871SOL    HW121512   6.515   3.971   2.494
 6871SOL    HW221513   6.468   3.821   2.537
 6872SOL     OW21514   0.459   3.008   1.939
 6872SOL    HW121515   0.546   3.032   1.896
 6872SOL    HW221516   0.391   3.077   1.917
 6873SOL     OW21517   0.939   4.010   3.970
 6873SOL    HW121518   0.848   4.042   3.943
 6873SOL    HW221519   0.934   3.965   4.059
 6874SOL     OW21520   6.593   5.670   3.805
 6874SOL    HW121521   6.613   5.768   3.798
 6874SOL    HW221522   6.495   5.656   3.796
 6875SOL     OW21523   2.392   1.950   2.275
 6875SOL    HW121524   2.432   1.984   2.360
 6875SOL    HW221525   2.460   1.956   2.202
 6876SOL     OW21526   3.410   6.879   3.536
 6876SOL    HW121527   3.406   6.869   3.437
 6876SOL    HW221528   3.452   6.798   3.577
 6877SOL     OW21529   3.189   4.172   1.709
 6877SOL    HW121530   3.138   4.254   1.684
 6877SOL    HW221531   3.140   4.122   1.781
 6878SOL     OW21532   2.596   2.086   3.405
 6878SOL    HW121533   2.527   2.149   3.440
 6878SOL    HW221534   2.597   2.003   3.460
 6879SOL     OW21535   2.467   2.463   0.271
 6879SOL    HW121536   2.386   2.520   0.258
 6879SOL    HW221537   2.447   2.370   0.240
 6880SOL     OW21538   0.721   6.432   5.942
 6880SOL    HW121539   0.696   6.525   5.969
 6880SOL    HW221540   0.815   6.431   5.908
 6881SOL     OW21541   1.593   3.119   1.606
 6881SOL    HW121542   1.593   3.037   1.663
 6881SOL    HW221543   1.637   3.194   1.656
 6882SOL     OW21544   2.935   1.095   0.643
 6882SOL    HW121545   2.956   1.087   0.740
 6882SOL    HW221546   2.866   1.165   0.629
 6883SOL     OW21547   4.988   1.320   6.253
 6883SOL    HW121548   5.058   1.253   6.276
 6883SOL    HW221549   5.022   1.412   6.271
 6884SOL     OW21550   1.748   4.322   3.213
 6884SOL    HW121551   1.681   4.291   3.280
 6884SOL    HW221552   1.705   4.390   3.152
 6885SOL     OW21553   4.991   5.116   3.887
 6885SOL    HW121554   4.970   5.190   3.952
 6885SOL    HW221555   4.905   5.079   3.851
 6886SOL     OW21556   0.082   1.311   4.762
 6886SOL    HW121557   0.091   1.352   4.671
 6886SOL    HW221558   7.015   1.340   4.803
 6887SOL     OW21559   4.342   5.754   0.257
 6887SOL    HW121560   4.374   5.663   0.233
 6887SOL    HW221561   4.299   5.797   0.178
 6888SOL     OW21562   5.554   4.727   6.440
 6888SOL    HW121563   5.468   4.712   6.392
 6888SOL    HW221564   5.541   4.797   6.511
 6889SOL     OW21565   1.680   2.468   5.688
 6889SOL    HW121566   1.733   2.552   5.700
 6889SOL    HW221567   1.584   2.486   5.708
 6890SOL     OW21568   3.773   5.831   3.066
 6890SOL    HW121569   3.868   5.803   3.055
 6890SOL    HW221570   3.713   5.751   3.059
 6891SOL     OW21571   1.893   3.151   1.363
 6891SOL    HW121572   1.826   3.166   1.290
 6891SOL    HW221573   1.925   3.239   1.397
 6892SOL     OW21574   3.191   1.247   3.644
 6892SOL    HW121575   3.212   1.153   3.672
 6892SOL    HW221576   3.273   1.303   3.652
 6893SOL     OW21577   5.709   3.533   0.471
 6893SOL    HW121578   5.733   3.437   0.463
 6893SOL    HW221579   5.684   3.554   0.566
 6894SOL     OW21580   6.215   5.095   1.134
 6894SOL    HW121581   6.197   5.155   1.056
 6894SOL    HW221582   6.230   5.150   1.216
 6895SOL     OW21583   2.165   5.488   1.133
 6895SOL    HW121584   2.074   5.449   1.118
 6895SOL    HW221585   2.201   5.456   1.220
 6896SOL     OW21586   2.550   1.943   4.033
 6896SOL    HW121587   2.631   1.960   3.977
 6896SOL    HW221588   2.569   1.868   4.097
 6897SOL     OW21589   4.813   3.837   5.184
 6897SOL    HW121590   4.798   3.750   5.136
 6897SOL    HW221591   4.847   3.905   5.119
 6898SOL     OW21592   3.465   1.270   1.338
 6898SOL    HW121593   3.370   1.240   1.345
 6898SOL    HW221594   3.474   1.337   1.264
 6899SOL     OW21595   4.641   6.345   2.433
 6899SOL    HW121596   4.693   6.260   2.423
 6899SOL    HW221597   4.703   6.423   2.430
 6900SOL     OW21598   0.014   4.249   5.376
 6900SOL    HW121599   7.013   4.344   5.352
 6900SOL    HW221600   6.964   4.189   5.336
 6901SOL     OW21601   5.340   5.890   6.067
 6901SOL    HW121602   5.416   5.897   6.002
 6901SOL    HW221603   5.374   5.905   6.160
 6902SOL     OW21604   6.474   6.217   5.269
 6902SOL    HW121605   6.543   6.177   5.330
 6902SOL    HW221606   6.508   6.304   5.233
 6903SOL     OW21607   3.098   4.994   5.095
 6903SOL    HW121608   3.153   4.916   5.124
 6903SOL    HW221609   3.024   4.962   5.036
 6904SOL     OW21610   6.541   6.926   6.108
 6904SOL    HW121611   6.464   6.982   6.077
 6904SOL    HW221612   6.513   6.869   6.185
 6905SOL     OW21613   5.317   5.345   6.824
 6905SOL    HW121614   5.354   5.257   6.853
 6905SOL    HW221615   5.258   5.382   6.896
 6906SOL     OW21616   3.270   1.305   3.311
 6906SOL    HW121617   3.368   1.282   3.305
 6906SOL    HW221618   3.255   1.366   3.389
 6907SOL     OW21619   6.518   2.588   1.961
 6907SOL    HW121620   6.548   2.638   2.043
 6907SOL    HW221621   6.420   2.600   1.949
 6908SOL     OW21622   2.295   4.728   6.918
 6908SOL    HW121623   2.374   4.682   6.878
 6908SOL    HW221624   2.305   4.827   6.907
 6909SOL     OW21625   5.368   4.746   1.806
 6909SOL    HW121626   5.405   4.677   1.745
 6909SOL    HW221627   5.273   4.767   1.780
 6910SOL     OW21628   1.474   2.431   3.076
 6910SOL    HW121629   1.465   2.503   3.145
 6910SOL    HW221630   1.498   2.472   2.988
 6911SOL     OW21631   4.281   0.136   4.533
 6911SOL    HW121632   4.371   0.133   4.490
 6911SOL    HW221633   4.247   0.043   4.545
 6912SOL     OW21634   2.616   3.278   6.646
 6912SOL    HW121635   2.646   3.309   6.737
 6912SOL    HW221636   2.561   3.195   6.656
 6913SOL     OW21637   5.234   6.523   5.062
 6913SOL    HW121638   5.145   6.550   5.024
 6913SOL    HW221639   5.302   6.519   4.989
 6914SOL     OW21640   5.897   4.112   3.068
 6914SOL    HW121641   5.980   4.093   3.016
 6914SOL    HW221642   5.818   4.068   3.024
 6915SOL     OW21643   0.733   2.441   2.517
 6915SOL    HW121644   0.662   2.432   2.586
 6915SOL    HW221645   0.813   2.486   2.558
 6916SOL     OW21646   5.444   1.264   6.325
 6916SOL    HW121647   5.418   1.168   6.309
 6916SOL    HW221648   5.519   1.288   6.263
 6917SOL     OW21649   3.773   5.831   2.083
 6917SOL    HW121650   3.843   5.888   2.126
 6917SOL    HW221651   3.816   5.771   2.016
 6918SOL     OW21652   6.985   2.871   3.907
 6918SOL    HW121653   0.062   2.844   3.905
 6918SOL    HW221654   6.928   2.793   3.881
 6919SOL     OW21655   6.287   5.978   3.253
 6919SOL    HW121656   6.215   5.920   3.292
 6919SOL    HW221657   6.309   6.051   3.317
 6920SOL     OW21658   5.027   0.212   5.422
 6920SOL    HW121659   5.043   0.155   5.342
 6920SOL    HW221660   5.113   0.226   5.471
 6921SOL     OW21661   4.131   7.014   3.860
 6921SOL    HW121662   4.213   6.970   3.896
 6921SOL    HW221663   4.105   0.070   3.921
 6922SOL     OW21664   1.609   6.395   5.275
 6922SOL    HW121665   1.608   6.445   5.189
 6922SOL    HW221666   1.540   6.432   5.337
 6923SOL     OW21667   5.730   6.762   2.527
 6923SOL    HW121668   5.776   6.813   2.454
 6923SOL    HW221669   5.651   6.814   2.560
 6924SOL     OW21670   2.751   4.992   0.408
 6924SOL    HW121671   2.808   4.998   0.326
 6924SOL    HW221672   2.803   4.951   0.482
 6925SOL     OW21673   4.375   5.412   5.463
 6925SOL    HW121674   4.417   5.343   5.404
 6925SOL    HW221675   4.276   5.410   5.451
 6926SOL     OW21676   2.171   1.948   0.918
 6926SOL    HW121677   2.254   1.893   0.906
 6926SOL    HW221678   2.177   1.998   1.004
 6927SOL     OW21679   3.387   1.522   6.818
 6927SOL    HW121680   3.440   1.593   6.862
 6927SOL    HW221681   3.322   1.564   6.754
 6928SOL     OW21682   5.110   6.154   0.851
 6928SOL    HW121683   5.173   6.142   0.774
 6928SOL    HW221684   5.019   6.124   0.825
 6929SOL     OW21685   5.406   5.969   1.889
 6929SOL    HW121686   5.453   5.915   1.820
 6929SOL    HW221687   5.321   6.006   1.850
 6930SOL     OW21688   0.522   0.756   1.080
 6930SOL    HW121689   0.526   0.700   1.163
 6930SOL    HW221690   0.583   0.717   1.010
 6931SOL     OW21691   1.697   1.569   1.743
 6931SOL    HW121692   1.621   1.512   1.714
 6931SOL    HW221693   1.662   1.655   1.780
 6932SOL     OW21694   4.554   6.001   1.216
 6932SOL    HW121695   4.533   6.098   1.231
 6932SOL    HW221696   4.586   5.988   1.122
 6933SOL     OW21697   3.443   6.877   5.881
 6933SOL    HW121698   3.428   6.832   5.969
 6933SOL    HW221699   3.359   6.925   5.853
 6934SOL     OW21700   4.723   3.208   5.956
 6934SOL    HW121701   4.787   3.220   6.032
 6934SOL    HW221702   4.761   3.140   5.892
 6935SOL     OW21703   4.022   5.896   2.814
 6935SOL    HW121704   3.983   5.976   2.860
 6935SOL    HW221705   3.983   5.813   2.854
 6936SOL     OW21706   0.191   2.577   4.550
 6936SOL    HW121707   0.109   2.619   4.589
 6936SOL    HW221708   0.251   2.647   4.512
 6937SOL     OW21709   5.771   6.257   0.919
 6937SOL    HW121710   5.715   6.326   0.873
 6937SOL    HW221711   5.787   6.180   0.857
 6938SOL     OW21712   0.684   2.344   4.408
 6938SOL    HW121713   0.670   2.246   4.395
 6938SOL    HW221714   0.740   2.360   4.489
 6939SOL     OW21715   6.923   5.353   3.135
 6939SOL    HW121716   6.939   5.257   3.114
 6939SOL    HW221717   6.832   5.364   3.175
 6940SOL     OW21718   4.349   6.754   0.428
 6940SOL    HW121719   4.371   6.840   0.475
 6940SOL    HW221720   4.400   6.748   0.343
 6941SOL     OW21721   3.005   3.791   2.312
 6941SOL    HW121722   2.992   3.840   2.226
 6941SOL    HW221723   3.028   3.696   2.293
 6942SOL     OW21724   5.759   0.012   1.825
 6942SOL    HW121725   5.701   0.073   1.771
 6942SOL    HW221726   5.836   7.000   1.769
 6943SOL     OW21727   3.853   4.684   0.490
 6943SOL    HW121728   3.753   4.686   0.488
 6943SOL    HW221729   3.884   4.591   0.473
 6944SOL     OW21730   0.896   5.223   6.401
 6944SOL    HW121731   0.850   5.269   6.325
 6944SOL    HW221732   0.982   5.183   6.368
 6945SOL     OW21733   0.009   2.527   1.203
 6945SOL    HW121734   6.979   2.615   1.196
 6945SOL    HW221735   0.106   2.542   1.188
 6946SOL     OW21736   3.982   6.296   1.791
 6946SOL    HW121737   4.081   6.304   1.778
 6946SOL    HW221738   3.934   6.344   1.718
 6947SOL     OW21739   4.421   5.172   6.336
 6947SOL    HW121740   4.355   5.240   6.305
 6947SOL    HW221741   4.508   5.217   6.356
 6948SOL     OW21742   0.372   5.712   1.123
 6948SOL    HW121743   0.283   5.703   1.168
 6948SOL    HW221744   0.386   5.635   1.062
 6949SOL     OW21745   2.331   1.961   3.350
 6949SOL    HW121746   2.427   1.986   3.335
 6949SOL    HW221747   2.281   2.040   3.385
 6950SOL     OW21748   1.846   0.784   4.516
 6950SOL    HW121749   1.780   0.850   4.552
 6950SOL    HW221750   1.797   0.701   4.487
 6951SOL     OW21751   6.754   6.125   6.694
 6951SOL    HW121752   6.772   6.223   6.697
 6951SOL    HW221753   6.840   6.074   6.705
 6952SOL     OW21754   2.019   5.206   2.735
 6952SOL    HW121755   1.986   5.114   2.759
 6952SOL    HW221756   1.997   5.269   2.809
 6953SOL     OW21757   5.331   0.144   6.982
 6953SOL    HW121758   5.401   0.073   6.976
 6953SOL    HW221759   5.247   0.111   6.940
 6954SOL     OW21760   0.086   4.035   1.678
 6954SOL    HW121761   0.132   3.953   1.643
 6954SOL    HW221762   0.072   4.025   1.777
 6955SOL     OW21763   4.637   0.840   2.579
 6955SOL    HW121764   4.721   0.876   2.539
 6955SOL    HW221765   4.654   0.748   2.615
 6956SOL     OW21766   5.329   5.758   3.234
 6956SOL    HW121767   5.331   5.718   3.326
 6956SOL    HW221768   5.271   5.839   3.234
 6957SOL     OW21769   5.919   5.839   0.410
 6957SOL    HW121770   5.971   5.783   0.345
 6957SOL    HW221771   5.881   5.918   0.362
 6958SOL     OW21772   3.647   3.324   4.650
 6958SOL    HW121773   3.698   3.350   4.732
 6958SOL    HW221774   3.621   3.406   4.599
 6959SOL     OW21775   1.858   3.922   3.132
 6959SOL    HW121776   1.830   3.932   3.227
 6959SOL    HW221777   1.914   3.840   3.121
 6960SOL     OW21778   2.504   3.986   0.970
 6960SOL    HW121779   2.565   4.009   1.046
 6960SOL    HW221780   2.550   3.924   0.907
 6961SOL     OW21781   5.558   1.375   4.583
 6961SOL    HW121782   5.626   1.309   4.615
 6961SOL    HW221783   5.468   1.332   4.578
 6962SOL     OW21784   4.317   5.781   1.128
 6962SOL    HW121785   4.281   5.849   1.192
 6962SOL    HW221786   4.262   5.698   1.133
 6963SOL     OW21787   5.468   4.827   0.617
 6963SOL    HW121788   5.421   4.866   0.696
 6963SOL    HW221789   5.413   4.753   0.578
 6964SOL     OW21790   3.992   0.463   5.805
 6964SOL    HW121791   3.987   0.519   5.722
 6964SOL    HW221792   3.945   0.376   5.789
 6965SOL     OW21793   1.599   1.197   0.114
 6965SOL    HW121794   1.512   1.159   0.144
 6965SOL    HW221795   1.672   1.164   0.174
 6966SOL     OW21796   0.708   0.655   2.541
 6966SOL    HW121797   0.682   0.608   2.456
 6966SOL    HW221798   0.807   0.667   2.544
 6967SOL     OW21799   3.394   1.325   6.124
 6967SOL    HW121800   3.448   1.242   6.136
 6967SOL    HW221801   3.328   1.311   6.050
 6968SOL     OW21802   2.156   0.932   3.783
 6968SOL    HW121803   2.097   0.909   3.706
 6968SOL    HW221804   2.137   1.025   3.813
 6969SOL     OW21805   3.388   1.999   1.242
 6969SOL    HW121806   3.359   2.094   1.237
 6969SOL    HW221807   3.345   1.947   1.168
 6970SOL     OW21808   4.169   3.827   5.548
 6970SOL    HW121809   4.258   3.785   5.568
 6970SOL    HW221810   4.097   3.758   5.555
 6971SOL     OW21811   5.689   5.409   1.231
 6971SOL    HW121812   5.708   5.476   1.159
 6971SOL    HW221813   5.748   5.427   1.309
 6972SOL     OW21814   5.495   3.752   1.833
 6972SOL    HW121815   5.536   3.823   1.891
 6972SOL    HW221816   5.543   3.665   1.847
 6973SOL     OW21817   1.052   2.642   3.632
 6973SOL    HW121818   1.076   2.722   3.578
 6973SOL    HW221819   1.132   2.582   3.639
 6974SOL     OW21820   2.909   3.538   2.641
 6974SOL    HW121821   3.009   3.534   2.648
 6974SOL    HW221822   2.881   3.624   2.599
 6975SOL     OW21823   1.800   6.675   4.574
 6975SOL    HW121824   1.747   6.754   4.605
 6975SOL    HW221825   1.869   6.651   4.642
 6976SOL     OW21826   6.402   3.674   5.752
 6976SOL    HW121827   6.481   3.735   5.739
 6976SOL    HW221828   6.350   3.703   5.832
 6977SOL     OW21829   3.619   3.549   1.143
 6977SOL    HW121830   3.700   3.542   1.084
 6977SOL    HW221831   3.568   3.463   1.139
 6978SOL     OW21832   5.093   2.956   1.167
 6978SOL    HW121833   5.098   3.009   1.083
 6978SOL    HW221834   5.171   2.894   1.172
 6979SOL     OW21835   1.179   3.429   1.162
 6979SOL    HW121836   1.196   3.331   1.173
 6979SOL    HW221837   1.140   3.446   1.072
 6980SOL     OW21838   1.830   1.109   3.760
 6980SOL    HW121839   1.839   1.142   3.666
 6980SOL    HW221840   1.917   1.121   3.808
 6981SOL     OW21841   3.768   3.299   5.864
 6981SOL    HW121842   3.840   3.260   5.806
 6981SOL    HW221843   3.797   3.389   5.897
 6982SOL     OW21844   0.931   1.117   3.814
 6982SOL    HW121845   0.907   1.055   3.888
 6982SOL    HW221846   0.999   1.183   3.847
 6983SOL     OW21847   5.109   1.182   4.763
 6983SOL    HW121848   5.086   1.251   4.831
 6983SOL    HW221849   5.198   1.143   4.783
 6984SOL     OW21850   1.489   1.594   2.632
 6984SOL    HW121851   1.459   1.537   2.556
 6984SOL    HW221852   1.501   1.689   2.600
 6985SOL     OW21853   6.611   5.179   0.374
 6985SOL    HW121854   6.670   5.101   0.350
 6985SOL    HW221855   6.668   5.259   0.390
 6986SOL     OW21856   3.420   6.837   6.449
 6986SOL    HW121857   3.468   6.788   6.522
 6986SOL    HW221858   3.486   6.873   6.384
 6987SOL     OW21859   7.016   1.370   5.988
 6987SOL    HW121860   6.955   1.425   6.045
 6987SOL    HW221861   6.985   1.372   5.893
 6988SOL     OW21862   1.835   6.503   6.282
 6988SOL    HW121863   1.934   6.491   6.292
 6988SOL    HW221864   1.791   6.413   6.278
 6989SOL     OW21865   6.692   4.589   2.914
 6989SOL    HW121866   6.647   4.669   2.875
 6989SOL    HW221867   6.757   4.551   2.848
 6990SOL     OW21868   4.040   2.448   1.444
 6990SOL    HW121869   3.955   2.500   1.455
 6990SOL    HW221870   4.026   2.354   1.473
 6991SOL     OW21871   5.530   4.611   2.983
 6991SOL    HW121872   5.593   4.689   2.977
 6991SOL    HW221873   5.521   4.582   3.078
 6992SOL     OW21874   6.265   5.899   0.476
 6992SOL    HW121875   6.331   5.853   0.536
 6992SOL    HW221876   6.237   5.837   0.403
 6993SOL     OW21877   6.557   0.429   1.263
 6993SOL    HW121878   6.537   0.518   1.306
 6993SOL    HW221879   6.532   0.356   1.326
 6994SOL     OW21880   1.450   1.145   4.641
 6994SOL    HW121881   1.461   1.074   4.571
 6994SOL    HW221882   1.382   1.211   4.609
 6995SOL     OW21883   0.132   4.030   0.126
 6995SOL    HW121884   0.165   4.082   0.204
 6995SOL    HW221885   0.079   3.952   0.158
 6996SOL     OW21886   1.245   0.139   0.557
 6996SOL    HW121887   1.297   0.095   0.483
 6996SOL    HW221888   1.157   0.169   0.522
 6997SOL     OW21889   0.049   4.982   4.942
 6997SOL    HW121890   6.998   4.923   4.983
 6997SOL    HW221891   0.079   4.942   4.855
 6998SOL     OW21892   0.899   1.290   1.477
 6998SOL    HW121893   0.806   1.253   1.471
 6998SOL    HW221894   0.896   1.389   1.469
 6999SOL     OW21895   1.572   2.332   6.600
 6999SOL    HW121896   1.494   2.314   6.540
 6999SOL    HW221897   1.540   2.338   6.695
 7000SOL     OW21898   5.856   0.782   1.825
 7000SOL    HW121899   5.849   0.754   1.729
 7000SOL    HW221900   5.777   0.748   1.876
 7001SOL     OW21901   0.974   2.226   4.969
 7001SOL    HW121902   0.890   2.187   4.931
 7001SOL    HW221903   0.979   2.205   5.066
 7002SOL     OW21904   1.664   5.261   4.077
 7002SOL    HW121905   1.632   5.220   4.162
 7002SOL    HW221906   1.709   5.348   4.096
 7003SOL     OW21907   4.532   5.583   1.665
 7003SOL    HW121908   4.522   5.598   1.566
 7003SOL    HW221909   4.613   5.632   1.698
 7004SOL     OW21910   0.872   5.724   0.234
 7004SOL    HW121911   0.775   5.728   0.259
 7004SOL    HW221912   0.927   5.710   0.316
 7005SOL     OW21913   0.822   0.209   0.737
 7005SOL    HW121914   0.820   0.111   0.756
 7005SOL    HW221915   0.878   0.227   0.656
 7006SOL     OW21916   6.259   6.568   3.330
 7006SOL    HW121917   6.245   6.616   3.417
 7006SOL    HW221918   6.354   6.538   3.323
 7007SOL     OW21919   4.098   0.711   4.648
 7007SOL    HW121920   4.185   0.702   4.698
 7007SOL    HW221921   4.056   0.621   4.639
 7008SOL     OW21922   0.348   4.467   3.935
 7008SOL    HW121923   0.281   4.447   4.007
 7008SOL    HW221924   0.439   4.437   3.965
 7009SOL     OW21925   4.582   6.420   1.953
 7009SOL    HW121926   4.493   6.385   1.980
 7009SOL    HW221927   4.571   6.508   1.906
 7010SOL     OW21928   5.857   4.495   3.468
 7010SOL    HW121929   5.913   4.442   3.404
 7010SOL    HW221930   5.761   4.467   3.459
 7011SOL     OW21931   3.607   6.884   0.741
 7011SOL    HW121932   3.551   6.963   0.718
 7011SOL    HW221933   3.703   6.912   0.748
 7012SOL     OW21934   1.077   2.212   1.615
 7012SOL    HW121935   1.017   2.132   1.612
 7012SOL    HW221936   1.158   2.195   1.559
 7013SOL     OW21937   2.179   0.176   6.540
 7013SOL    HW121938   2.211   0.118   6.465
 7013SOL    HW221939   2.089   0.212   6.518
 7014SOL     OW21940   5.365   3.596   0.785
 7014SOL    HW121941   5.316   3.683   0.787
 7014SOL    HW221942   5.316   3.528   0.840
 7015SOL     OW21943   5.732   4.414   2.260
 7015SOL    HW121944   5.780   4.427   2.346
 7015SOL    HW221945   5.682   4.328   2.262
 7016SOL     OW21946   3.750   4.860   1.020
 7016SOL    HW121947   3.771   4.951   0.982
 7016SOL    HW221948   3.818   4.794   0.986
 7017SOL     OW21949   2.513   5.278   2.622
 7017SOL    HW121950   2.595   5.227   2.649
 7017SOL    HW221951   2.436   5.215   2.615
 7018SOL     OW21952   5.183   3.933   4.271
 7018SOL    HW121953   5.250   3.892   4.333
 7018SOL    HW221954   5.101   3.877   4.270
 7019SOL     OW21955   4.278   5.319   2.179
 7019SOL    HW121956   4.337   5.241   2.201
 7019SOL    HW221957   4.265   5.324   2.080
 7020SOL     OW21958   0.904   3.700   6.794
 7020SOL    HW121959   0.878   3.604   6.795
 7020SOL    HW221960   0.973   3.717   6.865
 7021SOL     OW21961   1.823   3.372   4.385
 7021SOL    HW121962   1.871   3.304   4.330
 7021SOL    HW221963   1.852   3.365   4.481
 7022SOL     OW21964   4.804   0.440   7.005
 7022SOL    HW121965   4.774   0.527   6.965
 7022SOL    HW221966   4.892   0.414   6.966
 7023SOL     OW21967   0.379   2.413   1.281
 7023SOL    HW121968   0.374   2.476   1.204
 7023SOL    HW221969   0.355   2.462   1.365
 7024SOL     OW21970   3.730   3.597   3.641
 7024SOL    HW121971   3.827   3.572   3.650
 7024SOL    HW221972   3.720   3.696   3.649
 7025SOL     OW21973   3.479   0.128   0.439
 7025SOL    HW121974   3.560   0.122   0.380
 7025SOL    HW221975   3.410   0.186   0.394
 7026SOL     OW21976   3.978   2.124   2.176
 7026SOL    HW121977   3.997   2.030   2.149
 7026SOL    HW221978   3.950   2.177   2.095
 7027SOL     OW21979   2.459   6.234   3.772
 7027SOL    HW121980   2.453   6.290   3.855
 7027SOL    HW221981   2.386   6.260   3.708
 7028SOL     OW21982   2.861   0.165   4.138
 7028SOL    HW121983   2.831   0.252   4.179
 7028SOL    HW221984   2.950   0.139   4.176
 7029SOL     OW21985   3.820   4.193   5.640
 7029SOL    HW121986   3.904   4.140   5.639
 7029SOL    HW221987   3.779   4.189   5.731
 7030SOL     OW21988   0.529   1.855   4.885
 7030SOL    HW121989   0.478   1.889   4.805
 7030SOL    HW221990   0.625   1.879   4.875
 7031SOL     OW21991   3.732   6.299   0.304
 7031SOL    HW121992   3.635   6.320   0.321
 7031SOL    HW221993   3.760   6.221   0.360
 7032SOL     OW21994   4.388   0.833   3.410
 7032SOL    HW121995   4.327   0.798   3.480
 7032SOL    HW221996   4.335   0.875   3.336
 7033SOL     OW21997   1.830   2.661   4.104
 7033SOL    HW121998   1.782   2.744   4.130
 7033SOL    HW221999   1.899   2.682   4.034
 7034SOL     OW22000   6.724   2.943   2.948
 7034SOL    HW122001   6.633   2.981   2.961
 7034SOL    HW222002   6.720   2.843   2.950
 7035SOL     OW22003   2.210   0.268   1.275
 7035SOL    HW122004   2.253   0.335   1.335
 7035SOL    HW222005   2.250   0.178   1.292
 7036SOL     OW22006   6.978   2.102   2.401
 7036SOL    HW122007   6.942   2.043   2.473
 7036SOL    HW222008   6.967   2.056   2.313
 7037SOL     OW22009   0.416   1.397   5.928
 7037SOL    HW122010   0.495   1.455   5.950
 7037SOL    HW222011   0.410   1.322   5.994
 7038SOL     OW22012   2.034   4.560   5.642
 7038SOL    HW122013   2.082   4.504   5.574
 7038SOL    HW222014   2.018   4.652   5.604
 7039SOL     OW22015   0.401   5.834   3.799
 7039SOL    HW122016   0.306   5.858   3.820
 7039SOL    HW222017   0.459   5.915   3.812
 7040SOL     OW22018   4.912   2.041   4.864
 7040SOL    HW122019   4.940   2.132   4.835
 7040SOL    HW222020   4.952   2.021   4.954
 7041SOL     OW22021   0.853   1.888   3.647
 7041SOL    HW122022   0.884   1.796   3.673
 7041SOL    HW222023   0.805   1.883   3.559
 7042SOL     OW22024   4.267   5.700   4.808
 7042SOL    HW122025   4.211   5.633   4.759
 7042SOL    HW222026   4.314   5.759   4.741
 7043SOL     OW22027   2.901   4.749   3.385
 7043SOL    HW122028   2.947   4.832   3.414
 7043SOL    HW222029   2.829   4.726   3.450
 7044SOL     OW22030   4.630   0.277   4.608
 7044SOL    HW122031   4.721   0.251   4.640
 7044SOL    HW222032   4.597   0.210   4.542
 7045SOL     OW22033   5.651   5.455   2.162
 7045SOL    HW122034   5.687   5.372   2.206
 7045SOL    HW222035   5.552   5.457   2.171
 7046SOL     OW22036   2.859   2.109   4.236
 7046SOL    HW122037   2.762   2.101   4.260
 7046SOL    HW222038   2.869   2.178   4.164
 7047SOL     OW22039   0.012   1.218   1.445
 7047SOL    HW122040   0.003   1.174   1.535
 7047SOL    HW222041   0.014   1.149   1.374
 7048SOL     OW22042   5.781   6.204   5.052
 7048SOL    HW122043   5.741   6.184   4.962
 7048SOL    HW222044   5.795   6.119   5.102
 7049SOL     OW22045   3.613   0.936   2.017
 7049SOL    HW122046   3.654   0.993   1.946
 7049SOL    HW222047   3.622   0.840   1.992
 7050SOL     OW22048   4.329   4.184   0.722
 7050SOL    HW122049   4.298   4.254   0.786
 7050SOL    HW222050   4.401   4.130   0.764
 7051SOL     OW22051   6.393   6.271   0.914
 7051SOL    HW122052   6.447   6.328   0.852
 7051SOL    HW222053   6.447   6.252   0.996
 7052SOL     OW22054   5.780   0.068   3.580
 7052SOL    HW122055   5.873   0.042   3.608
 7052SOL    HW222056   5.776   0.167   3.566
 7053SOL     OW22057   2.050   3.772   3.713
 7053SOL    HW122058   2.113   3.830   3.660
 7053SOL    HW222059   2.101   3.724   3.784
 7054SOL     OW22060   6.967   6.948   1.518
 7054SOL    HW122061   6.873   6.937   1.486
 7054SOL    HW222062   6.991   0.026   1.514
 7055SOL     OW22063   2.953   0.251   0.393
 7055SOL    HW122064   2.872   0.279   0.342
 7055SOL    HW222065   3.012   0.196   0.334
 7056SOL     OW22066   6.918   5.748   1.029
 7056SOL    HW122067   6.921   5.844   1.001
 7056SOL    HW222068   6.926   5.741   1.128
 7057SOL     OW22069   3.110   5.844   4.539
 7057SOL    HW122070   3.109   5.943   4.522
 7057SOL    HW222071   3.095   5.796   4.452
 7058SOL     OW22072   5.528   1.822   6.025
 7058SOL    HW122073   5.469   1.879   5.968
 7058SOL    HW222074   5.613   1.872   6.044
 7059SOL     OW22075   1.607   1.219   5.063
 7059SOL    HW122076   1.564   1.162   4.992
 7059SOL    HW222077   1.680   1.274   5.022
 7060SOL     OW22078   3.809   6.020   1.701
 7060SOL    HW122079   3.901   6.058   1.708
 7060SOL    HW222080   3.745   6.091   1.672
 7061SOL     OW22081   0.591   2.398   2.745
 7061SOL    HW122082   0.598   2.422   2.842
 7061SOL    HW222083   0.496   2.379   2.721
 7062SOL     OW22084   4.385   2.283   4.208
 7062SOL    HW122085   4.476   2.243   4.204
 7062SOL    HW222086   4.357   2.293   4.303
 7063SOL     OW22087   0.410   6.434   1.854
 7063SOL    HW122088   0.382   6.516   1.904
 7063SOL    HW222089   0.376   6.438   1.760
 7064SOL     OW22090   4.456   2.124   6.332
 7064SOL    HW122091   4.356   2.125   6.329
 7064SOL    HW222092   4.490   2.218   6.333
 7065SOL     OW22093   3.396   4.475   5.317
 7065SOL    HW122094   3.399   4.375   5.313
 7065SOL    HW222095   3.303   4.504   5.338
 7066SOL     OW22096   4.472   1.194   6.427
 7066SOL    HW122097   4.418   1.273   6.396
 7066SOL    HW222098   4.468   1.188   6.526
 7067SOL     OW22099   1.237   3.580   6.931
 7067SOL    HW122100   1.214   3.484   6.915
 7067SOL    HW222101   1.304   3.609   6.863
 7068SOL     OW22102   6.050   4.325   3.984
 7068SOL    HW122103   6.089   4.394   3.923
 7068SOL    HW222104   6.086   4.338   4.076
 7069SOL     OW22105   6.083   1.947   5.407
 7069SOL    HW122106   6.124   1.877   5.348
 7069SOL    HW222107   6.051   2.024   5.351
 7070SOL     OW22108   1.044   6.732   5.083
 7070SOL    HW122109   1.065   6.642   5.121
 7070SOL    HW222110   0.977   6.722   5.009
 7071SOL     OW22111   4.996   6.330   6.768
 7071SOL    HW122112   4.910   6.309   6.815
 7071SOL    HW222113   5.047   6.399   6.821
 7072SOL     OW22114   1.677   4.820   7.013
 7072SOL    HW122115   1.701   4.908   0.034
 7072SOL    HW222116   1.623   4.834   6.930
 7073SOL     OW22117   3.827   6.916   3.145
 7073SOL    HW122118   3.820   6.922   3.245
 7073SOL    HW222119   3.880   6.993   3.110
 7074SOL     OW22120   6.979   3.487   3.917
 7074SOL    HW122121   6.925   3.570   3.902
 7074SOL    HW222122   7.000   3.445   3.828
 7075SOL     OW22123   2.908   4.900   4.938
 7075SOL    HW122124   2.819   4.937   4.914
 7075SOL    HW222125   2.900   4.802   4.955
 7076SOL     OW22126   6.165   3.271   1.074
 7076SOL    HW122127   6.149   3.302   1.168
 7076SOL    HW222128   6.078   3.251   1.030
 7077SOL     OW22129   2.473   4.798   2.415
 7077SOL    HW122130   2.545   4.729   2.409
 7077SOL    HW222131   2.496   4.876   2.357
 7078SOL     OW22132   5.366   6.422   0.639
 7078SOL    HW122133   5.301   6.453   0.709
 7078SOL    HW222134   5.374   6.322   0.644
 7079SOL     OW22135   0.981   6.624   4.478
 7079SOL    HW122136   0.948   6.642   4.386
 7079SOL    HW222137   0.913   6.573   4.529
 7080SOL     OW22138   4.011   2.203   3.761
 7080SOL    HW122139   4.064   2.281   3.794
 7080SOL    HW222140   4.070   2.122   3.757
 7081SOL     OW22141   1.733   6.199   0.022
 7081SOL    HW122142   1.674   6.228   6.966
 7081SOL    HW222143   1.677   6.156   0.093
 7082SOL     OW22144   6.926   3.848   1.335
 7082SOL    HW122145   6.940   3.756   1.372
 7082SOL    HW222146   6.921   3.914   1.410
 7083SOL     OW22147   6.844   1.875   2.506
 7083SOL    HW122148   6.746   1.892   2.514
 7083SOL    HW222149   6.868   1.791   2.554
 7084SOL     OW22150   0.471   6.014   5.546
 7084SOL    HW122151   0.535   5.956   5.597
 7084SOL    HW222152   0.519   6.095   5.514
 7085SOL     OW22153   6.394   2.174   2.745
 7085SOL    HW122154   6.336   2.243   2.790
 7085SOL    HW222155   6.335   2.106   2.701
 7086SOL     OW22156   5.821   0.377   6.753
 7086SOL    HW122157   5.726   0.364   6.723
 7086SOL    HW222158   5.820   0.412   6.847
 7087SOL     OW22159   5.255   3.569   2.436
 7087SOL    HW122160   5.305   3.532   2.514
 7087SOL    HW222161   5.163   3.595   2.465
 7088SOL     OW22162   5.594   2.177   5.490
 7088SOL    HW122163   5.635   2.110   5.428
 7088SOL    HW222164   5.507   2.143   5.524
 7089SOL     OW22165   2.986   4.867   2.589
 7089SOL    HW122166   2.959   4.910   2.503
 7089SOL    HW222167   3.086   4.871   2.599
 7090SOL     OW22168   2.486   1.305   1.038
 7090SOL    HW122169   2.526   1.343   0.955
 7090SOL    HW222170   2.403   1.254   1.015
 7091SOL     OW22171   1.028   0.862   1.457
 7091SOL    HW122172   0.931   0.859   1.435
 7091SOL    HW222173   1.057   0.957   1.468
 7092SOL     OW22174   3.960   2.814   6.070
 7092SOL    HW122175   3.923   2.722   6.057
 7092SOL    HW222176   4.041   2.826   6.012
 7093SOL     OW22177   3.282   3.571   1.155
 7093SOL    HW122178   3.273   3.471   1.154
 7093SOL    HW222179   3.289   3.604   1.061
 7094SOL     OW22180   1.416   6.538   5.456
 7094SOL    HW122181   1.473   6.579   5.527
 7094SOL    HW222182   1.373   6.455   5.490
 7095SOL     OW22183   3.462   4.850   5.729
 7095SOL    HW122184   3.431   4.763   5.769
 7095SOL    HW222185   3.424   4.860   5.638
 7096SOL     OW22186   6.534   0.896   1.761
 7096SOL    HW122187   6.575   0.808   1.784
 7096SOL    HW222188   6.600   0.953   1.713
 7097SOL     OW22189   4.968   0.834   2.376
 7097SOL    HW122190   4.929   0.921   2.405
 7097SOL    HW222191   4.975   0.773   2.455
 7098SOL     OW22192   1.833   6.503   5.526
 7098SOL    HW122193   1.743   6.545   5.536
 7098SOL    HW222194   1.824   6.416   5.478
 7099SOL     OW22195   3.751   2.110   3.959
 7099SOL    HW122196   3.800   2.174   3.900
 7099SOL    HW222197   3.807   2.090   4.039
 7100SOL     OW22198   0.211   3.997   0.500
 7100SOL    HW122199   0.184   3.935   0.574
 7100SOL    HW222200   0.181   4.090   0.521
 7101SOL     OW22201   2.473   6.950   5.387
 7101SOL    HW122202   2.403   6.904   5.441
 7101SOL    HW222203   2.548   6.886   5.369
 7102SOL     OW22204   5.422   0.954   1.281
 7102SOL    HW122205   5.409   0.887   1.354
 7102SOL    HW222206   5.345   0.949   1.217
 7103SOL     OW22207   5.152   5.255   1.990
 7103SOL    HW122208   5.106   5.247   1.902
 7103SOL    HW222209   5.246   5.284   1.976
 7104SOL     OW22210   5.400   3.448   2.643
 7104SOL    HW122211   5.477   3.384   2.637
 7104SOL    HW222212   5.429   3.529   2.694
 7105SOL     OW22213   3.675   4.130   4.335
 7105SOL    HW122214   3.594   4.077   4.310
 7105SOL    HW222215   3.711   4.176   4.253
 7106SOL     OW22216   3.024   2.550   1.088
 7106SOL    HW122217   2.993   2.582   0.999
 7106SOL    HW222218   3.056   2.455   1.081
 7107SOL     OW22219   3.676   0.332   6.901
 7107SOL    HW122220   3.758   0.275   6.904
 7107SOL    HW222221   3.688   0.402   6.830
 7108SOL     OW22222   2.627   6.434   2.110
 7108SOL    HW122223   2.654   6.425   2.014
 7108SOL    HW222224   2.709   6.437   2.167
 7109SOL     OW22225   1.463   0.509   6.953
 7109SOL    HW122226   1.533   0.454   6.998
 7109SOL    HW222227   1.470   0.498   6.854
 7110SOL     OW22228   3.303   6.430   4.055
 7110SOL    HW122229   3.353   6.507   4.094
 7110SOL    HW222230   3.207   6.455   4.042
 7111SOL     OW22231   1.295   1.419   3.725
 7111SOL    HW122232   1.330   1.326   3.724
 7111SOL    HW222233   1.219   1.428   3.661
 7112SOL     OW22234   2.295   4.227   4.889
 7112SOL    HW122235   2.334   4.280   4.965
 7112SOL    HW222236   2.349   4.144   4.876
 7113SOL     OW22237   3.022   5.532   5.237
 7113SOL    HW122238   3.028   5.487   5.326
 7113SOL    HW222239   3.027   5.463   5.165
 7114SOL     OW22240   4.296   5.213   1.487
 7114SOL    HW122241   4.335   5.174   1.570
 7114SOL    HW222242   4.214   5.267   1.510
 7115SOL     OW22243   5.112   4.415   6.753
 7115SOL    HW122244   5.205   4.380   6.753
 7115SOL    HW222245   5.076   4.416   6.660
 7116SOL     OW22246   5.651   4.354   3.166
 7116SOL    HW122247   5.621   4.306   3.084
 7116SOL    HW222248   5.693   4.288   3.229
 7117SOL     OW22249   6.455   0.389   4.154
 7117SOL    HW122250   6.411   0.441   4.226
 7117SOL    HW222251   6.419   0.296   4.153
 7118SOL     OW22252   3.905   4.523   5.380
 7118SOL    HW122253   3.813   4.492   5.356
 7118SOL    HW222254   3.968   4.446   5.378
 7119SOL     OW22255   4.946   0.761   5.021
 7119SOL    HW122256   4.979   0.711   5.101
 7119SOL    HW222257   4.925   0.855   5.047
 7120SOL     OW22258   5.729   1.492   1.167
 7120SOL    HW122259   5.795   1.417   1.161
 7120SOL    HW222260   5.715   1.517   1.263
 7121SOL     OW22261   0.813   6.402   3.534
 7121SOL    HW122262   0.875   6.422   3.458
 7121SOL    HW222263   0.719   6.416   3.505
 7122SOL     OW22264   2.314   7.013   6.056
 7122SOL    HW122265   2.261   0.016   6.138
 7122SOL    HW222266   2.267   0.030   5.976
 7123SOL     OW22267   6.259   4.955   4.419
 7123SOL    HW122268   6.172   4.944   4.371
 7123SOL    HW222269   6.260   5.042   4.468
 7124SOL     OW22270   1.227   1.947   1.727
 7124SOL    HW122271   1.157   1.973   1.660
 7124SOL    HW222272   1.303   2.012   1.721
 7125SOL     OW22273   1.168   0.577   2.049
 7125SOL    HW122274   1.169   0.497   1.989
 7125SOL    HW222275   1.183   0.659   1.995
 7126SOL     OW22276   4.108   6.282   0.823
 7126SOL    HW122277   4.161   6.237   0.895
 7126SOL    HW222278   4.151   6.267   0.734
 7127SOL     OW22279   3.051   6.180   5.774
 7127SOL    HW122280   3.034   6.087   5.741
 7127SOL    HW222281   3.046   6.244   5.697
 7128SOL     OW22282   4.149   4.066   0.158
 7128SOL    HW122283   4.237   4.019   0.170
 7128SOL    HW222284   4.091   4.015   0.095
 7129SOL     OW22285   0.358   1.430   0.618
 7129SOL    HW122286   0.414   1.365   0.567
 7129SOL    HW222287   0.315   1.383   0.695
 7130SOL     OW22288   3.937   0.165   4.485
 7130SOL    HW122289   3.847   0.167   4.442
 7130SOL    HW222290   4.007   0.183   4.416
 7131SOL     OW22291   3.413   0.790   2.165
 7131SOL    HW122292   3.488   0.846   2.130
 7131SOL    HW222293   3.340   0.787   2.096
 7132SOL     OW22294   4.818   3.990   6.910
 7132SOL    HW122295   4.786   3.962   6.820
 7132SOL    HW222296   4.761   3.949   6.980
 7133SOL     OW22297   4.068   5.221   3.902
 7133SOL    HW122298   4.014   5.174   3.831
 7133SOL    HW222299   4.030   5.312   3.917
 7134SOL     OW22300   4.858   5.954   1.975
 7134SOL    HW122301   4.956   5.967   1.993
 7134SOL    HW222302   4.806   5.979   2.056
 7135SOL     OW22303   1.993   2.883   1.989
 7135SOL    HW122304   2.074   2.868   1.933
 7135SOL    HW222305   1.918   2.917   1.932
 7136SOL     OW22306   2.211   1.738   1.587
 7136SOL    HW122307   2.288   1.793   1.619
 7136SOL    HW222308   2.220   1.644   1.621
 7137SOL     OW22309   2.952   1.445   0.737
 7137SOL    HW122310   2.917   1.519   0.795
 7137SOL    HW222311   2.885   1.425   0.665
 7138SOL     OW22312   2.651   0.968   1.616
 7138SOL    HW122313   2.563   1.012   1.627
 7138SOL    HW222314   2.653   0.882   1.667
 7139SOL     OW22315   5.048   5.527   1.531
 7139SOL    HW122316   5.040   5.571   1.441
 7139SOL    HW222317   5.003   5.583   1.600
 7140SOL     OW22318   6.088   4.142   0.660
 7140SOL    HW122319   6.144   4.202   0.603
 7140SOL    HW222320   6.046   4.196   0.733
 7141SOL     OW22321   4.047   6.628   1.025
 7141SOL    HW122322   3.969   6.565   1.033
 7141SOL    HW222323   4.065   6.646   0.928
 7142SOL     OW22324   3.339   0.266   4.400
 7142SOL    HW122325   3.366   0.310   4.315
 7142SOL    HW222326   3.239   0.255   4.403
 7143SOL     OW22327   1.934   4.264   6.974
 7143SOL    HW122328   1.842   4.302   6.982
 7143SOL    HW222329   1.999   4.338   6.955
 7144SOL     OW22330   0.269   1.249   4.165
 7144SOL    HW122331   0.259   1.181   4.237
 7144SOL    HW222332   0.191   1.243   4.102
 7145SOL     OW22333   4.254   1.668   6.951
 7145SOL    HW122334   4.280   1.574   6.928
 7145SOL    HW222335   4.188   1.667   0.007
 7146SOL     OW22336   2.091   1.288   4.926
 7146SOL    HW122337   2.139   1.230   4.860
 7146SOL    HW222338   2.001   1.313   4.888
 7147SOL     OW22339   5.946   5.473   3.446
 7147SOL    HW122340   5.847   5.482   3.452
 7147SOL    HW222341   5.972   5.441   3.355
 7148SOL     OW22342   6.166   6.188   0.786
 7148SOL    HW122343   6.100   6.149   0.849
 7148SOL    HW222344   6.251   6.209   0.834
 7149SOL     OW22345   6.761   4.735   3.249
 7149SOL    HW122346   6.681   4.689   3.211
 7149SOL    HW222347   6.732   4.803   3.316
 7150SOL     OW22348   4.569   3.280   0.138
 7150SOL    HW122349   4.656   3.308   0.179
 7150SOL    HW222350   4.507   3.249   0.210
 7151SOL     OW22351   3.248   6.690   0.937
 7151SOL    HW122352   3.230   6.740   0.853
 7151SOL    HW222353   3.237   6.752   1.016
 7152SOL     OW22354   6.272   1.049   6.730
 7152SOL    HW122355   6.262   0.956   6.765
 7152SOL    HW222356   6.362   1.085   6.754
 7153SOL     OW22357   3.995   5.308   1.390
 7153SOL    HW122358   4.007   5.233   1.325
 7153SOL    HW222359   3.950   5.274   1.472
 7154SOL     OW22360   4.003   1.236   2.773
 7154SOL    HW122361   3.986   1.312   2.835
 7154SOL    HW222362   4.061   1.168   2.819
 7155SOL     OW22363   3.121   2.194   1.350
 7155SOL    HW122364   3.065   2.252   1.410
 7155SOL    HW222365   3.075   2.106   1.337
 7156SOL     OW22366   5.205   3.779   2.053
 7156SOL    HW122367   5.281   3.737   2.003
 7156SOL    HW222368   5.120   3.732   2.031
 7157SOL     OW22369   5.844   4.156   0.540
 7157SOL    HW122370   5.846   4.256   0.543
 7157SOL    HW222371   5.928   4.120   0.582
 7158SOL     OW22372   6.169   0.729   4.126
 7158SOL    HW122373   6.103   0.736   4.201
 7158SOL    HW222374   6.119   0.712   4.041
 7159SOL     OW22375   0.078   4.704   4.304
 7159SOL    HW122376   0.046   4.782   4.357
 7159SOL    HW222377   0.173   4.718   4.277
 7160SOL     OW22378   5.786   6.715   2.819
 7160SOL    HW122379   5.852   6.776   2.865
 7160SOL    HW222380   5.768   6.750   2.727
 7161SOL     OW22381   3.338   3.607   3.451
 7161SOL    HW122382   3.269   3.546   3.414
 7161SOL    HW222383   3.429   3.576   3.424
 7162SOL     OW22384   7.006   4.631   0.993
 7162SOL    HW122385   6.987   4.543   0.948
 7162SOL    HW222386   6.929   4.693   0.977
 7163SOL     OW22387   1.338   1.621   2.860
 7163SOL    HW122388   1.413   1.645   2.798
 7163SOL    HW222389   1.316   1.524   2.850
 7164SOL     OW22390   1.894   1.000   5.952
 7164SOL    HW122391   1.913   0.908   5.919
 7164SOL    HW222392   1.924   1.007   6.048
 7165SOL     OW22393   5.292   6.840   0.781
 7165SOL    HW122394   5.349   6.835   0.699
 7165SOL    HW222395   5.198   6.814   0.758
 7166SOL     OW22396   5.229   0.784   5.949
 7166SOL    HW122397   5.257   0.727   5.872
 7166SOL    HW222398   5.142   0.829   5.928
 7167SOL     OW22399   5.716   2.304   6.076
 7167SOL    HW122400   5.670   2.230   6.026
 7167SOL    HW222401   5.798   2.333   6.027
 7168SOL     OW22402   3.048   0.743   3.101
 7168SOL    HW122403   3.063   0.811   3.029
 7168SOL    HW222404   3.096   0.658   3.078
 7169SOL     OW22405   1.783   3.929   5.271
 7169SOL    HW122406   1.788   3.892   5.364
 7169SOL    HW222407   1.765   3.855   5.207
 7170SOL     OW22408   4.447   0.364   2.158
 7170SOL    HW122409   4.484   0.272   2.175
 7170SOL    HW222410   4.480   0.426   2.230
 7171SOL     OW22411   6.153   5.100   0.763
 7171SOL    HW122412   6.249   5.072   0.762
 7171SOL    HW222413   6.132   5.144   0.850
 7172SOL     OW22414   1.779   1.422   4.996
 7172SOL    HW122415   1.864   1.455   5.038
 7172SOL    HW222416   1.711   1.496   4.997
 7173SOL     OW22417   5.822   5.706   6.395
 7173SOL    HW122418   5.916   5.683   6.367
 7173SOL    HW222419   5.757   5.657   6.337
 7174SOL     OW22420   6.263   4.597   1.344
 7174SOL    HW122421   6.268   4.510   1.395
 7174SOL    HW222422   6.285   4.672   1.406
 7175SOL     OW22423   6.621   3.761   5.042
 7175SOL    HW122424   6.592   3.761   5.138
 7175SOL    HW222425   6.543   3.783   4.984
 7176SOL     OW22426   0.653   1.218   3.646
 7176SOL    HW122427   0.612   1.132   3.613
 7176SOL    HW222428   0.744   1.227   3.607
 7177SOL     OW22429   1.843   5.694   5.627
 7177SOL    HW122430   1.830   5.650   5.716
 7177SOL    HW222431   1.819   5.791   5.634
 7178SOL     OW22432   0.257   0.647   5.338
 7178SOL    HW122433   0.243   0.595   5.255
 7178SOL    HW222434   0.278   0.585   5.414
 7179SOL     OW22435   2.090   4.840   5.928
 7179SOL    HW122436   2.109   4.907   5.856
 7179SOL    HW222437   1.993   4.817   5.927
 7180SOL     OW22438   2.208   4.496   0.659
 7180SOL    HW122439   2.256   4.416   0.622
 7180SOL    HW222440   2.182   4.478   0.754
 7181SOL     OW22441   2.421   0.925   6.412
 7181SOL    HW122442   2.413   0.828   6.434
 7181SOL    HW222443   2.460   0.973   6.491
 7182SOL     OW22444   0.922   3.398   4.056
 7182SOL    HW122445   0.914   3.300   4.078
 7182SOL    HW222446   0.835   3.443   4.076
 7183SOL     OW22447   1.620   6.126   1.662
 7183SOL    HW122448   1.640   6.224   1.666
 7183SOL    HW222449   1.685   6.080   1.601
 7184SOL     OW22450   5.647   1.419   2.990
 7184SOL    HW122451   5.737   1.451   3.022
 7184SOL    HW222452   5.583   1.421   3.066
 7185SOL     OW22453   5.135   0.974   5.244
 7185SOL    HW122454   5.174   0.974   5.337
 7185SOL    HW222455   5.189   0.914   5.186
 7186SOL     OW22456   0.164   0.200   0.610
 7186SOL    HW122457   0.119   0.223   0.524
 7186SOL    HW222458   0.105   0.140   0.665
 7187SOL     OW22459   2.911   3.557   4.809
 7187SOL    HW122460   2.814   3.558   4.831
 7187SOL    HW222461   2.963   3.600   4.883
 7188SOL     OW22462   4.717   3.918   6.691
 7188SOL    HW122463   4.637   3.959   6.646
 7188SOL    HW222464   4.750   3.842   6.636
 7189SOL     OW22465   6.149   3.237   5.536
 7189SOL    HW122466   6.175   3.214   5.442
 7189SOL    HW222467   6.157   3.336   5.549
 7190SOL     OW22468   5.990   5.501   1.125
 7190SOL    HW122469   6.007   5.562   1.202
 7190SOL    HW222470   5.926   5.545   1.062
 7191SOL     OW22471   1.137   4.348   3.115
 7191SOL    HW122472   1.046   4.307   3.119
 7191SOL    HW222473   1.179   4.344   3.206
 7192SOL     OW22474   2.305   3.648   6.171
 7192SOL    HW122475   2.371   3.573   6.168
 7192SOL    HW222476   2.212   3.612   6.178
 7193SOL     OW22477   2.590   1.818   2.663
 7193SOL    HW122478   2.679   1.782   2.689
 7193SOL    HW222479   2.581   1.816   2.563
 7194SOL     OW22480   2.188   2.044   0.197
 7194SOL    HW122481   2.156   2.038   0.102
 7194SOL    HW222482   2.109   2.057   0.257
 7195SOL     OW22483   6.786   3.833   6.710
 7195SOL    HW122484   6.799   3.734   6.715
 7195SOL    HW222485   6.875   3.878   6.704
 7196SOL     OW22486   3.264   3.744   2.654
 7196SOL    HW122487   3.256   3.768   2.557
 7196SOL    HW222488   3.263   3.827   2.709
 7197SOL     OW22489   1.014   3.814   5.501
 7197SOL    HW122490   0.962   3.809   5.586
 7197SOL    HW222491   1.100   3.862   5.517
 7198SOL     OW22492   0.297   0.901   0.659
 7198SOL    HW122493   0.202   0.873   0.675
 7198SOL    HW222494   0.316   0.895   0.561
 7199SOL     OW22495   0.760   0.265   2.182
 7199SOL    HW122496   0.701   0.345   2.195
 7199SOL    HW222497   0.854   0.288   2.206
 7200SOL     OW22498   1.893   2.461   0.865
 7200SOL    HW122499   1.815   2.490   0.920
 7200SOL    HW222500   1.886   2.363   0.846
 7201SOL     OW22501   0.168   5.283   4.268
 7201SOL    HW122502   0.085   5.330   4.239
 7201SOL    HW222503   0.179   5.198   4.216
 7202SOL     OW22504   4.922   6.902   5.853
 7202SOL    HW122505   4.942   6.912   5.755
 7202SOL    HW222506   4.880   6.986   5.887
 7203SOL     OW22507   0.433   0.869   1.816
 7203SOL    HW122508   0.461   0.839   1.907
 7203SOL    HW222509   0.477   0.956   1.794
 7204SOL     OW22510   6.363   1.628   0.594
 7204SOL    HW122511   6.292   1.564   0.563
 7204SOL    HW222512   6.430   1.579   0.649
 7205SOL     OW22513   1.262   2.864   4.614
 7205SOL    HW122514   1.321   2.925   4.560
 7205SOL    HW222515   1.173   2.855   4.568
 7206SOL     OW22516   1.547   1.556   1.323
 7206SOL    HW122517   1.483   1.551   1.246
 7206SOL    HW222518   1.565   1.464   1.358
 7207SOL     OW22519   2.329   1.628   4.016
 7207SOL    HW122520   2.255   1.676   3.969
 7207SOL    HW222521   2.393   1.696   4.054
 7208SOL     OW22522   4.183   0.580   3.952
 7208SOL    HW122523   4.210   0.495   3.907
 7208SOL    HW222524   4.089   0.572   3.985
 7209SOL     OW22525   2.200   2.434   2.443
 7209SOL    HW122526   2.226   2.348   2.486
 7209SOL    HW222527   2.110   2.424   2.401
 7210SOL     OW22528   3.568   1.830   2.927
 7210SOL    HW122529   3.568   1.916   2.876
 7210SOL    HW222530   3.660   1.790   2.923
 7211SOL     OW22531   3.050   6.320   5.558
 7211SOL    HW122532   2.969   6.333   5.499
 7211SOL    HW222533   3.091   6.408   5.578
 7212SOL     OW22534   5.992   6.339   6.515
 7212SOL    HW122535   5.928   6.365   6.443
 7212SOL    HW222536   6.079   6.311   6.474
 7213SOL     OW22537   3.474   6.471   6.887
 7213SOL    HW122538   3.404   6.520   6.835
 7213SOL    HW222539   3.553   6.452   6.828
 7214SOL     OW22540   0.264   0.547   6.005
 7214SOL    HW122541   0.299   0.576   6.094
 7214SOL    HW222542   0.336   0.498   5.955
 7215SOL     OW22543   6.417   2.598   4.068
 7215SOL    HW122544   6.379   2.670   4.010
 7215SOL    HW222545   6.516   2.611   4.076
 7216SOL     OW22546   3.150   6.228   2.098
 7216SOL    HW122547   3.153   6.236   1.998
 7216SOL    HW222548   3.057   6.202   2.126
 7217SOL     OW22549   1.616   4.152   3.933
 7217SOL    HW122550   1.556   4.190   4.004
 7217SOL    HW222551   1.706   4.195   3.940
 7218SOL     OW22552   6.986   3.356   3.679
 7218SOL    HW122553   0.044   3.296   3.702
 7218SOL    HW222554   7.002   3.396   3.589
 7219SOL     OW22555   3.138   6.439   1.464
 7219SOL    HW122556   3.225   6.484   1.488
 7219SOL    HW222557   3.121   6.449   1.366
 7220SOL     OW22558   6.556   4.487   4.465
 7220SOL    HW122559   6.544   4.549   4.543
 7220SOL    HW222560   6.582   4.397   4.498
 7221SOL     OW22561   3.302   5.983   4.823
 7221SOL    HW122562   3.283   6.028   4.736
 7221SOL    HW222563   3.297   6.049   4.898
 7222SOL     OW22564   5.518   7.015   2.935
 7222SOL    HW122565   5.592   6.953   2.963
 7222SOL    HW222566   5.432   6.985   2.977
 7223SOL     OW22567   2.800   1.447   0.528
 7223SOL    HW122568   2.856   1.418   0.451
 7223SOL    HW222569   2.711   1.478   0.494
 7224SOL     OW22570   4.795   2.852   4.271
 7224SOL    HW122571   4.777   2.780   4.204
 7224SOL    HW222572   4.738   2.837   4.352
 7225SOL     OW22573   1.987   6.317   0.717
 7225SOL    HW122574   1.907   6.284   0.667
 7225SOL    HW222575   2.025   6.397   0.671
 7226SOL     OW22576   6.097   0.679   0.841
 7226SOL    HW122577   6.093   0.590   0.796
 7226SOL    HW222578   6.048   0.674   0.928
 7227SOL     OW22579   2.842   1.152   1.989
 7227SOL    HW122580   2.764   1.196   1.944
 7227SOL    HW222581   2.924   1.206   1.973
 7228SOL     OW22582   0.587   1.781   3.030
 7228SOL    HW122583   0.570   1.728   2.947
 7228SOL    HW222584   0.684   1.774   3.054
 7229SOL     OW22585   0.150   6.727   4.674
 7229SOL    HW122586   0.165   6.751   4.578
 7229SOL    HW222587   0.127   6.630   4.681
 7230SOL     OW22588   2.486   5.350   3.576
 7230SOL    HW122589   2.415   5.336   3.645
 7230SOL    HW222590   2.574   5.361   3.621
 7231SOL     OW22591   3.825   6.991   0.903
 7231SOL    HW122592   3.814   0.063   0.863
 7231SOL    HW222593   3.819   6.998   1.002
 7232SOL     OW22594   4.991   6.638   2.737
 7232SOL    HW122595   5.082   6.637   2.696
 7232SOL    HW222596   4.999   6.662   2.834
 7233SOL     OW22597   0.461   1.166   5.442
 7233SOL    HW122598   0.507   1.159   5.353
 7233SOL    HW222599   0.494   1.247   5.490
 7234SOL     OW22600   5.246   3.893   2.870
 7234SOL    HW122601   5.272   3.923   2.961
 7234SOL    HW222602   5.276   3.961   2.803
 7235SOL     OW22603   6.354   5.303   1.615
 7235SOL    HW122604   6.397   5.294   1.525
 7235SOL    HW222605   6.391   5.383   1.662
 7236SOL     OW22606   1.681   2.412   2.485
 7236SOL    HW122607   1.702   2.509   2.495
 7236SOL    HW222608   1.709   2.363   2.568
 7237SOL     OW22609   4.596   6.871   6.776
 7237SOL    HW122610   4.667   6.900   6.840
 7237SOL    HW222611   4.622   6.896   6.683
 7238SOL     OW22612   4.638   2.834   6.905
 7238SOL    HW122613   4.625   2.880   6.993
 7238SOL    HW222614   4.581   2.880   6.836
 7239SOL     OW22615   0.281   2.964   2.579
 7239SOL    HW122616   0.291   2.952   2.677
 7239SOL    HW222617   0.324   3.050   2.551
 7240SOL     OW22618   6.737   1.507   0.331
 7240SOL    HW122619   6.650   1.550   0.308
 7240SOL    HW222620   6.740   1.415   0.291
 7241SOL     OW22621   2.189   6.796   0.197
 7241SOL    HW122622   2.268   6.831   0.146
 7241SOL    HW222623   2.185   6.697   0.187
 7242SOL     OW22624   0.005   5.735   5.214
 7242SOL    HW122625   6.961   5.744   5.137
 7242SOL    HW222626   6.975   5.753   5.300
 7243SOL     OW22627   6.632   4.009   6.589
 7243SOL    HW122628   6.641   4.008   6.490
 7243SOL    HW222629   6.694   3.941   6.629
 7244SOL     OW22630   0.066   0.023   0.805
 7244SOL    HW122631   0.115   0.041   0.891
 7244SOL    HW222632   7.017   6.970   0.820
 7245SOL     OW22633   1.712   2.192   5.747
 7245SOL    HW122634   1.694   2.290   5.753
 7245SOL    HW222635   1.753   2.160   5.833
 7246SOL     OW22636   2.035   0.628   4.397
 7246SOL    HW122637   1.991   0.667   4.478
 7246SOL    HW222638   2.094   0.551   4.425
 7247SOL     OW22639   2.995   2.182   5.707
 7247SOL    HW122640   2.975   2.147   5.615
 7247SOL    HW222641   3.080   2.234   5.705
 7248SOL     OW22642   3.486   0.254   3.677
 7248SOL    HW122643   3.475   0.330   3.741
 7248SOL    HW222644   3.406   0.195   3.683
 7249SOL     OW22645   4.638   4.811   1.698
 7249SOL    HW122646   4.719   4.754   1.704
 7249SOL    HW222647   4.600   4.806   1.605
 7250SOL     OW22648   5.220   5.015   5.691
 7250SOL    HW122649   5.207   5.047   5.597
 7250SOL    HW222650   5.132   4.986   5.729
 7251SOL     OW22651   0.879   0.278   5.311
 7251SOL    HW122652   0.841   0.365   5.279
 7251SOL    HW222653   0.956   0.252   5.253
 7252SOL     OW22654   2.864   3.798   1.788
 7252SOL    HW122655   2.775   3.830   1.755
 7252SOL    HW222656   2.871   3.699   1.772
 7253SOL     OW22657   1.572   5.890   6.547
 7253SOL    HW122658   1.620   5.846   6.471
 7253SOL    HW222659   1.585   5.988   6.544
 7254SOL     OW22660   5.795   5.161   4.267
 7254SOL    HW122661   5.751   5.228   4.326
 7254SOL    HW222662   5.848   5.208   4.196
 7255SOL     OW22663   4.958   3.677   7.011
 7255SOL    HW122664   4.877   3.698   0.047
 7255SOL    HW222665   4.992   3.761   6.968
 7256SOL     OW22666   3.953   6.223   5.630
 7256SOL    HW122667   3.980   6.311   5.590
 7256SOL    HW222668   4.032   6.181   5.674
 7257SOL     OW22669   0.669   2.059   4.382
 7257SOL    HW122670   0.571   2.066   4.362
 7257SOL    HW222671   0.683   2.000   4.462
 7258SOL     OW22672   5.684   1.846   2.712
 7258SOL    HW122673   5.667   1.759   2.757
 7258SOL    HW222674   5.750   1.834   2.637
 7259SOL     OW22675   0.914   2.997   2.472
 7259SOL    HW122676   0.893   2.904   2.500
 7259SOL    HW222677   1.001   2.999   2.424
 7260SOL     OW22678   5.280   2.098   1.346
 7260SOL    HW122679   5.334   2.151   1.281
 7260SOL    HW222680   5.216   2.159   1.394
 7261SOL     OW22681   0.508   4.877   1.077
 7261SOL    HW122682   0.461   4.960   1.107
 7261SOL    HW222683   0.445   4.820   1.025
 7262SOL     OW22684   5.426   1.695   6.961
 7262SOL    HW122685   5.466   1.739   6.880
 7262SOL    HW222686   5.355   1.631   6.932
 7263SOL     OW22687   0.353   6.269   6.885
 7263SOL    HW122688   0.353   6.178   6.925
 7263SOL    HW222689   0.358   6.337   6.959
 7264SOL     OW22690   5.561   1.131   1.063
 7264SOL    HW122691   5.602   1.111   0.974
 7264SOL    HW222692   5.532   1.046   1.106
 7265SOL     OW22693   5.859   4.888   5.175
 7265SOL    HW122694   5.793   4.963   5.176
 7265SOL    HW222695   5.835   4.823   5.103
 7266SOL     OW22696   6.785   1.310   3.441
 7266SOL    HW122697   6.719   1.378   3.407
 7266SOL    HW222698   6.774   1.225   3.390
 7267SOL     OW22699   6.843   6.849   4.493
 7267SOL    HW122700   6.757   6.881   4.454
 7267SOL    HW222701   6.838   6.857   4.593
 7268SOL     OW22702   7.006   5.947   4.321
 7268SOL    HW122703   0.044   6.029   4.316
 7268SOL    HW222704   6.926   5.959   4.263
 7269SOL     OW22705   1.742   5.931   5.672
 7269SOL    HW122706   1.779   5.967   5.757
 7269SOL    HW222707   1.651   5.894   5.689
 7270SOL     OW22708   0.533   2.744   4.894
 7270SOL    HW122709   0.541   2.804   4.815
 7270SOL    HW222710   0.454   2.772   4.949
 7271SOL     OW22711   1.151   4.785   4.568
 7271SOL    HW122712   1.179   4.843   4.492
 7271SOL    HW222713   1.055   4.802   4.589
 7272SOL     OW22714   6.222   5.604   2.059
 7272SOL    HW122715   6.185   5.680   2.113
 7272SOL    HW222716   6.184   5.518   2.093
 7273SOL     OW22717   5.326   3.977   0.304
 7273SOL    HW122718   5.319   3.901   0.240
 7273SOL    HW222719   5.337   3.942   0.397
 7274SOL     OW22720   0.324   4.943   6.759
 7274SOL    HW122721   0.307   4.917   6.664
 7274SOL    HW222722   0.325   4.861   6.816
 7275SOL     OW22723   0.297   6.080   2.439
 7275SOL    HW122724   0.236   6.072   2.360
 7275SOL    HW222725   0.254   6.139   2.507
 7276SOL     OW22726   5.318   0.770   3.296
 7276SOL    HW122727   5.266   0.688   3.274
 7276SOL    HW222728   5.327   0.778   3.395
 7277SOL     OW22729   5.128   0.392   4.682
 7277SOL    HW122730   5.131   0.478   4.733
 7277SOL    HW222731   5.077   0.405   4.596
 7278SOL     OW22732   3.626   3.492   1.412
 7278SOL    HW122733   3.692   3.427   1.448
 7278SOL    HW222734   3.644   3.508   1.315
 7279SOL     OW22735   4.312   5.824   6.725
 7279SOL    HW122736   4.230   5.878   6.742
 7279SOL    HW222737   4.391   5.868   6.768
 7280SOL     OW22738   0.391   0.953   3.457
 7280SOL    HW122739   0.343   0.922   3.375
 7280SOL    HW222740   0.324   0.977   3.528
 7281SOL     OW22741   2.813   1.645   0.124
 7281SOL    HW122742   2.738   1.594   0.082
 7281SOL    HW222743   2.863   1.696   0.054
 7282SOL     OW22744   5.543   5.213   2.369
 7282SOL    HW122745   5.515   5.222   2.465
 7282SOL    HW222746   5.493   5.138   2.326
 7283SOL     OW22747   3.535   1.327   3.250
 7283SOL    HW122748   3.553   1.383   3.169
 7283SOL    HW222749   3.619   1.317   3.303
 7284SOL     OW22750   0.716   3.504   6.267
 7284SOL    HW122751   0.625   3.509   6.228
 7284SOL    HW222752   0.781   3.474   6.197
 7285SOL     OW22753   4.855   3.882   2.325
 7285SOL    HW122754   4.858   3.925   2.234
 7285SOL    HW222755   4.879   3.785   2.317
 7286SOL     OW22756   2.617   1.125   0.403
 7286SOL    HW122757   2.601   1.026   0.402
 7286SOL    HW222758   2.652   1.153   0.493
 7287SOL     OW22759   6.482   2.128   6.576
 7287SOL    HW122760   6.408   2.158   6.636
 7287SOL    HW222761   6.508   2.204   6.516
 7288SOL     OW22762   2.480   0.731   0.332
 7288SOL    HW122763   2.436   0.752   0.245
 7288SOL    HW222764   2.495   0.815   0.384
 7289SOL     OW22765   5.631   1.626   4.037
 7289SOL    HW122766   5.641   1.724   4.017
 7289SOL    HW222767   5.543   1.610   4.080
 7290SOL     OW22768   3.427   0.201   5.673
 7290SOL    HW122769   3.511   0.149   5.689
 7290SOL    HW222770   3.408   0.206   5.575
 7291SOL     OW22771   1.466   6.572   0.854
 7291SOL    HW122772   1.430   6.664   0.869
 7291SOL    HW222773   1.525   6.546   0.930
 7292SOL     OW22774   2.713   1.174   3.718
 7292SOL    HW122775   2.804   1.151   3.682
 7292SOL    HW222776   2.644   1.115   3.675
 7293SOL     OW22777   1.867   1.683   5.315
 7293SOL    HW122778   1.849   1.646   5.406
 7293SOL    HW222779   1.956   1.730   5.315
 7294SOL     OW22780   1.996   5.277   6.998
 7294SOL    HW122781   1.985   5.178   6.983
 7294SOL    HW222782   2.092   5.301   6.992
 7295SOL     OW22783   0.827   1.935   0.745
 7295SOL    HW122784   0.769   2.005   0.785
 7295SOL    HW222785   0.777   1.888   0.672
 7296SOL     OW22786   2.448   5.016   1.205
 7296SOL    HW122787   2.483   5.046   1.294
 7296SOL    HW222788   2.524   4.997   1.143
 7297SOL     OW22789   3.702   6.000   0.895
 7297SOL    HW122790   3.760   6.080   0.879
 7297SOL    HW222791   3.686   5.953   0.808
 7298SOL     OW22792   4.790   4.218   5.530
 7298SOL    HW122793   4.834   4.133   5.559
 7298SOL    HW222794   4.797   4.226   5.430
 7299SOL     OW22795   0.688   1.634   0.391
 7299SOL    HW122796   0.650   1.604   0.304
 7299SOL    HW222797   0.708   1.554   0.448
 7300SOL     OW22798   6.104   6.201   2.454
 7300SOL    HW122799   6.004   6.191   2.453
 7300SOL    HW222800   6.143   6.143   2.525
 7301SOL     OW22801   6.444   1.456   4.777
 7301SOL    HW122802   6.512   1.529   4.790
 7301SOL    HW222803   6.440   1.431   4.680
 7302SOL     OW22804   0.859   2.245   6.051
 7302SOL    HW122805   0.918   2.223   6.128
 7302SOL    HW222806   0.913   2.249   5.967
 7303SOL     OW22807   5.136   7.000   6.492
 7303SOL    HW122808   5.042   6.969   6.506
 7303SOL    HW222809   5.163   6.983   6.397
 7304SOL     OW22810   4.289   5.110   6.887
 7304SOL    HW122811   4.274   5.027   6.942
 7304SOL    HW222812   4.200   5.149   6.861
 7305SOL     OW22813   4.622   1.307   0.470
 7305SOL    HW122814   4.660   1.378   0.411
 7305SOL    HW222815   4.694   1.243   0.497
 7306SOL     OW22816   5.167   2.540   1.642
 7306SOL    HW122817   5.191   2.504   1.733
 7306SOL    HW222818   5.105   2.617   1.653
 7307SOL     OW22819   2.298   7.014   2.809
 7307SOL    HW122820   2.391   6.996   2.840
 7307SOL    HW222821   2.256   6.928   2.779
 7308SOL     OW22822   6.845   4.218   5.674
 7308SOL    HW122823   6.907   4.295   5.659
 7308SOL    HW222824   6.776   4.244   5.741
 7309SOL     OW22825   4.736   5.532   0.755
 7309SOL    HW122826   4.702   5.607   0.698
 7309SOL    HW222827   4.662   5.466   0.771
 7310SOL     OW22828   2.471   3.731   1.487
 7310SOL    HW122829   2.441   3.818   1.449
 7310SOL    HW222830   2.398   3.692   1.543
 7311SOL     OW22831   3.537   2.027   1.957
 7311SOL    HW122832   3.602   2.098   1.983
 7311SOL    HW222833   3.584   1.939   1.950
 7312SOL     OW22834   7.000   3.563   6.114
 7312SOL    HW122835   0.026   3.623   6.180
 7312SOL    HW222836   6.987   3.472   6.154
 7313SOL     OW22837   3.137   2.166   6.482
 7313SOL    HW122838   3.158   2.143   6.577
 7313SOL    HW222839   3.055   2.116   6.454
 7314SOL     OW22840   6.812   4.246   5.080
 7314SOL    HW122841   6.818   4.160   5.131
 7314SOL    HW222842   6.801   4.226   4.983
 7315SOL     OW22843   6.546   0.386   2.801
 7315SOL    HW122844   6.558   0.456   2.730
 7315SOL    HW222845   6.542   0.429   2.891
 7316SOL     OW22846   3.063   4.268   6.109
 7316SOL    HW122847   3.113   4.184   6.091
 7316SOL    HW222848   3.053   4.320   6.024
 7317SOL     OW22849   4.435   1.136   2.572
 7317SOL    HW122850   4.446   1.046   2.529
 7317SOL    HW222851   4.506   1.149   2.641
 7318SOL     OW22852   1.168   0.674   0.961
 7318SOL    HW122853   1.080   0.636   0.989
 7318SOL    HW222854   1.216   0.607   0.904
 7319SOL     OW22855   6.479   3.964   6.276
 7319SOL    HW122856   6.503   4.022   6.198
 7319SOL    HW222857   6.550   3.893   6.287
 7320SOL     OW22858   6.630   3.960   1.615
 7320SOL    HW122859   6.607   3.862   1.614
 7320SOL    HW222860   6.730   3.970   1.609
 7321SOL     OW22861   2.607   6.709   5.340
 7321SOL    HW122862   2.696   6.662   5.331
 7321SOL    HW222863   2.544   6.674   5.270
 7322SOL     OW22864   6.134   2.267   3.723
 7322SOL    HW122865   6.231   2.263   3.696
 7322SOL    HW222866   6.125   2.245   3.820
 7323SOL     OW22867   2.435   2.116   1.913
 7323SOL    HW122868   2.430   2.212   1.940
 7323SOL    HW222869   2.350   2.090   1.867
 7324SOL     OW22870   4.887   5.649   1.986
 7324SOL    HW122871   4.910   5.744   2.004
 7324SOL    HW222872   4.800   5.627   2.031
 7325SOL     OW22873   3.463   6.512   0.480
 7325SOL    HW122874   3.407   6.492   0.560
 7325SOL    HW222875   3.486   6.610   0.480
 7326SOL     OW22876   3.245   6.554   5.513
 7326SOL    HW122877   3.281   6.516   5.598
 7326SOL    HW222878   3.270   6.494   5.437
 7327SOL     OW22879   6.547   2.402   6.025
 7327SOL    HW122880   6.493   2.486   6.013
 7327SOL    HW222881   6.491   2.323   5.999
 7328SOL     OW22882   3.585   0.673   6.068
 7328SOL    HW122883   3.670   0.652   6.019
 7328SOL    HW222884   3.511   0.685   6.002
 7329SOL     OW22885   5.464   4.625   1.593
 7329SOL    HW122886   5.408   4.631   1.510
 7329SOL    HW222887   5.534   4.554   1.581
 7330SOL     OW22888   2.359   2.242   0.154
 7330SOL    HW122889   2.299   2.171   0.191
 7330SOL    HW222890   2.431   2.200   0.099
 7331SOL     OW22891   5.707   0.059   2.113
 7331SOL    HW122892   5.662   0.147   2.101
 7331SOL    HW222893   5.758   0.036   2.030
 7332SOL     OW22894   1.988   5.730   0.633
 7332SOL    HW122895   2.083   5.713   0.610
 7332SOL    HW222896   1.940   5.767   0.554
 7333SOL     OW22897   0.260   3.133   2.836
 7333SOL    HW122898   0.311   3.193   2.898
 7333SOL    HW222899   0.228   3.053   2.887
 7334SOL     OW22900   3.307   6.207   6.930
 7334SOL    HW122901   3.307   6.291   6.875
 7334SOL    HW222902   3.297   6.128   6.870
 7335SOL     OW22903   1.539   2.545   2.826
 7335SOL    HW122904   1.450   2.546   2.779
 7335SOL    HW222905   1.581   2.636   2.818
 7336SOL     OW22906   1.740   6.415   3.425
 7336SOL    HW122907   1.816   6.458   3.375
 7336SOL    HW222908   1.663   6.478   3.431
 7337SOL     OW22909   0.246   3.563   1.987
 7337SOL    HW122910   0.193   3.479   1.996
 7337SOL    HW222911   0.209   3.618   1.912
 7338SOL     OW22912   6.541   2.661   1.462
 7338SOL    HW122913   6.537   2.619   1.371
 7338SOL    HW222914   6.606   2.611   1.519
 7339SOL     OW22915   5.336   5.924   3.651
 7339SOL    HW122916   5.300   5.876   3.571
 7339SOL    HW222917   5.382   5.859   3.711
 7340SOL     OW22918   2.225   0.695   1.126
 7340SOL    HW122919   2.212   0.596   1.122
 7340SOL    HW222920   2.188   0.730   1.211
 7341SOL     OW22921   6.570   3.195   6.836
 7341SOL    HW122922   6.548   3.292   6.828
 7341SOL    HW222923   6.614   3.178   6.923
 7342SOL     OW22924   6.745   1.526   1.788
 7342SOL    HW122925   6.804   1.595   1.829
 7342SOL    HW222926   6.692   1.566   1.713
 7343SOL     OW22927   5.219   3.309   7.001
 7343SOL    HW122928   5.221   3.231   0.045
 7343SOL    HW222929   5.312   3.329   6.971
 7344SOL     OW22930   0.515   0.710   6.564
 7344SOL    HW122931   0.598   0.734   6.515
 7344SOL    HW222932   0.486   0.786   6.622
 7345SOL     OW22933   4.662   3.407   5.452
 7345SOL    HW122934   4.642   3.492   5.404
 7345SOL    HW222935   4.755   3.378   5.433
 7346SOL     OW22936   3.857   5.954   2.495
 7346SOL    HW122937   3.886   5.903   2.413
 7346SOL    HW222938   3.837   6.048   2.470
 7347SOL     OW22939   0.761   1.896   1.129
 7347SOL    HW122940   0.857   1.902   1.157
 7347SOL    HW222941   0.739   1.972   1.067
 7348SOL     OW22942   1.344   4.210   3.870
 7348SOL    HW122943   1.311   4.158   3.949
 7348SOL    HW222944   1.440   4.187   3.853
 7349SOL     OW22945   4.234   0.406   2.005
 7349SOL    HW122946   4.322   0.392   2.052
 7349SOL    HW222947   4.172   0.331   2.029
 7350SOL     OW22948   2.752   1.810   5.436
 7350SOL    HW122949   2.744   1.872   5.514
 7350SOL    HW222950   2.689   1.733   5.448
 7351SOL     OW22951   5.624   5.837   3.494
 7351SOL    HW122952   5.594   5.774   3.566
 7351SOL    HW222953   5.688   5.790   3.433
 7352SOL     OW22954   0.831   1.642   2.378
 7352SOL    HW122955   0.929   1.636   2.395
 7352SOL    HW222956   0.793   1.550   2.370
 7353SOL     OW22957   0.193   0.442   6.486
 7353SOL    HW122958   0.100   0.469   6.509
 7353SOL    HW222959   0.191   0.356   6.435
 7354SOL     OW22960   1.566   1.513   5.547
 7354SOL    HW122961   1.471   1.523   5.520
 7354SOL    HW222962   1.579   1.423   5.591
 7355SOL     OW22963   0.917   1.269   0.274
 7355SOL    HW122964   0.941   1.311   0.361
 7355SOL    HW222965   0.880   1.178   0.289
 7356SOL     OW22966   3.500   3.629   6.429
 7356SOL    HW122967   3.476   3.536   6.453
 7356SOL    HW222968   3.583   3.657   6.478
 7357SOL     OW22969   2.963   5.626   2.105
 7357SOL    HW122970   2.904   5.675   2.170
 7357SOL    HW222971   2.908   5.560   2.055
 7358SOL     OW22972   6.273   3.506   2.395
 7358SOL    HW122973   6.254   3.539   2.302
 7358SOL    HW222974   6.214   3.553   2.460
 7359SOL     OW22975   4.170   2.348   5.470
 7359SOL    HW122976   4.111   2.281   5.516
 7359SOL    HW222977   4.189   2.423   5.532
 7360SOL     OW22978   2.452   3.186   5.460
 7360SOL    HW122979   2.369   3.238   5.439
 7360SOL    HW222980   2.493   3.154   5.375
 7361SOL     OW22981   5.525   0.600   2.434
 7361SOL    HW122982   5.515   0.699   2.446
 7361SOL    HW222983   5.438   0.555   2.453
 7362SOL     OW22984   1.926   5.779   6.243
 7362SOL    HW122985   1.985   5.747   6.169
 7362SOL    HW222986   1.983   5.818   6.316
 7363SOL     OW22987   4.554   1.439   1.422
 7363SOL    HW122988   4.615   1.490   1.483
 7363SOL    HW222989   4.470   1.415   1.471
 7364SOL     OW22990   4.123   0.612   2.192
 7364SOL    HW122991   4.169   0.555   2.124
 7364SOL    HW222992   4.037   0.567   2.219
 7365SOL     OW22993   0.555   5.803   2.217
 7365SOL    HW122994   0.607   5.768   2.139
 7365SOL    HW222995   0.503   5.728   2.259
 7366SOL     OW22996   2.455   6.527   5.641
 7366SOL    HW122997   2.445   6.582   5.558
 7366SOL    HW222998   2.365   6.518   5.686
 7367SOL     OW22999   3.711   2.375   0.072
 7367SOL    HW123000   3.799   2.407   0.038
 7367SOL    HW223001   3.716   2.364   0.172
 7368SOL     OW23002   3.732   2.894   2.238
 7368SOL    HW123003   3.738   2.795   2.241
 7368SOL    HW223004   3.805   2.934   2.294
 7369SOL     OW23005   3.398   2.512   1.085
 7369SOL    HW123006   3.391   2.519   1.185
 7369SOL    HW223007   3.310   2.482   1.047
 7370SOL     OW23008   2.865   2.041   6.090
 7370SOL    HW123009   2.782   2.018   6.141
 7370SOL    HW223010   2.872   2.140   6.080
 7371SOL     OW23011   3.178   6.179   3.743
 7371SOL    HW123012   3.151   6.083   3.755
 7371SOL    HW223013   3.270   6.193   3.780
 7372SOL     OW23014   4.778   6.935   4.603
 7372SOL    HW123015   4.739   6.977   4.685
 7372SOL    HW223016   4.875   6.957   4.598
 7373SOL     OW23017   5.892   2.109   5.230
 7373SOL    HW123018   5.809   2.053   5.226
 7373SOL    HW223019   5.917   2.137   5.137
 7374SOL     OW23020   2.445   2.287   4.551
 7374SOL    HW123021   2.354   2.257   4.581
 7374SOL    HW223022   2.441   2.382   4.521
 7375SOL     OW23023   2.519   2.544   2.173
 7375SOL    HW123024   2.604   2.592   2.197
 7375SOL    HW223025   2.444   2.610   2.165
 7376SOL     OW23026   1.389   2.461   1.682
 7376SOL    HW123027   1.472   2.478   1.736
 7376SOL    HW223028   1.315   2.432   1.742
 7377SOL     OW23029   4.575   5.028   0.275
 7377SOL    HW123030   4.565   5.124   0.302
 7377SOL    HW223031   4.525   4.970   0.341
 7378SOL     OW23032   1.628   0.226   4.845
 7378SOL    HW123033   1.728   0.232   4.840
 7378SOL    HW223034   1.594   0.170   4.770
 7379SOL     OW23035   2.710   1.118   2.263
 7379SOL    HW123036   2.778   1.053   2.297
 7379SOL    HW223037   2.744   1.161   2.179
 7380SOL     OW23038   6.704   4.180   3.643
 7380SOL    HW123039   6.747   4.233   3.715
 7380SOL    HW223040   6.743   4.088   3.641
 7381SOL     OW23041   3.637   2.809   0.823
 7381SOL    HW123042   3.583   2.791   0.741
 7381SOL    HW223043   3.671   2.903   0.820
 7382SOL     OW23044   6.964   1.381   5.721
 7382SOL    HW123045   6.985   1.300   5.665
 7382SOL    HW223046   6.993   1.463   5.673
 7383SOL     OW23047   2.476   5.672   1.530
 7383SOL    HW123048   2.462   5.765   1.564
 7383SOL    HW223049   2.516   5.677   1.438
 7384SOL     OW23050   6.642   0.070   2.031
 7384SOL    HW123051   6.604   0.055   2.123
 7384SOL    HW223052   6.741   0.083   2.038
 7385SOL     OW23053   2.683   5.529   2.543
 7385SOL    HW123054   2.609   5.492   2.598
 7385SOL    HW223055   2.691   5.475   2.458
 7386SOL     OW23056   6.862   2.835   6.648
 7386SOL    HW123057   6.769   2.870   6.657
 7386SOL    HW223058   6.885   2.823   6.552
 7387SOL     OW23059   6.718   5.189   4.521
 7387SOL    HW123060   6.799   5.144   4.558
 7387SOL    HW223061   6.642   5.178   4.584
 7388SOL     OW23062   1.101   5.001   2.322
 7388SOL    HW123063   1.189   4.978   2.279
 7388SOL    HW223064   1.070   5.090   2.288
 7389SOL     OW23065   6.870   3.395   6.969
 7389SOL    HW123066   6.859   3.308   6.921
 7389SOL    HW223067   6.780   3.430   6.995
 7390SOL     OW23068   2.839   2.030   2.583
 7390SOL    HW123069   2.846   1.949   2.642
 7390SOL    HW223070   2.928   2.048   2.541
 7391SOL     OW23071   3.777   2.889   2.937
 7391SOL    HW123072   3.803   2.806   2.889
 7391SOL    HW223073   3.787   2.968   2.876
 7392SOL     OW23074   3.521   5.228   6.833
 7392SOL    HW123075   3.461   5.149   6.819
 7392SOL    HW223076   3.471   5.312   6.810
 7393SOL     OW23077   6.299   4.670   3.312
 7393SOL    HW123078   6.315   4.715   3.400
 7393SOL    HW223079   6.202   4.674   3.290
 7394SOL     OW23080   1.605   3.183   6.172
 7394SOL    HW123081   1.555   3.102   6.201
 7394SOL    HW223082   1.703   3.170   6.188
 7395SOL     OW23083   2.053   3.096   0.969
 7395SOL    HW123084   2.055   3.002   0.935
 7395SOL    HW223085   2.072   3.096   1.067
 7396SOL     OW23086   2.307   6.363   1.014
 7396SOL    HW123087   2.237   6.350   1.084
 7396SOL    HW223088   2.274   6.430   0.947
 7397SOL     OW23089   5.194   4.291   4.106
 7397SOL    HW123090   5.226   4.253   4.193
 7397SOL    HW223091   5.236   4.241   4.030
 7398SOL     OW23092   0.990   6.057   3.210
 7398SOL    HW123093   0.906   6.026   3.254
 7398SOL    HW223094   1.024   6.138   3.258
 7399SOL     OW23095   6.882   3.166   4.913
 7399SOL    HW123096   6.890   3.265   4.922
 7399SOL    HW223097   6.862   3.125   5.003
 7400SOL     OW23098   4.724   2.625   5.700
 7400SOL    HW123099   4.776   2.704   5.733
 7400SOL    HW223100   4.630   2.654   5.678
 7401SOL     OW23101   1.744   2.797   3.414
 7401SOL    HW123102   1.677   2.730   3.447
 7401SOL    HW223103   1.707   2.889   3.425
 7402SOL     OW23104   3.218   4.444   6.236
 7402SOL    HW123105   3.222   4.526   6.180
 7402SOL    HW223106   3.145   4.383   6.202
 7403SOL     OW23107   1.467   2.951   2.927
 7403SOL    HW123108   1.538   2.885   2.903
 7403SOL    HW223109   1.396   2.905   2.981
 7404SOL     OW23110   2.839   4.177   1.643
 7404SOL    HW123111   2.791   4.257   1.678
 7404SOL    HW223112   2.904   4.144   1.712
 7405SOL     OW23113   2.958   5.161   4.446
 7405SOL    HW123114   3.032   5.168   4.380
 7405SOL    HW223115   2.882   5.109   4.406
 7406SOL     OW23116   1.171   1.233   4.814
 7406SOL    HW123117   1.185   1.134   4.806
 7406SOL    HW223118   1.146   1.255   4.909
 7407SOL     OW23119   1.036   6.280   5.500
 7407SOL    HW123120   1.080   6.241   5.420
 7407SOL    HW223121   1.023   6.378   5.487
 7408SOL     OW23122   3.818   4.215   5.368
 7408SOL    HW123123   3.814   4.217   5.467
 7408SOL    HW223124   3.907   4.248   5.337
 7409SOL     OW23125   5.104   4.412   0.286
 7409SOL    HW123126   5.133   4.321   0.257
 7409SOL    HW223127   5.121   4.423   0.384
 7410SOL     OW23128   0.566   1.031   1.036
 7410SOL    HW123129   0.536   1.052   0.943
 7410SOL    HW223130   0.527   0.944   1.064
 7411SOL     OW23131   1.755   0.129   6.753
 7411SOL    HW123132   1.853   0.146   6.764
 7411SOL    HW223133   1.711   0.127   6.843
 7412SOL     OW23134   3.861   6.444   1.017
 7412SOL    HW123135   3.910   6.373   0.965
 7412SOL    HW223136   3.769   6.454   0.979
 7413SOL     OW23137   4.809   4.868   4.000
 7413SOL    HW123138   4.870   4.844   4.075
 7413SOL    HW223139   4.727   4.811   4.004
 7414SOL     OW23140   2.334   1.315   3.577
 7414SOL    HW123141   2.378   1.379   3.514
 7414SOL    HW223142   2.375   1.325   3.668
 7415SOL     OW23143   2.330   5.044   5.180
 7415SOL    HW123144   2.361   5.137   5.198
 7415SOL    HW223145   2.287   5.006   5.262
 7416SOL     OW23146   1.850   0.887   2.481
 7416SOL    HW123147   1.836   0.962   2.416
 7416SOL    HW223148   1.941   0.894   2.521
 7417SOL     OW23149   1.708   1.687   2.279
 7417SOL    HW123150   1.788   1.650   2.326
 7417SOL    HW223151   1.717   1.786   2.268
 7418SOL     OW23152   1.800   5.222   6.804
 7418SOL    HW123153   1.839   5.309   6.773
 7418SOL    HW223154   1.701   5.229   6.808
 7419SOL     OW23155   6.429   4.106   3.674
 7419SOL    HW123156   6.513   4.159   3.661
 7419SOL    HW223157   6.381   4.138   3.756
 7420SOL     OW23158   0.018   6.212   1.319
 7420SOL    HW123159   7.001   6.305   1.309
 7420SOL    HW223160   0.063   6.184   1.234
 7421SOL     OW23161   4.163   3.752   1.427
 7421SOL    HW123162   4.086   3.707   1.472
 7421SOL    HW223163   4.143   3.763   1.330
 7422SOL     OW23164   6.606   3.829   2.026
 7422SOL    HW123165   6.619   3.732   2.045
 7422SOL    HW223166   6.660   3.884   2.089
 7423SOL     OW23167   5.920   2.897   5.490
 7423SOL    HW123168   5.890   2.986   5.524
 7423SOL    HW223169   5.844   2.832   5.493
 7424SOL     OW23170   0.141   1.528   5.173
 7424SOL    HW123171   0.091   1.457   5.223
 7424SOL    HW223172   0.162   1.495   5.081
 7425SOL     OW23173   5.171   0.149   0.291
 7425SOL    HW123174   5.270   0.157   0.276
 7425SOL    HW223175   5.138   0.228   0.342
 7426SOL     OW23176   3.235   1.992   5.545
 7426SOL    HW123177   3.145   1.951   5.533
 7426SOL    HW223178   3.254   2.055   5.470
 7427SOL     OW23179   4.257   0.990   3.735
 7427SOL    HW123180   4.217   1.047   3.663
 7427SOL    HW223181   4.208   1.006   3.821
 7428SOL     OW23182   3.983   0.439   5.239
 7428SOL    HW123183   3.954   0.412   5.146
 7428SOL    HW223184   3.913   0.499   5.279
 7429SOL     OW23185   1.101   6.385   3.305
 7429SOL    HW123186   1.095   6.451   3.379
 7429SOL    HW223187   1.162   6.310   3.331
 7430SOL     OW23188   6.646   3.862   1.276
 7430SOL    HW123189   6.692   3.850   1.188
 7430SOL    HW223190   6.706   3.913   1.338
 7431SOL     OW23191   1.535   1.951   3.674
 7431SOL    HW123192   1.459   1.926   3.615
 7431SOL    HW223193   1.560   1.874   3.732
 7432SOL     OW23194   2.035   0.860   3.094
 7432SOL    HW123195   2.104   0.844   3.164
 7432SOL    HW223196   2.079   0.891   3.010
 7433SOL     OW23197   3.727   6.419   6.812
 7433SOL    HW123198   3.824   6.443   6.819
 7433SOL    HW223199   3.717   6.337   6.756
 7434SOL     OW23200   5.042   5.921   5.332
 7434SOL    HW123201   5.042   5.886   5.426
 7434SOL    HW223202   4.951   5.907   5.292
 7435SOL     OW23203   4.193   6.264   1.255
 7435SOL    HW123204   4.274   6.275   1.313
 7435SOL    HW223205   4.113   6.246   1.312
 7436SOL     OW23206   4.644   4.846   6.161
 7436SOL    HW123207   4.645   4.807   6.253
 7436SOL    HW223208   4.645   4.773   6.094
 7437SOL     OW23209   3.061   5.683   1.235
 7437SOL    HW123210   3.148   5.633   1.240
 7437SOL    HW223211   3.078   5.778   1.212
 7438SOL     OW23212   1.916   6.812   0.023
 7438SOL    HW123213   1.951   6.795   6.950
 7438SOL    HW223214   1.950   6.900   0.056
 7439SOL     OW23215   1.683   6.034   5.198
 7439SOL    HW123216   1.704   6.128   5.224
 7439SOL    HW223217   1.674   6.027   5.099
 7440SOL     OW23218   6.214   3.541   4.240
 7440SOL    HW123219   6.182   3.465   4.296
 7440SOL    HW223220   6.314   3.545   4.242
 7441SOL     OW23221   6.017   0.048   3.735
 7441SOL    HW123222   6.038   6.974   3.767
 7441SOL    HW223223   5.998   0.107   3.813
 7442SOL     OW23224   5.704   1.365   6.903
 7442SOL    HW123225   5.640   1.437   6.929
 7442SOL    HW223226   5.731   1.377   6.808
 7443SOL     OW23227   0.030   5.691   2.023
 7443SOL    HW123228   7.002   5.719   2.107
 7443SOL    HW223229   0.012   5.758   1.951
 7444SOL     OW23230   6.358   1.097   6.221
 7444SOL    HW123231   6.316   1.025   6.276
 7444SOL    HW223232   6.396   1.168   6.281
 7445SOL     OW23233   3.487   0.452   1.062
 7445SOL    HW123234   3.578   0.410   1.059
 7445SOL    HW223235   3.458   0.461   1.157
 7446SOL     OW23236   4.947   2.308   0.226
 7446SOL    HW123237   4.960   2.246   0.304
 7446SOL    HW223238   4.973   2.260   0.142
 7447SOL     OW23239   6.514   4.697   5.865
 7447SOL    HW123240   6.568   4.718   5.947
 7447SOL    HW223241   6.485   4.601   5.868
 7448SOL     OW23242   5.283   6.703   5.279
 7448SOL    HW123243   5.277   6.631   5.211
 7448SOL    HW223244   5.342   6.776   5.245
 7449SOL     OW23245   0.618   5.665   0.313
 7449SOL    HW123246   0.618   5.629   0.407
 7449SOL    HW223247   0.532   5.643   0.269
 7450SOL     OW23248   5.229   2.534   5.642
 7450SOL    HW123249   5.237   2.634   5.642
 7450SOL    HW223250   5.237   2.500   5.548
 7451SOL     OW23251   5.341   5.628   2.478
 7451SOL    HW123252   5.272   5.559   2.499
 7451SOL    HW223253   5.345   5.643   2.380
 7452SOL     OW23254   6.419   5.969   4.481
 7452SOL    HW123255   6.341   6.003   4.429
 7452SOL    HW223256   6.413   5.869   4.488
 7453SOL     OW23257   4.660   5.040   5.794
 7453SOL    HW123258   4.667   5.041   5.894
 7453SOL    HW223259   4.601   4.965   5.765
 7454SOL     OW23260   2.662   1.197   0.658
 7454SOL    HW123261   2.633   1.289   0.684
 7454SOL    HW223262   2.602   1.130   0.701
 7455SOL     OW23263   6.647   3.564   2.099
 7455SOL    HW123264   6.742   3.563   2.068
 7455SOL    HW223265   6.644   3.563   2.199
 7456SOL     OW23266   2.725   1.499   5.404
 7456SOL    HW123267   2.681   1.525   5.318
 7456SOL    HW223268   2.820   1.528   5.404
 7457SOL     OW23269   3.188   6.848   4.146
 7457SOL    HW123270   3.145   6.850   4.056
 7457SOL    HW223271   3.170   6.935   4.193
 7458SOL     OW23272   1.581   0.288   6.102
 7458SOL    HW123273   1.540   0.315   6.015
 7458SOL    HW223274   1.663   0.342   6.118
 7459SOL     OW23275   6.401   1.048   2.460
 7459SOL    HW123276   6.337   0.972   2.447
 7459SOL    HW223277   6.412   1.097   2.374
 7460SOL     OW23278   1.232   5.910   6.790
 7460SOL    HW123279   1.157   5.846   6.809
 7460SOL    HW223280   1.281   5.931   6.875
 7461SOL     OW23281   6.050   6.277   6.130
 7461SOL    HW123282   5.986   6.345   6.092
 7461SOL    HW223283   6.002   6.192   6.148
 7462SOL     OW23284   2.019   4.738   1.915
 7462SOL    HW123285   2.113   4.704   1.915
 7462SOL    HW223286   1.992   4.761   1.821
 7463SOL     OW23287   3.543   3.905   0.508
 7463SOL    HW123288   3.469   3.971   0.492
 7463SOL    HW223289   3.582   3.921   0.599
 7464SOL     OW23290   6.382   6.884   5.310
 7464SOL    HW123291   6.437   6.897   5.392
 7464SOL    HW223292   6.331   6.798   5.318
 7465SOL     OW23293   2.628   5.010   6.907
 7465SOL    HW123294   2.581   5.001   6.819
 7465SOL    HW223295   2.560   5.007   6.981
 7466SOL     OW23296   0.584   0.849   6.207
 7466SOL    HW123297   0.602   0.774   6.143
 7466SOL    HW223298   0.646   0.841   6.285
 7467SOL     OW23299   0.423   2.381   6.163
 7467SOL    HW123300   0.404   2.292   6.204
 7467SOL    HW223301   0.508   2.418   6.201
 7468SOL     OW23302   5.224   3.078   4.549
 7468SOL    HW123303   5.152   3.096   4.482
 7468SOL    HW223304   5.302   3.139   4.532
 7469SOL     OW23305   6.834   1.663   0.523
 7469SOL    HW123306   6.905   1.616   0.575
 7469SOL    HW223307   6.803   1.604   0.449
 7470SOL     OW23308   5.435   4.164   3.442
 7470SOL    HW123309   5.425   4.126   3.533
 7470SOL    HW223310   5.532   4.170   3.418
 7471SOL     OW23311   5.287   5.930   5.695
 7471SOL    HW123312   5.311   6.015   5.648
 7471SOL    HW223313   5.370   5.884   5.727
 7472SOL     OW23314   6.434   0.943   5.465
 7472SOL    HW123315   6.472   1.026   5.424
 7472SOL    HW223316   6.357   0.968   5.524
 7473SOL     OW23317   5.626   6.347   3.678
 7473SOL    HW123318   5.714   6.311   3.647
 7473SOL    HW223319   5.552   6.303   3.626
 7474SOL     OW23320   6.585   2.776   6.334
 7474SOL    HW123321   6.499   2.791   6.285
 7474SOL    HW223322   6.567   2.727   6.419
 7475SOL     OW23323   4.462   2.396   1.950
 7475SOL    HW123324   4.401   2.335   2.001
 7475SOL    HW223325   4.547   2.347   1.929
 7476SOL     OW23326   2.086   2.243   2.873
 7476SOL    HW123327   2.012   2.212   2.814
 7476SOL    HW223328   2.051   2.310   2.939
 7477SOL     OW23329   0.272   3.077   5.377
 7477SOL    HW123330   0.307   3.137   5.305
 7477SOL    HW223331   0.296   2.982   5.357
 7478SOL     OW23332   5.559   3.427   5.289
 7478SOL    HW123333   5.659   3.423   5.282
 7478SOL    HW223334   5.519   3.403   5.201
 7479SOL     OW23335   5.256   2.786   0.746
 7479SOL    HW123336   5.310   2.707   0.716
 7479SOL    HW223337   5.271   2.862   0.682
 7480SOL     OW23338   1.840   4.853   2.360
 7480SOL    HW123339   1.851   4.809   2.271
 7480SOL    HW223340   1.908   4.816   2.424
 7481SOL     OW23341   6.599   4.740   6.828
 7481SOL    HW123342   6.606   4.683   6.910
 7481SOL    HW223343   6.510   4.786   6.827
 7482SOL     OW23344   4.283   2.263   2.362
 7482SOL    HW123345   4.312   2.172   2.332
 7482SOL    HW223346   4.363   2.318   2.386
 7483SOL     OW23347   4.993   2.573   4.925
 7483SOL    HW123348   4.965   2.635   4.998
 7483SOL    HW223349   5.020   2.625   4.845
 7484SOL     OW23350   1.855   5.234   4.536
 7484SOL    HW123351   1.893   5.321   4.505
 7484SOL    HW223352   1.928   5.166   4.540
 7485SOL     OW23353   2.637   0.095   3.779
 7485SOL    HW123354   2.697   0.097   3.699
 7485SOL    HW223355   2.686   0.055   3.857
 7486SOL     OW23356   0.698   6.366   0.183
 7486SOL    HW123357   0.718   6.334   0.276
 7486SOL    HW223358   0.677   6.288   0.125
 7487SOL     OW23359   3.881   1.064   3.415
 7487SOL    HW123360   3.846   1.138   3.357
 7487SOL    HW223361   3.812   0.992   3.423
 7488SOL     OW23362   1.971   6.059   4.707
 7488SOL    HW123363   2.049   6.092   4.759
 7488SOL    HW223364   1.980   6.087   4.612
 7489SOL     OW23365   6.286   3.257   0.054
 7489SOL    HW123366   6.315   3.162   0.040
 7489SOL    HW223367   6.204   3.275   0.001
 7490SOL     OW23368   1.717   1.318   2.456
 7490SOL    HW123369   1.811   1.352   2.451
 7490SOL    HW223370   1.681   1.330   2.548
 7491SOL     OW23371   4.985   3.001   0.014
 7491SOL    HW123372   5.076   3.026   0.047
 7491SOL    HW223373   4.939   2.944   0.081
 7492SOL     OW23374   2.396   1.397   4.199
 7492SOL    HW123375   2.363   1.422   4.290
 7492SOL    HW223376   2.393   1.477   4.139
 7493SOL     OW23377   6.826   3.147   5.604
 7493SOL    HW123378   6.878   3.061   5.608
 7493SOL    HW223379   6.887   3.221   5.578
 7494SOL     OW23380   6.064   1.235   4.271
 7494SOL    HW123381   5.985   1.260   4.327
 7494SOL    HW223382   6.101   1.316   4.227
 7495SOL     OW23383   1.435   3.073   5.015
 7495SOL    HW123384   1.501   3.047   4.945
 7495SOL    HW223385   1.376   2.994   5.036
 7496SOL     OW23386   5.834   3.504   4.264
 7496SOL    HW123387   5.839   3.428   4.328
 7496SOL    HW223388   5.757   3.491   4.202
 7497SOL     OW23389   1.964   5.766   1.568
 7497SOL    HW123390   1.986   5.669   1.554
 7497SOL    HW223391   1.868   5.774   1.595
 7498SOL     OW23392   2.488   0.857   4.181
 7498SOL    HW123393   2.392   0.833   4.190
 7498SOL    HW223394   2.501   0.953   4.207
 7499SOL     OW23395   4.521   2.060   3.191
 7499SOL    HW123396   4.512   2.147   3.240
 7499SOL    HW223397   4.555   1.990   3.253
 7500SOL     OW23398   3.191   5.654   3.244
 7500SOL    HW123399   3.250   5.581   3.277
 7500SOL    HW223400   3.246   5.728   3.207
 7501SOL     OW23401   5.632   3.893   3.830
 7501SOL    HW123402   5.664   3.802   3.804
 7501SOL    HW223403   5.710   3.956   3.829
 7502SOL     OW23404   3.631   6.551   4.260
 7502SOL    HW123405   3.669   6.580   4.172
 7502SOL    HW223406   3.662   6.614   4.332
 7503SOL     OW23407   1.902   5.995   0.707
 7503SOL    HW123408   1.892   5.896   0.699
 7503SOL    HW223409   1.950   6.017   0.792
 7504SOL     OW23410   0.484   6.259   2.154
 7504SOL    HW123411   0.446   6.324   2.089
 7504SOL    HW223412   0.544   6.195   2.106
 7505SOL     OW23413   1.379   1.664   6.107
 7505SOL    HW123414   1.306   1.726   6.135
 7505SOL    HW223415   1.425   1.628   6.188
 7506SOL     OW23416   4.364   2.177   3.481
 7506SOL    HW123417   4.355   2.194   3.383
 7506SOL    HW223418   4.412   2.253   3.524
 7507SOL     OW23419   6.570   2.819   3.929
 7507SOL    HW123420   6.523   2.808   3.841
 7507SOL    HW223421   6.508   2.863   3.994
 7508SOL     OW23422   1.913   5.107   0.451
 7508SOL    HW123423   1.868   5.025   0.488
 7508SOL    HW223424   1.958   5.083   0.364
 7509SOL     OW23425   5.790   3.232   0.505
 7509SOL    HW123426   5.801   3.152   0.446
 7509SOL    HW223427   5.857   3.227   0.580
 7510SOL     OW23428   3.905   3.917   4.539
 7510SOL    HW123429   3.829   3.874   4.490
 7510SOL    HW223430   3.986   3.918   4.480
 7511SOL     OW23431   2.991   6.161   3.446
 7511SOL    HW123432   3.023   6.103   3.521
 7511SOL    HW223433   2.923   6.226   3.482
 7512SOL     OW23434   2.861   0.762   0.112
 7512SOL    HW123435   2.763   0.758   0.092
 7512SOL    HW223436   2.889   0.678   0.158
 7513SOL     OW23437   2.331   2.358   3.207
 7513SOL    HW123438   2.264   2.355   3.281
 7513SOL    HW223439   2.319   2.278   3.149
 7514SOL     OW23440   1.755   5.167   3.653
 7514SOL    HW123441   1.693   5.112   3.597
 7514SOL    HW223442   1.707   5.249   3.685
 7515SOL     OW23443   6.882   4.433   4.799
 7515SOL    HW123444   6.786   4.409   4.786
 7515SOL    HW223445   6.935   4.351   4.821
 7516SOL     OW23446   0.736   5.136   6.121
 7516SOL    HW123447   0.667   5.199   6.087
 7516SOL    HW223448   0.692   5.054   6.157
 7517SOL     OW23449   1.313   2.455   0.084
 7517SOL    HW123450   1.356   2.424   7.018
 7517SOL    HW223451   1.362   2.415   0.161
 7518SOL     OW23452   4.835   3.485   3.324
 7518SOL    HW123453   4.776   3.534   3.388
 7518SOL    HW223454   4.896   3.425   3.376
 7519SOL     OW23455   5.713   0.030   4.063
 7519SOL    HW123456   5.770   0.007   4.142
 7519SOL    HW223457   5.695   0.129   4.062
 7520SOL     OW23458   1.470   1.165   2.573
 7520SOL    HW123459   1.503   1.092   2.514
 7520SOL    HW223460   1.478   1.253   2.527
 7521SOL     OW23461   4.656   2.166   4.733
 7521SOL    HW123462   4.726   2.216   4.783
 7521SOL    HW223463   4.701   2.106   4.666
 7522SOL     OW23464   1.627   0.215   5.250
 7522SOL    HW123465   1.665   0.273   5.322
 7522SOL    HW223466   1.616   0.269   5.166
 7523SOL     OW23467   4.847   0.758   6.209
 7523SOL    HW123468   4.875   0.668   6.242
 7523SOL    HW223469   4.865   0.827   6.279
 7524SOL     OW23470   0.346   3.386   4.951
 7524SOL    HW123471   0.432   3.430   4.977
 7524SOL    HW223472   0.293   3.448   4.892
 7525SOL     OW23473   4.164   6.678   6.689
 7525SOL    HW123474   4.264   6.690   6.693
 7525SOL    HW223475   4.139   6.590   6.730
 7526SOL     OW23476   2.525   2.595   1.357
 7526SOL    HW123477   2.524   2.605   1.456
 7526SOL    HW223478   2.618   2.605   1.323
 7527SOL     OW23479   2.983   5.654   3.778
 7527SOL    HW123480   2.885   5.640   3.759
 7527SOL    HW223481   3.026   5.700   3.701
 7528SOL     OW23482   5.530   2.201   6.723
 7528SOL    HW123483   5.576   2.249   6.649
 7528SOL    HW223484   5.517   2.263   6.801
 7529SOL     OW23485   5.020   2.042   4.017
 7529SOL    HW123486   5.118   2.022   4.024
 7529SOL    HW223487   4.975   1.971   3.962
 7530SOL     OW23488   6.285   1.868   2.348
 7530SOL    HW123489   6.289   1.768   2.348
 7530SOL    HW223490   6.222   1.899   2.277
 7531SOL     OW23491   5.012   2.801   2.962
 7531SOL    HW123492   5.033   2.874   3.026
 7531SOL    HW223493   5.095   2.749   2.942
 7532SOL     OW23494   5.437   6.381   6.231
 7532SOL    HW123495   5.370   6.308   6.217
 7532SOL    HW223496   5.526   6.342   6.252
 7533SOL     OW23497   4.540   2.471   1.570
 7533SOL    HW123498   4.549   2.532   1.492
 7533SOL    HW223499   4.460   2.498   1.625
 7534SOL     OW23500   4.642   5.886   4.155
 7534SOL    HW123501   4.676   5.948   4.226
 7534SOL    HW223502   4.543   5.881   4.160
 7535SOL     OW23503   1.544   6.345   4.659
 7535SOL    HW123504   1.559   6.264   4.716
 7535SOL    HW223505   1.597   6.337   4.575
 7536SOL     OW23506   5.670   6.140   3.965
 7536SOL    HW123507   5.695   6.083   4.044
 7536SOL    HW223508   5.574   6.125   3.943
 7537SOL     OW23509   1.846   4.717   2.121
 7537SOL    HW123510   1.921   4.694   2.059
 7537SOL    HW223511   1.759   4.691   2.079
 7538SOL     OW23512   1.589   2.823   1.943
 7538SOL    HW123513   1.551   2.881   2.015
 7538SOL    HW223514   1.668   2.868   1.903
 7539SOL     OW23515   1.316   4.920   3.240
 7539SOL    HW123516   1.282   5.014   3.233
 7539SOL    HW223517   1.354   4.891   3.153
 7540SOL     OW23518   4.638   6.411   4.304
 7540SOL    HW123519   4.680   6.492   4.344
 7540SOL    HW223520   4.543   6.431   4.281
 7541SOL     OW23521   0.864   4.437   6.352
 7541SOL    HW123522   0.893   4.522   6.395
 7541SOL    HW223523   0.765   4.424   6.366
 7542SOL     OW23524   6.687   5.941   5.912
 7542SOL    HW123525   6.623   6.018   5.908
 7542SOL    HW223526   6.778   5.972   5.885
 7543SOL     OW23527   3.128   0.438   4.824
 7543SOL    HW123528   3.112   0.343   4.851
 7543SOL    HW223529   3.066   0.498   4.875
 7544SOL     OW23530   0.612   2.917   4.696
 7544SOL    HW123531   0.525   2.967   4.696
 7544SOL    HW223532   0.687   2.983   4.698
 7545SOL     OW23533   0.510   6.609   6.301
 7545SOL    HW123534   0.415   6.607   6.332
 7545SOL    HW223535   0.559   6.529   6.336
 7546SOL     OW23536   5.210   2.347   1.461
 7546SOL    HW123537   5.144   2.352   1.386
 7546SOL    HW223538   5.195   2.425   1.523
 7547SOL     OW23539   4.415   0.831   0.844
 7547SOL    HW123540   4.382   0.765   0.777
 7547SOL    HW223541   4.505   0.803   0.878
 7548SOL     OW23542   4.395   2.541   7.016
 7548SOL    HW123543   4.450   2.537   6.933
 7548SOL    HW223544   4.298   2.550   6.992
 7549SOL     OW23545   3.299   2.579   6.718
 7549SOL    HW123546   3.316   2.485   6.749
 7549SOL    HW223547   3.379   2.612   6.668
 7550SOL     OW23548   2.062   4.373   3.639
 7550SOL    HW123549   2.139   4.311   3.657
 7550SOL    HW223550   1.977   4.322   3.643
 7551SOL     OW23551   5.311   2.791   5.335
 7551SOL    HW123552   5.256   2.792   5.252
 7551SOL    HW223553   5.391   2.849   5.324
 7552SOL     OW23554   1.682   6.023   4.170
 7552SOL    HW123555   1.725   5.950   4.223
 7552SOL    HW223556   1.705   6.111   4.211
 7553SOL     OW23557   5.653   6.390   5.891
 7553SOL    HW123558   5.640   6.292   5.906
 7553SOL    HW223559   5.567   6.431   5.862
 7554SOL     OW23560   4.851   0.808   0.417
 7554SOL    HW123561   4.830   0.890   0.364
 7554SOL    HW223562   4.950   0.798   0.427
 7555SOL     OW23563   3.253   5.833   6.382
 7555SOL    HW123564   3.288   5.914   6.335
 7555SOL    HW223565   3.154   5.840   6.392
 7556SOL     OW23566   1.491   1.447   0.420
 7556SOL    HW123567   1.543   1.480   0.498
 7556SOL    HW223568   1.433   1.371   0.448
 7557SOL     OW23569   4.659   0.203   6.995
 7557SOL    HW123570   4.628   0.266   6.924
 7557SOL    HW223571   4.742   0.239   0.019
 7558SOL     OW23572   1.794   3.286   3.666
 7558SOL    HW123573   1.875   3.307   3.611
 7558SOL    HW223574   1.746   3.372   3.686
 7559SOL     OW23575   3.871   2.233   5.216
 7559SOL    HW123576   3.929   2.188   5.284
 7559SOL    HW223577   3.858   2.329   5.243
 7560SOL     OW23578   6.518   0.210   6.926
 7560SOL    HW123579   6.592   0.234   6.988
 7560SOL    HW223580   6.487   0.292   6.877
 7561SOL     OW23581   5.911   3.139   5.604
 7561SOL    HW123582   6.005   3.173   5.595
 7561SOL    HW223583   5.847   3.213   5.589
 7562SOL     OW23584   0.856   4.604   4.905
 7562SOL    HW123585   0.901   4.691   4.923
 7562SOL    HW223586   0.911   4.550   4.842
 7563SOL     OW23587   2.621   6.068   2.359
 7563SOL    HW123588   2.636   5.978   2.400
 7563SOL    HW223589   2.650   6.139   2.424
 7564SOL     OW23590   3.962   0.372   4.955
 7564SOL    HW123591   3.943   0.470   4.958
 7564SOL    HW223592   4.056   0.358   4.923
 7565SOL     OW23593   6.196   4.226   5.641
 7565SOL    HW123594   6.115   4.266   5.597
 7565SOL    HW223595   6.278   4.257   5.593
 7566SOL     OW23596   4.981   4.837   2.445
 7566SOL    HW123597   5.073   4.874   2.451
 7566SOL    HW223598   4.975   4.752   2.497
 7567SOL     OW23599   0.893   0.908   4.835
 7567SOL    HW123600   0.814   0.968   4.847
 7567SOL    HW223601   0.886   0.860   4.747
 7568SOL     OW23602   5.517   5.133   1.745
 7568SOL    HW123603   5.580   5.090   1.680
 7568SOL    HW223604   5.557   5.219   1.778
 7569SOL     OW23605   4.318   4.093   6.485
 7569SOL    HW123606   4.245   4.114   6.420
 7569SOL    HW223607   4.353   4.178   6.525
 7570SOL     OW23608   0.237   2.874   4.214
 7570SOL    HW123609   0.291   2.855   4.296
 7570SOL    HW223610   0.174   2.797   4.198
 7571SOL     OW23611   5.322   3.656   3.214
 7571SOL    HW123612   5.407   3.615   3.248
 7571SOL    HW223613   5.295   3.611   3.129
 7572SOL     OW23614   5.032   6.769   2.975
 7572SOL    HW123615   5.115   6.748   3.027
 7572SOL    HW223616   4.954   6.772   3.037
 7573SOL     OW23617   6.101   0.924   5.821
 7573SOL    HW123618   6.146   0.920   5.910
 7573SOL    HW223619   6.021   0.864   5.821
 7574SOL     OW23620   5.722   1.551   4.465
 7574SOL    HW123621   5.666   1.482   4.511
 7574SOL    HW223622   5.726   1.634   4.520
 7575SOL     OW23623   6.136   6.104   0.391
 7575SOL    HW123624   6.178   6.018   0.420
 7575SOL    HW223625   6.178   6.180   0.439
 7576SOL     OW23626   5.432   2.363   6.895
 7576SOL    HW123627   5.431   2.463   6.889
 7576SOL    HW223628   5.369   2.333   6.967
 7577SOL     OW23629   6.886   6.600   0.214
 7577SOL    HW123630   6.791   6.582   0.189
 7577SOL    HW223631   6.924   6.671   0.153
 7578SOL     OW23632   1.342   5.285   2.390
 7578SOL    HW123633   1.342   5.273   2.291
 7578SOL    HW223634   1.372   5.201   2.434
 7579SOL     OW23635   6.726   1.739   1.295
 7579SOL    HW123636   6.820   1.724   1.264
 7579SOL    HW223637   6.663   1.697   1.230
 7580SOL     OW23638   1.530   4.710   3.433
 7580SOL    HW123639   1.431   4.724   3.429
 7580SOL    HW223640   1.569   4.720   3.342
 7581SOL     OW23641   0.639   1.220   1.470
 7581SOL    HW123642   0.581   1.295   1.501
 7581SOL    HW223643   0.600   1.133   1.499
 7582SOL     OW23644   4.300   1.748   3.593
 7582SOL    HW123645   4.384   1.803   3.593
 7582SOL    HW223646   4.229   1.795   3.541
 7583SOL     OW23647   5.572   3.716   3.002
 7583SOL    HW123648   5.626   3.636   2.976
 7583SOL    HW223649   5.514   3.744   2.925
 7584SOL     OW23650   1.270   6.644   2.654
 7584SOL    HW123651   1.288   6.644   2.752
 7584SOL    HW223652   1.275   6.550   2.620
 7585SOL     OW23653   0.859   2.067   6.798
 7585SOL    HW123654   0.801   2.142   6.769
 7585SOL    HW223655   0.907   2.091   6.883
 7586SOL     OW23656   1.877   0.007   2.566
 7586SOL    HW123657   1.971   0.021   2.599
 7586SOL    HW223658   1.845   0.090   2.522
 7587SOL     OW23659   2.773   1.232   0.184
 7587SOL    HW123660   2.848   1.283   0.225
 7587SOL    HW223661   2.714   1.195   0.255
 7588SOL     OW23662   1.660   2.947   3.801
 7588SOL    HW123663   1.758   2.937   3.784
 7588SOL    HW223664   1.645   3.003   3.882
 7589SOL     OW23665   0.057   1.591   3.359
 7589SOL    HW123666   0.061   1.495   3.385
 7589SOL    HW223667   0.024   1.599   3.266
 7590SOL     OW23668   6.155   1.257   0.003
 7590SOL    HW123669   6.064   1.289   0.030
 7590SOL    HW223670   6.160   1.256   6.922
 7591SOL     OW23671   4.717   3.032   6.334
 7591SOL    HW123672   4.759   3.039   6.424
 7591SOL    HW223673   4.750   2.950   6.288
 7592SOL     OW23674   6.547   4.701   4.657
 7592SOL    HW123675   6.465   4.730   4.607
 7592SOL    HW223676   6.627   4.743   4.614
 7593SOL     OW23677   0.069   2.692   6.122
 7593SOL    HW123678   0.087   2.617   6.058
 7593SOL    HW223679   6.997   2.681   6.162
 7594SOL     OW23680   0.970   4.336   1.626
 7594SOL    HW123681   0.996   4.413   1.685
 7594SOL    HW223682   1.051   4.301   1.580
 7595SOL     OW23683   6.183   3.581   6.297
 7595SOL    HW123684   6.156   3.630   6.214
 7595SOL    HW223685   6.260   3.629   6.340
 7596SOL     OW23686   3.352   6.571   5.137
 7596SOL    HW123687   3.274   6.600   5.194
 7596SOL    HW223688   3.363   6.472   5.145
 7597SOL     OW23689   1.955   6.565   2.999
 7597SOL    HW123690   2.052   6.549   2.984
 7597SOL    HW223691   1.927   6.648   2.951
 7598SOL     OW23692   6.021   0.571   3.172
 7598SOL    HW123693   6.004   0.666   3.198
 7598SOL    HW223694   6.091   0.568   3.101
 7599SOL     OW23695   5.289   3.404   0.955
 7599SOL    HW123696   5.346   3.364   1.026
 7599SOL    HW223697   5.240   3.331   0.906
 7600SOL     OW23698   1.350   0.918   3.628
 7600SOL    HW123699   1.267   0.887   3.583
 7600SOL    HW223700   1.336   0.917   3.727
 7601SOL     OW23701   2.778   5.095   2.128
 7601SOL    HW123702   2.830   5.180   2.138
 7601SOL    HW223703   2.787   5.061   2.034
 7602SOL     OW23704   0.697   2.608   0.384
 7602SOL    HW123705   0.774   2.666   0.359
 7602SOL    HW223706   0.643   2.586   0.303
 7603SOL     OW23707   1.792   6.283   5.910
 7603SOL    HW123708   1.816   6.186   5.921
 7603SOL    HW223709   1.871   6.333   5.875
 7604SOL     OW23710   1.815   1.816   5.040
 7604SOL    HW123711   1.848   1.804   5.133
 7604SOL    HW223712   1.757   1.739   5.014
 7605SOL     OW23713   0.951   0.747   0.509
 7605SOL    HW123714   1.040   0.787   0.489
 7605SOL    HW223715   0.908   0.719   0.423
 7606SOL     OW23716   5.733   2.955   5.145
 7606SOL    HW123717   5.828   2.943   5.176
 7606SOL    HW223718   5.679   2.875   5.172
 7607SOL     OW23719   3.683   5.551   0.775
 7607SOL    HW123720   3.767   5.604   0.787
 7607SOL    HW223721   3.703   5.469   0.721
 7608SOL     OW23722   5.000   2.197   6.492
 7608SOL    HW123723   4.913   2.203   6.442
 7608SOL    HW223724   5.071   2.163   6.431
 7609SOL     OW23725   0.639   3.544   3.865
 7609SOL    HW123726   0.637   3.623   3.927
 7609SOL    HW223727   0.731   3.530   3.831
 7610SOL     OW23728   4.188   5.004   5.959
 7610SOL    HW123729   4.245   4.979   6.037
 7610SOL    HW223730   4.111   4.940   5.952
 7611SOL     OW23731   5.309   3.824   1.418
 7611SOL    HW123732   5.239   3.827   1.489
 7611SOL    HW223733   5.398   3.845   1.458
 7612SOL     OW23734   4.098   2.095   3.233
 7612SOL    HW123735   4.016   2.123   3.182
 7612SOL    HW223736   4.164   2.171   3.233
 7613SOL     OW23737   0.595   1.993   2.094
 7613SOL    HW123738   0.651   2.053   2.152
 7613SOL    HW223739   0.621   1.898   2.111
 7614SOL     OW23740   5.619   3.609   1.141
 7614SOL    HW123741   5.599   3.704   1.119
 7614SOL    HW223742   5.669   3.567   1.065
 7615SOL     OW23743   5.280   4.332   5.525
 7615SOL    HW123744   5.298   4.372   5.615
 7615SOL    HW223745   5.365   4.330   5.472
 7616SOL     OW23746   6.606   0.714   3.493
 7616SOL    HW123747   6.555   0.797   3.517
 7616SOL    HW223748   6.548   0.634   3.507
 7617SOL     OW23749   5.205   5.451   3.284
 7617SOL    HW123750   5.202   5.399   3.199
 7617SOL    HW223751   5.203   5.388   3.362
 7618SOL     OW23752   1.462   2.386   0.330
 7618SOL    HW123753   1.550   2.386   0.378
 7618SOL    HW223754   1.397   2.328   0.379
 7619SOL     OW23755   0.216   2.962   4.512
 7619SOL    HW123756   0.175   3.037   4.460
 7619SOL    HW223757   0.144   2.904   4.550
 7620SOL     OW23758   3.602   4.655   0.567
 7620SOL    HW123759   3.658   4.578   0.598
 7620SOL    HW223760   3.556   4.696   0.645
 7621SOL     OW23761   0.377   6.699   1.054
 7621SOL    HW123762   0.324   6.681   0.971
 7621SOL    HW223763   0.469   6.661   1.045
 7622SOL     OW23764   4.316   4.789   6.760
 7622SOL    HW123765   4.335   4.843   6.678
 7622SOL    HW223766   4.233   4.823   6.804
 7623SOL     OW23767   4.383   4.769   0.283
 7623SOL    HW123768   4.454   4.799   0.220
 7623SOL    HW223769   4.329   4.695   0.241
 7624SOL     OW23770   0.171   2.801   3.370
 7624SOL    HW123771   0.108   2.742   3.319
 7624SOL    HW223772   0.118   2.868   3.423
 7625SOL     OW23773   5.852   2.475   6.811
 7625SOL    HW123774   5.781   2.468   6.881
 7625SOL    HW223775   5.910   2.555   6.829
 7626SOL     OW23776   6.623   0.918   6.152
 7626SOL    HW123777   6.536   0.964   6.137
 7626SOL    HW223778   6.662   0.891   6.064
 7627SOL     OW23779   2.600   1.813   0.517
 7627SOL    HW123780   2.564   1.720   0.514
 7627SOL    HW223781   2.688   1.816   0.469
 7628SOL     OW23782   4.123   2.935   1.490
 7628SOL    HW123783   4.045   2.887   1.530
 7628SOL    HW223784   4.158   2.884   1.412
 7629SOL     OW23785   6.517   3.944   3.475
 7629SOL    HW123786   6.481   4.000   3.550
 7629SOL    HW223787   6.616   3.956   3.469
 7630SOL     OW23788   1.428   0.560   5.744
 7630SOL    HW123789   1.393   0.604   5.826
 7630SOL    HW223790   1.442   0.463   5.760
 7631SOL     OW23791   1.491   1.104   5.598
 7631SOL    HW123792   1.406   1.055   5.615
 7631SOL    HW223793   1.557   1.042   5.556
 7632SOL     OW23794   4.195   4.907   0.881
 7632SOL    HW123795   4.146   4.840   0.826
 7632SOL    HW223796   4.242   4.861   0.956
 7633SOL     OW23797   5.649   0.604   1.654
 7633SOL    HW123798   5.672   0.622   1.750
 7633SOL    HW223799   5.550   0.599   1.644
 7634SOL     OW23800   1.244   1.106   1.688
 7634SOL    HW123801   1.292   1.194   1.690
 7634SOL    HW223802   1.180   1.104   1.611
 7635SOL     OW23803   2.602   5.148   4.606
 7635SOL    HW123804   2.506   5.145   4.578
 7635SOL    HW223805   2.623   5.236   4.647
 7636SOL     OW23806   0.670   3.781   3.990
 7636SOL    HW123807   0.709   3.769   4.082
 7636SOL    HW223808   0.703   3.866   3.951
 7637SOL     OW23809   0.835   6.497   3.178
 7637SOL    HW123810   0.790   6.495   3.088
 7637SOL    HW223811   0.917   6.440   3.176
 7638SOL     OW23812   1.047   5.422   1.783
 7638SOL    HW123813   0.977   5.358   1.752
 7638SOL    HW223814   1.134   5.402   1.738
 7639SOL     OW23815   0.020   0.770   0.491
 7639SOL    HW123816   6.967   0.819   0.442
 7639SOL    HW223817   6.998   0.704   0.553
 7640SOL     OW23818   2.855   2.249   7.003
 7640SOL    HW123819   2.875   2.222   6.909
 7640SOL    HW223820   2.862   2.168   0.043
 7641SOL     OW23821   0.206   4.057   2.820
 7641SOL    HW123822   0.294   4.042   2.865
 7641SOL    HW223823   0.220   4.069   2.722
 7642SOL     OW23824   5.893   0.893   2.809
 7642SOL    HW123825   5.953   0.832   2.757
 7642SOL    HW223826   5.935   0.984   2.815
 7643SOL     OW23827   5.236   1.919   2.564
 7643SOL    HW123828   5.324   1.963   2.578
 7643SOL    HW223829   5.166   1.967   2.617
 7644SOL     OW23830   4.872   2.916   2.240
 7644SOL    HW123831   4.968   2.888   2.232
 7644SOL    HW223832   4.840   2.952   2.153
 7645SOL     OW23833   4.432   3.293   5.323
 7645SOL    HW123834   4.517   3.310   5.373
 7645SOL    HW223835   4.406   3.376   5.273
 7646SOL     OW23836   0.632   3.030   3.380
 7646SOL    HW123837   0.683   3.073   3.305
 7646SOL    HW223838   0.553   2.981   3.342
 7647SOL     OW23839   0.980   2.783   4.656
 7647SOL    HW123840   1.021   2.859   4.707
 7647SOL    HW223841   0.952   2.815   4.565
 7648SOL     OW23842   2.147   1.415   2.113
 7648SOL    HW123843   2.215   1.411   2.040
 7648SOL    HW223844   2.152   1.503   2.159
 7649SOL     OW23845   1.142   1.302   4.557
 7649SOL    HW123846   1.161   1.263   4.647
 7649SOL    HW223847   1.228   1.314   4.507
 7650SOL     OW23848   5.108   1.404   1.265
 7650SOL    HW123849   5.151   1.490   1.239
 7650SOL    HW223850   5.155   1.366   1.344
 7651SOL     OW23851   2.390   5.406   4.354
 7651SOL    HW123852   2.395   5.327   4.415
 7651SOL    HW223853   2.373   5.375   4.260
 7652SOL     OW23854   5.986   2.599   5.201
 7652SOL    HW123855   5.953   2.563   5.289
 7652SOL    HW223856   5.962   2.696   5.193
 7653SOL     OW23857   1.265   1.654   0.298
 7653SOL    HW123858   1.220   1.613   0.219
 7653SOL    HW223859   1.350   1.605   0.318
 7654SOL     OW23860   5.446   2.993   5.079
 7654SOL    HW123861   5.537   3.031   5.064
 7654SOL    HW223862   5.377   3.060   5.050
 7655SOL     OW23863   3.758   0.200   3.606
 7655SOL    HW123864   3.793   0.284   3.565
 7655SOL    HW223865   3.664   0.214   3.636
 7656SOL     OW23866   5.874   3.054   6.053
 7656SOL    HW123867   5.833   3.037   6.142
 7656SOL    HW223868   5.830   2.997   5.984
 7657SOL     OW23869   1.847   3.374   3.950
 7657SOL    HW123870   1.818   3.307   3.881
 7657SOL    HW223871   1.772   3.438   3.968
 7658SOL     OW23872   2.985   0.523   1.288
 7658SOL    HW123873   3.001   0.521   1.190
 7658SOL    HW223874   2.894   0.487   1.308
 7659SOL     OW23875   4.681   4.230   6.659
 7659SOL    HW123876   4.644   4.258   6.748
 7659SOL    HW223877   4.734   4.305   6.619
 7660SOL     OW23878   6.249   5.571   4.642
 7660SOL    HW123879   6.168   5.518   4.616
 7660SOL    HW223880   6.293   5.528   4.720
 7661SOL     OW23881   4.380   2.256   5.986
 7661SOL    HW123882   4.333   2.291   6.067
 7661SOL    HW223883   4.320   2.191   5.939
 7662SOL     OW23884   0.684   2.310   3.164
 7662SOL    HW123885   0.600   2.282   3.118
 7662SOL    HW223886   0.676   2.289   3.262
 7663SOL     OW23887   5.251   5.925   6.614
 7663SOL    HW123888   5.335   5.895   6.569
 7663SOL    HW223889   5.198   5.846   6.643
 7664SOL     OW23890   4.024   1.067   3.146
 7664SOL    HW123891   4.056   1.161   3.162
 7664SOL    HW223892   3.967   1.038   3.223
 7665SOL     OW23893   5.627   1.915   4.006
 7665SOL    HW123894   5.542   1.899   3.955
 7665SOL    HW223895   5.695   1.956   3.945
 7666SOL     OW23896   6.624   5.669   4.245
 7666SOL    HW123897   6.584   5.632   4.329
 7666SOL    HW223898   6.709   5.621   4.225
 7667SOL     OW23899   4.481   0.399   2.819
 7667SOL    HW123900   4.403   0.424   2.761
 7667SOL    HW223901   4.556   0.464   2.805
 7668SOL     OW23902   2.677   4.663   0.765
 7668SOL    HW123903   2.583   4.655   0.731
 7668SOL    HW223904   2.723   4.575   0.756
 7669SOL     OW23905   4.218   0.937   5.905
 7669SOL    HW123906   4.188   0.873   5.835
 7669SOL    HW223907   4.260   0.887   5.981
 7670SOL     OW23908   0.759   6.400   0.842
 7670SOL    HW123909   0.852   6.420   0.872
 7670SOL    HW223910   0.749   6.301   0.829
 7671SOL     OW23911   5.090   6.727   2.344
 7671SOL    HW123912   5.081   6.652   2.278
 7671SOL    HW223913   4.999   6.754   2.376
 7672SOL     OW23914   7.006   4.796   3.184
 7672SOL    HW123915   0.042   4.767   3.262
 7672SOL    HW223916   6.914   4.759   3.193
 7673SOL     OW23917   1.541   5.866   2.402
 7673SOL    HW123918   1.481   5.890   2.325
 7673SOL    HW223919   1.563   5.949   2.454
 7674SOL     OW23920   4.378   0.782   3.987
 7674SOL    HW123921   4.345   0.876   3.995
 7674SOL    HW223922   4.304   0.723   3.953
 7675SOL     OW23923   3.703   6.573   3.351
 7675SOL    HW123924   3.712   6.666   3.388
 7675SOL    HW223925   3.771   6.514   3.394
 7676SOL     OW23926   2.762   1.963   5.667
 7676SOL    HW123927   2.801   2.031   5.605
 7676SOL    HW223928   2.691   2.005   5.723
 7677SOL     OW23929   0.417   4.404   0.948
 7677SOL    HW123930   0.515   4.408   0.964
 7677SOL    HW223931   0.397   4.331   0.883
 7678SOL     OW23932   1.800   2.392   5.449
 7678SOL    HW123933   1.745   2.328   5.395
 7678SOL    HW223934   1.767   2.392   5.543
 7679SOL     OW23935   2.243   5.401   5.510
 7679SOL    HW123936   2.294   5.463   5.570
 7679SOL    HW223937   2.303   5.366   5.438
 7680SOL     OW23938   1.823   0.176   5.890
 7680SOL    HW123939   1.912   0.154   5.850
 7680SOL    HW223940   1.834   0.251   5.955
 7681SOL     OW23941   2.873   1.708   6.524
 7681SOL    HW123942   2.937   1.645   6.481
 7681SOL    HW223943   2.780   1.672   6.514
 7682SOL     OW23944   4.041   1.933   2.577
 7682SOL    HW123945   4.053   1.986   2.662
 7682SOL    HW223946   4.011   1.995   2.504
 7683SOL     OW23947   0.921   1.491   4.747
 7683SOL    HW123948   0.957   1.581   4.721
 7683SOL    HW223949   0.954   1.422   4.683
 7684SOL     OW23950   4.127   2.349   1.816
 7684SOL    HW123951   4.165   2.300   1.738
 7684SOL    HW223952   4.174   2.320   1.900
 7685SOL     OW23953   3.700   1.701   0.112
 7685SOL    HW123954   3.706   1.607   0.146
 7685SOL    HW223955   3.723   1.764   0.186
 7686SOL     OW23956   5.409   0.008   4.114
 7686SOL    HW123957   5.376   0.066   4.189
 7686SOL    HW223958   5.507   0.020   4.104
 7687SOL     OW23959   4.679   5.390   4.819
 7687SOL    HW123960   4.597   5.410   4.767
 7687SOL    HW223961   4.656   5.384   4.916
 7688SOL     OW23962   6.925   5.641   5.713
 7688SOL    HW123963   6.911   5.585   5.794
 7688SOL    HW223964   6.964   5.585   5.640
 7689SOL     OW23965   4.705   0.263   1.907
 7689SOL    HW123966   4.785   0.251   1.848
 7689SOL    HW223967   4.642   0.329   1.865
 7690SOL     OW23968   5.581   4.837   0.268
 7690SOL    HW123969   5.554   4.915   0.325
 7690SOL    HW223970   5.517   4.827   0.193
 7691SOL     OW23971   4.601   4.650   2.129
 7691SOL    HW123972   4.569   4.579   2.191
 7691SOL    HW223973   4.636   4.607   2.045
 7692SOL     OW23974   0.827   5.842   1.444
 7692SOL    HW123975   0.902   5.896   1.407
 7692SOL    HW223976   0.864   5.764   1.496
 7693SOL     OW23977   3.126   0.227   1.644
 7693SOL    HW123978   3.175   0.265   1.565
 7693SOL    HW223979   3.150   0.131   1.655
 7694SOL     OW23980   5.697   2.557   4.629
 7694SOL    HW123981   5.610   2.531   4.588
 7694SOL    HW223982   5.681   2.603   4.716
 7695SOL     OW23983   5.380   1.077   1.962
 7695SOL    HW123984   5.343   1.105   2.051
 7695SOL    HW223985   5.366   0.979   1.949
 7696SOL     OW23986   0.764   1.661   6.101
 7696SOL    HW123987   0.713   1.738   6.062
 7696SOL    HW223988   0.746   1.655   6.199
 7697SOL     OW23989   3.364   0.640   2.520
 7697SOL    HW123990   3.380   0.544   2.495
 7697SOL    HW223991   3.333   0.645   2.614
 7698SOL     OW23992   6.664   2.067   5.823
 7698SOL    HW123993   6.730   2.138   5.847
 7698SOL    HW223994   6.623   2.089   5.734
 7699SOL     OW23995   2.463   5.114   6.701
 7699SOL    HW123996   2.365   5.128   6.690
 7699SOL    HW223997   2.510   5.140   6.616
 7700SOL     OW23998   4.391   6.292   2.850
 7700SOL    HW123999   4.455   6.326   2.782
 7700SOL    HW224000   4.302   6.277   2.808
 7701SOL     OW24001   6.836   1.605   6.057
 7701SOL    HW124002   6.818   1.703   6.052
 7701SOL    HW224003   6.890   1.585   6.139
 7702SOL     OW24004   4.264   6.678   5.459
 7702SOL    HW124005   4.345   6.621   5.477
 7702SOL    HW224006   4.181   6.623   5.472
 7703SOL     OW24007   6.408   0.249   5.289
 7703SOL    HW124008   6.400   0.326   5.352
 7703SOL    HW224009   6.318   0.207   5.277
 7704SOL     OW24010   6.508   2.116   4.102
 7704SOL    HW124011   6.506   2.059   4.184
 7704SOL    HW224012   6.446   2.194   4.114
 7705SOL     OW24013   2.631   4.963   0.672
 7705SOL    HW124014   2.620   4.991   0.576
 7705SOL    HW224015   2.641   4.864   0.677
 7706SOL     OW24016   3.395   2.954   3.338
 7706SOL    HW124017   3.424   2.938   3.432
 7706SOL    HW224018   3.475   2.977   3.283
 7707SOL     OW24019   0.007   4.909   6.236
 7707SOL    HW124020   0.021   4.972   6.160
 7707SOL    HW224021   6.977   4.956   6.310
 7708SOL     OW24022   1.335   6.838   3.940
 7708SOL    HW124023   1.382   6.899   3.875
 7708SOL    HW224024   1.400   6.809   4.010
 7709SOL     OW24025   6.565   5.130   1.399
 7709SOL    HW124026   6.596   5.146   1.306
 7709SOL    HW224027   6.506   5.049   1.402
 7710SOL     OW24028   2.202   2.184   0.776
 7710SOL    HW124029   2.204   2.107   0.840
 7710SOL    HW224030   2.164   2.154   0.689
 7711SOL     OW24031   6.872   6.241   5.792
 7711SOL    HW124032   6.925   6.157   5.807
 7711SOL    HW224033   6.893   6.277   5.702
 7712SOL     OW24034   6.321   4.935   6.709
 7712SOL    HW124035   6.329   5.030   6.740
 7712SOL    HW224036   6.261   4.931   6.630
 7713SOL     OW24037   1.708   3.996   0.481
 7713SOL    HW124038   1.718   4.077   0.424
 7713SOL    HW224039   1.627   4.005   0.539
 7714SOL     OW24040   0.142   7.001   5.103
 7714SOL    HW124041   0.233   6.967   5.127
 7714SOL    HW224042   0.092   0.005   5.186
 7715SOL     OW24043   2.694   2.000   6.298
 7715SOL    HW124044   2.608   2.039   6.331
 7715SOL    HW224045   2.684   1.901   6.287
 7716SOL     OW24046   6.712   4.850   6.124
 7716SOL    HW124047   6.705   4.889   6.216
 7716SOL    HW224048   6.765   4.765   6.128
 7717SOL     OW24049   1.594   1.668   5.303
 7717SOL    HW124050   1.686   1.668   5.264
 7717SOL    HW224051   1.578   1.582   5.351
 7718SOL     OW24052   0.449   4.007   2.938
 7718SOL    HW124053   0.519   4.022   2.869
 7718SOL    HW224054   0.483   4.039   3.027
 7719SOL     OW24055   1.490   4.014   4.408
 7719SOL    HW124056   1.445   4.000   4.496
 7719SOL    HW224057   1.583   4.047   4.424
 7720SOL     OW24058   6.244   2.305   5.985
 7720SOL    HW124059   6.334   2.262   5.976
 7720SOL    HW224060   6.231   2.334   6.080
 7721SOL     OW24061   0.987   0.622   2.495
 7721SOL    HW124062   1.042   0.547   2.532
 7721SOL    HW224063   0.975   0.610   2.397
 7722SOL     OW24064   1.776   5.484   4.161
 7722SOL    HW124065   1.787   5.566   4.104
 7722SOL    HW224066   1.865   5.439   4.171
 7723SOL     OW24067   4.902   3.419   6.465
 7723SOL    HW124068   4.842   3.453   6.537
 7723SOL    HW224069   4.988   3.471   6.466
 7724SOL     OW24070   3.333   4.106   0.504
 7724SOL    HW124071   3.298   4.126   0.413
 7724SOL    HW224072   3.362   4.191   0.548
 7725SOL     OW24073   5.911   2.650   2.499
 7725SOL    HW124074   5.863   2.734   2.476
 7725SOL    HW224075   5.942   2.605   2.416
 7726SOL     OW24076   0.871   3.074   6.046
 7726SOL    HW124077   0.903   3.022   5.967
 7726SOL    HW224078   0.947   3.126   6.085
 7727SOL     OW24079   6.288   2.781   1.703
 7727SOL    HW124080   6.238   2.848   1.759
 7727SOL    HW224081   6.270   2.689   1.737
 7728SOL     OW24082   2.156   2.630   5.578
 7728SOL    HW124083   2.201   2.585   5.501
 7728SOL    HW224084   2.213   2.707   5.608
 7729SOL     OW24085   6.303   1.855   1.995
 7729SOL    HW124086   6.223   1.800   2.022
 7729SOL    HW224087   6.366   1.798   1.941
 7730SOL     OW24088   5.830   4.705   4.976
 7730SOL    HW124089   5.908   4.646   4.953
 7730SOL    HW224090   5.751   4.676   4.923
 7731SOL     OW24091   6.010   0.070   0.618
 7731SOL    HW124092   6.043   0.059   0.712
 7731SOL    HW224093   6.074   0.127   0.567
 7732SOL     OW24094   4.057   0.553   0.240
 7732SOL    HW124095   3.987   0.572   0.172
 7732SOL    HW224096   4.062   0.628   0.305
 7733SOL     OW24097   5.933   5.607   2.417
 7733SOL    HW124098   5.982   5.522   2.399
 7733SOL    HW224099   5.834   5.588   2.418
 7734SOL     OW24100   2.413   4.397   5.074
 7734SOL    HW124101   2.465   4.449   5.007
 7734SOL    HW224102   2.418   4.442   5.163
 7735SOL     OW24103   6.285   5.737   0.268
 7735SOL    HW124104   6.352   5.712   0.199
 7735SOL    HW224105   6.198   5.692   0.247
 7736SOL     OW24106   2.551   3.146   0.405
 7736SOL    HW124107   2.462   3.100   0.407
 7736SOL    HW224108   2.619   3.089   0.452
 7737SOL     OW24109   3.326   4.760   1.753
 7737SOL    HW124110   3.426   4.753   1.752
 7737SOL    HW224111   3.288   4.701   1.682
 7738SOL     OW24112   2.037   5.865   6.491
 7738SOL    HW124113   2.086   5.781   6.513
 7738SOL    HW224114   1.942   5.857   6.521
 7739SOL     OW24115   1.496   2.037   2.151
 7739SOL    HW124116   1.535   2.089   2.074
 7739SOL    HW224117   1.520   2.082   2.237
 7740SOL     OW24118   1.765   1.088   2.298
 7740SOL    HW124119   1.759   1.170   2.355
 7740SOL    HW224120   1.829   1.104   2.223
 7741SOL     OW24121   1.630   4.117   4.966
 7741SOL    HW124122   1.532   4.136   4.971
 7741SOL    HW224123   1.675   4.152   5.048
 7742SOL     OW24124   3.945   1.048   3.689
 7742SOL    HW124125   3.898   1.041   3.601
 7742SOL    HW224126   3.960   1.144   3.711
 7743SOL     OW24127   4.619   0.942   6.948
 7743SOL    HW124128   4.664   1.031   6.940
 7743SOL    HW224129   4.552   0.931   6.875
 7744SOL     OW24130   0.598   6.056   3.796
 7744SOL    HW124131   0.571   6.150   3.818
 7744SOL    HW224132   0.697   6.047   3.802
 7745SOL     OW24133   2.295   6.185   0.276
 7745SOL    HW124134   2.214   6.241   0.298
 7745SOL    HW224135   2.317   6.126   0.354
 7746SOL     OW24136   1.358   6.317   0.940
 7746SOL    HW124137   1.283   6.264   0.980
 7746SOL    HW224138   1.333   6.343   0.846
 7747SOL     OW24139   0.200   6.267   0.856
 7747SOL    HW124140   0.282   6.323   0.851
 7747SOL    HW224141   0.178   6.231   0.765
 7748SOL     OW24142   3.331   3.172   5.211
 7748SOL    HW124143   3.266   3.232   5.166
 7748SOL    HW224144   3.420   3.178   5.166
 7749SOL     OW24145   3.214   3.859   3.076
 7749SOL    HW124146   3.124   3.816   3.070
 7749SOL    HW224147   3.205   3.958   3.060
 7750SOL     OW24148   5.227   5.409   5.492
 7750SOL    HW124149   5.145   5.381   5.541
 7750SOL    HW224150   5.209   5.493   5.440
 7751SOL     OW24151   0.388   1.251   3.725
 7751SOL    HW124152   0.358   1.332   3.775
 7751SOL    HW224153   0.487   1.255   3.710
 7752SOL     OW24154   5.692   5.596   5.833
 7752SOL    HW124155   5.600   5.611   5.869
 7752SOL    HW224156   5.759   5.622   5.902
 7753SOL     OW24157   2.367   0.653   4.616
 7753SOL    HW124158   2.325   0.709   4.688
 7753SOL    HW224159   2.442   0.599   4.655
 7754SOL     OW24160   5.346   0.803   1.501
 7754SOL    HW124161   5.250   0.814   1.527
 7754SOL    HW224162   5.381   0.717   1.538
 7755SOL     OW24163   0.621   0.073   5.435
 7755SOL    HW124164   0.594   0.119   5.350
 7755SOL    HW224165   0.699   0.122   5.475
 7756SOL     OW24166   2.326   5.949   2.638
 7756SOL    HW124167   2.287   6.035   2.607
 7756SOL    HW224168   2.339   5.888   2.561
 7757SOL     OW24169   4.924   6.034   4.870
 7757SOL    HW124170   4.839   5.982   4.864
 7757SOL    HW224171   5.002   5.973   4.858
 7758SOL     OW24172   1.812   2.227   6.573
 7758SOL    HW124173   1.840   2.251   6.666
 7758SOL    HW224174   1.714   2.245   6.562
 7759SOL     OW24175   2.166   1.066   4.771
 7759SOL    HW124176   2.243   1.022   4.818
 7759SOL    HW224177   2.147   1.018   4.686
 7760SOL     OW24178   5.619   3.348   2.166
 7760SOL    HW124179   5.618   3.248   2.160
 7760SOL    HW224180   5.531   3.381   2.200
 7761SOL     OW24181   2.939   0.041   6.064
 7761SOL    HW124182   2.954   7.009   5.979
 7761SOL    HW224183   2.847   0.080   6.063
 7762SOL     OW24184   4.010   0.990   5.658
 7762SOL    HW124185   3.918   1.023   5.639
 7762SOL    HW224186   4.052   1.047   5.730
 7763SOL     OW24187   1.013   2.028   1.197
 7763SOL    HW124188   1.035   2.030   1.100
 7763SOL    HW224189   1.096   2.042   1.250
 7764SOL     OW24190   3.904   3.011   2.411
 7764SOL    HW124191   3.918   3.094   2.465
 7764SOL    HW224192   3.992   2.978   2.377
 7765SOL     OW24193   6.426   3.581   4.478
 7765SOL    HW124194   6.511   3.566   4.426
 7765SOL    HW224195   6.445   3.575   4.576
 7766SOL     OW24196   5.328   2.025   6.692
 7766SOL    HW124197   5.250   2.085   6.710
 7766SOL    HW224198   5.413   2.077   6.701
 7767SOL     OW24199   3.759   6.269   3.740
 7767SOL    HW124200   3.683   6.329   3.767
 7767SOL    HW224201   3.737   6.175   3.766
 7768SOL     OW24202   4.137   4.865   2.838
 7768SOL    HW124203   4.070   4.902   2.773
 7768SOL    HW224204   4.202   4.808   2.788
 7769SOL     OW24205   4.960   1.788   1.939
 7769SOL    HW124206   5.045   1.764   1.987
 7769SOL    HW224207   4.916   1.865   1.985
 7770SOL     OW24208   2.312   4.163   2.246
 7770SOL    HW124209   2.360   4.214   2.316
 7770SOL    HW224210   2.348   4.188   2.156
 7771SOL     OW24211   2.723   2.467   5.199
 7771SOL    HW124212   2.808   2.423   5.229
 7771SOL    HW224213   2.683   2.517   5.276
 7772SOL     OW24214   5.068   1.355   3.600
 7772SOL    HW124215   5.065   1.280   3.666
 7772SOL    HW224216   5.021   1.327   3.516
 7773SOL     OW24217   3.122   4.840   5.524
 7773SOL    HW124218   3.065   4.893   5.461
 7773SOL    HW224219   3.088   4.851   5.617
 7774SOL     OW24220   5.638   1.662   5.731
 7774SOL    HW124221   5.664   1.572   5.695
 7774SOL    HW224222   5.663   1.667   5.827
 7775SOL     OW24223   3.754   6.826   2.894
 7775SOL    HW124224   3.684   6.757   2.910
 7775SOL    HW224225   3.796   6.852   2.981
 7776SOL     OW24226   3.490   2.895   6.299
 7776SOL    HW124227   3.575   2.916   6.348
 7776SOL    HW224228   3.509   2.830   6.226
 7777SOL     OW24229   2.564   1.462   5.631
 7777SOL    HW124230   2.628   1.490   5.559
 7777SOL    HW224231   2.470   1.482   5.601
 7778SOL     OW24232   5.057   6.893   6.982
 7778SOL    HW124233   5.103   6.804   6.983
 7778SOL    HW224234   5.069   6.935   6.892
 7779SOL     OW24235   3.909   2.774   0.292
 7779SOL    HW124236   3.888   2.713   0.369
 7779SOL    HW224237   3.827   2.826   0.268
 7780SOL     OW24238   1.838   5.383   4.859
 7780SOL    HW124239   1.801   5.368   4.768
 7780SOL    HW224240   1.812   5.475   4.891
 7781SOL     OW24241   1.193   3.822   6.411
 7781SOL    HW124242   1.134   3.760   6.358
 7781SOL    HW224243   1.288   3.804   6.388
 7782SOL     OW24244   1.711   3.557   5.541
 7782SOL    HW124245   1.758   3.471   5.523
 7782SOL    HW224246   1.704   3.610   5.457
 7783SOL     OW24247   3.142   6.672   5.884
 7783SOL    HW124248   3.093   6.701   5.966
 7783SOL    HW224249   3.187   6.751   5.842
 7784SOL     OW24250   1.863   2.386   0.238
 7784SOL    HW124251   1.807   2.307   0.262
 7784SOL    HW224252   1.854   2.456   0.309
 7785SOL     OW24253   1.631   6.684   3.753
 7785SOL    HW124254   1.606   6.720   3.844
 7785SOL    HW224255   1.727   6.658   3.753
 7786SOL     OW24256   3.310   5.194   6.156
 7786SOL    HW124257   3.303   5.270   6.220
 7786SOL    HW224258   3.332   5.110   6.206
 7787SOL     OW24259   2.162   2.077   5.383
 7787SOL    HW124260   2.202   2.168   5.391
 7787SOL    HW224261   2.155   2.036   5.474
 7788SOL     OW24262   1.219   0.727   1.825
 7788SOL    HW124263   1.180   0.667   1.755
 7788SOL    HW224264   1.302   0.770   1.790
 7789SOL     OW24265   2.776   0.207   0.813
 7789SOL    HW124266   2.719   0.164   0.743
 7789SOL    HW224267   2.812   0.136   0.874
 7790SOL     OW24268   6.259   4.804   2.734
 7790SOL    HW124269   6.193   4.823   2.807
 7790SOL    HW224270   6.313   4.723   2.759
 7791SOL     OW24271   2.661   6.499   3.944
 7791SOL    HW124272   2.575   6.458   3.972
 7791SOL    HW224273   2.691   6.459   3.857
 7792SOL     OW24274   1.118   5.326   5.898
 7792SOL    HW124275   1.096   5.424   5.900
 7792SOL    HW224276   1.214   5.313   5.923
 7793SOL     OW24277   2.342   0.814   5.987
 7793SOL    HW124278   2.359   0.830   5.889
 7793SOL    HW224279   2.246   0.793   6.001
 7794SOL     OW24280   5.279   5.217   4.104
 7794SOL    HW124281   5.220   5.178   4.174
 7794SOL    HW224282   5.353   5.268   4.148
 7795SOL     OW24283   2.305   4.183   5.326
 7795SOL    HW124284   2.245   4.113   5.364
 7795SOL    HW224285   2.329   4.159   5.232
 7796SOL     OW24286   3.277   4.043   3.907
 7796SOL    HW124287   3.242   4.079   3.994
 7796SOL    HW224288   3.377   4.036   3.913
 7797SOL     OW24289   0.686   5.837   2.878
 7797SOL    HW124290   0.768   5.796   2.918
 7797SOL    HW224291   0.709   5.878   2.790
 7798SOL     OW24292   1.526   4.807   6.484
 7798SOL    HW124293   1.497   4.836   6.392
 7798SOL    HW224294   1.618   4.768   6.478
 7799SOL     OW24295   6.832   6.141   1.933
 7799SOL    HW124296   6.874   6.224   1.970
 7799SOL    HW224297   6.775   6.166   1.854
 7800SOL     OW24298   1.337   4.347   1.145
 7800SOL    HW124299   1.318   4.403   1.226
 7800SOL    HW224300   1.355   4.253   1.172
 7801SOL     OW24301   2.605   1.691   1.873
 7801SOL    HW124302   2.702   1.672   1.861
 7801SOL    HW224303   2.587   1.787   1.851
 7802SOL     OW24304   5.843   2.882   1.050
 7802SOL    HW124305   5.867   2.785   1.049
 7802SOL    HW224306   5.817   2.909   1.143
 7803SOL     OW24307   4.426   3.723   5.588
 7803SOL    HW124308   4.381   3.661   5.652
 7803SOL    HW224309   4.451   3.672   5.505
 7804SOL     OW24310   6.254   1.080   3.634
 7804SOL    HW124311   6.228   1.055   3.541
 7804SOL    HW224312   6.224   1.173   3.654
 7805SOL     OW24313   5.271   1.322   1.504
 7805SOL    HW124314   5.349   1.271   1.467
 7805SOL    HW224315   5.296   1.418   1.516
 7806SOL     OW24316   6.135   2.755   5.586
 7806SOL    HW124317   6.060   2.812   5.554
 7806SOL    HW224318   6.099   2.683   5.646
 7807SOL     OW24319   0.023   4.624   6.109
 7807SOL    HW124320   6.959   4.589   6.065
 7807SOL    HW224321   7.017   4.695   6.175
 7808SOL     OW24322   0.383   3.611   4.691
 7808SOL    HW124323   0.291   3.595   4.728
 7808SOL    HW224324   0.447   3.544   4.728
 7809SOL     OW24325   2.427   6.264   5.166
 7809SOL    HW124326   2.476   6.186   5.207
 7809SOL    HW224327   2.383   6.235   5.081
 7810SOL     OW24328   3.847   0.220   5.738
 7810SOL    HW124329   3.752   0.192   5.757
 7810SOL    HW224330   3.864   0.211   5.640
 7811SOL     OW24331   6.758   4.221   3.981
 7811SOL    HW124332   6.806   4.177   4.057
 7811SOL    HW224333   6.810   4.208   3.897
 7812SOL     OW24334   0.919   2.260   3.624
 7812SOL    HW124335   0.972   2.184   3.661
 7812SOL    HW224336   0.956   2.346   3.658
 7813SOL     OW24337   4.864   2.606   6.034
 7813SOL    HW124338   4.860   2.545   5.955
 7813SOL    HW224339   4.886   2.552   6.116
 7814SOL     OW24340   6.636   2.673   3.631
 7814SOL    HW124341   6.704   2.680   3.704
 7814SOL    HW224342   6.617   2.576   3.613
 7815SOL     OW24343   4.740   1.198   6.937
 7815SOL    HW124344   4.688   1.258   6.876
 7815SOL    HW224345   4.838   1.215   6.925
 7816SOL     OW24346   1.780   2.853   6.236
 7816SOL    HW124347   1.723   2.826   6.159
 7816SOL    HW224348   1.743   2.813   6.320
 7817SOL     OW24349   6.379   3.430   3.940
 7817SOL    HW124350   6.468   3.388   3.921
 7817SOL    HW224351   6.350   3.407   4.032
 7818SOL     OW24352   4.423   0.906   2.416
 7818SOL    HW124353   4.504   0.873   2.464
 7818SOL    HW224354   4.451   0.957   2.335
 7819SOL     OW24355   0.130   2.863   1.827
 7819SOL    HW124356   0.046   2.813   1.847
 7819SOL    HW224357   0.114   2.962   1.837
 7820SOL     OW24358   1.793   2.249   4.686
 7820SOL    HW124359   1.819   2.180   4.754
 7820SOL    HW224360   1.785   2.206   4.596
 7821SOL     OW24361   4.546   5.598   1.397
 7821SOL    HW124362   4.526   5.693   1.376
 7821SOL    HW224363   4.612   5.562   1.331
 7822SOL     OW24364   0.172   0.765   5.012
 7822SOL    HW124365   0.113   0.684   5.020
 7822SOL    HW224366   0.116   0.848   5.021
 7823SOL     OW24367   2.144   3.910   4.899
 7823SOL    HW124368   2.103   3.981   4.842
 7823SOL    HW224369   2.225   3.946   4.945
 7824SOL     OW24370   6.527   2.222   4.988
 7824SOL    HW124371   6.607   2.171   4.956
 7824SOL    HW224372   6.464   2.237   4.912
 7825SOL     OW24373   2.183   2.640   0.271
 7825SOL    HW124374   2.151   2.733   0.253
 7825SOL    HW224375   2.155   2.579   0.197
 7826SOL     OW24376   6.299   1.228   0.916
 7826SOL    HW124377   6.384   1.212   0.967
 7826SOL    HW224378   6.305   1.315   0.867
 7827SOL     OW24379   1.313   5.468   1.352
 7827SOL    HW124380   1.328   5.567   1.354
 7827SOL    HW224381   1.395   5.422   1.388
 7828SOL     OW24382   6.197   4.574   6.960
 7828SOL    HW124383   6.211   4.526   6.874
 7828SOL    HW224384   6.202   4.509   0.017
 7829SOL     OW24385   2.863   2.921   1.189
 7829SOL    HW124386   2.771   2.924   1.227
 7829SOL    HW224387   2.861   2.879   1.099
 7830SOL     OW24388   3.228   5.361   5.657
 7830SOL    HW124389   3.243   5.284   5.596
 7830SOL    HW224390   3.311   5.380   5.709
 7831SOL     OW24391   2.071   0.365   2.246
 7831SOL    HW124392   2.042   0.393   2.154
 7831SOL    HW224393   2.047   0.437   2.312
 7832SOL     OW24394   6.043   0.483   4.328
 7832SOL    HW124395   5.962   0.542   4.322
 7832SOL    HW224396   6.026   0.410   4.393
 7833SOL     OW24397   1.581   1.016   4.869
 7833SOL    HW124398   1.568   0.920   4.894
 7833SOL    HW224399   1.537   1.034   4.781
 7834SOL     OW24400   0.269   1.862   3.363
 7834SOL    HW124401   0.252   1.895   3.270
 7834SOL    HW224402   0.185   1.824   3.401
 7835SOL     OW24403   4.026   1.859   4.623
 7835SOL    HW124404   3.966   1.939   4.620
 7835SOL    HW224405   4.121   1.889   4.616
 7836SOL     OW24406   3.239   4.186   5.523
 7836SOL    HW124407   3.167   4.255   5.532
 7836SOL    HW224408   3.284   4.196   5.434
 7837SOL     OW24409   5.378   5.936   0.154
 7837SOL    HW124410   5.414   5.983   0.235
 7837SOL    HW224411   5.445   5.939   0.080
 7838SOL     OW24412   4.458   5.872   1.422
 7838SOL    HW124413   4.485   5.906   1.332
 7838SOL    HW224414   4.433   5.949   1.481
 7839SOL     OW24415   5.836   3.890   5.002
 7839SOL    HW124416   5.768   3.962   5.002
 7839SOL    HW224417   5.836   3.843   5.090
 7840SOL     OW24418   0.506   3.965   4.717
 7840SOL    HW124419   0.587   3.905   4.722
 7840SOL    HW224420   0.484   4.000   4.808
 7841SOL     OW24421   4.319   1.784   6.701
 7841SOL    HW124422   4.265   1.725   6.762
 7841SOL    HW224423   4.396   1.823   6.751
 7842SOL     OW24424   1.984   1.370   2.375
 7842SOL    HW124425   2.058   1.344   2.437
 7842SOL    HW224426   2.004   1.335   2.284
 7843SOL     OW24427   0.184   6.591   4.187
 7843SOL    HW124428   0.242   6.585   4.106
 7843SOL    HW224429   0.094   6.625   4.160
 7844SOL     OW24430   3.973   0.233   2.311
 7844SOL    HW124431   3.959   0.332   2.316
 7844SOL    HW224432   3.902   0.186   2.364
 7845SOL     OW24433   5.323   2.137   1.974
 7845SOL    HW124434   5.296   2.174   1.885
 7845SOL    HW224435   5.251   2.156   2.040
 7846SOL     OW24436   1.157   2.247   0.717
 7846SOL    HW124437   1.146   2.328   0.659
 7846SOL    HW224438   1.140   2.165   0.663
 7847SOL     OW24439   6.272   1.590   3.702
 7847SOL    HW124440   6.289   1.638   3.788
 7847SOL    HW224441   6.207   1.643   3.647
 7848SOL     OW24442   3.378   4.354   0.699
 7848SOL    HW124443   3.302   4.349   0.764
 7848SOL    HW224444   3.464   4.344   0.748
 7849SOL     OW24445   5.988   3.671   5.188
 7849SOL    HW124446   6.053   3.681   5.113
 7849SOL    HW224447   5.911   3.614   5.159
 7850SOL     OW24448   0.419   2.182   3.957
 7850SOL    HW124449   0.352   2.115   3.925
 7850SOL    HW224450   0.511   2.151   3.933
 7851SOL     OW24451   0.604   2.635   1.755
 7851SOL    HW124452   0.638   2.578   1.681
 7851SOL    HW224453   0.617   2.589   1.842
 7852SOL     OW24454   2.774   0.630   0.410
 7852SOL    HW124455   2.693   0.687   0.399
 7852SOL    HW224456   2.840   0.676   0.470
 7853SOL     OW24457   4.802   3.265   1.453
 7853SOL    HW124458   4.884   3.278   1.509
 7853SOL    HW224459   4.813   3.314   1.366
 7854SOL     OW24460   3.858   2.589   6.034
 7854SOL    HW124461   3.876   2.501   6.078
 7854SOL    HW224462   3.759   2.607   6.034
 7855SOL     OW24463   4.610   5.828   4.689
 7855SOL    HW124464   4.709   5.822   4.693
 7855SOL    HW224465   4.583   5.923   4.670
 7856SOL     OW24466   0.788   5.054   5.527
 7856SOL    HW124467   0.728   5.117   5.477
 7856SOL    HW224468   0.774   4.961   5.492
 7857SOL     OW24469   4.789   3.752   0.488
 7857SOL    HW124470   4.867   3.719   0.541
 7857SOL    HW224471   4.714   3.686   0.494
 7858SOL     OW24472   6.611   6.205   4.416
 7858SOL    HW124473   6.616   6.150   4.499
 7858SOL    HW224474   6.518   6.200   4.378
 7859SOL     OW24475   4.690   3.596   6.861
 7859SOL    HW124476   4.609   3.544   6.887
 7859SOL    HW224477   4.741   3.622   6.943
 7860SOL     OW24478   4.002   1.396   4.128
 7860SOL    HW124479   4.000   1.495   4.144
 7860SOL    HW224480   3.909   1.363   4.112
 7861SOL     OW24481   2.634   5.047   1.889
 7861SOL    HW124482   2.577   5.124   1.916
 7861SOL    HW224483   2.603   5.011   1.801
 7862SOL     OW24484   2.679   6.054   2.096
 7862SOL    HW124485   2.658   6.070   2.192
 7862SOL    HW224486   2.629   5.974   2.063
 7863SOL     OW24487   0.760   4.545   3.581
 7863SOL    HW124488   0.660   4.539   3.587
 7863SOL    HW224489   0.786   4.625   3.528
 7864SOL     OW24490   1.407   5.525   6.256
 7864SOL    HW124491   1.342   5.600   6.258
 7864SOL    HW224492   1.364   5.442   6.293
 7865SOL     OW24493   6.402   5.723   4.122
 7865SOL    HW124494   6.498   5.713   4.149
 7865SOL    HW224495   6.382   5.661   4.046
 7866SOL     OW24496   1.990   0.704   5.537
 7866SOL    HW124497   2.054   0.680   5.464
 7866SOL    HW224498   1.959   0.621   5.584
 7867SOL     OW24499   5.588   6.776   3.136
 7867SOL    HW124500   5.521   6.757   3.208
 7867SOL    HW224501   5.678   6.791   3.177
 7868SOL     OW24502   3.643   5.833   0.649
 7868SOL    HW124503   3.590   5.821   0.565
 7868SOL    HW224504   3.664   5.743   0.688
 7869SOL     OW24505   5.131   4.595   5.728
 7869SOL    HW124506   5.109   4.639   5.815
 7869SOL    HW224507   5.064   4.524   5.708
 7870SOL     OW24508   5.047   6.987   4.627
 7870SOL    HW124509   5.124   6.988   4.563
 7870SOL    HW224510   5.002   0.057   4.627
 7871SOL     OW24511   5.778   1.933   2.001
 7871SOL    HW124512   5.750   1.895   1.912
 7871SOL    HW224513   5.711   2.000   2.032
 7872SOL     OW24514   1.709   4.455   2.518
 7872SOL    HW124515   1.648   4.401   2.576
 7872SOL    HW224516   1.780   4.396   2.481
 7873SOL     OW24517   6.377   1.004   0.315
 7873SOL    HW124518   6.332   0.977   0.229
 7873SOL    HW224519   6.381   1.104   0.320
 7874SOL     OW24520   5.322   2.805   1.169
 7874SOL    HW124521   5.348   2.724   1.222
 7874SOL    HW224522   5.321   2.782   1.072
 7875SOL     OW24523   3.849   3.358   0.553
 7875SOL    HW124524   3.928   3.321   0.601
 7875SOL    HW224525   3.814   3.290   0.489
 7876SOL     OW24526   1.196   6.917   3.588
 7876SOL    HW124527   1.170   6.889   3.680
 7876SOL    HW224528   1.237   7.009   3.591
 7877SOL     OW24529   6.818   2.148   2.937
 7877SOL    HW124530   6.721   2.125   2.930
 7877SOL    HW224531   6.865   2.121   2.854
 7878SOL     OW24532   4.833   4.002   3.445
 7878SOL    HW124533   4.796   4.029   3.356
 7878SOL    HW224534   4.806   3.908   3.465
 7879SOL     OW24535   3.364   4.976   2.790
 7879SOL    HW124536   3.446   4.930   2.758
 7879SOL    HW224537   3.304   4.997   2.712
 7880SOL     OW24538   2.611   3.557   1.086
 7880SOL    HW124539   2.617   3.458   1.102
 7880SOL    HW224540   2.539   3.575   1.019
 7881SOL     OW24541   4.598   4.357   4.381
 7881SOL    HW124542   4.676   4.301   4.409
 7881SOL    HW224543   4.521   4.298   4.357
 7882SOL     OW24544   2.146   3.604   1.461
 7882SOL    HW124545   2.163   3.658   1.378
 7882SOL    HW224546   2.198   3.644   1.537
 7883SOL     OW24547   1.175   0.169   5.897
 7883SOL    HW124548   1.148   0.091   5.840
 7883SOL    HW224549   1.134   0.160   5.987
 7884SOL     OW24550   0.932   4.603   4.314
 7884SOL    HW124551   0.921   4.581   4.217
 7884SOL    HW224552   1.015   4.561   4.349
 7885SOL     OW24553   6.624   5.605   0.799
 7885SOL    HW124554   6.577   5.625   0.884
 7885SOL    HW224555   6.653   5.509   0.799
 7886SOL     OW24556   4.071   5.808   0.477
 7886SOL    HW124557   4.066   5.727   0.535
 7886SOL    HW224558   4.154   5.859   0.499
 7887SOL     OW24559   3.186   2.107   0.044
 7887SOL    HW124560   3.229   2.191   0.079
 7887SOL    HW224561   3.094   2.098   0.082
 7888SOL     OW24562   5.189   0.865   3.918
 7888SOL    HW124563   5.190   0.879   4.017
 7888SOL    HW224564   5.099   0.890   3.882
 7889SOL     OW24565   1.557   5.303   1.410
 7889SOL    HW124566   1.543   5.204   1.408
 7889SOL    HW224567   1.642   5.324   1.457
 7890SOL     OW24568   2.170   3.882   2.470
 7890SOL    HW124569   2.135   3.969   2.434
 7890SOL    HW224570   2.254   3.858   2.420
 7891SOL     OW24571   2.237   4.947   2.482
 7891SOL    HW124572   2.306   4.877   2.463
 7891SOL    HW224573   2.149   4.903   2.497
 7892SOL     OW24574   2.153   2.268   4.595
 7892SOL    HW124575   2.076   2.300   4.540
 7892SOL    HW224576   2.142   2.300   4.689
 7893SOL     OW24577   6.265   6.900   1.526
 7893SOL    HW124578   6.325   6.977   1.550
 7893SOL    HW224579   6.228   6.859   1.609
 7894SOL     OW24580   2.577   6.217   1.885
 7894SOL    HW124581   2.603   6.174   1.972
 7894SOL    HW224582   2.633   6.180   1.812
 7895SOL     OW24583   6.191   1.298   5.459
 7895SOL    HW124584   6.279   1.250   5.463
 7895SOL    HW224585   6.207   1.396   5.456
 7896SOL     OW24586   4.557   4.044   6.161
 7896SOL    HW124587   4.505   4.126   6.136
 7896SOL    HW224588   4.568   4.041   6.261
 7897SOL     OW24589   2.559   3.834   6.106
 7897SOL    HW124590   2.632   3.899   6.083
 7897SOL    HW224591   2.525   3.854   6.198
 7898SOL     OW24592   4.810   2.325   3.700
 7898SOL    HW124593   4.718   2.312   3.736
 7898SOL    HW224594   4.816   2.283   3.609
 7899SOL     OW24595   6.637   1.990   1.346
 7899SOL    HW124596   6.716   2.050   1.350
 7899SOL    HW224597   6.667   1.897   1.325
 7900SOL     OW24598   1.129   4.831   1.149
 7900SOL    HW124599   1.216   4.782   1.141
 7900SOL    HW224600   1.092   4.849   1.058
 7901SOL     OW24601   5.170   0.126   5.879
 7901SOL    HW124602   5.083   0.153   5.838
 7901SOL    HW224603   5.192   0.033   5.852
 7902SOL     OW24604   4.856   5.330   1.586
 7902SOL    HW124605   4.843   5.296   1.492
 7902SOL    HW224606   4.937   5.388   1.589
 7903SOL     OW24607   6.116   1.991   0.403
 7903SOL    HW124608   6.060   1.999   0.320
 7903SOL    HW224609   6.057   1.988   0.483
 7904SOL     OW24610   6.201   0.518   2.983
 7904SOL    HW124611   6.166   0.462   2.908
 7904SOL    HW224612   6.301   0.520   2.980
 7905SOL     OW24613   4.836   1.821   0.516
 7905SOL    HW124614   4.822   1.797   0.420
 7905SOL    HW224615   4.931   1.847   0.530
 7906SOL     OW24616   0.002   5.959   6.679
 7906SOL    HW124617   0.080   5.990   6.623
 7906SOL    HW224618   0.036   5.908   6.758
 7907SOL     OW24619   6.310   2.869   4.328
 7907SOL    HW124620   6.375   2.798   4.299
 7907SOL    HW224621   6.297   2.864   4.427
 7908SOL     OW24622   1.570   1.033   4.061
 7908SOL    HW124623   1.615   0.980   3.990
 7908SOL    HW224624   1.582   1.131   4.044
 7909SOL     OW24625   4.934   3.820   4.834
 7909SOL    HW124626   4.894   3.751   4.895
 7909SOL    HW224627   4.989   3.775   4.764
 7910SOL     OW24628   3.527   2.896   5.445
 7910SOL    HW124629   3.625   2.886   5.462
 7910SOL    HW224630   3.504   2.851   5.358
 7911SOL     OW24631   0.234   4.741   0.160
 7911SOL    HW124632   0.227   4.662   0.221
 7911SOL    HW224633   0.144   4.761   0.122
 7912SOL     OW24634   6.767   5.357   7.003
 7912SOL    HW124635   6.756   5.273   6.949
 7912SOL    HW224636   6.678   5.386   0.018
 7913SOL     OW24637   0.393   5.672   6.767
 7913SOL    HW124638   0.448   5.614   6.707
 7913SOL    HW224639   0.313   5.622   6.797
 7914SOL     OW24640   0.091   5.011   0.303
 7914SOL    HW124641   0.018   4.965   0.353
 7914SOL    HW224642   0.177   5.000   0.352
 7915SOL     OW24643   5.092   2.600   2.624
 7915SOL    HW124644   5.122   2.691   2.597
 7915SOL    HW224645   5.003   2.580   2.583
 7916SOL     OW24646   5.517   3.826   5.349
 7916SOL    HW124647   5.598   3.880   5.371
 7916SOL    HW224648   5.495   3.837   5.252
 7917SOL     OW24649   3.800   3.074   3.737
 7917SOL    HW124650   3.831   3.039   3.825
 7917SOL    HW224651   3.880   3.092   3.678
 7918SOL     OW24652   6.013   1.998   1.373
 7918SOL    HW124653   5.958   2.073   1.410
 7918SOL    HW224654   6.103   1.997   1.418
 7919SOL     OW24655   6.810   4.075   3.377
 7919SOL    HW124656   6.733   4.097   3.317
 7919SOL    HW224657   6.887   4.134   3.356
 7920SOL     OW24658   6.908   5.015   1.103
 7920SOL    HW124659   6.958   5.049   1.183
 7920SOL    HW224660   6.816   4.988   1.131
 7921SOL     OW24661   3.341   6.509   0.750
 7921SOL    HW124662   3.315   6.578   0.817
 7921SOL    HW224663   3.273   6.436   0.748
 7922SOL     OW24664   6.793   5.810   0.146
 7922SOL    HW124665   6.812   5.768   0.058
 7922SOL    HW224666   6.695   5.804   0.165
 7923SOL     OW24667   1.816   0.921   2.924
 7923SOL    HW124668   1.830   1.015   2.893
 7923SOL    HW224669   1.898   0.889   2.972
 7924SOL     OW24670   3.499   6.353   3.473
 7924SOL    HW124671   3.552   6.431   3.440
 7924SOL    HW224672   3.512   6.344   3.572
 7925SOL     OW24673   6.806   1.838   6.479
 7925SOL    HW124674   6.747   1.828   6.399
 7925SOL    HW224675   6.890   1.786   6.466
 7926SOL     OW24676   3.849   0.609   3.728
 7926SOL    HW124677   3.786   0.548   3.776
 7926SOL    HW224678   3.891   0.672   3.793
 7927SOL     OW24679   3.884   5.265   4.582
 7927SOL    HW124680   3.918   5.358   4.594
 7927SOL    HW224681   3.859   5.250   4.486
 7928SOL     OW24682   1.211   4.242   3.353
 7928SOL    HW124683   1.219   4.192   3.439
 7928SOL    HW224684   1.248   4.334   3.363
 7929SOL     OW24685   4.100   3.747   5.035
 7929SOL    HW124686   4.148   3.664   5.006
 7929SOL    HW224687   4.057   3.791   4.957
 7930SOL     OW24688   5.142   5.818   3.439
 7930SOL    HW124689   5.052   5.773   3.442
 7930SOL    HW224690   5.134   5.905   3.391
 7931SOL     OW24691   1.848   2.167   6.859
 7931SOL    HW124692   1.817   2.073   6.854
 7931SOL    HW224693   1.906   2.180   6.939
 7932SOL     OW24694   2.605   6.966   6.890
 7932SOL    HW124695   2.522   7.007   6.854
 7932SOL    HW224696   2.661   6.932   6.814
 7933SOL     OW24697   0.447   7.015   0.281
 7933SOL    HW124698   0.386   0.075   0.272
 7933SOL    HW224699   0.450   6.987   0.377
 7934SOL     OW24700   2.563   3.375   0.247
 7934SOL    HW124701   2.593   3.451   0.304
 7934SOL    HW224702   2.560   3.292   0.301
 7935SOL     OW24703   5.229   5.689   0.000
 7935SOL    HW124704   5.180   5.679   6.932
 7935SOL    HW224705   5.171   5.737   0.065
 7936SOL     OW24706   3.266   5.650   2.814
 7936SOL    HW124707   3.352   5.689   2.780
 7936SOL    HW224708   3.284   5.565   2.862
 7937SOL     OW24709   5.276   7.001   4.513
 7937SOL    HW124710   5.294   0.041   4.435
 7937SOL    HW224711   5.337   6.922   4.510
 7938SOL     OW24712   5.029   5.017   4.814
 7938SOL    HW124713   5.061   4.959   4.739
 7938SOL    HW224714   5.103   5.026   4.882
 7939SOL     OW24715   1.011   1.923   5.858
 7939SOL    HW124716   1.057   1.836   5.841
 7939SOL    HW224717   0.972   1.923   5.950
 7940SOL     OW24718   2.429   5.250   1.924
 7940SOL    HW124719   2.407   5.222   2.018
 7940SOL    HW224720   2.363   5.209   1.861
 7941SOL     OW24721   6.573   6.672   1.387
 7941SOL    HW124722   6.633   6.675   1.307
 7941SOL    HW224723   6.485   6.714   1.364
 7942SOL     OW24724   0.043   6.723   2.948
 7942SOL    HW124725   0.059   6.784   2.871
 7942SOL    HW224726   0.130   6.701   2.992
 7943SOL     OW24727   5.911   2.061   1.147
 7943SOL    HW124728   5.960   2.030   1.228
 7943SOL    HW224729   5.883   1.982   1.092
 7944SOL     OW24730   0.233   3.520   0.878
 7944SOL    HW124731   0.196   3.577   0.804
 7944SOL    HW224732   0.207   3.425   0.862
 7945SOL     OW24733   5.186   0.197   2.574
 7945SOL    HW124734   5.110   0.237   2.522
 7945SOL    HW224735   5.253   0.159   2.510
 7946SOL     OW24736   1.395   2.325   5.834
 7946SOL    HW124737   1.473   2.266   5.854
 7946SOL    HW224738   1.341   2.286   5.760
 7947SOL     OW24739   4.024   2.911   6.590
 7947SOL    HW124740   3.995   2.972   6.516
 7947SOL    HW224741   3.992   2.819   6.572
 7948SOL     OW24742   6.612   6.705   0.967
 7948SOL    HW124743   6.684   6.725   1.033
 7948SOL    HW224744   6.527   6.748   0.997
 7949SOL     OW24745   5.151   5.060   4.299
 7949SOL    HW124746   5.234   5.046   4.352
 7949SOL    HW224747   5.138   4.982   4.237
 7950SOL     OW24748   4.706   5.099   3.467
 7950SOL    HW124749   4.729   5.077   3.561
 7950SOL    HW224750   4.620   5.054   3.442
 7951SOL     OW24751   2.830   3.252   0.920
 7951SOL    HW124752   2.780   3.276   1.003
 7951SOL    HW224753   2.850   3.335   0.868
 7952SOL     OW24754   6.967   3.087   6.430
 7952SOL    HW124755   0.037   3.046   6.449
 7952SOL    HW224756   6.907   3.019   6.389
 7953SOL     OW24757   2.202   2.813   3.017
 7953SOL    HW124758   2.118   2.836   2.969
 7953SOL    HW224759   2.265   2.766   2.955
 7954SOL     OW24760   4.477   5.369   4.631
 7954SOL    HW124761   4.508   5.342   4.540
 7954SOL    HW224762   4.385   5.334   4.648
 7955SOL     OW24763   6.980   6.566   6.360
 7955SOL    HW124764   7.011   6.621   6.438
 7955SOL    HW224765   0.040   6.524   6.316
 7956SOL     OW24766   0.610   5.513   3.289
 7956SOL    HW124767   0.641   5.563   3.370
 7956SOL    HW224768   0.532   5.455   3.313
 7957SOL     OW24769   2.030   1.812   0.520
 7957SOL    HW124770   2.129   1.801   0.509
 7957SOL    HW224771   1.997   1.880   0.454
 7958SOL     OW24772   3.294   5.477   4.444
 7958SOL    HW124773   3.238   5.541   4.496
 7958SOL    HW224774   3.323   5.402   4.504
 7959SOL     OW24775   4.178   4.970   0.335
 7959SOL    HW124776   4.252   4.912   0.302
 7959SOL    HW224777   4.133   5.014   0.257
 7960SOL     OW24778   3.402   1.967   1.527
 7960SOL    HW124779   3.401   1.975   1.428
 7960SOL    HW224780   3.441   2.049   1.567
 7961SOL     OW24781   2.274   6.095   6.235
 7961SOL    HW124782   2.341   6.156   6.276
 7961SOL    HW224783   2.182   6.135   6.244
 7962SOL     OW24784   2.210   0.385   1.013
 7962SOL    HW124785   2.115   0.386   0.982
 7962SOL    HW224786   2.218   0.324   1.092
 7963SOL     OW24787   0.097   1.484   4.540
 7963SOL    HW124788   0.083   1.583   4.534
 7963SOL    HW224789   0.167   1.456   4.474
 7964SOL     OW24790   5.958   5.148   3.813
 7964SOL    HW124791   6.029   5.161   3.743
 7964SOL    HW224792   5.989   5.082   3.881
 7965SOL     OW24793   4.332   3.084   0.060
 7965SOL    HW124794   4.294   3.012   0.118
 7965SOL    HW224795   4.279   3.168   0.073
 7966SOL     OW24796   1.243   3.563   4.918
 7966SOL    HW124797   1.245   3.663   4.923
 7966SOL    HW224798   1.149   3.531   4.930
 7967SOL     OW24799   2.659   6.430   3.699
 7967SOL    HW124800   2.736   6.406   3.641
 7967SOL    HW224801   2.594   6.355   3.701
 7968SOL     OW24802   2.175   2.952   3.257
 7968SOL    HW124803   2.170   2.891   3.178
 7968SOL    HW224804   2.239   2.914   3.324
 7969SOL     OW24805   4.090   6.969   1.939
 7969SOL    HW124806   4.071   0.047   1.953
 7969SOL    HW224807   4.007   6.916   1.954
 7970SOL     OW24808   0.293   3.801   2.575
 7970SOL    HW124809   0.237   3.882   2.558
 7970SOL    HW224810   0.248   3.721   2.535
 7971SOL     OW24811   3.405   1.009   1.744
 7971SOL    HW124812   3.442   1.089   1.696
 7971SOL    HW224813   3.342   1.040   1.816
 7972SOL     OW24814   6.590   4.258   1.264
 7972SOL    HW124815   6.620   4.350   1.288
 7972SOL    HW224816   6.564   4.209   1.347
 7973SOL     OW24817   5.206   3.473   3.714
 7973SOL    HW124818   5.273   3.547   3.723
 7973SOL    HW224819   5.249   3.395   3.669
 7974SOL     OW24820   6.295   0.502   4.360
 7974SOL    HW124821   6.199   0.494   4.332
 7974SOL    HW224822   6.314   0.435   4.432
 7975SOL     OW24823   5.381   0.518   4.226
 7975SOL    HW124824   5.313   0.591   4.223
 7975SOL    HW224825   5.345   0.437   4.180
 7976SOL     OW24826   0.366   6.621   5.274
 7976SOL    HW124827   0.345   6.535   5.320
 7976SOL    HW224828   0.280   6.666   5.248
 7977SOL     OW24829   4.242   5.892   2.675
 7977SOL    HW124830   4.179   5.859   2.746
 7977SOL    HW224831   4.203   5.972   2.630
 7978SOL     OW24832   5.661   4.426   6.156
 7978SOL    HW124833   5.603   4.459   6.081
 7978SOL    HW224834   5.685   4.330   6.140
 7979SOL     OW24835   3.029   0.196   4.926
 7979SOL    HW124836   2.930   0.182   4.934
 7979SOL    HW224837   3.072   0.174   5.014
 7980SOL     OW24838   3.647   5.285   0.178
 7980SOL    HW124839   3.660   5.213   0.110
 7980SOL    HW224840   3.686   5.256   0.266
 7981SOL     OW24841   0.906   5.264   1.330
 7981SOL    HW124842   0.927   5.166   1.330
 7981SOL    HW224843   0.821   5.280   1.380
 7982SOL     OW24844   0.041   2.520   0.871
 7982SOL    HW124845   7.004   2.586   0.922
 7982SOL    HW224846   0.137   2.533   0.893
 7983SOL     OW24847   5.449   2.248   3.318
 7983SOL    HW124848   5.466   2.207   3.407
 7983SOL    HW224849   5.519   2.216   3.253
 7984SOL     OW24850   1.174   1.768   1.984
 7984SOL    HW124851   1.199   1.783   1.889
 7984SOL    HW224852   1.183   1.854   2.035
 7985SOL     OW24853   1.697   0.202   2.770
 7985SOL    HW124854   1.767   0.271   2.782
 7985SOL    HW224855   1.643   0.223   2.688
 7986SOL     OW24856   3.511   1.227   0.128
 7986SOL    HW124857   3.413   1.233   0.115
 7986SOL    HW224858   3.539   1.131   0.130
 7987SOL     OW24859   0.504   3.660   6.203
 7987SOL    HW124860   0.538   3.729   6.267
 7987SOL    HW224861   0.445   3.596   6.252
 7988SOL     OW24862   2.554   2.562   4.592
 7988SOL    HW124863   2.584   2.532   4.502
 7988SOL    HW224864   2.633   2.568   4.654
 7989SOL     OW24865   3.428   2.673   5.261
 7989SOL    HW124866   3.520   2.641   5.285
 7989SOL    HW224867   3.360   2.610   5.300
 7990SOL     OW24868   1.014   3.905   3.006
 7990SOL    HW124869   0.943   3.834   3.005
 7990SOL    HW224870   0.978   3.988   3.048
 7991SOL     OW24871   0.086   2.459   5.927
 7991SOL    HW124872   0.181   2.445   5.900
 7991SOL    HW224873   0.039   2.513   5.858
 7992SOL     OW24874   1.087   5.884   1.018
 7992SOL    HW124875   1.151   5.852   1.088
 7992SOL    HW224876   1.014   5.816   1.007
 7993SOL     OW24877   2.187   5.628   6.565
 7993SOL    HW124878   2.158   5.554   6.626
 7993SOL    HW224879   2.195   5.592   6.472
 7994SOL     OW24880   4.466   0.545   3.756
 7994SOL    HW124881   4.563   0.570   3.762
 7994SOL    HW224882   4.447   0.471   3.821
 7995SOL     OW24883   3.669   5.415   3.648
 7995SOL    HW124884   3.704   5.362   3.571
 7995SOL    HW224885   3.721   5.500   3.656
 7996SOL     OW24886   3.349   6.220   4.425
 7996SOL    HW124887   3.409   6.146   4.394
 7996SOL    HW224888   3.405   6.300   4.449
 7997SOL     OW24889   6.388   1.877   1.256
 7997SOL    HW124890   6.444   1.948   1.301
 7997SOL    HW224891   6.436   1.844   1.175
 7998SOL     OW24892   4.464   5.297   0.349
 7998SOL    HW124893   4.454   5.396   0.360
 7998SOL    HW224894   4.435   5.271   0.257
 7999SOL     OW24895   1.421   6.778   6.013
 7999SOL    HW124896   1.370   6.720   5.949
 7999SOL    HW224897   1.377   6.775   6.103
 8000SOL     OW24898   5.700   0.333   6.267
 8000SOL    HW124899   5.643   0.307   6.189
 8000SOL    HW224900   5.658   0.410   6.315
 8001SOL     OW24901   2.955   6.151   1.820
 8001SOL    HW124902   3.053   6.170   1.828
 8001SOL    HW224903   2.936   6.060   1.857
 8002SOL     OW24904   0.332   3.395   6.000
 8002SOL    HW124905   0.304   3.475   5.947
 8002SOL    HW224906   0.258   3.328   6.000
 8003SOL     OW24907   2.754   4.679   2.488
 8003SOL    HW124908   2.739   4.701   2.392
 8003SOL    HW224909   2.848   4.705   2.514
 8004SOL     OW24910   1.841   4.649   3.213
 8004SOL    HW124911   1.901   4.644   3.134
 8004SOL    HW224912   1.877   4.591   3.286
 8005SOL     OW24913   3.578   1.164   2.169
 8005SOL    HW124914   3.590   1.066   2.153
 8005SOL    HW224915   3.508   1.178   2.240
 8006SOL     OW24916   2.795   5.798   0.315
 8006SOL    HW124917   2.841   5.822   0.400
 8006SOL    HW224918   2.804   5.873   0.249
 8007SOL     OW24919   0.583   0.421   4.087
 8007SOL    HW124920   0.567   0.422   3.988
 8007SOL    HW224921   0.667   0.371   4.106
 8008SOL     OW24922   5.004   6.672   6.134
 8008SOL    HW124923   5.048   6.611   6.200
 8008SOL    HW224924   4.914   6.636   6.110
 8009SOL     OW24925   6.188   0.357   2.768
 8009SOL    HW124926   6.114   0.305   2.725
 8009SOL    HW224927   6.275   0.330   2.727
 8010SOL     OW24928   1.851   1.685   6.906
 8010SOL    HW124929   1.754   1.670   6.925
 8010SOL    HW224930   1.891   1.602   6.867
 8011SOL     OW24931   2.126   2.542   1.457
 8011SOL    HW124932   2.178   2.540   1.542
 8011SOL    HW224933   2.033   2.509   1.474
 8012SOL     OW24934   1.660   5.993   1.234
 8012SOL    HW124935   1.588   6.061   1.249
 8012SOL    HW224936   1.640   5.911   1.289
 8013SOL     OW24937   0.418   5.318   4.692
 8013SOL    HW124938   0.422   5.405   4.740
 8013SOL    HW224939   0.341   5.319   4.628
 8014SOL     OW24940   1.228   6.012   5.516
 8014SOL    HW124941   1.149   5.965   5.555
 8014SOL    HW224942   1.307   6.001   5.575
 8015SOL     OW24943   3.075   1.838   0.461
 8015SOL    HW124944   3.106   1.797   0.547
 8015SOL    HW224945   3.154   1.859   0.404
 8016SOL     OW24946   4.752   0.315   0.261
 8016SOL    HW124947   4.767   0.230   0.212
 8016SOL    HW224948   4.729   0.388   0.196
 8017SOL     OW24949   0.332   4.464   5.826
 8017SOL    HW124950   0.362   4.459   5.922
 8017SOL    HW224951   0.345   4.557   5.792
 8018SOL     OW24952   4.778   1.845   5.960
 8018SOL    HW124953   4.680   1.865   5.956
 8018SOL    HW224954   4.828   1.910   5.903
 8019SOL     OW24955   2.009   3.968   0.045
 8019SOL    HW124956   1.969   4.021   0.120
 8019SOL    HW224957   2.063   4.028   7.005
 8020SOL     OW24958   5.890   6.475   6.981
 8020SOL    HW124959   5.884   6.395   6.922
 8020SOL    HW224960   5.980   6.516   6.974
 8021SOL     OW24961   0.891   1.767   2.007
 8021SOL    HW124962   0.977   1.719   2.024
 8021SOL    HW224963   0.910   1.865   1.998
 8022SOL     OW24964   4.230   1.052   2.875
 8022SOL    HW124965   4.317   1.093   2.901
 8022SOL    HW224966   4.247   0.977   2.810
 8023SOL     OW24967   5.876   6.050   3.206
 8023SOL    HW124968   5.856   6.148   3.206
 8023SOL    HW224969   5.811   6.003   3.266
 8024SOL     OW24970   3.287   5.365   6.661
 8024SOL    HW124971   3.272   5.309   6.580
 8024SOL    HW224972   3.325   5.454   6.634
 8025SOL     OW24973   3.786   6.510   5.627
 8025SOL    HW124974   3.721   6.585   5.632
 8025SOL    HW224975   3.745   6.427   5.666
 8026SOL     OW24976   0.335   3.800   6.808
 8026SOL    HW124977   0.241   3.768   6.802
 8026SOL    HW224978   0.340   3.876   6.874
 8027SOL     OW24979   4.445   2.213   5.345
 8027SOL    HW124980   4.406   2.132   5.388
 8027SOL    HW224981   4.529   2.240   5.393
 8028SOL     OW24982   3.514   4.707   5.283
 8028SOL    HW124983   3.478   4.615   5.296
 8028SOL    HW224984   3.610   4.710   5.312
 8029SOL     OW24985   5.648   3.897   6.505
 8029SOL    HW124986   5.654   3.990   6.468
 8029SOL    HW224987   5.622   3.834   6.432
 8030SOL     OW24988   5.737   4.053   5.624
 8030SOL    HW124989   5.699   4.008   5.705
 8030SOL    HW224990   5.732   4.152   5.635
 8031SOL     OW24991   5.065   5.841   2.134
 8031SOL    HW124992   5.153   5.796   2.118
 8031SOL    HW224993   5.081   5.936   2.160
 8032SOL     OW24994   6.210   4.121   5.153
 8032SOL    HW124995   6.306   4.103   5.175
 8032SOL    HW224996   6.199   4.123   5.054
 8033SOL     OW24997   5.477   3.023   0.038
 8033SOL    HW124998   5.390   2.981   0.012
 8033SOL    HW224999   5.498   3.097   6.993
 8034SOL     OW25000   6.406   1.198   5.289
 8034SOL    HW125001   6.468   1.211   5.212
 8034SOL    HW225002   6.346   1.121   5.272
 8035SOL     OW25003   5.450   0.136   5.021
 8035SOL    HW125004   5.544   0.165   5.034
 8035SOL    HW225005   5.417   0.168   4.933
 8036SOL     OW25006   1.092   3.517   1.707
 8036SOL    HW125007   1.112   3.425   1.740
 8036SOL    HW225008   1.153   3.537   1.630
 8037SOL     OW25009   1.627   3.381   1.920
 8037SOL    HW125010   1.703   3.378   1.854
 8037SOL    HW225011   1.562   3.451   1.892
 8038SOL     OW25012   5.375   2.072   2.892
 8038SOL    HW125013   5.398   2.056   2.795
 8038SOL    HW225014   5.285   2.115   2.898
 8039SOL     OW25015   1.979   6.754   3.371
 8039SOL    HW125016   1.980   6.849   3.339
 8039SOL    HW225017   2.043   6.745   3.448
 8040SOL     OW25018   0.515   5.205   0.943
 8040SOL    HW125019   0.600   5.232   0.987
 8040SOL    HW225020   0.437   5.236   0.997
 8041SOL     OW25021   3.803   1.927   1.686
 8041SOL    HW125022   3.827   1.865   1.612
 8041SOL    HW225023   3.777   2.016   1.649
 8042SOL     OW25024   3.351   2.817   2.036
 8042SOL    HW125025   3.309   2.906   2.047
 8042SOL    HW225026   3.348   2.767   2.122
 8043SOL     OW25027   2.974   0.063   0.617
 8043SOL    HW125028   2.923   6.996   0.617
 8043SOL    HW225029   2.947   0.119   0.538
 8044SOL     OW25030   3.100   2.783   1.206
 8044SOL    HW125031   3.010   2.821   1.225
 8044SOL    HW225032   3.091   2.689   1.174
 8045SOL     OW25033   5.652   1.125   2.073
 8045SOL    HW125034   5.566   1.096   2.032
 8045SOL    HW225035   5.725   1.119   2.005
 8046SOL     OW25036   6.115   4.878   5.723
 8046SOL    HW125037   6.023   4.911   5.746
 8046SOL    HW225038   6.149   4.821   5.798
 8047SOL     OW25039   3.126   4.921   4.731
 8047SOL    HW125040   3.184   4.969   4.797
 8047SOL    HW225041   3.050   4.877   4.780
 8048SOL     OW25042   5.183   1.254   5.167
 8048SOL    HW125043   5.161   1.336   5.219
 8048SOL    HW225044   5.170   1.173   5.225
 8049SOL     OW25045   0.807   6.204   1.624
 8049SOL    HW125046   0.888   6.254   1.595
 8049SOL    HW225047   0.776   6.239   1.713
 8050SOL     OW25048   0.908   3.865   1.540
 8050SOL    HW125049   0.879   3.824   1.453
 8050SOL    HW225050   0.998   3.830   1.565
 8051SOL     OW25051   5.214   7.008   3.468
 8051SOL    HW125052   5.165   6.966   3.391
 8051SOL    HW225053   5.298   0.032   3.434
 8052SOL     OW25054   3.417   1.630   2.150
 8052SOL    HW125055   3.413   1.540   2.108
 8052SOL    HW225056   3.325   1.664   2.168
 8053SOL     OW25057   4.041   3.813   2.790
 8053SOL    HW125058   3.953   3.765   2.789
 8053SOL    HW225059   4.107   3.760   2.843
 8054SOL     OW25060   4.763   6.602   4.429
 8054SOL    HW125061   4.726   6.641   4.513
 8054SOL    HW225062   4.852   6.644   4.409
 8055SOL     OW25063   0.826   0.276   5.577
 8055SOL    HW125064   0.861   0.248   5.487
 8055SOL    HW225065   0.887   0.345   5.616
 8056SOL     OW25066   4.674   1.233   3.287
 8056SOL    HW125067   4.640   1.228   3.193
 8056SOL    HW225068   4.609   1.187   3.348
 8057SOL     OW25069   3.114   0.785   2.695
 8057SOL    HW125070   3.159   0.843   2.762
 8057SOL    HW225071   3.079   0.841   2.620
 8058SOL     OW25072   3.332   0.093   2.961
 8058SOL    HW125073   3.239   0.129   2.951
 8058SOL    HW225074   3.386   0.156   3.017
 8059SOL     OW25075   3.678   2.027   4.863
 8059SOL    HW125076   3.757   2.061   4.813
 8059SOL    HW225077   3.641   1.946   4.816
 8060SOL     OW25078   0.702   1.277   4.633
 8060SOL    HW125079   0.725   1.364   4.589
 8060SOL    HW225080   0.700   1.205   4.564
 8061SOL     OW25081   7.001   5.927   1.935
 8061SOL    HW125082   0.063   5.979   1.909
 8061SOL    HW225083   6.923   5.989   1.947
 8062SOL     OW25084   2.226   4.345   4.010
 8062SOL    HW125085   2.258   4.264   4.060
 8062SOL    HW225086   2.141   4.378   4.050
 8063SOL     OW25087   2.143   3.487   0.005
 8063SOL    HW125088   2.161   3.576   0.048
 8063SOL    HW225089   2.179   3.487   6.931
 8064SOL     OW25090   0.362   4.680   0.510
 8064SOL    HW125091   0.358   4.771   0.551
 8064SOL    HW225092   0.271   4.638   0.513
 8065SOL     OW25093   3.954   6.776   3.990
 8065SOL    HW125094   4.031   6.831   3.958
 8065SOL    HW225095   3.914   6.727   3.913
 8066SOL     OW25096   1.534   0.863   6.664
 8066SOL    HW125097   1.550   0.941   6.724
 8066SOL    HW225098   1.558   0.887   6.570
 8067SOL     OW25099   4.062   3.392   1.510
 8067SOL    HW125100   4.093   3.428   1.423
 8067SOL    HW225101   3.980   3.336   1.496
 8068SOL     OW25102   6.224   6.103   5.180
 8068SOL    HW125103   6.299   6.162   5.209
 8068SOL    HW225104   6.184   6.139   5.095
 8069SOL     OW25105   2.819   5.892   1.515
 8069SOL    HW125106   2.804   5.960   1.444
 8069SOL    HW225107   2.908   5.906   1.557
 8070SOL     OW25108   2.576   4.761   1.010
 8070SOL    HW125109   2.606   4.726   0.921
 8070SOL    HW225110   2.481   4.734   1.025
 8071SOL     OW25111   4.148   6.891   4.734
 8071SOL    HW125112   4.213   6.869   4.807
 8071SOL    HW225113   4.191   6.874   4.646
 8072SOL     OW25114   3.533   1.422   0.473
 8072SOL    HW125115   3.562   1.392   0.563
 8072SOL    HW225116   3.441   1.388   0.454
 8073SOL     OW25117   5.238   0.334   6.335
 8073SOL    HW125118   5.170   0.295   6.273
 8073SOL    HW225119   5.262   0.267   6.406
 8074SOL     OW25120   3.205   2.827   0.363
 8074SOL    HW125121   3.192   2.910   0.417
 8074SOL    HW225122   3.249   2.757   0.419
 8075SOL     OW25123   6.441   1.635   1.406
 8075SOL    HW125124   6.403   1.558   1.355
 8075SOL    HW225125   6.436   1.717   1.349
 8076SOL     OW25126   4.776   2.405   5.855
 8076SOL    HW125127   4.723   2.320   5.861
 8076SOL    HW225128   4.741   2.461   5.779
 8077SOL     OW25129   0.405   6.778   1.547
 8077SOL    HW125130   0.491   6.728   1.550
 8077SOL    HW225131   0.368   6.786   1.639
 8078SOL     OW25132   6.395   1.854   0.404
 8078SOL    HW125133   6.319   1.918   0.408
 8078SOL    HW225134   6.426   1.834   0.497
 8079SOL     OW25135   6.013   2.226   3.229
 8079SOL    HW125136   6.011   2.313   3.180
 8079SOL    HW225137   6.031   2.242   3.326
 8080SOL     OW25138   1.999   3.567   0.534
 8080SOL    HW125139   1.923   3.511   0.566
 8080SOL    HW225140   1.963   3.652   0.494
 8081SOL     OW25141   5.577   0.773   5.257
 8081SOL    HW125142   5.558   0.766   5.355
 8081SOL    HW225143   5.491   0.774   5.207
 8082SOL     OW25144   5.792   2.384   2.759
 8082SOL    HW125145   5.891   2.385   2.745
 8082SOL    HW225146   5.752   2.306   2.710
 8083SOL     OW25147   4.908   3.217   2.102
 8083SOL    HW125148   4.825   3.162   2.117
 8083SOL    HW225149   4.988   3.159   2.111
 8084SOL     OW25150   6.163   6.293   1.161
 8084SOL    HW125151   6.095   6.343   1.215
 8084SOL    HW225152   6.252   6.337   1.172
 8085SOL     OW25153   6.205   0.300   1.351
 8085SOL    HW125154   6.119   0.250   1.339
 8085SOL    HW225155   6.205   0.382   1.294
 8086SOL     OW25156   3.870   6.980   3.739
 8086SOL    HW125157   3.849   0.048   3.693
 8086SOL    HW225158   3.967   6.978   3.763
 8087SOL     OW25159   2.552   1.869   1.117
 8087SOL    HW125160   2.632   1.852   1.174
 8087SOL    HW225161   2.514   1.959   1.138
 8088SOL     OW25162   6.477   1.705   1.850
 8088SOL    HW125163   6.525   1.719   1.764
 8088SOL    HW225164   6.416   1.626   1.842
 8089SOL     OW25165   5.137   2.215   6.721
 8089SOL    HW125166   5.073   2.197   6.646
 8089SOL    HW225167   5.170   2.309   6.714
 8090SOL     OW25168   4.879   1.793   6.652
 8090SOL    HW125169   4.975   1.798   6.680
 8090SOL    HW225170   4.874   1.783   6.553
 8091SOL     OW25171   3.428   4.193   0.046
 8091SOL    HW125172   3.393   4.252   6.993
 8091SOL    HW225173   3.516   4.154   0.017
 8092SOL     OW25174   1.744   1.275   4.753
 8092SOL    HW125175   1.725   1.332   4.833
 8092SOL    HW225176   1.666   1.214   4.737
 8093SOL     OW25177   6.252   6.059   1.286
 8093SOL    HW125178   6.242   6.150   1.246
 8093SOL    HW225179   6.344   6.049   1.325
 8094SOL     OW25180   1.871   4.406   5.830
 8094SOL    HW125181   1.897   4.415   5.926
 8094SOL    HW225182   1.932   4.460   5.773
 8095SOL     OW25183   6.161   3.600   3.880
 8095SOL    HW125184   6.136   3.645   3.966
 8095SOL    HW225185   6.252   3.560   3.890
 8096SOL     OW25186   2.883   5.773   3.331
 8096SOL    HW125187   2.844   5.715   3.403
 8096SOL    HW225188   2.952   5.722   3.280
 8097SOL     OW25189   5.191   0.586   3.815
 8097SOL    HW125190   5.190   0.684   3.836
 8097SOL    HW225191   5.115   0.541   3.863
 8098SOL     OW25192   2.079   6.446   4.300
 8098SOL    HW125193   2.132   6.485   4.224
 8098SOL    HW225194   2.037   6.361   4.269
 8099SOL     OW25195   6.398   0.874   3.930
 8099SOL    HW125196   6.433   0.803   3.869
 8099SOL    HW225197   6.436   0.963   3.903
 8100SOL     OW25198   0.405   6.519   0.220
 8100SOL    HW125199   0.433   6.480   0.307
 8100SOL    HW225200   0.484   6.529   0.160
 8101SOL     OW25201   1.689   6.873   4.718
 8101SOL    HW125202   1.777   6.896   4.759
 8101SOL    HW225203   1.659   6.949   4.660
 8102SOL     OW25204   0.755   5.501   6.345
 8102SOL    HW125205   0.853   5.487   6.360
 8102SOL    HW225206   0.740   5.591   6.304
 8103SOL     OW25207   4.020   0.986   1.689
 8103SOL    HW125208   4.053   1.023   1.776
 8103SOL    HW225209   3.975   0.898   1.706
 8104SOL     OW25210   3.959   0.001   6.268
 8104SOL    HW125211   3.951   0.035   6.174
 8104SOL    HW225212   4.053   0.012   6.300
 8105SOL     OW25213   2.485   2.544   3.529
 8105SOL    HW125214   2.564   2.497   3.567
 8105SOL    HW225215   2.436   2.484   3.466
 8106SOL     OW25216   1.576   5.044   3.499
 8106SOL    HW125217   1.573   5.096   3.414
 8106SOL    HW225218   1.522   4.960   3.489
 8107SOL     OW25219   1.862   6.017   5.913
 8107SOL    HW125220   1.834   5.938   5.968
 8107SOL    HW225221   1.958   6.008   5.888
 8108SOL     OW25222   6.964   2.876   4.829
 8108SOL    HW125223   6.925   2.968   4.831
 8108SOL    HW225224   6.901   2.812   4.874
 8109SOL     OW25225   1.913   4.100   4.854
 8109SOL    HW125226   1.847   4.032   4.821
 8109SOL    HW225227   1.891   4.125   4.948
 8110SOL     OW25228   3.079   6.574   0.379
 8110SOL    HW125229   3.132   6.579   0.294
 8110SOL    HW225230   3.088   6.660   0.429
 8111SOL     OW25231   2.886   6.639   5.387
 8111SOL    HW125232   2.891   6.540   5.400
 8111SOL    HW225233   2.855   6.683   5.471
 8112SOL     OW25234   2.798   0.486   5.512
 8112SOL    HW125235   2.790   0.501   5.414
 8112SOL    HW225236   2.851   0.403   5.529
 8113SOL     OW25237   2.942   2.618   0.321
 8113SOL    HW125238   3.016   2.671   0.364
 8113SOL    HW225239   2.869   2.603   0.388
 8114SOL     OW25240   2.283   2.718   2.148
 8114SOL    HW125241   2.253   2.814   2.147
 8114SOL    HW225242   2.210   2.659   2.114
 8115SOL     OW25243   4.004   1.305   1.362
 8115SOL    HW125244   4.049   1.376   1.307
 8115SOL    HW225245   3.915   1.338   1.392
 8116SOL     OW25246   5.520   0.192   5.359
 8116SOL    HW125247   5.520   0.258   5.285
 8116SOL    HW225248   5.614   0.161   5.377
 8117SOL     OW25249   1.790   2.010   3.848
 8117SOL    HW125250   1.821   2.093   3.802
 8117SOL    HW225251   1.837   1.931   3.808
 8118SOL     OW25252   0.648   3.938   5.780
 8118SOL    HW125253   0.613   4.026   5.810
 8118SOL    HW225254   0.638   3.870   5.853
 8119SOL     OW25255   0.361   5.680   4.143
 8119SOL    HW125256   0.448   5.676   4.094
 8119SOL    HW225257   0.331   5.775   4.151
 8120SOL     OW25258   3.950   4.286   6.818
 8120SOL    HW125259   3.870   4.285   6.878
 8120SOL    HW225260   4.033   4.269   6.871
 8121SOL     OW25261   0.112   6.484   3.379
 8121SOL    HW125262   0.060   6.489   3.293
 8121SOL    HW225263   0.126   6.388   3.404
 8122SOL     OW25264   0.559   4.806   2.228
 8122SOL    HW125265   0.571   4.713   2.262
 8122SOL    HW225266   0.485   4.851   2.277
 8123SOL     OW25267   0.910   0.483   6.252
 8123SOL    HW125268   1.008   0.486   6.235
 8123SOL    HW225269   0.893   0.441   6.341
 8124SOL     OW25270   1.525   6.274   1.314
 8124SOL    HW125271   1.429   6.297   1.300
 8124SOL    HW225272   1.567   6.253   1.226
 8125SOL     OW25273   6.135   4.912   2.980
 8125SOL    HW125274   6.218   4.937   3.030
 8125SOL    HW225275   6.116   4.814   2.994
 8126SOL     OW25276   6.150   4.873   2.476
 8126SOL    HW125277   6.151   4.786   2.425
 8126SOL    HW225278   6.178   4.856   2.570
 8127SOL     OW25279   2.482   5.097   0.427
 8127SOL    HW125280   2.465   5.138   0.516
 8127SOL    HW225281   2.581   5.094   0.411
 8128SOL     OW25282   2.941   2.600   6.632
 8128SOL    HW125283   3.018   2.628   6.690
 8128SOL    HW225284   2.861   2.581   6.690
 8129SOL     OW25285   5.347   1.020   6.548
 8129SOL    HW125286   5.369   0.959   6.624
 8129SOL    HW225287   5.362   1.115   6.576
 8130SOL     OW25288   1.080   5.590   5.863
 8130SOL    HW125289   1.021   5.569   5.785
 8130SOL    HW225290   1.024   5.605   5.944
 8131SOL     OW25291   3.234   1.085   0.310
 8131SOL    HW125292   3.134   1.080   0.311
 8131SOL    HW225293   3.265   1.106   0.217
 8132SOL     OW25294   5.606   5.519   5.482
 8132SOL    HW125295   5.575   5.614   5.489
 8132SOL    HW225296   5.618   5.482   5.574
 8133SOL     OW25297   3.386   4.942   3.244
 8133SOL    HW125298   3.418   5.037   3.250
 8133SOL    HW225299   3.465   4.881   3.238
 8134SOL     OW25300   2.076   2.102   4.175
 8134SOL    HW125301   2.097   2.102   4.272
 8134SOL    HW225302   2.141   2.043   4.127
 8135SOL     OW25303   3.181   4.939   2.266
 8135SOL    HW125304   3.205   4.927   2.170
 8135SOL    HW225305   3.083   4.958   2.274
 8136SOL     OW25306   4.133   5.162   2.390
 8136SOL    HW125307   4.142   5.250   2.343
 8136SOL    HW225308   4.222   5.132   2.422
 8137SOL     OW25309   1.961   3.016   4.593
 8137SOL    HW125310   1.902   2.948   4.636
 8137SOL    HW225311   1.968   2.997   4.495
 8138SOL     OW25312   6.002   2.129   2.032
 8138SOL    HW125313   5.950   2.044   2.024
 8138SOL    HW225314   6.079   2.116   2.094
 8139SOL     OW25315   0.891   3.271   3.632
 8139SOL    HW125316   0.941   3.251   3.548
 8139SOL    HW225317   0.804   3.221   3.632
 8140SOL     OW25318   4.017   6.763   0.076
 8140SOL    HW125319   4.067   6.832   0.024
 8140SOL    HW225320   3.976   6.805   0.157
 8141SOL     OW25321   5.013   0.641   5.253
 8141SOL    HW125322   4.984   0.696   5.331
 8141SOL    HW225323   5.100   0.597   5.273
 8142SOL     OW25324   2.222   5.386   0.241
 8142SOL    HW125325   2.237   5.426   0.151
 8142SOL    HW225326   2.155   5.441   0.291
 8143SOL     OW25327   5.488   5.111   1.324
 8143SOL    HW125328   5.411   5.142   1.379
 8143SOL    HW225329   5.573   5.125   1.376
 8144SOL     OW25330   0.195   5.743   5.689
 8144SOL    HW125331   0.179   5.703   5.599
 8144SOL    HW225332   0.205   5.842   5.681
 8145SOL     OW25333   5.026   5.627   0.303
 8145SOL    HW125334   4.964   5.597   0.231
 8145SOL    HW225335   4.973   5.659   0.382
 8146SOL     OW25336   6.403   0.652   5.117
 8146SOL    HW125337   6.401   0.708   5.034
 8146SOL    HW225338   6.438   0.561   5.095
 8147SOL     OW25339   0.557   0.820   6.984
 8147SOL    HW125340   0.541   0.739   0.021
 8147SOL    HW225341   0.639   0.806   6.929
 8148SOL     OW25342   4.237   4.205   6.898
 8148SOL    HW125343   4.298   4.208   6.977
 8148SOL    HW225344   4.197   4.114   6.891
 8149SOL     OW25345   1.412   6.831   4.233
 8149SOL    HW125346   1.357   6.779   4.298
 8149SOL    HW225347   1.502   6.850   4.272
 8150SOL     OW25348   0.904   3.281   1.104
 8150SOL    HW125349   0.931   3.335   1.024
 8150SOL    HW225350   0.808   3.301   1.126
 8151SOL     OW25351   6.148   5.349   3.646
 8151SOL    HW125352   6.091   5.405   3.586
 8151SOL    HW225353   6.155   5.392   3.736
 8152SOL     OW25354   4.480   2.035   2.936
 8152SOL    HW125355   4.542   2.101   2.893
 8152SOL    HW225356   4.482   2.048   3.035
 8153SOL     OW25357   1.036   0.592   3.280
 8153SOL    HW125358   1.049   0.527   3.206
 8153SOL    HW225359   1.034   0.685   3.243
 8154SOL     OW25360   3.118   1.879   3.130
 8154SOL    HW125361   3.040   1.828   3.095
 8154SOL    HW225362   3.183   1.895   3.056
 8155SOL     OW25363   1.494   4.144   2.270
 8155SOL    HW125364   1.478   4.239   2.244
 8155SOL    HW225365   1.592   4.131   2.287
 8156SOL     OW25366   5.569   6.023   1.137
 8156SOL    HW125367   5.516   6.079   1.074
 8156SOL    HW225368   5.644   5.979   1.088
 8157SOL     OW25369   5.915   3.539   5.894
 8157SOL    HW125370   5.948   3.589   5.813
 8157SOL    HW225371   5.933   3.442   5.882
 8158SOL     OW25372   5.663   5.278   5.683
 8158SOL    HW125373   5.749   5.319   5.712
 8158SOL    HW225374   5.680   5.209   5.613
 8159SOL     OW25375   4.334   6.426   5.661
 8159SOL    HW125376   4.275   6.503   5.685
 8159SOL    HW225377   4.424   6.439   5.701
 8160SOL     OW25378   4.935   1.270   3.360
 8160SOL    HW125379   4.842   1.275   3.323
 8160SOL    HW225380   4.999   1.254   3.285
 8161SOL     OW25381   5.256   3.511   0.211
 8161SOL    HW125382   5.263   3.455   0.128
 8161SOL    HW225383   5.300   3.463   0.287
 8162SOL     OW25384   0.141   5.136   6.756
 8162SOL    HW125385   0.195   5.052   6.759
 8162SOL    HW225386   0.083   5.141   6.838
 8163SOL     OW25387   3.995   5.015   5.330
 8163SOL    HW125388   3.902   5.051   5.329
 8163SOL    HW225389   4.021   4.992   5.424
 8164SOL     OW25390   4.236   0.878   6.766
 8164SOL    HW125391   4.250   0.938   6.846
 8164SOL    HW225392   4.323   0.835   6.742
 8165SOL     OW25393   6.811   3.252   6.618
 8165SOL    HW125394   6.885   3.216   6.561
 8165SOL    HW225395   6.730   3.267   6.561
 8166SOL     OW25396   1.934   1.894   3.652
 8166SOL    HW125397   1.867   1.831   3.612
 8166SOL    HW225398   1.914   1.987   3.622
 8167SOL     OW25399   0.080   1.604   3.688
 8167SOL    HW125400   0.029   1.665   3.627
 8167SOL    HW225401   0.041   1.512   3.684
 8168SOL     OW25402   2.166   0.567   1.462
 8168SOL    HW125403   2.260   0.539   1.444
 8168SOL    HW225404   2.107   0.533   1.389
 8169SOL     OW25405   4.147   1.980   0.630
 8169SOL    HW125406   4.225   2.018   0.681
 8169SOL    HW225407   4.138   1.883   0.649
 8170SOL     OW25408   6.896   4.216   2.135
 8170SOL    HW125409   6.884   4.231   2.037
 8170SOL    HW225410   6.983   4.258   2.163
 8171SOL     OW25411   1.808   0.909   6.944
 8171SOL    HW125412   1.726   0.851   6.944
 8171SOL    HW225413   1.828   0.938   6.851
 8172SOL     OW25414   0.366   1.881   2.227
 8172SOL    HW125415   0.411   1.793   2.241
 8172SOL    HW225416   0.432   1.947   2.190
 8173SOL     OW25417   6.213   1.971   2.613
 8173SOL    HW125418   6.117   2.000   2.611
 8173SOL    HW225419   6.246   1.957   2.519
 8174SOL     OW25420   1.441   6.277   2.392
 8174SOL    HW125421   1.443   6.293   2.293
 8174SOL    HW225422   1.501   6.342   2.438
 8175SOL     OW25423   1.078   2.801   4.027
 8175SOL    HW125424   1.042   2.727   3.970
 8175SOL    HW225425   1.004   2.840   4.082
 8176SOL     OW25426   1.828   4.552   1.521
 8176SOL    HW125427   1.927   4.559   1.533
 8176SOL    HW225428   1.786   4.518   1.606
 8177SOL     OW25429   3.600   0.856   2.775
 8177SOL    HW125430   3.600   0.830   2.679
 8177SOL    HW225431   3.672   0.924   2.791
 8178SOL     OW25432   3.161   6.285   0.722
 8178SOL    HW125433   3.091   6.241   0.778
 8178SOL    HW225434   3.221   6.215   0.683
 8179SOL     OW25435   5.991   1.032   4.140
 8179SOL    HW125436   5.998   1.037   4.041
 8179SOL    HW225437   6.001   1.123   4.180
 8180SOL     OW25438   6.022   0.264   6.594
 8180SOL    HW125439   5.923   0.256   6.609
 8180SOL    HW225440   6.064   0.312   6.670
 8181SOL     OW25441   0.769   0.893   1.383
 8181SOL    HW125442   0.783   0.798   1.357
 8181SOL    HW225443   0.677   0.904   1.422
 8182SOL     OW25444   3.778   3.378   4.901
 8182SOL    HW125445   3.835   3.296   4.904
 8182SOL    HW225446   3.742   3.397   4.992
 8183SOL     OW25447   6.922   1.341   5.031
 8183SOL    HW125448   6.876   1.359   5.117
 8183SOL    HW225449   6.898   1.249   4.998
 8184SOL     OW25450   1.087   6.973   0.331
 8184SOL    HW125451   1.004   0.002   0.359
 8184SOL    HW225452   1.113   7.001   0.238
 8185SOL     OW25453   1.792   0.529   0.834
 8185SOL    HW125454   1.851   0.579   0.898
 8185SOL    HW225455   1.767   0.441   0.874
 8186SOL     OW25456   2.069   4.095   6.238
 8186SOL    HW125457   2.056   4.017   6.300
 8186SOL    HW225458   2.008   4.085   6.160
 8187SOL     OW25459   2.470   1.830   5.092
 8187SOL    HW125460   2.433   1.918   5.063
 8187SOL    HW225461   2.550   1.845   5.149
 8188SOL     OW25462   3.819   1.626   3.285
 8188SOL    HW125463   3.761   1.688   3.231
 8188SOL    HW225464   3.872   1.680   3.351
 8189SOL     OW25465   5.454   5.153   3.372
 8189SOL    HW125466   5.435   5.247   3.343
 8189SOL    HW225467   5.410   5.135   3.459
 8190SOL     OW25468   5.286   3.919   3.325
 8190SOL    HW125469   5.344   3.888   3.401
 8190SOL    HW225470   5.291   3.852   3.250
 8191SOL     OW25471   4.516   5.167   2.244
 8191SOL    HW125472   4.531   5.105   2.166
 8191SOL    HW225473   4.576   5.246   2.235
 8192SOL     OW25474   1.905   5.357   2.078
 8192SOL    HW125475   1.821   5.307   2.060
 8192SOL    HW225476   1.921   5.362   2.177
 8193SOL     OW25477   6.676   5.801   4.853
 8193SOL    HW125478   6.576   5.800   4.848
 8193SOL    HW225479   6.714   5.783   4.762
 8194SOL     OW25480   4.362   0.648   0.657
 8194SOL    HW125481   4.399   0.639   0.564
 8194SOL    HW225482   4.402   0.577   0.715
 8195SOL     OW25483   5.983   6.717   4.226
 8195SOL    HW125484   6.031   6.762   4.302
 8195SOL    HW225485   6.049   6.692   4.156
 8196SOL     OW25486   5.082   0.342   6.630
 8196SOL    HW125487   5.078   0.305   6.537
 8196SOL    HW225488   5.008   0.409   6.642
 8197SOL     OW25489   4.444   1.930   1.574
 8197SOL    HW125490   4.531   1.935   1.526
 8197SOL    HW225491   4.387   1.859   1.532
 8198SOL     OW25492   2.686   0.509   2.055
 8198SOL    HW125493   2.602   0.524   2.001
 8198SOL    HW225494   2.728   0.597   2.076
 8199SOL     OW25495   4.631   3.168   5.606
 8199SOL    HW125496   4.640   3.259   5.567
 8199SOL    HW225497   4.607   3.175   5.702
 8200SOL     OW25498   5.938   4.094   2.021
 8200SOL    HW125499   5.923   4.036   1.941
 8200SOL    HW225500   5.955   4.188   1.992
 8201SOL     OW25501   0.079   0.843   5.377
 8201SOL    HW125502   0.136   0.922   5.354
 8201SOL    HW225503   0.126   0.759   5.350
 8202SOL     OW25504   7.015   6.144   2.794
 8202SOL    HW125505   0.018   6.188   2.707
 8202SOL    HW225506   6.959   6.206   2.850
 8203SOL     OW25507   1.992   2.074   0.363
 8203SOL    HW125508   1.903   2.119   0.363
 8203SOL    HW225509   2.055   2.124   0.423
 8204SOL     OW25510   4.227   3.631   1.098
 8204SOL    HW125511   4.200   3.719   1.061
 8204SOL    HW225512   4.305   3.595   1.047
 8205SOL     OW25513   0.630   2.773   6.704
 8205SOL    HW125514   0.677   2.860   6.722
 8205SOL    HW225515   0.657   2.706   6.773
 8206SOL     OW25516   4.942   1.420   0.149
 8206SOL    HW125517   4.956   1.324   0.173
 8206SOL    HW225518   4.849   1.448   0.174
 8207SOL     OW25519   3.301   3.773   4.558
 8207SOL    HW125520   3.223   3.759   4.497
 8207SOL    HW225521   3.282   3.849   4.620
 8208SOL     OW25522   0.932   1.268   0.766
 8208SOL    HW125523   0.864   1.277   0.839
 8208SOL    HW225524   1.023   1.261   0.806
 8209SOL     OW25525   0.434   0.793   5.134
 8209SOL    HW125526   0.339   0.770   5.112
 8209SOL    HW225527   0.443   0.803   5.233
 8210SOL     OW25528   2.180   2.227   0.486
 8210SOL    HW125529   2.157   2.323   0.503
 8210SOL    HW225530   2.257   2.221   0.423
 8211SOL     OW25531   3.545   3.971   1.504
 8211SOL    HW125532   3.510   3.951   1.596
 8211SOL    HW225533   3.634   3.927   1.492
 8212SOL     OW25534   1.710   2.289   2.928
 8212SOL    HW125535   1.727   2.225   3.003
 8212SOL    HW225536   1.615   2.321   2.933
 8213SOL     OW25537   6.748   4.927   1.824
 8213SOL    HW125538   6.718   4.919   1.918
 8213SOL    HW225539   6.845   4.903   1.818
 8214SOL     OW25540   5.561   4.489   3.550
 8214SOL    HW125541   5.583   4.561   3.617
 8214SOL    HW225542   5.595   4.401   3.584
 8215SOL     OW25543   3.235   6.139   5.465
 8215SOL    HW125544   3.180   6.214   5.501
 8215SOL    HW225545   3.189   6.052   5.484
 8216SOL     OW25546   5.432   6.062   4.565
 8216SOL    HW125547   5.343   6.102   4.585
 8216SOL    HW225548   5.437   6.036   4.469
 8217SOL     OW25549   2.041   4.775   0.107
 8217SOL    HW125550   1.968   4.712   0.079
 8217SOL    HW225551   2.111   4.778   0.036
 8218SOL     OW25552   0.724   1.513   6.577
 8218SOL    HW125553   0.803   1.492   6.636
 8218SOL    HW225554   0.639   1.495   6.627
 8219SOL     OW25555   4.838   1.753   0.237
 8219SOL    HW125556   4.802   1.845   0.222
 8219SOL    HW225557   4.916   1.738   0.176
 8220SOL     OW25558   3.142   3.424   3.394
 8220SOL    HW125559   3.080   3.399   3.468
 8220SOL    HW225560   3.192   3.343   3.364
 8221SOL     OW25561   4.486   6.061   4.609
 8221SOL    HW125562   4.483   6.159   4.624
 8221SOL    HW225563   4.410   6.033   4.550
 8222SOL     OW25564   5.298   1.858   2.306
 8222SOL    HW125565   5.249   1.846   2.392
 8222SOL    HW225566   5.314   1.955   2.289
 8223SOL     OW25567   1.457   3.685   6.311
 8223SOL    HW125568   1.398   3.625   6.366
 8223SOL    HW225569   1.426   3.684   6.216
 8224SOL     OW25570   0.706   2.698   2.903
 8224SOL    HW125571   0.656   2.715   2.818
 8224SOL    HW225572   0.801   2.674   2.882
 8225SOL     OW25573   3.638   0.831   0.217
 8225SOL    HW125574   3.723   0.876   0.246
 8225SOL    HW225575   3.623   0.749   0.272
 8226SOL     OW25576   4.827   0.126   2.628
 8226SOL    HW125577   4.853   0.030   2.641
 8226SOL    HW225578   4.901   0.185   2.660
 8227SOL     OW25579   0.414   2.758   3.701
 8227SOL    HW125580   0.486   2.782   3.766
 8227SOL    HW225581   0.380   2.666   3.723
 8228SOL     OW25582   0.362   2.499   5.902
 8228SOL    HW125583   0.355   2.597   5.922
 8228SOL    HW225584   0.400   2.451   5.981
 8229SOL     OW25585   3.773   4.430   0.664
 8229SOL    HW125586   3.730   4.355   0.712
 8229SOL    HW225587   3.858   4.456   0.711
 8230SOL     OW25588   5.066   7.004   5.628
 8230SOL    HW125589   5.141   6.939   5.617
 8230SOL    HW225590   5.040   0.022   5.538
 8231SOL     OW25591   3.848   5.730   1.247
 8231SOL    HW125592   3.931   5.716   1.193
 8231SOL    HW225593   3.812   5.642   1.276
 8232SOL     OW25594   5.341   1.501   0.860
 8232SOL    HW125595   5.332   1.428   0.928
 8232SOL    HW225596   5.404   1.472   0.788
 8233SOL     OW25597   0.754   6.013   6.276
 8233SOL    HW125598   0.820   6.077   6.316
 8233SOL    HW225599   0.718   6.052   6.191
 8234SOL     OW25600   2.895   3.507   0.062
 8234SOL    HW125601   2.968   3.557   0.108
 8234SOL    HW225602   2.806   3.546   0.087
 8235SOL     OW25603   2.126   3.228   0.605
 8235SOL    HW125604   2.047   3.250   0.662
 8235SOL    HW225605   2.096   3.214   0.510
 8236SOL     OW25606   6.397   3.783   0.033
 8236SOL    HW125607   6.448   3.849   6.996
 8236SOL    HW225608   6.341   3.726   6.992
 8237SOL     OW25609   5.035   6.598   4.660
 8237SOL    HW125610   5.130   6.601   4.690
 8237SOL    HW225611   5.029   6.632   4.566
 8238SOL     OW25612   1.443   4.282   0.449
 8238SOL    HW125613   1.433   4.249   0.543
 8238SOL    HW225614   1.353   4.304   0.411
 8239SOL     OW25615   6.584   1.232   5.574
 8239SOL    HW125616   6.614   1.278   5.491
 8239SOL    HW225617   6.508   1.282   5.615
 8240SOL     OW25618   3.519   3.659   2.791
 8240SOL    HW125619   3.434   3.669   2.740
 8240SOL    HW225620   3.499   3.656   2.889
 8241SOL     OW25621   3.620   6.787   0.134
 8241SOL    HW125622   3.611   6.688   0.143
 8241SOL    HW225623   3.689   6.809   0.066
 8242SOL     OW25624   1.302   4.493   6.184
 8242SOL    HW125625   1.297   4.402   6.142
 8242SOL    HW225626   1.291   4.563   6.114
 8243SOL     OW25627   0.985   2.707   6.757
 8243SOL    HW125628   0.988   2.742   6.851
 8243SOL    HW225629   1.064   2.741   6.707
 8244SOL     OW25630   0.669   6.985   3.385
 8244SOL    HW125631   0.731   6.985   3.463
 8244SOL    HW225632   0.694   6.912   3.322
 8245SOL     OW25633   3.368   1.038   2.541
 8245SOL    HW125634   3.363   1.084   2.629
 8245SOL    HW225635   3.443   0.971   2.542
 8246SOL     OW25636   6.950   3.621   5.564
 8246SOL    HW125637   6.980   3.695   5.504
 8246SOL    HW225638   6.963   3.649   5.660
 8247SOL     OW25639   1.024   0.243   2.252
 8247SOL    HW125640   1.103   0.304   2.244
 8247SOL    HW225641   1.010   0.218   2.347
 8248SOL     OW25642   5.721   5.045   3.379
 8248SOL    HW125643   5.625   5.073   3.386
 8248SOL    HW225644   5.727   4.945   3.381
 8249SOL     OW25645   2.052   3.422   5.327
 8249SOL    HW125646   2.144   3.403   5.292
 8249SOL    HW225647   1.984   3.392   5.260
 8250SOL     OW25648   3.194   4.089   2.296
 8250SOL    HW125649   3.190   4.084   2.396
 8250SOL    HW225650   3.184   4.185   2.268
 8251SOL     OW25651   6.017   2.954   4.617
 8251SOL    HW125652   6.032   3.041   4.666
 8251SOL    HW225653   6.106   2.916   4.591
 8252SOL     OW25654   3.294   3.101   6.952
 8252SOL    HW125655   3.347   3.093   6.867
 8252SOL    HW225656   3.335   3.171   7.010
 8253SOL     OW25657   4.070   3.935   5.220
 8253SOL    HW125658   4.142   4.001   5.241
 8253SOL    HW225659   4.091   3.889   5.133
 8254SOL     OW25660   4.493   4.770   4.619
 8254SOL    HW125661   4.542   4.832   4.559
 8254SOL    HW225662   4.519   4.676   4.599
 8255SOL     OW25663   2.996   6.072   5.153
 8255SOL    HW125664   3.091   6.100   5.147
 8255SOL    HW225665   2.992   5.972   5.165
 8256SOL     OW25666   6.405   1.063   1.969
 8256SOL    HW125667   6.323   1.113   1.941
 8256SOL    HW225668   6.438   1.008   1.892
 8257SOL     OW25669   6.606   3.596   3.366
 8257SOL    HW125670   6.513   3.620   3.340
 8257SOL    HW225671   6.613   3.591   3.466
 8258SOL     OW25672   5.273   1.203   0.544
 8258SOL    HW125673   5.231   1.225   0.632
 8258SOL    HW225674   5.238   1.265   0.474
 8259SOL     OW25675   4.502   1.911   3.539
 8259SOL    HW125676   4.592   1.895   3.500
 8259SOL    HW225677   4.476   2.007   3.526
 8260SOL     OW25678   2.735   0.242   2.119
 8260SOL    HW125679   2.720   0.341   2.116
 8260SOL    HW225680   2.723   0.209   2.212
 8261SOL     OW25681   6.406   1.416   1.794
 8261SOL    HW125682   6.413   1.392   1.697
 8261SOL    HW225683   6.496   1.406   1.837
 8262SOL     OW25684   1.040   2.860   0.964
 8262SOL    HW125685   0.961   2.841   0.907
 8262SOL    HW225686   1.116   2.802   0.936
 8263SOL     OW25687   0.889   2.224   0.276
 8263SOL    HW125688   0.812   2.191   0.331
 8263SOL    HW225689   0.858   2.296   0.215
 8264SOL     OW25690   1.959   6.311   2.255
 8264SOL    HW125691   1.891   6.346   2.319
 8264SOL    HW225692   2.038   6.372   2.254
 8265SOL     OW25693   0.943   6.754   1.378
 8265SOL    HW125694   1.041   6.735   1.379
 8265SOL    HW225695   0.901   6.719   1.462
 8266SOL     OW25696   2.006   0.835   3.572
 8266SOL    HW125697   1.964   0.857   3.483
 8266SOL    HW225698   2.061   0.752   3.563
 8267SOL     OW25699   1.747   2.954   0.983
 8267SOL    HW125700   1.832   2.903   0.966
 8267SOL    HW225701   1.721   3.003   0.900
 8268SOL     OW25702   2.244   6.251   5.864
 8268SOL    HW125703   2.334   6.209   5.878
 8268SOL    HW225704   2.210   6.286   5.951
 8269SOL     OW25705   5.526   1.876   1.559
 8269SOL    HW125706   5.516   1.949   1.492
 8269SOL    HW225707   5.442   1.867   1.611
 8270SOL     OW25708   2.734   6.826   5.020
 8270SOL    HW125709   2.642   6.794   5.041
 8270SOL    HW225710   2.769   6.882   5.095
 8271SOL     OW25711   7.002   1.212   2.576
 8271SOL    HW125712   0.064   1.253   2.533
 8271SOL    HW225713   0.012   1.138   2.638
 8272SOL     OW25714   4.846   1.705   1.308
 8272SOL    HW125715   4.922   1.759   1.345
 8272SOL    HW225716   4.860   1.608   1.329
 8273SOL     OW25717   1.913   6.109   1.266
 8273SOL    HW125718   1.987   6.047   1.241
 8273SOL    HW225719   1.828   6.078   1.222
 8274SOL     OW25720   4.860   4.444   3.287
 8274SOL    HW125721   4.923   4.478   3.357
 8274SOL    HW225722   4.905   4.446   3.198
 8275SOL     OW25723   4.718   1.328   5.493
 8275SOL    HW125724   4.728   1.423   5.464
 8275SOL    HW225725   4.789   1.272   5.451
 8276SOL     OW25726   1.580   2.492   3.934
 8276SOL    HW125727   1.606   2.487   4.031
 8276SOL    HW225728   1.646   2.550   3.885
 8277SOL     OW25729   6.896   1.046   0.108
 8277SOL    HW125730   6.967   1.114   0.126
 8277SOL    HW225731   6.864   1.057   0.014
 8278SOL     OW25732   2.759   1.600   5.817
 8278SOL    HW125733   2.787   1.694   5.836
 8278SOL    HW225734   2.682   1.601   5.752
 8279SOL     OW25735   1.698   0.535   4.450
 8279SOL    HW125736   1.744   0.446   4.460
 8279SOL    HW225737   1.666   0.545   4.356
 8280SOL     OW25738   2.109   2.784   0.596
 8280SOL    HW125739   2.160   2.869   0.605
 8280SOL    HW225740   2.012   2.804   0.582
 8281SOL     OW25741   1.934   4.921   1.122
 8281SOL    HW125742   1.902   4.836   1.079
 8281SOL    HW225743   1.858   4.965   1.170
 8282SOL     OW25744   5.077   3.883   6.872
 8282SOL    HW125745   4.988   3.919   6.901
 8282SOL    HW225746   5.135   3.958   6.840
 8283SOL     OW25747   1.568   4.630   0.150
 8283SOL    HW125748   1.470   4.633   0.133
 8283SOL    HW225749   1.614   4.701   0.097
 8284SOL     OW25750   0.727   3.862   0.182
 8284SOL    HW125751   0.628   3.867   0.188
 8284SOL    HW225752   0.754   3.780   0.132
 8285SOL     OW25753   3.366   2.860   5.061
 8285SOL    HW125754   3.289   2.903   5.109
 8285SOL    HW225755   3.394   2.778   5.112
 8286SOL     OW25756   5.471   3.269   6.642
 8286SOL    HW125757   5.503   3.199   6.706
 8286SOL    HW225758   5.377   3.294   6.664
 8287SOL     OW25759   2.119   5.317   4.363
 8287SOL    HW125760   2.046   5.259   4.325
 8287SOL    HW225761   2.175   5.353   4.288
 8288SOL     OW25762   2.885   1.763   1.657
 8288SOL    HW125763   2.874   1.699   1.733
 8288SOL    HW225764   2.980   1.794   1.654
 8289SOL     OW25765   0.401   5.955   1.714
 8289SOL    HW125766   0.359   5.864   1.716
 8289SOL    HW225767   0.489   5.950   1.667
 8290SOL     OW25768   5.983   0.923   0.880
 8290SOL    HW125769   5.929   0.951   0.800
 8290SOL    HW225770   6.046   0.851   0.853
 8291SOL     OW25771   5.121   6.007   5.893
 8291SOL    HW125772   5.196   5.982   5.833
 8291SOL    HW225773   5.143   5.981   5.987
 8292SOL     OW25774   2.504   6.165   6.675
 8292SOL    HW125775   2.431   6.109   6.635
 8292SOL    HW225776   2.577   6.105   6.708
 8293SOL     OW25777   3.452   6.854   6.934
 8293SOL    HW125778   3.445   6.821   0.010
 8293SOL    HW225779   3.450   6.776   6.872
 8294SOL     OW25780   5.928   4.716   4.605
 8294SOL    HW125781   5.838   4.753   4.581
 8294SOL    HW225782   5.944   4.631   4.555
 8295SOL     OW25783   4.943   5.715   1.312
 8295SOL    HW125784   4.863   5.668   1.273
 8295SOL    HW225785   4.935   5.813   1.296
 8296SOL     OW25786   2.330   6.621   6.390
 8296SOL    HW125787   2.298   6.669   6.472
 8296SOL    HW225788   2.428   6.602   6.399
 8297SOL     OW25789   6.689   2.550   2.355
 8297SOL    HW125790   6.783   2.580   2.346
 8297SOL    HW225791   6.662   2.552   2.452
 8298SOL     OW25792   5.868   2.375   1.158
 8298SOL    HW125793   5.816   2.296   1.125
 8298SOL    HW225794   5.920   2.349   1.240
 8299SOL     OW25795   0.139   2.376   2.016
 8299SOL    HW125796   0.096   2.452   1.968
 8299SOL    HW225797   0.092   2.361   2.103
 8300SOL     OW25798   0.697   6.128   5.223
 8300SOL    HW125799   0.628   6.064   5.191
 8300SOL    HW225800   0.667   6.170   5.309
 8301SOL     OW25801   4.294   2.213   1.632
 8301SOL    HW125802   4.246   2.183   1.550
 8301SOL    HW225803   4.372   2.152   1.648
 8302SOL     OW25804   5.703   6.116   6.292
 8302SOL    HW125805   5.743   6.062   6.366
 8302SOL    HW225806   5.670   6.056   6.220
 8303SOL     OW25807   6.666   1.026   4.011
 8303SOL    HW125808   6.751   1.042   4.060
 8303SOL    HW225809   6.685   1.009   3.914
 8304SOL     OW25810   1.262   3.353   0.816
 8304SOL    HW125811   1.295   3.397   0.733
 8304SOL    HW225812   1.338   3.340   0.881
 8305SOL     OW25813   3.978   4.831   4.444
 8305SOL    HW125814   4.061   4.863   4.398
 8305SOL    HW225815   3.990   4.736   4.472
 8306SOL     OW25816   0.308   2.792   5.288
 8306SOL    HW125817   0.231   2.770   5.228
 8306SOL    HW225818   0.323   2.718   5.353
 8307SOL     OW25819   4.629   5.098   1.631
 8307SOL    HW125820   4.694   5.038   1.586
 8307SOL    HW225821   4.665   5.191   1.636
 8308SOL     OW25822   4.181   5.918   1.301
 8308SOL    HW125823   4.086   5.945   1.286
 8308SOL    HW225824   4.193   5.889   1.396
 8309SOL     OW25825   6.277   5.580   3.437
 8309SOL    HW125826   6.264   5.648   3.508
 8309SOL    HW225827   6.188   5.554   3.399
 8310SOL     OW25828   1.085   4.298   0.730
 8310SOL    HW125829   1.101   4.205   0.699
 8310SOL    HW225830   1.081   4.301   0.830
 8311SOL     OW25831   0.846   1.415   5.000
 8311SOL    HW125832   0.849   1.399   4.901
 8311SOL    HW225833   0.763   1.466   5.022
 8312SOL     OW25834   4.132   6.089   1.033
 8312SOL    HW125835   4.184   6.152   1.090
 8312SOL    HW225836   4.051   6.058   1.083
 8313SOL     OW25837   4.966   1.350   2.567
 8313SOL    HW125838   4.871   1.338   2.595
 8313SOL    HW225839   5.027   1.331   2.644
 8314SOL     OW25840   4.667   0.279   1.014
 8314SOL    HW125841   4.737   0.215   1.047
 8314SOL    HW225842   4.616   0.315   1.092
 8315SOL     OW25843   4.184   3.454   1.287
 8315SOL    HW125844   4.257   3.388   1.269
 8315SOL    HW225845   4.207   3.542   1.246
 8316SOL     OW25846   0.908   2.028   1.986
 8316SOL    HW125847   0.855   2.027   2.071
 8316SOL    HW225848   0.992   2.081   2.000
 8317SOL     OW25849   2.565   2.385   2.408
 8317SOL    HW125850   2.516   2.430   2.333
 8317SOL    HW225851   2.570   2.447   2.486
 8318SOL     OW25852   4.102   1.240   4.342
 8318SOL    HW125853   4.081   1.297   4.262
 8318SOL    HW225854   4.060   1.151   4.331
 8319SOL     OW25855   2.926   1.515   6.315
 8319SOL    HW125856   2.990   1.448   6.352
 8319SOL    HW225857   2.917   1.502   6.216
 8320SOL     OW25858   3.365   3.490   1.498
 8320SOL    HW125859   3.354   3.391   1.512
 8320SOL    HW225860   3.454   3.508   1.456
 8321SOL     OW25861   0.043   1.232   0.211
 8321SOL    HW125862   0.052   1.183   0.297
 8321SOL    HW225863   0.037   1.331   0.229
 8322SOL     OW25864   0.173   0.412   0.760
 8322SOL    HW125865   0.105   0.377   0.824
 8322SOL    HW225866   0.202   0.338   0.699
 8323SOL     OW25867   6.042   6.550   3.170
 8323SOL    HW125868   6.008   6.639   3.139
 8323SOL    HW225869   6.133   6.561   3.210
 8324SOL     OW25870   5.868   0.972   1.550
 8324SOL    HW125871   5.856   1.008   1.642
 8324SOL    HW225872   5.821   0.884   1.542
 8325SOL     OW25873   3.363   3.484   5.268
 8325SOL    HW125874   3.447   3.461   5.219
 8325SOL    HW225875   3.288   3.496   5.202
 8326SOL     OW25876   4.874   3.319   5.133
 8326SOL    HW125877   4.834   3.403   5.095
 8326SOL    HW225878   4.800   3.259   5.164
 8327SOL     OW25879   5.915   2.265   6.283
 8327SOL    HW125880   5.845   2.269   6.212
 8327SOL    HW225881   5.992   2.209   6.251
 8328SOL     OW25882   2.832   4.057   6.229
 8328SOL    HW125883   2.861   4.152   6.242
 8328SOL    HW225884   2.856   4.027   6.136
 8329SOL     OW25885   0.062   3.909   6.299
 8329SOL    HW125886   0.037   3.968   6.222
 8329SOL    HW225887   0.073   3.963   6.382
 8330SOL     OW25888   2.612   0.089   0.633
 8330SOL    HW125889   2.660   0.033   0.565
 8330SOL    HW225890   2.525   0.120   0.595
 8331SOL     OW25891   2.788   0.983   1.380
 8331SOL    HW125892   2.750   0.968   1.472
 8331SOL    HW225893   2.771   0.902   1.324
 8332SOL     OW25894   5.106   5.207   2.254
 8332SOL    HW125895   5.143   5.226   2.163
 8332SOL    HW225896   5.013   5.170   2.245
 8333SOL     OW25897   0.105   6.669   6.589
 8333SOL    HW125898   0.138   6.762   6.600
 8333SOL    HW225899   0.183   6.608   6.571
 8334SOL     OW25900   4.409   1.717   4.085
 8334SOL    HW125901   4.334   1.708   4.151
 8334SOL    HW225902   4.383   1.671   4.000
 8335SOL     OW25903   6.336   5.748   6.134
 8335SOL    HW125904   6.404   5.763   6.062
 8335SOL    HW225905   6.290   5.834   6.154
 8336SOL     OW25906   6.953   6.814   2.593
 8336SOL    HW125907   6.908   6.744   2.648
 8336SOL    HW225908   0.004   6.860   2.649
 8337SOL     OW25909   1.103   6.431   3.040
 8337SOL    HW125910   1.090   6.527   3.016
 8337SOL    HW225911   1.122   6.423   3.138
 8338SOL     OW25912   1.949   5.044   2.093
 8338SOL    HW125913   1.955   5.073   1.998
 8338SOL    HW225914   1.884   4.969   2.101
 8339SOL     OW25915   5.904   0.502   1.280
 8339SOL    HW125916   5.893   0.590   1.326
 8339SOL    HW225917   5.858   0.430   1.333
 8340SOL     OW25918   5.434   4.176   1.259
 8340SOL    HW125919   5.439   4.108   1.185
 8340SOL    HW225920   5.343   4.217   1.261
 8341SOL     OW25921   2.384   6.661   6.837
 8341SOL    HW125922   2.309   6.655   6.771
 8341SOL    HW225923   2.351   6.707   6.920
 8342SOL     OW25924   3.449   0.070   1.685
 8342SOL    HW125925   3.381   7.015   1.678
 8342SOL    HW225926   3.478   0.098   1.594
 8343SOL     OW25927   0.993   4.873   6.249
 8343SOL    HW125928   0.931   4.903   6.322
 8343SOL    HW225929   0.984   4.934   6.171
 8344SOL     OW25930   4.395   0.247   5.475
 8344SOL    HW125931   4.399   0.342   5.505
 8344SOL    HW225932   4.311   0.231   5.424
 8345SOL     OW25933   5.171   1.809   3.721
 8345SOL    HW125934   5.110   1.887   3.728
 8345SOL    HW225935   5.119   1.728   3.695
 8346SOL     OW25936   3.135   4.396   0.105
 8346SOL    HW125937   3.129   4.494   0.083
 8346SOL    HW225938   3.158   4.345   0.023
 8347SOL     OW25939   3.595   6.227   4.830
 8347SOL    HW125940   3.612   6.130   4.817
 8347SOL    HW225941   3.632   6.257   4.918
 8348SOL     OW25942   1.023   6.326   1.485
 8348SOL    HW125943   1.109   6.377   1.492
 8348SOL    HW225944   0.953   6.384   1.444
 8349SOL     OW25945   6.120   5.705   1.588
 8349SOL    HW125946   6.163   5.793   1.565
 8349SOL    HW225947   6.160   5.669   1.672
 8350SOL     OW25948   4.924   1.034   4.626
 8350SOL    HW125949   4.828   1.024   4.651
 8350SOL    HW225950   4.964   1.112   4.673
 8351SOL     OW25951   4.613   5.351   4.395
 8351SOL    HW125952   4.596   5.439   4.351
 8351SOL    HW225953   4.711   5.336   4.404
 8352SOL     OW25954   6.829   6.630   2.772
 8352SOL    HW125955   6.741   6.677   2.783
 8352SOL    HW225956   6.877   6.628   2.860
 8353SOL     OW25957   6.585   3.689   1.628
 8353SOL    HW125958   6.598   3.607   1.683
 8353SOL    HW225959   6.554   3.663   1.537
 8354SOL     OW25960   3.850   0.519   6.573
 8354SOL    HW125961   3.886   0.612   6.560
 8354SOL    HW225962   3.912   0.453   6.530
 8355SOL     OW25963   2.942   0.435   7.000
 8355SOL    HW125964   2.966   0.380   6.920
 8355SOL    HW225965   3.014   0.429   0.050
 8356SOL     OW25966   1.568   6.185   0.602
 8356SOL    HW125967   1.604   6.276   0.623
 8356SOL    HW225968   1.569   6.129   0.686
 8357SOL     OW25969   3.833   6.682   5.945
 8357SOL    HW125970   3.862   6.586   5.944
 8357SOL    HW225971   3.904   6.739   5.904
 8358SOL     OW25972   1.341   3.213   5.426
 8358SOL    HW125973   1.242   3.200   5.435
 8358SOL    HW225974   1.386   3.182   5.510
 8359SOL     OW25975   2.919   6.176   4.503
 8359SOL    HW125976   2.856   6.109   4.464
 8359SOL    HW225977   2.886   6.268   4.485
 8360SOL     OW25978   3.818   5.779   1.585
 8360SOL    HW125979   3.741   5.790   1.523
 8360SOL    HW225980   3.824   5.859   1.645
 8361SOL     OW25981   2.138   0.451   2.774
 8361SOL    HW125982   2.216   0.391   2.789
 8361SOL    HW225983   2.157   0.512   2.697
 8362SOL     OW25984   2.637   1.787   0.778
 8362SOL    HW125985   2.626   1.788   0.678
 8362SOL    HW225986   2.547   1.775   0.821
 8363SOL     OW25987   0.400   2.442   6.963
 8363SOL    HW125988   0.428   2.346   6.955
 8363SOL    HW225989   0.419   2.490   6.878
 8364SOL     OW25990   6.524   3.486   2.768
 8364SOL    HW125991   6.425   3.473   2.768
 8364SOL    HW225992   6.566   3.432   2.841
 8365SOL     OW25993   1.638   4.344   1.397
 8365SOL    HW125994   1.681   4.418   1.448
 8365SOL    HW225995   1.694   4.320   1.318
 8366SOL     OW25996   3.486   5.293   2.242
 8366SOL    HW125997   3.406   5.239   2.214
 8366SOL    HW225998   3.511   5.269   2.335
 8367SOL     OW25999   4.056   5.911   3.866
 8367SOL    HW126000   4.082   5.853   3.943
 8367SOL    HW226001   4.063   5.858   3.781
 8368SOL     OW26002   2.573   6.635   5.899
 8368SOL    HW126003   2.515   6.708   5.937
 8368SOL    HW226004   2.537   6.607   5.810
 8369SOL     OW26005   1.856   7.019   6.481
 8369SOL    HW126006   1.814   0.056   6.552
 8369SOL    HW226007   1.832   0.037   6.391
 8370SOL     OW26008   2.466   1.874   5.500
 8370SOL    HW126009   2.438   1.843   5.591
 8370SOL    HW226010   2.460   1.798   5.436
 8371SOL     OW26011   1.720   4.068   1.050
 8371SOL    HW126012   1.627   4.034   1.037
 8371SOL    HW226013   1.784   4.010   0.999
 8372SOL     OW26014   0.369   5.811   2.759
 8372SOL    HW126015   0.462   5.810   2.796
 8372SOL    HW226016   0.333   5.905   2.762
 8373SOL     OW26017   1.154   0.289   4.323
 8373SOL    HW126018   1.243   0.334   4.312
 8373SOL    HW226019   1.083   0.345   4.280
 8374SOL     OW26020   6.754   0.816   6.466
 8374SOL    HW126021   6.716   0.904   6.436
 8374SOL    HW226022   6.854   0.820   6.462
 8375SOL     OW26023   3.147   6.791   5.589
 8375SOL    HW126024   3.189   6.703   5.567
 8375SOL    HW226025   3.048   6.779   5.602
 8376SOL     OW26026   2.389   0.135   4.249
 8376SOL    HW126027   2.422   0.047   4.214
 8376SOL    HW226028   2.348   0.187   4.174
 8377SOL     OW26029   5.781   5.576   1.445
 8377SOL    HW126030   5.732   5.656   1.480
 8377SOL    HW226031   5.864   5.605   1.398
 8378SOL     OW26032   4.637   4.446   3.054
 8378SOL    HW126033   4.717   4.502   3.077
 8378SOL    HW226034   4.623   4.377   3.125
 8379SOL     OW26035   6.600   2.494   1.239
 8379SOL    HW126036   6.689   2.455   1.218
 8379SOL    HW226037   6.534   2.468   1.169
 8380SOL     OW26038   6.439   1.551   2.869
 8380SOL    HW126039   6.439   1.620   2.796
 8380SOL    HW226040   6.443   1.460   2.828
 8381SOL     OW26041   0.412   4.078   4.976
 8381SOL    HW126042   0.328   4.068   5.028
 8381SOL    HW226043   0.408   4.161   4.921
 8382SOL     OW26044   1.214   0.905   2.107
 8382SOL    HW126045   1.291   0.856   2.066
 8382SOL    HW226046   1.226   0.909   2.207
 8383SOL     OW26047   2.491   0.615   6.262
 8383SOL    HW126048   2.558   0.614   6.188
 8383SOL    HW226049   2.416   0.553   6.241
 8384SOL     OW26050   0.297   0.240   0.264
 8384SOL    HW126051   0.203   0.266   0.241
 8384SOL    HW226052   0.354   0.323   0.267
 8385SOL     OW26053   5.872   2.777   1.511
 8385SOL    HW126054   5.962   2.795   1.472
 8385SOL    HW226055   5.852   2.679   1.503
 8386SOL     OW26056   0.821   4.347   2.375
 8386SOL    HW126057   0.830   4.251   2.399
 8386SOL    HW226058   0.802   4.356   2.277
 8387SOL     OW26059   1.115   1.121   1.448
 8387SOL    HW126060   1.040   1.185   1.432
 8387SOL    HW226061   1.193   1.146   1.390
 8388SOL     OW26062   1.613   5.918   0.484
 8388SOL    HW126063   1.583   5.866   0.563
 8388SOL    HW226064   1.572   6.009   0.486
 8389SOL     OW26065   6.012   3.712   2.313
 8389SOL    HW126066   6.052   3.782   2.372
 8389SOL    HW226067   6.050   3.720   2.221
 8390SOL     OW26068   3.659   1.459   6.710
 8390SOL    HW126069   3.568   1.499   6.708
 8390SOL    HW226070   3.669   1.393   6.635
 8391SOL     OW26071   6.083   5.806   0.963
 8391SOL    HW126072   6.068   5.850   0.874
 8391SOL    HW226073   6.094   5.707   0.949
 8392SOL     OW26074   6.286   3.512   3.445
 8392SOL    HW126075   6.257   3.572   3.519
 8392SOL    HW226076   6.347   3.442   3.481
 8393SOL     OW26077   6.145   0.794   2.668
 8393SOL    HW126078   6.090   0.739   2.605
 8393SOL    HW226079   6.209   0.734   2.717
 8394SOL     OW26080   5.630   3.534   1.934
 8394SOL    HW126081   5.622   3.509   2.031
 8394SOL    HW226082   5.617   3.452   1.878
 8395SOL     OW26083   2.814   6.820   5.921
 8395SOL    HW126084   2.776   6.727   5.928
 8395SOL    HW226085   2.740   6.887   5.928
 8396SOL     OW26086   4.980   4.790   2.865
 8396SOL    HW126087   5.058   4.772   2.926
 8396SOL    HW226088   4.948   4.884   2.879
 8397SOL     OW26089   0.836   0.903   3.444
 8397SOL    HW126090   0.757   0.911   3.505
 8397SOL    HW226091   0.814   0.840   3.369
 8398SOL     OW26092   5.159   2.523   6.102
 8398SOL    HW126093   5.152   2.475   6.015
 8398SOL    HW226094   5.128   2.618   6.091
 8399SOL     OW26095   6.269   6.314   6.839
 8399SOL    HW126096   6.233   6.406   6.857
 8399SOL    HW226097   6.364   6.310   6.871
 8400SOL     OW26098   1.824   2.396   4.079
 8400SOL    HW126099   1.903   2.384   4.019
 8400SOL    HW226100   1.808   2.493   4.095
 8401SOL     OW26101   2.395   1.157   5.466
 8401SOL    HW126102   2.335   1.221   5.514
 8401SOL    HW226103   2.388   1.066   5.508
 8402SOL     OW26104   5.510   1.757   6.319
 8402SOL    HW126105   5.475   1.748   6.226
 8402SOL    HW226106   5.494   1.850   6.351
 8403SOL     OW26107   0.706   3.184   4.439
 8403SOL    HW126108   0.750   3.185   4.529
 8403SOL    HW226109   0.612   3.218   4.448
 8404SOL     OW26110   4.212   0.120   6.241
 8404SOL    HW126111   4.297   0.153   6.282
 8404SOL    HW226112   4.229   0.035   6.192
 8405SOL     OW26113   3.240   1.894   6.104
 8405SOL    HW126114   3.308   1.823   6.088
 8405SOL    HW226115   3.211   1.933   6.017
 8406SOL     OW26116   4.246   0.012   0.580
 8406SOL    HW126117   4.181   0.029   0.506
 8406SOL    HW226118   4.306   0.091   0.592
 8407SOL     OW26119   4.314   6.547   3.502
 8407SOL    HW126120   4.228   6.552   3.450
 8407SOL    HW226121   4.388   6.588   3.448
 8408SOL     OW26122   5.614   5.031   0.499
 8408SOL    HW126123   5.559   4.958   0.538
 8408SOL    HW226124   5.564   5.117   0.504
 8409SOL     OW26125   4.934   2.369   1.865
 8409SOL    HW126126   4.918   2.383   1.767
 8409SOL    HW226127   4.965   2.276   1.881
 8410SOL     OW26128   6.500   2.037   1.844
 8410SOL    HW126129   6.522   2.106   1.914
 8410SOL    HW226130   6.413   1.994   1.865
 8411SOL     OW26131   0.387   5.975   1.091
 8411SOL    HW126132   0.389   5.996   1.189
 8411SOL    HW226133   0.404   5.877   1.078
 8412SOL     OW26134   3.881   2.040   1.257
 8412SOL    HW126135   3.849   1.951   1.224
 8412SOL    HW226136   3.838   2.112   1.204
 8413SOL     OW26137   4.724   5.725   6.394
 8413SOL    HW126138   4.705   5.634   6.432
 8413SOL    HW226139   4.711   5.724   6.295
 8414SOL     OW26140   2.222   1.017   2.954
 8414SOL    HW126141   2.222   1.081   3.031
 8414SOL    HW226142   2.176   1.059   2.875
 8415SOL     OW26143   1.881   6.627   4.221
 8415SOL    HW126144   1.905   6.724   4.209
 8415SOL    HW226145   1.961   6.578   4.256
 8416SOL     OW26146   6.585   1.886   4.625
 8416SOL    HW126147   6.664   1.832   4.653
 8416SOL    HW226148   6.501   1.834   4.640
 8417SOL     OW26149   1.857   2.662   5.368
 8417SOL    HW126150   1.835   2.576   5.414
 8417SOL    HW226151   1.903   2.642   5.281
 8418SOL     OW26152   0.194   5.521   2.146
 8418SOL    HW126153   0.148   5.442   2.186
 8418SOL    HW226154   0.129   5.574   2.091
 8419SOL     OW26155   5.816   1.537   2.681
 8419SOL    HW126156   5.867   1.471   2.737
 8419SOL    HW226157   5.734   1.566   2.731
 8420SOL     OW26158   3.291   6.498   1.745
 8420SOL    HW126159   3.338   6.475   1.660
 8420SOL    HW226160   3.278   6.597   1.749
 8421SOL     OW26161   3.120   4.918   0.118
 8421SOL    HW126162   3.062   4.887   0.042
 8421SOL    HW226163   3.120   4.848   0.190
 8422SOL     OW26164   3.776   1.926   2.505
 8422SOL    HW126165   3.720   1.872   2.442
 8422SOL    HW226166   3.734   1.924   2.596
 8423SOL     OW26167   4.595   4.408   5.585
 8423SOL    HW126168   4.549   4.403   5.497
 8423SOL    HW226169   4.652   4.327   5.599
 8424SOL     OW26170   2.070   1.993   3.093
 8424SOL    HW126171   2.079   1.920   3.025
 8424SOL    HW226172   2.133   2.067   3.071
 8425SOL     OW26173   4.090   3.595   4.637
 8425SOL    HW126174   4.066   3.674   4.694
 8425SOL    HW226175   4.068   3.614   4.542
 8426SOL     OW26176   3.746   3.205   2.858
 8426SOL    HW126177   3.728   3.129   2.795
 8426SOL    HW226178   3.803   3.174   2.934
 8427SOL     OW26179   2.873   3.634   3.425
 8427SOL    HW126180   2.784   3.681   3.422
 8427SOL    HW226181   2.890   3.591   3.337
 8428SOL     OW26182   6.853   6.570   2.009
 8428SOL    HW126183   6.789   6.647   2.017
 8428SOL    HW226184   6.845   6.511   2.090
 8429SOL     OW26185   1.748   5.325   5.673
 8429SOL    HW126186   1.709   5.233   5.671
 8429SOL    HW226187   1.690   5.388   5.621
 8430SOL     OW26188   3.909   5.119   4.121
 8430SOL    HW126189   3.865   5.036   4.085
 8430SOL    HW226190   3.982   5.147   4.059
 8431SOL     OW26191   3.882   3.597   0.338
 8431SOL    HW126192   3.825   3.587   0.419
 8431SOL    HW226193   3.930   3.685   0.341
 8432SOL     OW26194   6.786   5.435   5.188
 8432SOL    HW126195   6.793   5.427   5.089
 8432SOL    HW226196   6.737   5.519   5.211
 8433SOL     OW26197   4.020   2.929   0.854
 8433SOL    HW126198   3.995   2.890   0.943
 8433SOL    HW226199   4.115   2.907   0.833
 8434SOL     OW26200   2.309   6.492   4.601
 8434SOL    HW126201   2.383   6.429   4.577
 8434SOL    HW226202   2.221   6.448   4.583
 8435SOL     OW26203   5.284   0.292   2.819
 8435SOL    HW126204   5.271   0.282   2.721
 8435SOL    HW226205   5.197   0.279   2.866
 8436SOL     OW26206   2.931   6.318   3.846
 8436SOL    HW126207   3.012   6.271   3.811
 8436SOL    HW226208   2.853   6.256   3.847
 8437SOL     OW26209   2.365   2.651   2.417
 8437SOL    HW126210   2.311   2.567   2.419
 8437SOL    HW226211   2.327   2.713   2.348
 8438SOL     OW26212   2.572   4.505   2.576
 8438SOL    HW126213   2.647   4.557   2.536
 8438SOL    HW226214   2.608   4.436   2.639
 8439SOL     OW26215   6.669   4.998   3.064
 8439SOL    HW126216   6.582   4.955   3.043
 8439SOL    HW226217   6.727   4.933   3.114
 8440SOL     OW26218   2.364   2.192   3.513
 8440SOL    HW126219   2.397   2.141   3.592
 8440SOL    HW226220   2.299   2.262   3.543
 8441SOL     OW26221   5.581   6.047   5.922
 8441SOL    HW126222   5.626   5.993   5.993
 8441SOL    HW226223   5.496   6.085   5.957
 8442SOL     OW26224   3.888   1.098   5.019
 8442SOL    HW126225   3.873   1.194   4.995
 8442SOL    HW226226   3.846   1.040   4.950
 8443SOL     OW26227   2.169   4.998   3.706
 8443SOL    HW126228   2.237   4.935   3.667
 8443SOL    HW226229   2.095   5.012   3.640
 8444SOL     OW26230   3.100   6.900   3.409
 8444SOL    HW126231   3.026   6.960   3.441
 8444SOL    HW226232   3.084   6.807   3.441
 8445SOL     OW26233   2.842   0.375   0.613
 8445SOL    HW126234   2.872   0.337   0.526
 8445SOL    HW226235   2.827   0.300   0.678
 8446SOL     OW26236   6.704   5.885   5.121
 8446SOL    HW126237   6.643   5.951   5.163
 8446SOL    HW226238   6.697   5.890   5.022
 8447SOL     OW26239   3.666   1.317   1.535
 8447SOL    HW126240   3.589   1.302   1.473
 8447SOL    HW226241   3.709   1.405   1.514
 8448SOL     OW26242   4.752   6.469   3.213
 8448SOL    HW126243   4.760   6.422   3.125
 8448SOL    HW226244   4.779   6.407   3.287
 8449SOL     OW26245   0.606   3.401   3.586
 8449SOL    HW126246   0.590   3.481   3.644
 8449SOL    HW226247   0.564   3.321   3.628
 8450SOL     OW26248   0.499   0.987   1.564
 8450SOL    HW126249   0.445   0.924   1.619
 8450SOL    HW226250   0.441   1.061   1.531
 8451SOL     OW26251   2.954   0.819   0.515
 8451SOL    HW126252   3.027   0.824   0.447
 8451SOL    HW226253   2.944   0.908   0.560
 8452SOL     OW26254   5.083   2.718   4.709
 8452SOL    HW126255   5.044   2.768   4.631
 8452SOL    HW226256   5.148   2.778   4.757
 8453SOL     OW26257   0.009   5.422   0.053
 8453SOL    HW126258   7.016   5.411   0.152
 8453SOL    HW226259   6.939   5.413   0.008
 8454SOL     OW26260   0.012   5.143   6.992
 8454SOL    HW126261   0.071   5.115   0.049
 8454SOL    HW226262   7.010   5.240   7.000
 8455SOL     OW26263   6.725   2.269   3.324
 8455SOL    HW126264   6.670   2.263   3.241
 8455SOL    HW226265   6.820   2.243   3.303
 8456SOL     OW26266   4.754   0.666   3.799
 8456SOL    HW126267   4.768   0.650   3.701
 8456SOL    HW226268   4.820   0.733   3.831
 8457SOL     OW26269   6.527   6.271   4.950
 8457SOL    HW126270   6.450   6.300   4.894
 8457SOL    HW226271   6.543   6.338   5.022
 8458SOL     OW26272   1.379   0.298   0.714
 8458SOL    HW126273   1.334   0.240   0.646
 8458SOL    HW226274   1.342   0.277   0.805
 8459SOL     OW26275   1.786   5.826   2.937
 8459SOL    HW126276   1.798   5.912   2.888
 8459SOL    HW226277   1.710   5.774   2.897
 8460SOL     OW26278   4.705   3.886   5.452
 8460SOL    HW126279   4.616   3.845   5.428
 8460SOL    HW226280   4.764   3.886   5.371
 8461SOL     OW26281   1.116   2.470   5.150
 8461SOL    HW126282   1.116   2.465   5.050
 8461SOL    HW226283   1.085   2.382   5.187
 8462SOL     OW26284   3.175   1.494   0.407
 8462SOL    HW126285   3.223   1.409   0.431
 8462SOL    HW226286   3.200   1.566   0.472
 8463SOL     OW26287   6.370   0.147   2.029
 8463SOL    HW126288   6.312   0.065   2.035
 8463SOL    HW226289   6.465   0.120   2.019
 8464SOL     OW26290   5.683   4.216   4.138
 8464SOL    HW126291   5.600   4.165   4.114
 8464SOL    HW226292   5.669   4.263   4.225
 8465SOL     OW26293   1.591   2.238   0.902
 8465SOL    HW126294   1.569   2.263   0.996
 8465SOL    HW226295   1.666   2.172   0.902
 8466SOL     OW26296   1.254   6.142   4.025
 8466SOL    HW126297   1.206   6.196   3.956
 8466SOL    HW226298   1.350   6.133   4.001
 8467SOL     OW26299   2.783   5.983   0.564
 8467SOL    HW126300   2.785   5.888   0.594
 8467SOL    HW226301   2.855   6.035   0.610
 8468SOL     OW26302   2.801   1.602   0.917
 8468SOL    HW126303   2.833   1.638   1.005
 8468SOL    HW226304   2.753   1.674   0.867
 8469SOL     OW26305   3.147   2.792   6.760
 8469SOL    HW126306   3.206   2.712   6.745
 8469SOL    HW226307   3.118   2.828   6.671
 8470SOL     OW26308   2.202   3.186   1.578
 8470SOL    HW126309   2.142   3.209   1.654
 8470SOL    HW226310   2.290   3.154   1.613
 8471SOL     OW26311   2.391   0.736   3.538
 8471SOL    HW126312   2.310   0.686   3.567
 8471SOL    HW226313   2.425   0.697   3.452
 8472SOL     OW26314   0.426   0.165   4.339
 8472SOL    HW126315   0.410   0.136   4.245
 8472SOL    HW226316   0.517   0.133   4.369
 8473SOL     OW26317   0.170   5.540   6.840
 8473SOL    HW126318   0.167   5.505   6.934
 8473SOL    HW226319   0.175   5.464   6.776
 8474SOL     OW26320   3.138   3.029   1.980
 8474SOL    HW126321   3.172   3.121   1.959
 8474SOL    HW226322   3.124   3.021   2.079
 8475SOL     OW26323   6.711   1.832   2.851
 8475SOL    HW126324   6.683   1.779   2.932
 8475SOL    HW226325   6.706   1.773   2.770
 8476SOL     OW26326   6.338   0.404   1.992
 8476SOL    HW126327   6.317   0.306   1.984
 8476SOL    HW226328   6.292   0.454   1.919
 8477SOL     OW26329   2.865   6.171   1.334
 8477SOL    HW126330   2.811   6.229   1.273
 8477SOL    HW226331   2.875   6.215   1.423
 8478SOL     OW26332   1.509   0.588   5.484
 8478SOL    HW126333   1.461   0.648   5.420
 8478SOL    HW226334   1.452   0.573   5.565
 8479SOL     OW26335   5.866   1.275   0.279
 8479SOL    HW126336   5.778   1.227   0.269
 8479SOL    HW226337   5.929   1.218   0.331
 8480SOL     OW26338   3.241   1.102   1.120
 8480SOL    HW126339   3.334   1.069   1.102
 8480SOL    HW226340   3.205   1.058   1.201
 8481SOL     OW26341   3.950   1.539   3.726
 8481SOL    HW126342   3.899   1.584   3.653
 8481SOL    HW226343   3.973   1.606   3.797
 8482SOL     OW26344   2.184   0.059   2.179
 8482SOL    HW126345   2.266   0.114   2.163
 8482SOL    HW226346   2.104   0.109   2.144
 8483SOL     OW26347   3.141   5.654   2.433
 8483SOL    HW126348   3.225   5.691   2.392
 8483SOL    HW226349   3.063   5.710   2.406
 8484SOL     OW26350   0.115   4.680   2.954
 8484SOL    HW126351   0.104   4.743   2.877
 8484SOL    HW226352   0.105   4.729   3.040
 8485SOL     OW26353   1.856   3.679   6.991
 8485SOL    HW126354   1.874   3.713   6.898
 8485SOL    HW226355   1.853   3.579   6.990
 8486SOL     OW26356   5.392   1.409   2.405
 8486SOL    HW126357   5.293   1.419   2.409
 8486SOL    HW226358   5.436   1.493   2.438
 8487SOL     OW26359   5.202   0.256   0.627
 8487SOL    HW126360   5.252   0.216   0.703
 8487SOL    HW226361   5.229   0.351   0.615
 8488SOL     OW26362   5.579   5.401   5.039
 8488SOL    HW126363   5.593   5.492   5.078
 8488SOL    HW226364   5.658   5.375   4.984
 8489SOL     OW26365   6.074   6.598   1.218
 8489SOL    HW126366   5.989   6.644   1.195
 8489SOL    HW226367   6.056   6.519   1.276
 8490SOL     OW26368   4.751   6.274   3.412
 8490SOL    HW126369   4.712   6.313   3.495
 8490SOL    HW226370   4.722   6.178   3.403
 8491SOL     OW26371   2.562   0.668   1.643
 8491SOL    HW126372   2.562   0.651   1.545
 8491SOL    HW226373   2.536   0.584   1.692
 8492SOL     OW26374   4.647   3.722   5.974
 8492SOL    HW126375   4.563   3.765   6.006
 8492SOL    HW226376   4.687   3.666   6.047
 8493SOL     OW26377   3.476   2.080   0.236
 8493SOL    HW126378   3.411   2.020   0.190
 8493SOL    HW226379   3.569   2.044   0.223
 8494SOL     OW26380   1.764   4.622   6.212
 8494SOL    HW126381   1.800   4.659   6.298
 8494SOL    HW226382   1.684   4.566   6.231
 8495SOL     OW26383   0.172   3.388   0.635
 8495SOL    HW126384   0.201   3.385   0.540
 8495SOL    HW226385   0.178   3.295   0.674
 8496SOL     OW26386   0.368   2.223   3.205
 8496SOL    HW126387   0.361   2.189   3.299
 8496SOL    HW226388   0.377   2.322   3.206
 8497SOL     OW26389   5.458   6.482   4.025
 8497SOL    HW126390   5.544   6.469   3.975
 8497SOL    HW226391   5.405   6.398   4.022
 8498SOL     OW26392   0.377   6.480   1.567
 8498SOL    HW126393   0.306   6.412   1.583
 8498SOL    HW226394   0.361   6.526   1.480
 8499SOL     OW26395   2.320   5.371   5.877
 8499SOL    HW126396   2.377   5.333   5.950
 8499SOL    HW226397   2.376   5.384   5.795
 8500SOL     OW26398   2.309   0.565   5.728
 8500SOL    HW126399   2.288   0.657   5.695
 8500SOL    HW226400   2.408   0.554   5.736
 8501SOL     OW26401   1.682   2.360   7.018
 8501SOL    HW126402   1.749   2.303   6.969
 8501SOL    HW226403   1.724   2.396   0.083
 8502SOL     OW26404   0.683   5.261   1.476
 8502SOL    HW126405   0.700   5.236   1.572
 8502SOL    HW226406   0.602   5.212   1.443
 8503SOL     OW26407   1.200   5.231   2.880
 8503SOL    HW126408   1.158   5.181   2.803
 8503SOL    HW226409   1.129   5.281   2.930
 8504SOL     OW26410   1.773   5.970   3.293
 8504SOL    HW126411   1.710   6.037   3.255
 8504SOL    HW226412   1.748   5.878   3.261
 8505SOL     OW26413   5.017   4.135   3.189
 8505SOL    HW126414   4.976   4.208   3.134
 8505SOL    HW226415   4.960   4.054   3.184
 8506SOL     OW26416   0.795   6.840   0.499
 8506SOL    HW126417   0.822   6.754   0.544
 8506SOL    HW226418   0.697   6.853   0.509
 8507SOL     OW26419   2.185   1.054   5.343
 8507SOL    HW126420   2.266   1.113   5.340
 8507SOL    HW226421   2.139   1.065   5.431
 8508SOL     OW26422   0.206   3.147   4.907
 8508SOL    HW126423   0.246   3.229   4.946
 8508SOL    HW226424   0.108   3.160   4.893
 8509SOL     OW26425   6.356   1.762   4.846
 8509SOL    HW126426   6.350   1.701   4.767
 8509SOL    HW226427   6.285   1.832   4.840
 8510SOL     OW26428   6.832   5.143   3.363
 8510SOL    HW126429   6.895   5.188   3.426
 8510SOL    HW226430   6.778   5.212   3.314
 8511SOL     OW26431   5.700   4.298   1.880
 8511SOL    HW126432   5.793   4.332   1.891
 8511SOL    HW226433   5.657   4.292   1.970
 8512SOL     OW26434   3.959   2.017   0.420
 8512SOL    HW126435   3.981   2.109   0.387
 8512SOL    HW226436   4.026   1.990   0.489
 8513SOL     OW26437   4.851   4.230   1.251
 8513SOL    HW126438   4.942   4.240   1.292
 8513SOL    HW226439   4.796   4.168   1.308
 8514SOL     OW26440   2.371   2.757   3.390
 8514SOL    HW126441   2.417   2.692   3.451
 8514SOL    HW226442   2.385   2.728   3.295
 8515SOL     OW26443   0.595   1.273   6.747
 8515SOL    HW126444   0.554   1.365   6.742
 8515SOL    HW226445   0.535   1.213   6.800
 8516SOL     OW26446   6.297   3.348   1.894
 8516SOL    HW126447   6.358   3.406   1.840
 8516SOL    HW226448   6.249   3.284   1.834
 8517SOL     OW26449   1.986   2.712   6.112
 8517SOL    HW126450   1.929   2.660   6.049
 8517SOL    HW226451   1.932   2.785   6.154
 8518SOL     OW26452   5.578   4.215   5.942
 8518SOL    HW126453   5.599   4.285   5.873
 8518SOL    HW226454   5.590   4.124   5.902
 8519SOL     OW26455   0.408   4.692   0.891
 8519SOL    HW126456   0.503   4.723   0.902
 8519SOL    HW226457   0.406   4.593   0.881
 8520SOL     OW26458   3.183   3.202   5.657
 8520SOL    HW126459   3.205   3.293   5.624
 8520SOL    HW226460   3.203   3.135   5.585
 8521SOL     OW26461   1.810   6.159   5.551
 8521SOL    HW126462   1.781   6.066   5.575
 8521SOL    HW226463   1.894   6.182   5.600
 8522SOL     OW26464   0.227   6.934   1.435
 8522SOL    HW126465   0.135   6.948   1.469
 8522SOL    HW226466   0.265   6.850   1.474
 8523SOL     OW26467   2.848   6.612   6.893
 8523SOL    HW126468   2.841   6.521   6.934
 8523SOL    HW226469   2.771   6.628   6.832
 8524SOL     OW26470   1.340   3.987   4.987
 8524SOL    HW126471   1.332   4.019   5.081
 8524SOL    HW226472   1.307   4.058   4.925
 8525SOL     OW26473   5.821   5.169   1.216
 8525SOL    HW126474   5.810   5.134   1.123
 8525SOL    HW226475   5.789   5.264   1.220
 8526SOL     OW26476   3.297   6.830   0.721
 8526SOL    HW126477   3.283   6.789   0.631
 8526SOL    HW226478   3.350   6.915   0.711
 8527SOL     OW26479   3.637   0.474   0.192
 8527SOL    HW126480   3.559   0.433   0.146
 8527SOL    HW226481   3.606   0.516   0.278
 8528SOL     OW26482   3.755   1.487   0.983
 8528SOL    HW126483   3.751   1.561   1.050
 8528SOL    HW226484   3.850   1.457   0.972
 8529SOL     OW26485   1.116   6.488   0.408
 8529SOL    HW126486   1.117   6.564   0.473
 8529SOL    HW226487   1.083   6.520   0.319
 8530SOL     OW26488   3.841   3.618   5.102
 8530SOL    HW126489   3.940   3.632   5.094
 8530SOL    HW226490   3.796   3.652   5.019
 8531SOL     OW26491   0.015   5.705   2.563
 8531SOL    HW126492   0.107   5.741   2.548
 8531SOL    HW226493   6.989   5.758   2.634
 8532SOL     OW26494   3.927   6.086   4.401
 8532SOL    HW126495   3.864   6.162   4.418
 8532SOL    HW226496   3.940   6.075   4.302
 8533SOL     OW26497   1.752   5.880   0.089
 8533SOL    HW126498   1.849   5.878   0.114
 8533SOL    HW226499   1.700   5.818   0.147
 8534SOL     OW26500   4.769   2.869   3.881
 8534SOL    HW126501   4.783   2.938   3.952
 8534SOL    HW226502   4.850   2.809   3.877
 8535SOL     OW26503   5.855   1.315   4.440
 8535SOL    HW126504   5.809   1.233   4.476
 8535SOL    HW226505   5.787   1.382   4.411
 8536SOL     OW26506   1.002   1.696   4.991
 8536SOL    HW126507   1.069   1.695   5.065
 8536SOL    HW226508   0.962   1.605   4.981
 8537SOL     OW26509   5.370   1.927   3.414
 8537SOL    HW126510   5.350   1.836   3.378
 8537SOL    HW226511   5.285   1.977   3.429
 8538SOL     OW26512   2.028   1.481   6.789
 8538SOL    HW126513   1.981   1.421   6.853
 8538SOL    HW226514   2.127   1.465   6.795
 8539SOL     OW26515   6.662   1.988   2.225
 8539SOL    HW126516   6.760   1.997   2.206
 8539SOL    HW226517   6.632   1.896   2.198
 8540SOL     OW26518   5.735   0.124   6.590
 8540SOL    HW126519   5.693   0.214   6.577
 8540SOL    HW226520   5.737   0.075   6.503
 8541SOL     OW26521   3.402   1.818   3.347
 8541SOL    HW126522   3.354   1.802   3.433
 8541SOL    HW226523   3.396   1.915   3.323
 8542SOL     OW26524   4.013   4.473   6.067
 8542SOL    HW126525   3.919   4.497   6.089
 8542SOL    HW226526   4.061   4.445   6.150
 8543SOL     OW26527   2.138   1.356   1.470
 8543SOL    HW126528   2.236   1.340   1.462
 8543SOL    HW226529   2.101   1.387   1.382
 8544SOL     OW26530   5.813   2.995   4.287
 8544SOL    HW126531   5.816   2.919   4.351
 8544SOL    HW226532   5.738   3.057   4.312
 8545SOL     OW26533   4.538   0.127   5.681
 8545SOL    HW126534   4.620   0.152   5.630
 8545SOL    HW226535   4.457   0.147   5.626
 8546SOL     OW26536   5.525   2.594   4.295
 8546SOL    HW126537   5.603   2.536   4.317
 8546SOL    HW226538   5.462   2.544   4.235
 8547SOL     OW26539   0.844   6.861   6.362
 8547SOL    HW126540   0.786   6.870   6.281
 8547SOL    HW226541   0.844   6.766   6.392
 8548SOL     OW26542   6.243   2.654   4.811
 8548SOL    HW126543   6.302   2.606   4.876
 8548SOL    HW226544   6.162   2.599   4.792
 8549SOL     OW26545   0.611   3.610   4.218
 8549SOL    HW126546   0.666   3.555   4.281
 8549SOL    HW226547   0.532   3.558   4.189
 8550SOL     OW26548   2.002   4.620   6.659
 8550SOL    HW126549   2.074   4.594   6.594
 8550SOL    HW226550   1.967   4.537   6.703
 8551SOL     OW26551   3.792   4.340   6.441
 8551SOL    HW126552   3.848   4.265   6.406
 8551SOL    HW226553   3.808   4.350   6.540
 8552SOL     OW26554   2.878   6.288   4.147
 8552SOL    HW126555   2.965   6.247   4.176
 8552SOL    HW226556   2.886   6.318   4.052
 8553SOL     OW26557   5.548   5.621   6.708
 8553SOL    HW126558   5.609   5.548   6.737
 8553SOL    HW226559   5.522   5.607   6.612
 8554SOL     OW26560   0.446   4.928   0.189
 8554SOL    HW126561   0.373   4.872   0.150
 8554SOL    HW226562   0.535   4.884   0.172
 8555SOL     OW26563   1.083   0.424   3.083
 8555SOL    HW126564   1.122   0.332   3.093
 8555SOL    HW226565   1.069   0.443   2.986
 8556SOL     OW26566   0.756   6.757   3.237
 8556SOL    HW126567   0.847   6.798   3.248
 8556SOL    HW226568   0.766   6.658   3.223
 8557SOL     OW26569   6.600   1.529   2.197
 8557SOL    HW126570   6.577   1.455   2.134
 8557SOL    HW226571   6.631   1.609   2.145
 8558SOL     OW26572   2.583   5.455   2.889
 8558SOL    HW126573   2.515   5.479   2.821
 8558SOL    HW226574   2.652   5.528   2.895
 8559SOL     OW26575   6.309   0.817   2.318
 8559SOL    HW126576   6.327   0.735   2.372
 8559SOL    HW226577   6.390   0.839   2.264
 8560SOL     OW26578   6.684   0.231   1.043
 8560SOL    HW126579   6.750   0.202   1.113
 8560SOL    HW226580   6.609   0.281   1.087
 8561SOL     OW26581   3.510   6.555   2.373
 8561SOL    HW126582   3.418   6.564   2.410
 8561SOL    HW226583   3.575   6.538   2.447
 8562SOL     OW26584   5.295   0.192   4.791
 8562SOL    HW126585   5.291   0.110   4.734
 8562SOL    HW226586   5.227   0.258   4.760
 8563SOL     OW26587   2.470   3.047   6.632
 8563SOL    HW126588   2.393   3.086   6.683
 8563SOL    HW226589   2.435   2.989   6.559
 8564SOL     OW26590   2.189   0.800   3.295
 8564SOL    HW126591   2.194   0.708   3.335
 8564SOL    HW226592   2.279   0.843   3.297
 8565SOL     OW26593   4.375   6.986   1.487
 8565SOL    HW126594   4.367   6.903   1.432
 8565SOL    HW226595   4.284   7.019   1.512
 8566SOL     OW26596   1.143   1.152   2.562
 8566SOL    HW126597   1.109   1.245   2.544
 8566SOL    HW226598   1.242   1.151   2.556
 8567SOL     OW26599   6.605   1.687   1.606
 8567SOL    HW126600   6.556   1.659   1.523
 8567SOL    HW226601   6.660   1.768   1.586
 8568SOL     OW26602   4.771   1.562   6.789
 8568SOL    HW126603   4.731   1.640   6.838
 8568SOL    HW226604   4.805   1.592   6.700
 8569SOL     OW26605   4.797   1.562   5.447
 8569SOL    HW126606   4.753   1.626   5.384
 8569SOL    HW226607   4.828   1.611   5.528
 8570SOL     OW26608   0.844   2.808   6.145
 8570SOL    HW126609   0.753   2.772   6.166
 8570SOL    HW226610   0.841   2.908   6.146
 8571SOL     OW26611   0.122   5.169   5.607
 8571SOL    HW126612   0.048   5.206   5.663
 8571SOL    HW226613   0.125   5.216   5.519
 8572SOL     OW26614   2.582   5.150   5.827
 8572SOL    HW126615   2.650   5.194   5.768
 8572SOL    HW226616   2.573   5.054   5.803
 8573SOL     OW26617   3.745   6.181   6.700
 8573SOL    HW126618   3.740   6.102   6.761
 8573SOL    HW226619   3.685   6.165   6.621
 8574SOL     OW26620   0.515   4.747   5.458
 8574SOL    HW126621   0.436   4.768   5.515
 8574SOL    HW226622   0.485   4.728   5.364
 8575SOL     OW26623   2.638   2.432   0.031
 8575SOL    HW126624   2.715   2.374   0.007
 8575SOL    HW226625   2.616   2.421   0.128
 8576SOL     OW26626   0.599   6.571   1.051
 8576SOL    HW126627   0.590   6.509   0.973
 8576SOL    HW226628   0.690   6.562   1.091
 8577SOL     OW26629   6.046   5.385   4.616
 8577SOL    HW126630   5.954   5.404   4.648
 8577SOL    HW226631   6.049   5.294   4.573
 8578SOL     OW26632   4.873   0.628   4.248
 8578SOL    HW126633   4.951   0.686   4.269
 8578SOL    HW226634   4.793   0.658   4.300
 8579SOL     OW26635   1.592   5.790   3.494
 8579SOL    HW126636   1.547   5.718   3.545
 8579SOL    HW226637   1.684   5.759   3.467
 8580SOL     OW26638   2.489   6.717   1.906
 8580SOL    HW126639   2.474   6.816   1.905
 8580SOL    HW226640   2.462   6.680   1.995
 8581SOL     OW26641   3.366   2.748   1.781
 8581SOL    HW126642   3.359   2.775   1.877
 8581SOL    HW226643   3.333   2.655   1.770
 8582SOL     OW26644   4.808   4.588   2.440
 8582SOL    HW126645   4.716   4.548   2.446
 8582SOL    HW226646   4.855   4.577   2.527
 8583SOL     OW26647   5.762   0.984   6.130
 8583SOL    HW126648   5.782   0.982   6.032
 8583SOL    HW226649   5.725   1.073   6.155
 8584SOL     OW26650   0.241   4.325   6.850
 8584SOL    HW126651   0.293   4.363   6.926
 8584SOL    HW226652   0.185   4.248   6.882
 8585SOL     OW26653   6.840   6.870   0.443
 8585SOL    HW126654   6.908   6.808   0.480
 8585SOL    HW226655   6.770   6.818   0.394
 8586SOL     OW26656   2.626   6.498   3.254
 8586SOL    HW126657   2.645   6.423   3.191
 8586SOL    HW226658   2.541   6.543   3.228
 8587SOL     OW26659   0.906   0.109   2.919
 8587SOL    HW126660   0.980   0.160   2.876
 8587SOL    HW226661   0.818   0.145   2.888
 8588SOL     OW26662   2.973   1.007   0.227
 8588SOL    HW126663   2.888   1.061   0.225
 8588SOL    HW226664   2.953   0.912   0.204
 8589SOL     OW26665   4.235   1.728   4.301
 8589SOL    HW126666   4.303   1.700   4.370
 8589SOL    HW226667   4.191   1.813   4.331
 8590SOL     OW26668   6.712   5.938   4.229
 8590SOL    HW126669   6.672   6.009   4.287
 8590SOL    HW226670   6.654   5.856   4.231
 8591SOL     OW26671   0.579   4.420   6.470
 8591SOL    HW126672   0.548   4.358   6.543
 8591SOL    HW226673   0.499   4.459   6.424
 8592SOL     OW26674   0.015   4.154   6.911
 8592SOL    HW126675   6.941   4.190   6.919
 8592SOL    HW226676   0.047   4.123   7.001
 8593SOL     OW26677   1.229   6.812   1.853
 8593SOL    HW126678   1.317   6.851   1.883
 8593SOL    HW226679   1.188   6.761   1.928
 8594SOL     OW26680   3.389   3.836   4.969
 8594SOL    HW126681   3.445   3.758   4.995
 8594SOL    HW226682   3.440   3.895   4.906
 8595SOL     OW26683   2.187   1.332   2.597
 8595SOL    HW126684   2.212   1.240   2.566
 8595SOL    HW226685   2.141   1.325   2.686
 8596SOL     OW26686   5.829   5.248   2.308
 8596SOL    HW126687   5.852   5.309   2.384
 8596SOL    HW226688   5.751   5.191   2.334
 8597SOL     OW26689   4.048   2.160   1.462
 8597SOL    HW126690   3.994   2.121   1.387
 8597SOL    HW226691   4.023   2.116   1.548
 8598SOL     OW26692   0.152   5.462   1.212
 8598SOL    HW126693   0.059   5.444   1.244
 8598SOL    HW226694   0.206   5.501   1.287
 8599SOL     OW26695   1.255   3.340   3.773
 8599SOL    HW126696   1.201   3.256   3.779
 8599SOL    HW226697   1.293   3.362   3.863
 8600SOL     OW26698   5.750   5.008   6.544
 8600SOL    HW126699   5.767   4.911   6.564
 8600SOL    HW226700   5.814   5.040   6.474
 8601SOL     OW26701   0.701   1.083   4.840
 8601SOL    HW126702   0.608   1.051   4.856
 8601SOL    HW226703   0.699   1.155   4.771
 8602SOL     OW26704   2.261   6.789   2.569
 8602SOL    HW126705   2.214   6.849   2.504
 8602SOL    HW226706   2.359   6.809   2.570
 8603SOL     OW26707   3.907   4.093   0.525
 8603SOL    HW126708   3.995   4.058   0.556
 8603SOL    HW226709   3.913   4.192   0.511
 8604SOL     OW26710   5.811   2.776   3.691
 8604SOL    HW126711   5.875   2.702   3.673
 8604SOL    HW226712   5.861   2.859   3.715
 8605SOL     OW26713   3.271   4.946   4.179
 8605SOL    HW126714   3.223   4.931   4.266
 8605SOL    HW226715   3.370   4.940   4.195
 8606SOL     OW26716   2.199   4.469   5.853
 8606SOL    HW126717   2.157   4.536   5.791
 8606SOL    HW226718   2.184   4.377   5.817
 8607SOL     OW26719   3.099   4.796   1.173
 8607SOL    HW126720   3.027   4.837   1.118
 8607SOL    HW226721   3.187   4.811   1.129
 8608SOL     OW26722   4.759   4.954   3.208
 8608SOL    HW126723   4.722   5.020   3.143
 8608SOL    HW226724   4.748   4.990   3.301
 8609SOL     OW26725   4.055   0.969   4.257
 8609SOL    HW126726   3.957   0.959   4.246
 8609SOL    HW226727   4.097   0.880   4.275
 8610SOL     OW26728   1.260   0.162   3.015
 8610SOL    HW126729   1.211   0.160   2.928
 8610SOL    HW226730   1.330   0.091   3.016
 8611SOL     OW26731   1.822   2.169   4.205
 8611SOL    HW126732   1.805   2.250   4.148
 8611SOL    HW226733   1.919   2.144   4.199
 8612SOL     OW26734   3.210   3.204   6.524
 8612SOL    HW126735   3.156   3.264   6.466
 8612SOL    HW226736   3.232   3.120   6.473
 8613SOL     OW26737   2.403   1.347   1.479
 8613SOL    HW126738   2.450   1.435   1.476
 8613SOL    HW226739   2.431   1.291   1.401
 8614SOL     OW26740   0.974   4.010   2.707
 8614SOL    HW126741   0.951   4.055   2.620
 8614SOL    HW226742   1.054   4.055   2.747
 8615SOL     OW26743   4.583   1.909   4.872
 8615SOL    HW126744   4.646   1.986   4.876
 8615SOL    HW226745   4.489   1.943   4.873
 8616SOL     OW26746   0.619   4.909   0.456
 8616SOL    HW126747   0.558   4.959   0.518
 8616SOL    HW226748   0.575   4.901   0.366
 8617SOL     OW26749   6.244   1.490   0.163
 8617SOL    HW126750   6.162   1.532   0.201
 8617SOL    HW226751   6.223   1.448   0.075
 8618SOL     OW26752   4.952   0.177   1.677
 8618SOL    HW126753   4.997   0.183   1.588
 8618SOL    HW226754   4.913   0.085   1.687
 8619SOL     OW26755   3.577   4.618   0.092
 8619SOL    HW126756   3.646   4.679   0.131
 8619SOL    HW226757   3.538   4.560   0.164
 8620SOL     OW26758   6.400   6.851   3.109
 8620SOL    HW126759   6.313   6.887   3.077
 8620SOL    HW226760   6.413   6.875   3.206
 8621SOL     OW26761   5.922   1.568   3.428
 8621SOL    HW126762   5.977   1.639   3.384
 8621SOL    HW226763   5.890   1.601   3.517
 8622SOL     OW26764   4.537   4.471   0.384
 8622SOL    HW126765   4.450   4.513   0.359
 8622SOL    HW226766   4.611   4.512   0.330
 8623SOL     OW26767   0.689   4.245   3.250
 8623SOL    HW126768   0.749   4.280   3.321
 8623SOL    HW226769   0.604   4.297   3.249
 8624SOL     OW26770   1.150   4.859   3.803
 8624SOL    HW126771   1.068   4.810   3.774
 8624SOL    HW226772   1.196   4.807   3.874
 8625SOL     OW26773   4.504   0.536   4.129
 8625SOL    HW126774   4.456   0.604   4.073
 8625SOL    HW226775   4.572   0.581   4.186
 8626SOL     OW26776   4.038   3.156   4.402
 8626SOL    HW126777   4.043   3.224   4.475
 8626SOL    HW226778   4.124   3.105   4.399
 8627SOL     OW26779   1.115   0.208   2.739
 8627SOL    HW126780   1.128   0.117   2.699
 8627SOL    HW226781   1.125   0.277   2.667
 8628SOL     OW26782   6.428   6.861   1.064
 8628SOL    HW126783   6.373   6.806   1.127
 8628SOL    HW226784   6.404   6.957   1.074
 8629SOL     OW26785   1.639   5.173   4.703
 8629SOL    HW126786   1.615   5.075   4.705
 8629SOL    HW226787   1.723   5.185   4.651
 8630SOL     OW26788   6.111   4.001   4.904
 8630SOL    HW126789   6.134   3.973   4.810
 8630SOL    HW226790   6.012   3.994   4.917
 8631SOL     OW26791   4.011   6.214   6.238
 8631SOL    HW126792   4.019   6.261   6.326
 8631SOL    HW226793   3.974   6.122   6.253
 8632SOL     OW26794   3.508   6.160   3.916
 8632SOL    HW126795   3.574   6.109   3.861
 8632SOL    HW226796   3.552   6.192   3.999
 8633SOL     OW26797   5.137   1.216   4.153
 8633SOL    HW126798   5.091   1.303   4.135
 8633SOL    HW226799   5.227   1.234   4.194
 8634SOL     OW26800   6.689   2.847   0.736
 8634SOL    HW126801   6.670   2.812   0.644
 8634SOL    HW226802   6.629   2.802   0.802
 8635SOL     OW26803   6.051   3.717   5.725
 8635SOL    HW126804   6.035   3.761   5.637
 8635SOL    HW226805   6.060   3.786   5.797
 8636SOL     OW26806   5.917   5.202   6.910
 8636SOL    HW126807   5.894   5.107   6.890
 8636SOL    HW226808   5.834   5.258   6.906
 8637SOL     OW26809   1.517   0.386   0.496
 8637SOL    HW126810   1.460   0.356   0.572
 8637SOL    HW226811   1.493   0.480   0.470
 8638SOL     OW26812   2.036   3.162   0.338
 8638SOL    HW126813   2.088   3.195   0.259
 8638SOL    HW226814   1.939   3.186   0.326
 8639SOL     OW26815   5.746   2.801   1.767
 8639SOL    HW126816   5.654   2.764   1.755
 8639SOL    HW226817   5.787   2.816   1.677
 8640SOL     OW26818   5.057   3.969   0.538
 8640SOL    HW126819   5.062   3.884   0.590
 8640SOL    HW226820   5.102   4.043   0.589
 8641SOL     OW26821   6.753   3.957   4.444
 8641SOL    HW126822   6.764   3.987   4.349
 8641SOL    HW226823   6.809   4.014   4.504
 8642SOL     OW26824   4.236   0.201   2.469
 8642SOL    HW126825   4.304   0.148   2.417
 8642SOL    HW226826   4.147   0.194   2.424
 8643SOL     OW26827   4.105   6.511   0.087
 8643SOL    HW126828   4.203   6.523   0.075
 8643SOL    HW226829   4.059   6.599   0.077
 8644SOL     OW26830   4.957   2.031   5.760
 8644SOL    HW126831   5.023   2.044   5.686
 8644SOL    HW226832   4.922   2.119   5.791
 8645SOL     OW26833   5.633   4.778   1.938
 8645SOL    HW126834   5.538   4.761   1.913
 8645SOL    HW226835   5.659   4.716   2.012
 8646SOL     OW26836   6.060   1.154   0.999
 8646SOL    HW126837   6.156   1.161   0.973
 8646SOL    HW226838   6.024   1.066   0.967
 8647SOL     OW26839   4.006   4.885   6.244
 8647SOL    HW126840   4.064   4.814   6.283
 8647SOL    HW226841   4.007   4.879   6.144
 8648SOL     OW26842   5.559   1.546   4.952
 8648SOL    HW126843   5.529   1.451   4.964
 8648SOL    HW226844   5.636   1.549   4.889
 8649SOL     OW26845   5.724   5.085   5.499
 8649SOL    HW126846   5.679   4.998   5.483
 8649SOL    HW226847   5.707   5.146   5.421
 8650SOL     OW26848   1.568   4.898   4.744
 8650SOL    HW126849   1.607   4.813   4.780
 8650SOL    HW226850   1.512   4.942   4.814
 8651SOL     OW26851   3.996   0.580   0.677
 8651SOL    HW126852   4.036   0.490   0.658
 8651SOL    HW226853   4.067   0.642   0.710
 8652SOL     OW26854   1.617   4.536   3.087
 8652SOL    HW126855   1.554   4.609   3.059
 8652SOL    HW226856   1.703   4.576   3.116
 8653SOL     OW26857   6.332   2.783   6.250
 8653SOL    HW126858   6.315   2.728   6.332
 8653SOL    HW226859   6.254   2.844   6.234
 8654SOL     OW26860   0.659   6.337   1.836
 8654SOL    HW126861   0.567   6.370   1.855
 8654SOL    HW226862   0.722   6.415   1.829
 8655SOL     OW26863   5.983   0.531   3.667
 8655SOL    HW126864   5.901   0.522   3.610
 8655SOL    HW226865   5.988   0.455   3.732
 8656SOL     OW26866   6.349   1.440   1.248
 8656SOL    HW126867   6.335   1.347   1.281
 8656SOL    HW226868   6.280   1.462   1.179
 8657SOL     OW26869   4.636   5.496   6.509
 8657SOL    HW126870   4.567   5.503   6.580
 8657SOL    HW226871   4.699   5.421   6.531
 8658SOL     OW26872   4.586   5.738   0.411
 8658SOL    HW126873   4.621   5.662   0.357
 8658SOL    HW226874   4.497   5.766   0.374
 8659SOL     OW26875   4.804   1.314   3.027
 8659SOL    HW126876   4.821   1.386   3.095
 8659SOL    HW226877   4.743   1.348   2.957
 8660SOL     OW26878   4.901   3.624   0.888
 8660SOL    HW126879   4.833   3.694   0.907
 8660SOL    HW226880   4.955   3.607   0.971
 8661SOL     OW26881   5.843   3.904   1.841
 8661SOL    HW126882   5.893   3.833   1.791
 8661SOL    HW226883   5.794   3.863   1.918
 8662SOL     OW26884   5.028   6.255   1.961
 8662SOL    HW126885   4.962   6.268   2.036
 8662SOL    HW226886   5.116   6.227   1.999
 8663SOL     OW26887   2.391   5.506   0.628
 8663SOL    HW126888   2.332   5.551   0.560
 8663SOL    HW226889   2.355   5.525   0.719
 8664SOL     OW26890   3.638   4.982   0.679
 8664SOL    HW126891   3.604   4.893   0.708
 8664SOL    HW226892   3.605   5.003   0.587
 8665SOL     OW26893   5.466   4.918   5.087
 8665SOL    HW126894   5.449   4.904   5.185
 8665SOL    HW226895   5.544   4.979   5.074
 8666SOL     OW26896   5.362   2.689   4.976
 8666SOL    HW126897   5.358   2.775   4.924
 8666SOL    HW226898   5.451   2.681   5.020
 8667SOL     OW26899   4.821   2.330   2.976
 8667SOL    HW126900   4.822   2.428   2.992
 8667SOL    HW226901   4.808   2.312   2.878
 8668SOL     OW26902   5.070   2.771   3.839
 8668SOL    HW126903   5.013   2.703   3.794
 8668SOL    HW226904   5.165   2.738   3.842
 8669SOL     OW26905   3.224   0.105   6.819
 8669SOL    HW126906   3.251   0.061   6.733
 8669SOL    HW226907   3.142   0.160   6.804
 8670SOL     OW26908   3.258   4.798   5.187
 8670SOL    HW126909   3.221   4.708   5.210
 8670SOL    HW226910   3.358   4.793   5.183
 8671SOL     OW26911   5.736   1.009   3.879
 8671SOL    HW126912   5.735   1.088   3.818
 8671SOL    HW226913   5.642   0.981   3.899
 8672SOL     OW26914   2.525   5.957   4.317
 8672SOL    HW126915   2.463   5.910   4.254
 8672SOL    HW226916   2.517   5.917   4.408
 8673SOL     OW26917   0.391   1.125   6.860
 8673SOL    HW126918   0.441   1.137   6.946
 8673SOL    HW226919   0.301   1.169   6.868
 8674SOL     OW26920   6.522   6.071   1.469
 8674SOL    HW126921   6.550   6.143   1.533
 8674SOL    HW226922   6.589   6.064   1.395
 8675SOL     OW26923   3.491   2.011   3.985
 8675SOL    HW126924   3.585   2.046   3.986
 8675SOL    HW226925   3.447   2.028   4.073
 8676SOL     OW26926   3.512   6.864   3.044
 8676SOL    HW126927   3.597   6.912   3.022
 8676SOL    HW226928   3.435   6.917   3.011
 8677SOL     OW26929   1.983   5.212   6.073
 8677SOL    HW126930   2.073   5.176   6.097
 8677SOL    HW226931   1.914   5.141   6.090
 8678SOL     OW26932   6.931   0.054   0.301
 8678SOL    HW126933   6.895   6.999   0.357
 8678SOL    HW226934   6.978   0.120   0.359
 8679SOL     OW26935   6.313   2.933   4.913
 8679SOL    HW126936   6.391   2.929   4.975
 8679SOL    HW226937   6.293   2.842   4.878
 8680SOL     OW26938   0.567   3.780   0.946
 8680SOL    HW126939   0.479   3.745   0.976
 8680SOL    HW226940   0.571   3.779   0.846
 8681SOL     OW26941   4.749   4.542   0.228
 8681SOL    HW126942   4.779   4.447   0.240
 8681SOL    HW226943   4.768   4.572   0.135
 8682SOL     OW26944   3.862   6.705   2.667
 8682SOL    HW126945   3.851   6.766   2.589
 8682SOL    HW226946   3.853   6.757   2.752
 8683SOL     OW26947   1.367   2.379   1.977
 8683SOL    HW126948   1.406   2.378   2.069
 8683SOL    HW226949   1.288   2.317   1.974
 8684SOL     OW26950   0.789   3.464   5.074
 8684SOL    HW126951   0.746   3.495   5.159
 8684SOL    HW226952   0.788   3.365   5.071
 8685SOL     OW26953   1.257   2.224   5.580
 8685SOL    HW126954   1.170   2.250   5.538
 8685SOL    HW226955   1.251   2.130   5.613
 8686SOL     OW26956   6.656   1.760   2.081
 8686SOL    HW126957   6.586   1.763   2.010
 8686SOL    HW226958   6.747   1.770   2.040
 8687SOL     OW26959   3.410   6.358   2.883
 8687SOL    HW126960   3.351   6.356   2.802
 8687SOL    HW226961   3.364   6.405   2.958
 8688SOL     OW26962   2.579   6.188   7.011
 8688SOL    HW126963   2.523   6.110   6.983
 8688SOL    HW226964   2.532   6.273   6.987
 8689SOL     OW26965   3.251   5.261   0.091
 8689SOL    HW126966   3.318   5.202   0.045
 8689SOL    HW226967   3.196   5.309   0.023
 8690SOL     OW26968   1.752   2.617   3.758
 8690SOL    HW126969   1.785   2.710   3.773
 8690SOL    HW226970   1.827   2.553   3.772
 8691SOL     OW26971   4.451   2.684   6.011
 8691SOL    HW126972   4.379   2.615   6.021
 8691SOL    HW226973   4.476   2.719   6.102
 8692SOL     OW26974   3.418   1.982   2.575
 8692SOL    HW126975   3.322   2.009   2.580
 8692SOL    HW226976   3.440   1.952   2.482
 8693SOL     OW26977   5.678   2.174   1.060
 8693SOL    HW126978   5.755   2.131   1.107
 8693SOL    HW226979   5.597   2.115   1.067
 8694SOL     OW26980   4.170   1.083   6.599
 8694SOL    HW126981   4.162   1.052   6.504
 8694SOL    HW226982   4.165   1.004   6.660
 8695SOL     OW26983   4.451   2.666   5.725
 8695SOL    HW126984   4.461   2.646   5.823
 8695SOL    HW226985   4.358   2.644   5.696
 8696SOL     OW26986   3.267   6.097   1.085
 8696SOL    HW126987   3.236   6.179   1.036
 8696SOL    HW226988   3.188   6.054   1.129
 8697SOL     OW26989   6.450   3.700   0.723
 8697SOL    HW126990   6.381   3.654   0.667
 8697SOL    HW226991   6.481   3.638   0.795
 8698SOL     OW26992   5.958   6.167   3.823
 8698SOL    HW126993   6.049   6.208   3.828
 8698SOL    HW226994   5.917   6.164   3.914
 8699SOL     OW26995   1.486   2.392   5.404
 8699SOL    HW126996   1.553   2.321   5.381
 8699SOL    HW226997   1.405   2.350   5.443
 8700SOL     OW26998   2.346   1.173   4.518
 8700SOL    HW126999   2.373   1.084   4.556
 8700SOL    HW227000   2.246   1.180   4.517
 8701SOL     OW27001   1.569   0.759   7.005
 8701SOL    HW127002   1.526   0.677   6.967
 8701SOL    HW227003   1.499   0.815   0.030
 8702SOL     OW27004   5.417   4.629   0.055
 8702SOL    HW127005   5.440   4.664   6.983
 8702SOL    HW227006   5.479   4.554   0.078
 8703SOL     OW27007   2.589   5.355   1.221
 8703SOL    HW127008   2.589   5.455   1.226
 8703SOL    HW227009   2.683   5.323   1.205
 8704SOL     OW27010   6.110   3.621   2.614
 8704SOL    HW127011   6.011   3.629   2.622
 8704SOL    HW227012   6.152   3.711   2.625
 8705SOL     OW27013   4.828   1.105   0.656
 8705SOL    HW127014   4.797   1.031   0.596
 8705SOL    HW227015   4.888   1.166   0.606
 8706SOL     OW27016   4.589   2.182   5.809
 8706SOL    HW127017   4.560   2.086   5.804
 8706SOL    HW227018   4.540   2.227   5.883
 8707SOL     OW27019   5.024   2.487   6.921
 8707SOL    HW127020   4.962   2.563   6.941
 8707SOL    HW227021   4.989   2.436   6.843
 8708SOL     OW27022   4.254   2.217   2.076
 8708SOL    HW127023   4.180   2.240   2.139
 8708SOL    HW227024   4.317   2.153   2.121
 8709SOL     OW27025   6.681   5.911   6.380
 8709SOL    HW127026   6.737   5.916   6.463
 8709SOL    HW227027   6.701   5.990   6.321
 8710SOL     OW27028   1.849   3.306   2.898
 8710SOL    HW127029   1.949   3.310   2.899
 8710SOL    HW227030   1.819   3.211   2.886
 8711SOL     OW27031   6.764   6.047   2.449
 8711SOL    HW127032   6.829   6.082   2.382
 8711SOL    HW227033   6.814   6.013   2.529
 8712SOL     OW27034   4.177   2.307   4.033
 8712SOL    HW127035   4.244   2.296   4.106
 8712SOL    HW227036   4.100   2.362   4.066
 8713SOL     OW27037   0.328   4.035   3.480
 8713SOL    HW127038   0.327   4.135   3.493
 8713SOL    HW227039   0.318   4.014   3.383
 8714SOL     OW27040   0.443   0.693   5.580
 8714SOL    HW127041   0.473   0.738   5.664
 8714SOL    HW227042   0.433   0.761   5.507
 8715SOL     OW27043   4.853   0.512   1.104
 8715SOL    HW127044   4.769   0.509   1.049
 8715SOL    HW227045   4.830   0.515   1.201
 8716SOL     OW27046   0.635   0.725   1.694
 8716SOL    HW127047   0.722   0.735   1.743
 8716SOL    HW227048   0.569   0.790   1.731
 8717SOL     OW27049   4.080   3.311   3.006
 8717SOL    HW127050   4.049   3.228   3.050
 8717SOL    HW227051   4.013   3.340   2.938
 8718SOL     OW27052   1.228   2.870   5.622
 8718SOL    HW127053   1.327   2.884   5.630
 8718SOL    HW227054   1.194   2.918   5.541
 8719SOL     OW27055   1.988   0.141   6.174
 8719SOL    HW127056   1.932   0.223   6.160
 8719SOL    HW227057   1.965   0.073   6.105
 8720SOL     OW27058   6.504   5.050   5.314
 8720SOL    HW127059   6.567   5.010   5.380
 8720SOL    HW227060   6.410   5.028   5.341
 8721SOL     OW27061   5.504   2.414   4.020
 8721SOL    HW127062   5.500   2.385   3.925
 8721SOL    HW227063   5.530   2.336   4.078
 8722SOL     OW27064   3.749   0.535   0.829
 8722SOL    HW127065   3.836   0.539   0.781
 8722SOL    HW227066   3.727   0.625   0.867
 8723SOL     OW27067   5.615   6.161   1.852
 8723SOL    HW127068   5.550   6.085   1.858
 8723SOL    HW227069   5.693   6.142   1.912
 8724SOL     OW27070   6.102   6.799   4.818
 8724SOL    HW127071   6.011   6.816   4.780
 8724SOL    HW227072   6.113   6.701   4.835
 8725SOL     OW27073   2.899   0.068   6.994
 8725SOL    HW127074   2.823   0.036   0.032
 8725SOL    HW227075   2.867   0.083   6.901
 8726SOL     OW27076   6.619   0.931   1.313
 8726SOL    HW127077   6.543   0.937   1.379
 8726SOL    HW227078   6.706   0.945   1.362
 8727SOL     OW27079   6.506   6.544   2.013
 8727SOL    HW127080   6.565   6.616   2.049
 8727SOL    HW227081   6.531   6.457   2.053
 8728SOL     OW27082   4.095   6.965   4.284
 8728SOL    HW127083   4.020   7.017   4.242
 8728SOL    HW227084   4.068   6.870   4.295
 8729SOL     OW27085   4.685   6.101   3.076
 8729SOL    HW127086   4.746   6.180   3.080
 8729SOL    HW227087   4.593   6.130   3.101
 8730SOL     OW27088   6.710   4.995   2.748
 8730SOL    HW127089   6.711   5.021   2.845
 8730SOL    HW227090   6.615   4.985   2.718
 8731SOL     OW27091   2.175   1.918   2.645
 8731SOL    HW127092   2.167   1.914   2.744
 8731SOL    HW227093   2.188   1.826   2.608
 8732SOL     OW27094   4.910   4.701   1.865
 8732SOL    HW127095   4.853   4.632   1.909
 8732SOL    HW227096   4.915   4.783   1.922
 8733SOL     OW27097   1.392   5.812   3.112
 8733SOL    HW127098   1.403   5.741   3.042
 8733SOL    HW227099   1.431   5.898   3.079
 8734SOL     OW27100   1.036   4.580   1.783
 8734SOL    HW127101   1.058   4.538   1.871
 8734SOL    HW227102   0.945   4.621   1.788
 8735SOL     OW27103   0.741   1.556   6.880
 8735SOL    HW127104   0.746   1.634   6.818
 8735SOL    HW227105   0.820   1.496   6.867
 8736SOL     OW27106   0.872   6.731   0.047
 8736SOL    HW127107   0.936   6.708   0.120
 8736SOL    HW227108   0.884   6.827   0.020
 8737SOL     OW27109   3.032   6.774   6.118
 8737SOL    HW127110   2.946   6.818   6.091
 8737SOL    HW227111   3.066   6.817   6.202
 8738SOL     OW27112   2.277   4.213   3.772
 8738SOL    HW127113   2.359   4.265   3.747
 8738SOL    HW227114   2.237   4.252   3.855
 8739SOL     OW27115   6.398   5.223   5.611
 8739SOL    HW127116   6.361   5.236   5.519
 8739SOL    HW227117   6.495   5.247   5.611
 8740SOL     OW27118   4.287   1.511   5.109
 8740SOL    HW127119   4.289   1.412   5.100
 8740SOL    HW227120   4.297   1.554   5.020
 8741SOL     OW27121   1.956   0.748   2.249
 8741SOL    HW127122   1.907   0.800   2.319
 8741SOL    HW227123   2.036   0.801   2.219
 8742SOL     OW27124   5.504   5.839   1.616
 8742SOL    HW127125   5.526   5.909   1.548
 8742SOL    HW227126   5.454   5.765   1.572
 8743SOL     OW27127   2.150   6.776   2.825
 8743SOL    HW127128   2.181   6.742   2.736
 8743SOL    HW227129   2.220   6.756   2.894
 8744SOL     OW27130   3.566   2.409   6.253
 8744SOL    HW127131   3.533   2.337   6.314
 8744SOL    HW227132   3.625   2.370   6.183
 8745SOL     OW27133   6.712   2.394   6.242
 8745SOL    HW127134   6.664   2.420   6.158
 8745SOL    HW227135   6.700   2.296   6.257
 8746SOL     OW27136   4.487   4.322   5.300
 8746SOL    HW127137   4.565   4.280   5.254
 8746SOL    HW227138   4.418   4.347   5.232
 8747SOL     OW27139   0.738   2.547   3.323
 8747SOL    HW127140   0.804   2.473   3.338
 8747SOL    HW227141   0.718   2.592   3.410
 8748SOL     OW27142   0.320   1.447   6.390
 8748SOL    HW127143   0.276   1.391   6.320
 8748SOL    HW227144   0.404   1.402   6.421
 8749SOL     OW27145   2.723   6.914   4.776
 8749SOL    HW127146   2.716   6.887   4.872
 8749SOL    HW227147   2.719   6.832   4.718
 8750SOL     OW27148   2.819   3.131   5.235
 8750SOL    HW127149   2.825   3.067   5.312
 8750SOL    HW227150   2.723   3.147   5.212
 8751SOL     OW27151   6.422   6.832   2.206
 8751SOL    HW127152   6.376   6.769   2.268
 8751SOL    HW227153   6.354   6.883   2.153
 8752SOL     OW27154   2.998   4.042   6.908
 8752SOL    HW127155   2.928   3.991   6.856
 8752SOL    HW227156   2.957   4.123   6.948
 8753SOL     OW27157   5.112   1.445   4.415
 8753SOL    HW127158   5.139   1.541   4.422
 8753SOL    HW227159   5.014   1.439   4.394
 8754SOL     OW27160   0.873   1.888   5.602
 8754SOL    HW127161   0.805   1.931   5.661
 8754SOL    HW227162   0.933   1.828   5.657
 8755SOL     OW27163   2.722   1.153   6.452
 8755SOL    HW127164   2.767   1.076   6.407
 8755SOL    HW227165   2.725   1.139   6.551
 8756SOL     OW27166   2.139   3.499   3.271
 8756SOL    HW127167   2.214   3.433   3.272
 8756SOL    HW227168   2.114   3.522   3.365
 8757SOL     OW27169   5.400   6.598   5.727
 8757SOL    HW127170   5.335   6.535   5.685
 8757SOL    HW227171   5.387   6.598   5.827
 8758SOL     OW27172   5.133   6.085   2.216
 8758SOL    HW127173   5.121   6.134   2.303
 8758SOL    HW227174   5.202   6.131   2.162
 8759SOL     OW27175   4.126   1.928   6.522
 8759SOL    HW127176   4.183   1.863   6.572
 8759SOL    HW227177   4.052   1.879   6.476
 8760SOL     OW27178   2.121   2.004   4.892
 8760SOL    HW127179   2.022   2.017   4.896
 8760SOL    HW227180   2.142   1.918   4.845
 8761SOL     OW27181   4.313   0.102   0.914
 8761SOL    HW127182   4.267   0.027   0.866
 8761SOL    HW227183   4.364   0.065   0.992
 8762SOL     OW27184   1.277   3.443   2.549
 8762SOL    HW127185   1.349   3.491   2.499
 8762SOL    HW227186   1.257   3.492   2.634
 8763SOL     OW27187   6.034   6.073   4.521
 8763SOL    HW127188   6.036   5.983   4.477
 8763SOL    HW227189   6.120   6.088   4.570
 8764SOL     OW27190   4.786   1.198   4.108
 8764SOL    HW127191   4.700   1.240   4.138
 8764SOL    HW227192   4.840   1.170   4.187
 8765SOL     OW27193   6.064   6.545   4.888
 8765SOL    HW127194   5.981   6.515   4.840
 8765SOL    HW227195   6.076   6.490   4.971
 8766SOL     OW27196   3.924   4.882   3.232
 8766SOL    HW127197   3.997   4.819   3.208
 8766SOL    HW227198   3.963   4.964   3.274
 8767SOL     OW27199   4.387   0.604   3.251
 8767SOL    HW127200   4.414   0.508   3.260
 8767SOL    HW227201   4.410   0.653   3.336
 8768SOL     OW27202   2.122   2.925   0.201
 8768SOL    HW127203   2.068   3.000   0.240
 8768SOL    HW227204   2.167   2.956   0.118
 8769SOL     OW27205   1.044   0.070   4.885
 8769SOL    HW127206   1.007   0.158   4.857
 8769SOL    HW227207   1.137   0.059   4.850
 8770SOL     OW27208   4.956   4.359   1.972
 8770SOL    HW127209   5.045   4.393   1.942
 8770SOL    HW227210   4.947   4.262   1.948
 8771SOL     OW27211   2.171   0.433   5.923
 8771SOL    HW127212   2.232   0.418   6.001
 8771SOL    HW227213   2.220   0.481   5.851
 8772SOL     OW27214   5.765   6.978   0.229
 8772SOL    HW127215   5.841   6.994   0.292
 8772SOL    HW227216   5.771   0.023   0.152
 8773SOL     OW27217   4.753   1.871   3.465
 8773SOL    HW127218   4.814   1.802   3.506
 8773SOL    HW227219   4.770   1.874   3.366
 8774SOL     OW27220   1.836   1.253   0.573
 8774SOL    HW127221   1.925   1.207   0.577
 8774SOL    HW227222   1.799   1.244   0.480
 8775SOL     OW27223   5.997   0.222   4.136
 8775SOL    HW127224   5.908   0.259   4.165
 8775SOL    HW227225   6.068   0.253   4.200
 8776SOL     OW27226   3.125   2.963   5.178
 8776SOL    HW127227   3.070   2.923   5.252
 8776SOL    HW227228   3.165   3.049   5.210
 8777SOL     OW27229   6.817   4.168   1.149
 8777SOL    HW127230   6.795   4.125   1.061
 8777SOL    HW227231   6.732   4.198   1.193
 8778SOL     OW27232   0.450   2.680   4.375
 8778SOL    HW127233   0.500   2.767   4.383
 8778SOL    HW227234   0.491   2.626   4.302
 8779SOL     OW27235   2.183   5.406   2.026
 8779SOL    HW127236   2.093   5.365   2.043
 8779SOL    HW227237   2.223   5.364   1.945
 8780SOL     OW27238   1.409   5.955   3.377
 8780SOL    HW127239   1.362   5.891   3.316
 8780SOL    HW227240   1.476   5.906   3.433
 8781SOL     OW27241   6.907   2.019   4.167
 8781SOL    HW127242   6.878   2.032   4.262
 8781SOL    HW227243   6.858   2.084   4.109
 8782SOL     OW27244   5.824   1.172   1.357
 8782SOL    HW127245   5.755   1.119   1.309
 8782SOL    HW227246   5.867   1.115   1.427
 8783SOL     OW27247   5.676   3.641   3.734
 8783SOL    HW127248   5.776   3.639   3.736
 8783SOL    HW227249   5.641   3.550   3.711
 8784SOL     OW27250   5.026   4.569   5.043
 8784SOL    HW127251   5.010   4.478   5.006
 8784SOL    HW227252   4.940   4.607   5.076
 8785SOL     OW27253   5.521   3.661   0.088
 8785SOL    HW127254   5.463   3.601   0.142
 8785SOL    HW227255   5.593   3.700   0.146
 8786SOL     OW27256   2.485   6.409   6.854
 8786SOL    HW127257   2.507   6.362   6.769
 8786SOL    HW227258   2.458   6.503   6.834
 8787SOL     OW27259   1.377   2.585   2.283
 8787SOL    HW127260   1.419   2.621   2.366
 8787SOL    HW227261   1.447   2.562   2.216
 8788SOL     OW27262   6.832   2.034   5.546
 8788SOL    HW127263   6.886   2.014   5.464
 8788SOL    HW227264   6.744   1.986   5.540
 8789SOL     OW27265   5.920   0.267   5.517
 8789SOL    HW127266   5.999   0.329   5.516
 8789SOL    HW227267   5.920   0.216   5.603
 8790SOL     OW27268   6.794   1.185   0.494
 8790SOL    HW127269   6.741   1.249   0.438
 8790SOL    HW227270   6.870   1.234   0.538
 8791SOL     OW27271   4.777   0.161   5.553
 8791SOL    HW127272   4.855   0.217   5.526
 8791SOL    HW227273   4.789   0.068   5.518
 8792SOL     OW27274   4.030   6.696   3.143
 8792SOL    HW127275   4.080   6.727   3.063
 8792SOL    HW227276   3.940   6.741   3.146
 8793SOL     OW27277   1.829   5.808   4.319
 8793SOL    HW127278   1.904   5.748   4.291
 8793SOL    HW227279   1.849   5.848   4.408
 8794SOL     OW27280   3.412   6.458   2.121
 8794SOL    HW127281   3.444   6.451   2.216
 8794SOL    HW227282   3.324   6.411   2.112
 8795SOL     OW27283   1.316   6.717   5.082
 8795SOL    HW127284   1.397   6.737   5.028
 8795SOL    HW227285   1.237   6.706   5.021
 8796SOL     OW27286   3.881   1.428   5.164
 8796SOL    HW127287   3.791   1.398   5.195
 8796SOL    HW227288   3.886   1.420   5.065
 8797SOL     OW27289   1.299   6.617   5.835
 8797SOL    HW127290   1.395   6.590   5.822
 8797SOL    HW227291   1.241   6.559   5.779
 8798SOL     OW27292   5.689   4.417   5.224
 8798SOL    HW127293   5.743   4.499   5.241
 8798SOL    HW227294   5.681   4.402   5.126
 8799SOL     OW27295   2.059   5.061   3.218
 8799SOL    HW127296   2.060   4.983   3.156
 8799SOL    HW227297   2.130   5.127   3.190
 8800SOL     OW27298   5.115   3.555   5.190
 8800SOL    HW127299   5.159   3.620   5.252
 8800SOL    HW227300   5.019   3.546   5.214
 8801SOL     OW27301   2.445   0.898   4.484
 8801SOL    HW127302   2.514   0.880   4.414
 8801SOL    HW227303   2.400   0.813   4.509
 8802SOL     OW27304   1.154   0.328   0.922
 8802SOL    HW127305   1.122   0.385   0.846
 8802SOL    HW227306   1.075   0.286   0.967
 8803SOL     OW27307   1.450   4.773   5.953
 8803SOL    HW127308   1.516   4.724   5.896
 8803SOL    HW227309   1.367   4.718   5.962
 8804SOL     OW27310   3.649   0.858   1.616
 8804SOL    HW127311   3.640   0.899   1.707
 8804SOL    HW227312   3.682   0.927   1.552
 8805SOL     OW27313   2.459   0.299   3.838
 8805SOL    HW127314   2.508   0.213   3.824
 8805SOL    HW227315   2.385   0.285   3.904
 8806SOL     OW27316   2.016   5.238   1.558
 8806SOL    HW127317   2.059   5.202   1.641
 8806SOL    HW227318   2.068   5.208   1.478
 8807SOL     OW27319   6.443   6.093   6.464
 8807SOL    HW127320   6.516   6.039   6.422
 8807SOL    HW227321   6.434   6.068   6.560
 8808SOL     OW27322   5.714   1.801   0.766
 8808SOL    HW127323   5.740   1.705   0.772
 8808SOL    HW227324   5.672   1.830   0.852
 8809SOL     OW27325   5.382   4.233   2.023
 8809SOL    HW127326   5.322   4.154   2.013
 8809SOL    HW227327   5.448   4.215   2.096
 8810SOL     OW27328   5.585   1.138   5.206
 8810SOL    HW127329   5.543   1.145   5.296
 8810SOL    HW227330   5.684   1.127   5.215
 8811SOL     OW27331   2.190   1.808   4.270
 8811SOL    HW127332   2.214   1.814   4.173
 8811SOL    HW227333   2.183   1.901   4.308
 8812SOL     OW27334   0.893   0.868   0.881
 8812SOL    HW127335   0.912   0.917   0.966
 8812SOL    HW227336   0.862   0.932   0.811
 8813SOL     OW27337   1.114   4.850   1.735
 8813SOL    HW127338   1.130   4.913   1.812
 8813SOL    HW227339   1.103   4.757   1.770
 8814SOL     OW27340   6.318   0.989   0.616
 8814SOL    HW127341   6.341   0.955   0.525
 8814SOL    HW227342   6.327   0.915   0.682
 8815SOL     OW27343   6.499   6.034   0.763
 8815SOL    HW127344   6.586   6.083   0.756
 8815SOL    HW227345   6.427   6.099   0.790
 8816SOL     OW27346   1.012   0.476   0.721
 8816SOL    HW127347   0.914   0.493   0.728
 8816SOL    HW227348   1.033   0.429   0.636
 8817SOL     OW27349   0.413   5.546   5.748
 8817SOL    HW127350   0.348   5.619   5.726
 8817SOL    HW227351   0.506   5.581   5.742
 8818SOL     OW27352   6.931   3.577   3.336
 8818SOL    HW127353   6.927   3.612   3.242
 8818SOL    HW227354   6.996   3.501   3.341
 8819SOL     OW27355   4.626   6.234   3.918
 8819SOL    HW127356   4.620   6.334   3.920
 8819SOL    HW227357   4.553   6.195   3.974
 8820SOL     OW27358   2.479   2.168   4.203
 8820SOL    HW127359   2.549   2.182   4.273
 8820SOL    HW227360   2.486   2.074   4.168
 8821SOL     OW27361   1.637   6.371   6.841
 8821SOL    HW127362   1.718   6.421   6.871
 8821SOL    HW227363   1.646   6.349   6.744
 8822SOL     OW27364   0.695   0.268   3.301
 8822SOL    HW127365   0.659   0.175   3.314
 8822SOL    HW227366   0.696   0.316   3.388
 8823SOL     OW27367   1.949   0.550   1.283
 8823SOL    HW127368   1.945   0.650   1.286
 8823SOL    HW227369   1.881   0.516   1.218
 8824SOL     OW27370   2.236   3.471   0.706
 8824SOL    HW127371   2.187   3.385   0.721
 8824SOL    HW227372   2.231   3.495   0.609
 8825SOL     OW27373   1.722   0.439   3.630
 8825SOL    HW127374   1.814   0.399   3.626
 8825SOL    HW227375   1.672   0.416   3.547
 8826SOL     OW27376   6.339   2.158   0.323
 8826SOL    HW127377   6.311   2.160   0.227
 8826SOL    HW227378   6.265   2.117   0.378
 8827SOL     OW27379   3.143   1.565   3.249
 8827SOL    HW127380   3.202   1.643   3.269
 8827SOL    HW227381   3.192   1.500   3.191
 8828SOL     OW27382   4.047   5.479   3.982
 8828SOL    HW127383   4.065   5.470   4.079
 8828SOL    HW227384   4.134   5.484   3.932
 8829SOL     OW27385   0.548   2.898   0.194
 8829SOL    HW127386   0.562   2.942   0.105
 8829SOL    HW227387   0.551   2.799   0.183
 8830SOL     OW27388   0.264   1.862   0.560
 8830SOL    HW127389   0.221   1.890   0.474
 8830SOL    HW227390   0.199   1.805   0.612
 8831SOL     OW27391   5.431   1.135   3.377
 8831SOL    HW127392   5.354   1.197   3.387
 8831SOL    HW227393   5.481   1.157   3.293
 8832SOL     OW27394   6.452   6.577   2.665
 8832SOL    HW127395   6.384   6.611   2.600
 8832SOL    HW227396   6.432   6.614   2.756
 8833SOL     OW27397   2.076   6.738   5.654
 8833SOL    HW127398   2.109   6.664   5.712
 8833SOL    HW227399   2.151   6.771   5.596
 8834SOL     OW27400   5.704   3.668   4.456
 8834SOL    HW127401   5.723   3.611   4.376
 8834SOL    HW227402   5.638   3.740   4.430
 8835SOL     OW27403   6.132   0.433   5.477
 8835SOL    HW127404   6.232   0.434   5.468
 8835SOL    HW227405   6.106   0.478   5.562
 8836SOL     OW27406   4.222   1.012   0.171
 8836SOL    HW127407   4.276   0.960   0.237
 8836SOL    HW227408   4.128   0.977   0.171
 8837SOL     OW27409   0.712   0.026   2.334
 8837SOL    HW127410   0.730   0.116   2.295
 8837SOL    HW227411   0.691   0.035   2.431
 8838SOL     OW27412   2.776   5.273   3.008
 8838SOL    HW127413   2.776   5.176   2.981
 8838SOL    HW227414   2.737   5.328   2.934
 8839SOL     OW27415   5.328   5.824   2.816
 8839SOL    HW127416   5.381   5.907   2.831
 8839SOL    HW227417   5.277   5.831   2.730
 8840SOL     OW27418   6.900   2.048   2.133
 8840SOL    HW127419   6.868   2.080   2.044
 8840SOL    HW227420   6.987   1.999   2.121
 8841SOL     OW27421   1.300   0.704   5.356
 8841SOL    HW127422   1.230   0.651   5.308
 8841SOL    HW227423   1.310   0.793   5.312
 8842SOL     OW27424   3.443   2.633   0.432
 8842SOL    HW127425   3.366   2.575   0.403
 8842SOL    HW227426   3.511   2.637   0.359
 8843SOL     OW27427   1.446   2.615   5.553
 8843SOL    HW127428   1.455   2.532   5.498
 8843SOL    HW227429   1.444   2.695   5.493
 8844SOL     OW27430   5.411   1.287   6.653
 8844SOL    HW127431   5.414   1.354   6.579
 8844SOL    HW227432   5.364   1.327   6.732
 8845SOL     OW27433   4.040   3.826   0.347
 8845SOL    HW127434   4.009   3.904   0.292
 8845SOL    HW227435   4.139   3.818   0.339
 8846SOL     OW27436   2.039   5.955   4.143
 8846SOL    HW127437   2.086   5.946   4.055
 8846SOL    HW227438   1.985   5.872   4.160
 8847SOL     OW27439   3.189   0.981   2.889
 8847SOL    HW127440   3.107   1.033   2.864
 8847SOL    HW227441   3.233   1.024   2.968
 8848SOL     OW27442   2.503   0.720   1.189
 8848SOL    HW127443   2.405   0.704   1.177
 8848SOL    HW227444   2.522   0.737   1.286
 8849SOL     OW27445   2.710   6.311   3.093
 8849SOL    HW127446   2.705   6.243   3.020
 8849SOL    HW227447   2.805   6.339   3.107
 8850SOL     OW27448   1.601   1.623   0.261
 8850SOL    HW127449   1.592   1.722   0.273
 8850SOL    HW227450   1.564   1.576   0.341
 8851SOL     OW27451   2.009   4.796   2.586
 8851SOL    HW127452   2.045   4.708   2.619
 8851SOL    HW227453   1.940   4.829   2.649
 8852SOL     OW27454   0.917   2.096   5.424
 8852SOL    HW127455   0.837   2.066   5.373
 8852SOL    HW227456   0.936   2.030   5.497
 8853SOL     OW27457   3.078   1.117   1.766
 8853SOL    HW127458   3.066   1.029   1.720
 8853SOL    HW227459   3.047   1.190   1.705
 8854SOL     OW27460   2.187   3.126   4.982
 8854SOL    HW127461   2.178   3.131   4.883
 8854SOL    HW227462   2.278   3.159   5.009
 8855SOL     OW27463   6.339   5.020   1.685
 8855SOL    HW127464   6.321   5.018   1.783
 8855SOL    HW227465   6.357   5.114   1.657
 8856SOL     OW27466   6.237   5.790   6.595
 8856SOL    HW127467   6.139   5.781   6.616
 8856SOL    HW227468   6.272   5.875   6.635
 8857SOL     OW27469   6.924   1.973   5.284
 8857SOL    HW127470   7.013   1.930   5.267
 8857SOL    HW227471   6.853   1.923   5.236
 8858SOL     OW27472   0.314   4.730   4.893
 8858SOL    HW127473   0.375   4.802   4.925
 8858SOL    HW227474   0.270   4.687   4.971
 8859SOL     OW27475   1.233   0.979   3.894
 8859SOL    HW127476   1.294   1.057   3.899
 8859SOL    HW227477   1.196   0.960   3.986
 8860SOL     OW27478   0.113   2.981   1.200
 8860SOL    HW127479   0.059   3.065   1.189
 8860SOL    HW227480   0.095   2.942   1.290
 8861SOL     OW27481   4.001   1.194   0.451
 8861SOL    HW127482   3.969   1.102   0.428
 8861SOL    HW227483   4.100   1.200   0.438
 8862SOL     OW27484   4.634   6.072   4.346
 8862SOL    HW127485   4.598   6.068   4.439
 8862SOL    HW227486   4.637   6.168   4.316
 8863SOL     OW27487   1.748   4.926   3.220
 8863SOL    HW127488   1.805   4.971   3.289
 8863SOL    HW227489   1.779   4.832   3.208
 8864SOL     OW27490   4.760   3.737   6.490
 8864SOL    HW127491   4.767   3.656   6.548
 8864SOL    HW227492   4.694   3.720   6.417
 8865SOL     OW27493   2.965   0.690   6.134
 8865SOL    HW127494   2.970   0.610   6.074
 8865SOL    HW227495   2.973   0.773   6.079
 8866SOL     OW27496   5.245   6.743   2.573
 8866SOL    HW127497   5.173   6.767   2.508
 8866SOL    HW227498   5.268   6.823   2.628
 8867SOL     OW27499   6.158   3.681   3.616
 8867SOL    HW127500   6.063   3.693   3.588
 8867SOL    HW227501   6.161   3.641   3.708
 8868SOL     OW27502   6.845   3.308   2.272
 8868SOL    HW127503   6.784   3.337   2.198
 8868SOL    HW227504   6.816   3.349   2.358
 8869SOL     OW27505   4.185   5.332   4.448
 8869SOL    HW127506   4.195   5.295   4.541
 8869SOL    HW227507   4.186   5.257   4.382
 8870SOL     OW27508   1.993   6.967   1.420
 8870SOL    HW127509   2.093   6.961   1.416
 8870SOL    HW227510   1.954   6.925   1.339
 8871SOL     OW27511   1.528   1.241   3.185
 8871SOL    HW127512   1.518   1.313   3.254
 8871SOL    HW227513   1.437   1.210   3.156
 8872SOL     OW27514   1.231   4.567   6.445
 8872SOL    HW127515   1.249   4.520   6.359
 8872SOL    HW227516   1.224   4.499   6.518
 8873SOL     OW27517   1.756   0.440   1.723
 8873SOL    HW127518   1.712   0.528   1.741
 8873SOL    HW227519   1.710   0.396   1.645
 8874SOL     OW27520   1.227   5.282   1.606
 8874SOL    HW127521   1.152   5.236   1.559
 8874SOL    HW227522   1.294   5.313   1.539
 8875SOL     OW27523   6.870   3.298   4.366
 8875SOL    HW127524   6.898   3.299   4.270
 8875SOL    HW227525   6.855   3.203   4.395
 8876SOL     OW27526   3.014   0.273   6.745
 8876SOL    HW127527   3.063   0.295   6.661
 8876SOL    HW227528   2.935   0.216   6.724
 8877SOL     OW27529   1.140   3.631   2.132
 8877SOL    HW127530   1.165   3.536   2.150
 8877SOL    HW227531   1.077   3.635   2.055
 8878SOL     OW27532   3.622   4.261   0.837
 8878SOL    HW127533   3.651   4.173   0.801
 8878SOL    HW227534   3.661   4.274   0.928
 8879SOL     OW27535   6.826   5.194   2.595
 8879SOL    HW127536   6.922   5.197   2.622
 8879SOL    HW227537   6.773   5.146   2.665
 8880SOL     OW27538   4.169   6.398   4.051
 8880SOL    HW127539   4.219   6.481   4.026
 8880SOL    HW227540   4.149   6.346   3.968
 8881SOL     OW27541   5.460   4.983   4.094
 8881SOL    HW127542   5.426   5.029   4.013
 8881SOL    HW227543   5.408   5.013   4.174
 8882SOL     OW27544   3.809   0.745   0.573
 8882SOL    HW127545   3.778   0.795   0.654
 8882SOL    HW227546   3.890   0.692   0.597
 8883SOL     OW27547   0.335   6.610   5.661
 8883SOL    HW127548   0.431   6.631   5.648
 8883SOL    HW227549   0.305   6.641   5.751
 8884SOL     OW27550   5.734   4.308   4.979
 8884SOL    HW127551   5.708   4.215   5.005
 8884SOL    HW227552   5.713   4.323   4.883
 8885SOL     OW27553   5.415   4.941   0.046
 8885SOL    HW127554   5.362   4.932   6.981
 8885SOL    HW227555   5.485   5.012   0.034
 8886SOL     OW27556   3.858   5.479   6.382
 8886SOL    HW127557   3.905   5.397   6.414
 8886SOL    HW227558   3.810   5.458   6.296
 8887SOL     OW27559   4.275   1.023   0.942
 8887SOL    HW127560   4.344   0.954   0.920
 8887SOL    HW227561   4.249   1.015   1.038
 8888SOL     OW27562   1.736   1.701   3.593
 8888SOL    HW127563   1.686   1.718   3.678
 8888SOL    HW227564   1.798   1.624   3.606
 8889SOL     OW27565   6.664   6.717   6.633
 8889SOL    HW127566   6.746   6.690   6.684
 8889SOL    HW227567   6.591   6.651   6.650
 8890SOL     OW27568   0.654   6.142   0.060
 8890SOL    HW127569   0.665   6.081   0.138
 8890SOL    HW227570   0.563   6.130   0.020
 8891SOL     OW27571   4.819   4.473   6.932
 8891SOL    HW127572   4.884   4.548   6.941
 8891SOL    HW227573   4.864   4.386   6.954
 8892SOL     OW27574   3.949   4.808   3.836
 8892SOL    HW127575   3.867   4.822   3.891
 8892SOL    HW227576   3.928   4.823   3.739
 8893SOL     OW27577   1.078   5.339   5.002
 8893SOL    HW127578   1.088   5.309   5.097
 8893SOL    HW227579   1.160   5.388   4.974
 8894SOL     OW27580   4.716   2.091   0.509
 8894SOL    HW127581   4.653   2.016   0.531
 8894SOL    HW227582   4.801   2.079   0.560
 8895SOL     OW27583   0.701   2.949   0.460
 8895SOL    HW127584   0.678   2.959   0.363
 8895SOL    HW227585   0.617   2.948   0.514
 8896SOL     OW27586   1.621   2.704   4.955
 8896SOL    HW127587   1.645   2.800   4.949
 8896SOL    HW227588   1.560   2.679   4.880
 8897SOL     OW27589   1.787   3.956   3.425
 8897SOL    HW127590   1.701   3.972   3.473
 8897SOL    HW227591   1.862   3.995   3.479
 8898SOL     OW27592   5.474   3.889   2.482
 8898SOL    HW127593   5.441   3.827   2.410
 8898SOL    HW227594   5.444   3.982   2.463
 8899SOL     OW27595   6.703   5.228   6.285
 8899SOL    HW127596   6.795   5.265   6.293
 8899SOL    HW227597   6.703   5.132   6.312
 8900SOL     OW27598   5.536   2.507   3.449
 8900SOL    HW127599   5.482   2.556   3.380
 8900SOL    HW227600   5.602   2.447   3.404
 8901SOL     OW27601   0.978   2.361   3.317
 8901SOL    HW127602   0.920   2.300   3.371
 8901SOL    HW227603   1.072   2.328   3.321
 8902SOL     OW27604   1.667   5.221   0.461
 8902SOL    HW127605   1.634   5.174   0.380
 8902SOL    HW227606   1.764   5.200   0.475
 8903SOL     OW27607   1.510   1.347   5.292
 8903SOL    HW127608   1.454   1.290   5.352
 8903SOL    HW227609   1.548   1.292   5.218
 8904SOL     OW27610   0.900   1.397   3.045
 8904SOL    HW127611   0.877   1.450   3.127
 8904SOL    HW227612   0.895   1.456   2.965
 8905SOL     OW27613   1.679   2.794   2.810
 8905SOL    HW127614   1.686   2.878   2.756
 8905SOL    HW227615   1.733   2.804   2.893
 8906SOL     OW27616   0.454   6.380   0.841
 8906SOL    HW127617   0.481   6.341   0.753
 8906SOL    HW227618   0.475   6.315   0.914
 8907SOL     OW27619   3.220   2.473   5.364
 8907SOL    HW127620   3.201   2.418   5.282
 8907SOL    HW227621   3.135   2.486   5.416
 8908SOL     OW27622   1.239   4.555   0.402
 8908SOL    HW127623   1.146   4.518   0.390
 8908SOL    HW227624   1.269   4.539   0.496
 8909SOL     OW27625   2.704   0.594   6.094
 8909SOL    HW127626   2.701   0.655   6.015
 8909SOL    HW227627   2.784   0.614   6.150
 8910SOL     OW27628   0.837   2.398   5.210
 8910SOL    HW127629   0.792   2.395   5.120
 8910SOL    HW227630   0.922   2.449   5.203
 8911SOL     OW27631   5.084   1.797   4.393
 8911SOL    HW127632   5.151   1.843   4.335
 8911SOL    HW227633   5.051   1.861   4.463
 8912SOL     OW27634   3.803   2.690   5.735
 8912SOL    HW127635   3.749   2.773   5.750
 8912SOL    HW227636   3.824   2.648   5.823
 8913SOL     OW27637   5.183   5.238   0.203
 8913SOL    HW127638   5.192   5.139   0.202
 8913SOL    HW227639   5.258   5.278   0.151
 8914SOL     OW27640   5.159   6.883   4.864
 8914SOL    HW127641   5.205   6.795   4.861
 8914SOL    HW227642   5.129   6.908   4.772
 8915SOL     OW27643   1.080   1.724   4.439
 8915SOL    HW127644   1.039   1.728   4.530
 8915SOL    HW227645   1.038   1.651   4.386
 8916SOL     OW27646   5.525   1.842   6.729
 8916SOL    HW127647   5.456   1.913   6.715
 8916SOL    HW227648   5.616   1.878   6.707
 8917SOL     OW27649   5.674   2.009   0.573
 8917SOL    HW127650   5.707   2.101   0.597
 8917SOL    HW227651   5.678   1.950   0.653
 8918SOL     OW27652   1.466   5.373   0.768
 8918SOL    HW127653   1.503   5.301   0.826
 8918SOL    HW227654   1.367   5.359   0.756
 8919SOL     OW27655   4.921   4.774   6.521
 8919SOL    HW127656   4.873   4.794   6.607
 8919SOL    HW227657   5.011   4.818   6.522
 8920SOL     OW27658   0.592   1.551   0.129
 8920SOL    HW127659   0.538   1.467   0.132
 8920SOL    HW227660   0.643   1.555   0.043
 8921SOL     OW27661   1.065   2.612   1.141
 8921SOL    HW127662   1.135   2.667   1.096
 8921SOL    HW227663   0.987   2.669   1.166
 8922SOL     OW27664   3.870   6.600   1.955
 8922SOL    HW127665   3.805   6.528   1.980
 8922SOL    HW227666   3.942   6.561   1.897
 8923SOL     OW27667   1.291   1.982   5.714
 8923SOL    HW127668   1.280   1.960   5.811
 8923SOL    HW227669   1.379   1.948   5.682
 8924SOL     OW27670   5.329   5.591   4.925
 8924SOL    HW127671   5.388   5.597   5.006
 8924SOL    HW227672   5.257   5.524   4.941
 8925SOL     OW27673   6.897   0.527   2.021
 8925SOL    HW127674   6.992   0.496   2.020
 8925SOL    HW227675   6.853   0.496   2.106
 8926SOL     OW27676   6.949   3.666   5.279
 8926SOL    HW127677   6.973   3.725   5.202
 8926SOL    HW227678   6.852   3.643   5.274
 8927SOL     OW27679   6.974   1.563   5.502
 8927SOL    HW127680   0.015   1.639   5.478
 8927SOL    HW227681   6.979   1.492   5.431
 8928SOL     OW27682   2.005   6.974   5.969
 8928SOL    HW127683   1.943   6.955   5.893
 8928SOL    HW227684   2.001   6.899   6.035
 8929SOL     OW27685   6.298   2.299   4.858
 8929SOL    HW127686   6.234   2.328   4.929
 8929SOL    HW227687   6.247   2.262   4.780
 8930SOL     OW27688   1.114   3.222   2.698
 8930SOL    HW127689   1.171   3.166   2.759
 8930SOL    HW227690   1.157   3.312   2.685
 8931SOL     OW27691   3.085   3.173   1.610
 8931SOL    HW127692   3.078   3.176   1.511
 8931SOL    HW227693   3.063   3.263   1.648
 8932SOL     OW27694   0.162   2.051   3.129
 8932SOL    HW127695   0.185   1.996   3.049
 8932SOL    HW227696   0.240   2.108   3.154
 8933SOL     OW27697   3.047   2.437   6.379
 8933SOL    HW127698   3.067   2.340   6.394
 8933SOL    HW227699   3.005   2.475   6.462
 8934SOL     OW27700   3.227   5.127   4.883
 8934SOL    HW127701   3.325   5.128   4.864
 8934SOL    HW227702   3.210   5.081   4.970
 8935SOL     OW27703   0.574   4.518   0.603
 8935SOL    HW127704   0.630   4.589   0.644
 8935SOL    HW227705   0.493   4.559   0.561
 8936SOL     OW27706   1.534   3.685   0.423
 8936SOL    HW127707   1.602   3.695   0.351
 8936SOL    HW227708   1.535   3.766   0.482
 8937SOL     OW27709   0.637   0.123   5.142
 8937SOL    HW127710   0.731   0.103   5.117
 8937SOL    HW227711   0.606   0.204   5.092
 8938SOL     OW27712   0.333   5.498   0.932
 8938SOL    HW127713   0.250   5.545   0.900
 8938SOL    HW227714   0.307   5.411   0.975
 8939SOL     OW27715   4.999   2.372   4.400
 8939SOL    HW127716   4.977   2.277   4.377
 8939SOL    HW227717   4.931   2.433   4.359
 8940SOL     OW27718   0.431   1.036   4.019
 8940SOL    HW127719   0.364   1.019   4.091
 8940SOL    HW227720   0.419   1.128   3.983
 8941SOL     OW27721   5.676   2.089   5.866
 8941SOL    HW127722   5.727   2.085   5.780
 8941SOL    HW227723   5.732   2.052   5.940
 8942SOL     OW27724   0.622   3.388   6.005
 8942SOL    HW127725   0.525   3.375   5.983
 8942SOL    HW227726   0.667   3.438   5.932
 8943SOL     OW27727   4.504   3.941   0.417
 8943SOL    HW127728   4.588   3.964   0.466
 8943SOL    HW227729   4.470   4.023   0.371
 8944SOL     OW27730   4.874   5.003   5.311
 8944SOL    HW127731   4.824   4.939   5.369
 8944SOL    HW227732   4.827   5.091   5.311
 8945SOL     OW27733   2.238   0.731   4.229
 8945SOL    HW127734   2.213   0.715   4.133
 8945SOL    HW227735   2.160   0.709   4.287
 8946SOL     OW27736   3.016   1.582   5.316
 8946SOL    HW127737   3.028   1.519   5.240
 8946SOL    HW227738   3.105   1.606   5.355
 8947SOL     OW27739   1.367   3.661   5.188
 8947SOL    HW127740   1.397   3.684   5.095
 8947SOL    HW227741   1.268   3.645   5.187
 8948SOL     OW27742   5.813   5.872   3.801
 8948SOL    HW127743   5.858   5.959   3.818
 8948SOL    HW227744   5.719   5.888   3.770
 8949SOL     OW27745   1.657   0.098   0.649
 8949SOL    HW127746   1.585   0.130   0.588
 8949SOL    HW227747   1.640   0.002   0.672
 8950SOL     OW27748   4.862   3.197   5.431
 8950SOL    HW127749   4.945   3.141   5.426
 8950SOL    HW227750   4.841   3.218   5.526
 8951SOL     OW27751   1.795   2.006   4.882
 8951SOL    HW127752   1.807   1.933   4.949
 8951SOL    HW227753   1.745   2.082   4.924
 8952SOL     OW27754   0.988   0.636   2.231
 8952SOL    HW127755   0.969   0.734   2.227
 8952SOL    HW227756   1.061   0.614   2.167
 8953SOL     OW27757   1.089   3.784   7.006
 8953SOL    HW127758   1.158   3.713   6.991
 8953SOL    HW227759   1.104   3.826   0.076
 8954SOL     OW27760   0.245   6.019   5.706
 8954SOL    HW127761   0.320   6.020   5.640
 8954SOL    HW227762   0.216   6.113   5.726
 8955SOL     OW27763   0.262   4.124   2.562
 8955SOL    HW127764   0.228   4.109   2.469
 8955SOL    HW227765   0.362   4.122   2.561
 8956SOL     OW27766   6.943   1.396   6.857
 8956SOL    HW127767   6.907   1.472   6.912
 8956SOL    HW227768   6.909   1.309   6.893
 8957SOL     OW27769   2.970   4.084   1.424
 8957SOL    HW127770   2.941   4.115   1.514
 8957SOL    HW227771   2.991   3.986   1.427
 8958SOL     OW27772   1.072   0.727   4.188
 8958SOL    HW127773   1.104   0.734   4.094
 8958SOL    HW227774   1.139   0.678   4.243
 8959SOL     OW27775   1.405   4.476   0.918
 8959SOL    HW127776   1.377   4.428   1.001
 8959SOL    HW227777   1.500   4.454   0.897
 8960SOL     OW27778   5.134   5.403   2.469
 8960SOL    HW127779   5.068   5.447   2.409
 8960SOL    HW227780   5.153   5.311   2.437
 8961SOL     OW27781   1.644   2.056   4.444
 8961SOL    HW127782   1.713   2.016   4.504
 8961SOL    HW227783   1.689   2.099   4.365
 8962SOL     OW27784   6.212   6.955   2.019
 8962SOL    HW127785   6.145   6.928   2.088
 8962SOL    HW227786   6.174   6.937   1.928
 8963SOL     OW27787   5.277   6.661   4.147
 8963SOL    HW127788   5.242   6.722   4.076
 8963SOL    HW227789   5.349   6.603   4.108
 8964SOL     OW27790   5.857   3.845   2.786
 8964SOL    HW127791   5.945   3.862   2.830
 8964SOL    HW227792   5.869   3.776   2.714
 8965SOL     OW27793   1.865   4.626   1.082
 8965SOL    HW127794   1.943   4.568   1.103
 8965SOL    HW227795   1.790   4.607   1.146
 8966SOL     OW27796   1.797   3.834   5.535
 8966SOL    HW127797   1.790   3.740   5.568
 8966SOL    HW227798   1.840   3.891   5.604
 8967SOL     OW27799   3.436   5.609   1.492
 8967SOL    HW127800   3.528   5.577   1.515
 8967SOL    HW227801   3.437   5.708   1.481
 8968SOL     OW27802   4.577   5.475   2.594
 8968SOL    HW127803   4.580   5.377   2.576
 8968SOL    HW227804   4.647   5.499   2.662
 8969SOL     OW27805   6.385   0.841   3.605
 8969SOL    HW127806   6.350   0.927   3.642
 8969SOL    HW227807   6.309   0.777   3.592
 8970SOL     OW27808   2.920   2.347   0.403
 8970SOL    HW127809   2.950   2.442   0.399
 8970SOL    HW227810   2.999   2.287   0.392
 8971SOL     OW27811   3.612   5.616   2.232
 8971SOL    HW127812   3.668   5.673   2.171
 8971SOL    HW227813   3.522   5.602   2.191
 8972SOL     OW27814   4.717   5.981   6.442
 8972SOL    HW127815   4.629   6.017   6.410
 8972SOL    HW227816   4.715   5.882   6.440
 8973SOL     OW27817   0.663   3.170   2.169
 8973SOL    HW127818   0.711   3.156   2.256
 8973SOL    HW227819   0.631   3.081   2.134
 8974SOL     OW27820   1.496   4.252   5.410
 8974SOL    HW127821   1.548   4.209   5.485
 8974SOL    HW227822   1.412   4.291   5.446
 8975SOL     OW27823   2.608   0.752   0.018
 8975SOL    HW127824   2.603   0.737   6.938
 8975SOL    HW227825   2.520   0.785   0.052
 8976SOL     OW27826   0.753   5.033   5.136
 8976SOL    HW127827   0.777   4.955   5.194
 8976SOL    HW227828   0.671   5.077   5.171
 8977SOL     OW27829   5.673   2.047   6.964
 8977SOL    HW127830   5.756   2.001   6.932
 8977SOL    HW227831   5.626   2.088   6.886
 8978SOL     OW27832   6.303   6.432   6.174
 8978SOL    HW127833   6.224   6.396   6.126
 8978SOL    HW227834   6.381   6.439   6.111
 8979SOL     OW27835   1.327   3.464   4.030
 8979SOL    HW127836   1.287   3.535   4.088
 8979SOL    HW227837   1.425   3.480   4.020
 8980SOL     OW27838   2.209   2.952   5.433
 8980SOL    HW127839   2.132   2.897   5.466
 8980SOL    HW227840   2.177   3.017   5.364
 8981SOL     OW27841   3.625   1.804   5.086
 8981SOL    HW127842   3.635   1.875   5.016
 8981SOL    HW227843   3.682   1.826   5.164
 8982SOL     OW27844   1.514   2.674   0.387
 8982SOL    HW127845   1.464   2.591   0.364
 8982SOL    HW227846   1.489   2.703   0.479
 8983SOL     OW27847   2.705   6.112   6.359
 8983SOL    HW127848   2.717   6.188   6.423
 8983SOL    HW227849   2.667   6.033   6.407
 8984SOL     OW27850   1.129   0.047   3.847
 8984SOL    HW127851   1.145   0.071   3.942
 8984SOL    HW227852   1.081   6.978   3.842
 8985SOL     OW27853   3.602   2.136   1.013
 8985SOL    HW127854   3.637   2.114   0.922
 8985SOL    HW227855   3.625   2.061   1.076
 8986SOL     OW27856   4.548   5.661   2.384
 8986SOL    HW127857   4.561   5.614   2.472
 8986SOL    HW227858   4.451   5.682   2.372
 8987SOL     OW27859   4.060   6.331   2.062
 8987SOL    HW127860   4.023   6.283   1.982
 8987SOL    HW227861   4.081   6.426   2.037
 8988SOL     OW27862   1.602   4.648   4.203
 8988SOL    HW127863   1.581   4.575   4.137
 8988SOL    HW227864   1.518   4.681   4.244
 8989SOL     OW27865   4.686   3.493   6.612
 8989SOL    HW127866   4.619   3.421   6.597
 8989SOL    HW227867   4.670   3.537   6.700
 8990SOL     OW27868   1.301   5.243   4.756
 8990SOL    HW127869   1.313   5.255   4.657
 8990SOL    HW227870   1.289   5.333   4.799
 8991SOL     OW27871   1.896   3.162   4.876
 8991SOL    HW127872   1.937   3.161   4.785
 8991SOL    HW227873   1.968   3.164   4.945
 8992SOL     OW27874   4.679   1.883   0.770
 8992SOL    HW127875   4.585   1.858   0.790
 8992SOL    HW227876   4.720   1.814   0.711
 8993SOL     OW27877   3.849   2.500   0.380
 8993SOL    HW127878   3.777   2.434   0.355
 8993SOL    HW227879   3.938   2.454   0.379
 8994SOL     OW27880   1.762   4.207   5.198
 8994SOL    HW127881   1.811   4.254   5.270
 8994SOL    HW227882   1.742   4.113   5.226
 8995SOL     OW27883   0.449   1.784   0.189
 8995SOL    HW127884   0.499   1.723   0.128
 8995SOL    HW227885   0.420   1.734   0.270
 8996SOL     OW27886   5.599   4.291   6.630
 8996SOL    HW127887   5.694   4.320   6.624
 8996SOL    HW227888   5.593   4.192   6.628
 8997SOL     OW27889   5.127   1.616   6.329
 8997SOL    HW127890   5.127   1.647   6.234
 8997SOL    HW227891   5.055   1.663   6.380
 8998SOL     OW27892   5.994   3.888   4.213
 8998SOL    HW127893   5.943   3.970   4.187
 8998SOL    HW227894   5.971   3.813   4.150
 8999SOL     OW27895   4.400   6.464   6.555
 8999SOL    HW127896   4.415   6.523   6.475
 8999SOL    HW227897   4.416   6.517   6.638
 9000SOL     OW27898   1.816   3.392   2.274
 9000SOL    HW127899   1.719   3.366   2.281
 9000SOL    HW227900   1.823   3.486   2.243
 9001SOL     OW27901   1.372   4.797   2.024
 9001SOL    HW127902   1.324   4.710   2.011
 9001SOL    HW227903   1.389   4.811   2.122
 9002SOL     OW27904   1.879   5.208   5.056
 9002SOL    HW127905   1.870   5.286   4.995
 9002SOL    HW227906   1.845   5.125   5.012
 9003SOL     OW27907   5.558   4.435   1.304
 9003SOL    HW127908   5.515   4.359   1.254
 9003SOL    HW227909   5.656   4.418   1.312
 9004SOL     OW27910   4.156   5.319   0.510
 9004SOL    HW127911   4.247   5.357   0.491
 9004SOL    HW227912   4.166   5.227   0.549
 9005SOL     OW27913   6.706   1.498   5.457
 9005SOL    HW127914   6.631   1.550   5.496
 9005SOL    HW227915   6.793   1.542   5.479
 9006SOL     OW27916   2.170   5.991   1.216
 9006SOL    HW127917   2.196   5.896   1.204
 9006SOL    HW227918   2.218   6.048   1.149
 9007SOL     OW27919   3.271   0.816   3.346
 9007SOL    HW127920   3.292   0.718   3.338
 9007SOL    HW227921   3.251   0.854   3.256
 9008SOL     OW27922   0.559   5.499   2.637
 9008SOL    HW127923   0.618   5.562   2.586
 9008SOL    HW227924   0.484   5.469   2.579
 9009SOL     OW27925   3.239   5.077   0.995
 9009SOL    HW127926   3.309   5.146   0.976
 9009SOL    HW227927   3.253   5.038   1.086
 9010SOL     OW27928   1.831   6.368   3.898
 9010SOL    HW127929   1.844   6.293   3.833
 9010SOL    HW227930   1.886   6.447   3.869
 9011SOL     OW27931   4.477   0.883   1.314
 9011SOL    HW127932   4.521   0.864   1.226
 9011SOL    HW227933   4.513   0.969   1.350
 9012SOL     OW27934   2.148   5.019   6.883
 9012SOL    HW127935   2.158   5.058   6.791
 9012SOL    HW227936   2.068   4.959   6.884
 9013SOL     OW27937   0.725   0.633   6.126
 9013SOL    HW127938   0.811   0.595   6.160
 9013SOL    HW227939   0.655   0.561   6.125
 9014SOL     OW27940   0.126   2.072   0.852
 9014SOL    HW127941   0.189   2.140   0.816
 9014SOL    HW227942   0.121   1.994   0.790
 9015SOL     OW27943   4.850   2.342   1.611
 9015SOL    HW127944   4.755   2.366   1.632
 9015SOL    HW227945   4.885   2.403   1.540
 9016SOL     OW27946   6.371   5.992   6.715
 9016SOL    HW127947   6.387   5.978   6.813
 9016SOL    HW227948   6.300   6.061   6.703
 9017SOL     OW27949   4.647   1.777   3.968
 9017SOL    HW127950   4.568   1.772   4.029
 9017SOL    HW227951   4.644   1.701   3.903
 9018SOL     OW27952   2.594   3.458   5.769
 9018SOL    HW127953   2.694   3.448   5.772
 9018SOL    HW227954   2.552   3.367   5.764
 9019SOL     OW27955   1.382   5.385   2.724
 9019SOL    HW127956   1.318   5.354   2.795
 9019SOL    HW227957   1.432   5.307   2.688
 9020SOL     OW27958   0.083   4.171   0.996
 9020SOL    HW127959   0.067   4.105   1.069
 9020SOL    HW227960   0.161   4.142   0.941
 9021SOL     OW27961   6.912   1.710   3.523
 9021SOL    HW127962   6.972   1.659   3.461
 9021SOL    HW227963   6.834   1.653   3.549
 9022SOL     OW27964   2.923   1.187   6.965
 9022SOL    HW127965   3.004   1.246   6.968
 9022SOL    HW227966   2.874   1.193   0.032
 9023SOL     OW27967   3.634   3.666   1.847
 9023SOL    HW127968   3.565   3.593   1.850
 9023SOL    HW227969   3.725   3.624   1.842
 9024SOL     OW27970   1.347   3.695   6.056
 9024SOL    HW127971   1.265   3.718   6.003
 9024SOL    HW227972   1.419   3.665   5.994
 9025SOL     OW27973   0.530   5.066   0.696
 9025SOL    HW127974   0.511   5.086   0.792
 9025SOL    HW227975   0.531   5.151   0.644
 9026SOL     OW27976   3.394   2.268   0.829
 9026SOL    HW127977   3.402   2.364   0.801
 9026SOL    HW227978   3.434   2.256   0.920
 9027SOL     OW27979   0.587   3.361   3.182
 9027SOL    HW127980   0.625   3.269   3.192
 9027SOL    HW227981   0.623   3.420   3.255
 9028SOL     OW27982   3.276   3.042   5.439
 9028SOL    HW127983   3.336   2.962   5.434
 9028SOL    HW227984   3.282   3.094   5.353
 9029SOL     OW27985   3.944   6.748   4.931
 9029SOL    HW127986   3.933   6.802   5.014
 9029SOL    HW227987   4.029   6.773   4.885
 9030SOL     OW27988   2.355   1.772   3.570
 9030SOL    HW127989   2.354   1.853   3.512
 9030SOL    HW227990   2.411   1.701   3.527
 9031SOL     OW27991   4.061   6.237   3.833
 9031SOL    HW127992   4.056   6.140   3.812
 9031SOL    HW227993   3.984   6.285   3.792
 9032SOL     OW27994   4.674   4.548   0.937
 9032SOL    HW127995   4.699   4.641   0.911
 9032SOL    HW227996   4.744   4.510   0.996
 9033SOL     OW27997   0.744   4.864   2.746
 9033SOL    HW127998   0.838   4.838   2.771
 9033SOL    HW227999   0.693   4.782   2.720
 9034SOL     OW28000   2.794   5.873   4.930
 9034SOL    HW128001   2.838   5.852   4.843
 9034SOL    HW228002   2.856   5.853   5.006
 9035SOL     OW28003   1.854   4.797   0.441
 9035SOL    HW128004   1.782   4.770   0.377
 9035SOL    HW228005   1.943   4.772   0.401
 9036SOL     OW28006   2.152   3.234   5.905
 9036SOL    HW128007   2.152   3.290   5.822
 9036SOL    HW228008   2.194   3.145   5.884
 9037SOL     OW28009   1.268   4.142   3.605
 9037SOL    HW128010   1.321   4.065   3.570
 9037SOL    HW228011   1.245   4.126   3.701
 9038SOL     OW28012   4.559   2.601   6.793
 9038SOL    HW128013   4.580   2.686   6.841
 9038SOL    HW228014   4.484   2.617   6.729
 9039SOL     OW28015   2.143   4.847   6.496
 9039SOL    HW128016   2.082   4.823   6.420
 9039SOL    HW228017   2.138   4.776   6.566
 9040SOL     OW28018   2.513   2.543   2.617
 9040SOL    HW128019   2.474   2.600   2.545
 9040SOL    HW228020   2.453   2.465   2.635
 9041SOL     OW28021   1.085   2.217   0.979
 9041SOL    HW128022   1.103   2.247   0.886
 9041SOL    HW228023   1.020   2.279   1.023
 9042SOL     OW28024   4.002   0.251   4.000
 9042SOL    HW128025   3.942   0.172   4.015
 9042SOL    HW228026   4.091   0.233   4.043
 9043SOL     OW28027   2.527   0.702   6.786
 9043SOL    HW128028   2.606   0.727   6.730
 9043SOL    HW228029   2.451   0.764   6.767
 9044SOL     OW28030   6.594   0.791   0.288
 9044SOL    HW128031   6.566   0.757   0.378
 9044SOL    HW228032   6.541   0.873   0.265
 9045SOL     OW28033   3.853   1.103   2.454
 9045SOL    HW128034   3.944   1.078   2.486
 9045SOL    HW228035   3.823   1.038   2.384
 9046SOL     OW28036   3.597   4.102   2.921
 9046SOL    HW128037   3.671   4.042   2.953
 9046SOL    HW228038   3.540   4.128   2.998
 9047SOL     OW28039   1.955   3.554   4.937
 9047SOL    HW128040   1.919   3.644   4.960
 9047SOL    HW228041   1.911   3.485   4.996
 9048SOL     OW28042   6.667   2.743   6.069
 9048SOL    HW128043   6.658   2.760   6.167
 9048SOL    HW228044   6.578   2.756   6.025
 9049SOL     OW28045   4.322   6.933   5.538
 9049SOL    HW128046   4.249   6.989   5.578
 9049SOL    HW228047   4.295   6.837   5.540
 9050SOL     OW28048   0.413   3.822   1.315
 9050SOL    HW128049   0.364   3.908   1.318
 9050SOL    HW228050   0.511   3.839   1.320
 9051SOL     OW28051   2.405   0.407   1.437
 9051SOL    HW128052   2.464   0.337   1.398
 9051SOL    HW228053   2.440   0.433   1.528
 9052SOL     OW28054   2.389   2.723   4.244
 9052SOL    HW128055   2.444   2.657   4.295
 9052SOL    HW228056   2.382   2.695   4.149
 9053SOL     OW28057   2.185   0.923   2.201
 9053SOL    HW128058   2.127   1.003   2.219
 9053SOL    HW228059   2.262   0.950   2.143
 9054SOL     OW28060   2.757   5.515   4.605
 9054SOL    HW128061   2.805   5.510   4.518
 9054SOL    HW228062   2.754   5.424   4.647
 9055SOL     OW28063   5.803   2.261   3.878
 9055SOL    HW128064   5.759   2.350   3.890
 9055SOL    HW228065   5.895   2.264   3.916
 9056SOL     OW28066   7.008   1.892   1.374
 9056SOL    HW128067   0.085   1.910   1.393
 9056SOL    HW228068   6.999   1.803   1.328
 9057SOL     OW28069   4.477   2.570   5.403
 9057SOL    HW128070   4.560   2.621   5.380
 9057SOL    HW228071   4.397   2.619   5.369
 9058SOL     OW28072   1.656   1.019   1.772
 9058SOL    HW128073   1.613   1.098   1.817
 9058SOL    HW228074   1.739   0.993   1.821
 9059SOL     OW28075   1.288   2.054   3.253
 9059SOL    HW128076   1.313   2.150   3.268
 9059SOL    HW228077   1.211   2.050   3.189
 9060SOL     OW28078   5.828   2.796   4.510
 9060SOL    HW128079   5.772   2.734   4.565
 9060SOL    HW228080   5.884   2.853   4.570
 9061SOL     OW28081   2.815   5.432   2.316
 9061SOL    HW128082   2.787   5.528   2.307
 9061SOL    HW228083   2.892   5.415   2.255
 9062SOL     OW28084   1.145   6.018   1.673
 9062SOL    HW128085   1.210   5.945   1.652
 9062SOL    HW228086   1.192   6.106   1.673
 9063SOL     OW28087   3.097   0.181   3.915
 9063SOL    HW128088   3.175   0.219   3.865
 9063SOL    HW228089   3.021   0.246   3.915
 9064SOL     OW28090   6.138   3.321   6.289
 9064SOL    HW128091   6.169   3.416   6.288
 9064SOL    HW228092   6.051   3.313   6.240
 9065SOL     OW28093   3.848   0.381   0.345
 9065SOL    HW128094   3.934   0.432   0.338
 9065SOL    HW228095   3.772   0.441   0.321
 9066SOL     OW28096   5.047   6.948   0.368
 9066SOL    HW128097   5.094   0.004   0.320
 9066SOL    HW228098   5.100   6.864   0.359
 9067SOL     OW28099   1.171   0.668   3.789
 9067SOL    HW128100   1.119   0.682   3.704
 9067SOL    HW228101   1.109   0.637   3.861
 9068SOL     OW28102   1.495   6.620   4.688
 9068SOL    HW128103   1.589   6.650   4.679
 9068SOL    HW228104   1.492   6.520   4.686
 9069SOL     OW28105   1.332   3.020   0.572
 9069SOL    HW128106   1.311   3.088   0.501
 9069SOL    HW228107   1.272   3.034   0.651
 9070SOL     OW28108   1.868   3.340   5.156
 9070SOL    HW128109   1.778   3.374   5.128
 9070SOL    HW228110   1.861   3.244   5.182
 9071SOL     OW28111   6.510   6.449   0.717
 9071SOL    HW128112   6.602   6.443   0.756
 9071SOL    HW228113   6.513   6.416   0.622
 9072SOL     OW28114   6.900   2.794   1.205
 9072SOL    HW128115   6.892   2.793   1.105
 9072SOL    HW228116   6.984   2.842   1.231
 9073SOL     OW28117   1.945   0.125   2.081
 9073SOL    HW128118   1.879   0.187   2.039
 9073SOL    HW228119   1.898   0.064   2.144
 9074SOL     OW28120   1.061   0.504   2.823
 9074SOL    HW128121   1.069   0.440   2.746
 9074SOL    HW228122   1.137   0.570   2.819
 9075SOL     OW28123   6.779   1.350   2.653
 9075SOL    HW128124   6.703   1.287   2.639
 9075SOL    HW228125   6.865   1.300   2.651
 9076SOL     OW28126   0.552   1.286   6.446
 9076SOL    HW128127   0.543   1.289   6.545
 9076SOL    HW228128   0.647   1.298   6.420
 9077SOL     OW28129   4.273   6.409   1.037
 9077SOL    HW128130   4.206   6.479   1.012
 9077SOL    HW228131   4.241   6.361   1.119
 9078SOL     OW28132   3.635   2.852   4.857
 9078SOL    HW128133   3.550   2.838   4.908
 9078SOL    HW228134   3.615   2.857   4.760
 9079SOL     OW28135   2.965   0.496   4.595
 9079SOL    HW128136   3.018   0.530   4.518
 9079SOL    HW228137   3.013   0.516   4.680
 9080SOL     OW28138   5.437   3.043   6.472
 9080SOL    HW128139   5.464   3.093   6.390
 9080SOL    HW228140   5.466   3.093   6.554
 9081SOL     OW28141   4.995   6.171   2.607
 9081SOL    HW128142   4.997   6.100   2.677
 9081SOL    HW228143   4.935   6.143   2.532
 9082SOL     OW28144   1.818   0.310   4.573
 9082SOL    HW128145   1.749   0.314   4.646
 9082SOL    HW228146   1.900   0.265   4.608
 9083SOL     OW28147   5.078   4.723   5.985
 9083SOL    HW128148   5.173   4.705   6.010
 9083SOL    HW228149   5.050   4.811   6.022
 9084SOL     OW28150   4.038   3.810   3.383
 9084SOL    HW128151   3.976   3.885   3.363
 9084SOL    HW228152   4.060   3.810   3.481
 9085SOL     OW28153   2.243   0.851   0.903
 9085SOL    HW128154   2.259   0.786   0.977
 9085SOL    HW228155   2.176   0.813   0.839
 9086SOL     OW28156   0.768   4.414   0.776
 9086SOL    HW128157   0.748   4.452   0.685
 9086SOL    HW228158   0.830   4.475   0.825
 9087SOL     OW28159   5.131   3.055   2.107
 9087SOL    HW128160   5.129   2.956   2.123
 9087SOL    HW228161   5.217   3.079   2.062
 9088SOL     OW28162   6.115   0.393   0.694
 9088SOL    HW128163   6.208   0.405   0.659
 9088SOL    HW228164   6.052   0.452   0.644
 9089SOL     OW28165   5.197   6.377   5.684
 9089SOL    HW128166   5.130   6.344   5.750
 9089SOL    HW228167   5.153   6.438   5.619
 9090SOL     OW28168   5.886   1.066   5.246
 9090SOL    HW128169   5.932   1.025   5.325
 9090SOL    HW228170   5.951   1.121   5.194
 9091SOL     OW28171   3.048   3.491   6.797
 9091SOL    HW128172   2.991   3.556   6.748
 9091SOL    HW228173   3.062   3.524   6.891
 9092SOL     OW28174   6.712   1.261   0.218
 9092SOL    HW128175   6.763   1.181   0.186
 9092SOL    HW228176   6.616   1.252   0.190
 9093SOL     OW28177   1.700   5.787   5.339
 9093SOL    HW128178   1.699   5.877   5.296
 9093SOL    HW228179   1.777   5.734   5.303
 9094SOL     OW28180   0.163   3.714   3.271
 9094SOL    HW128181   0.098   3.693   3.198
 9094SOL    HW228182   0.229   3.639   3.279
 9095SOL     OW28183   4.973   4.956   6.055
 9095SOL    HW128184   5.005   4.974   6.148
 9095SOL    HW228185   4.890   5.009   6.037
 9096SOL     OW28186   6.752   4.624   3.535
 9096SOL    HW128187   6.721   4.530   3.528
 9096SOL    HW228188   6.758   4.664   3.443
 9097SOL     OW28189   1.750   2.501   6.462
 9097SOL    HW128190   1.712   2.593   6.455
 9097SOL    HW228191   1.712   2.456   6.543
 9098SOL     OW28192   2.380   2.098   5.055
 9098SOL    HW128193   2.285   2.094   5.027
 9098SOL    HW228194   2.419   2.186   5.030
 9099SOL     OW28195   2.450   2.871   6.408
 9099SOL    HW128196   2.404   2.784   6.388
 9099SOL    HW228197   2.460   2.923   6.323
 9100SOL     OW28198   0.857   3.820   2.194
 9100SOL    HW128199   0.914   3.775   2.264
 9100SOL    HW228200   0.846   3.759   2.116
 9101SOL     OW28201   2.939   1.556   2.771
 9101SOL    HW128202   2.859   1.547   2.713
 9101SOL    HW228203   2.941   1.482   2.838
 9102SOL     OW28204   4.177   6.565   2.182
 9102SOL    HW128205   4.212   6.647   2.137
 9102SOL    HW228206   4.078   6.573   2.195
 9103SOL     OW28207   6.272   1.471   6.652
 9103SOL    HW128208   6.331   1.458   6.731
 9103SOL    HW228209   6.189   1.416   6.663
 9104SOL     OW28210   6.683   0.665   1.895
 9104SOL    HW128211   6.756   0.609   1.935
 9104SOL    HW228212   6.654   0.625   1.808
 9105SOL     OW28213   0.961   6.993   5.480
 9105SOL    HW128214   0.993   0.010   5.393
 9105SOL    HW228215   0.879   6.937   5.465
 9106SOL     OW28216   0.365   4.065   0.299
 9106SOL    HW128217   0.296   4.045   0.369
 9106SOL    HW228218   0.372   3.987   0.236
 9107SOL     OW28219   2.380   0.348   6.472
 9107SOL    HW128220   2.374   0.447   6.489
 9107SOL    HW228221   2.294   0.304   6.498
 9108SOL     OW28222   5.194   4.723   5.467
 9108SOL    HW128223   5.173   4.706   5.563
 9108SOL    HW228224   5.193   4.636   5.417
 9109SOL     OW28225   4.940   2.979   2.505
 9109SOL    HW128226   4.904   2.951   2.594
 9109SOL    HW228227   4.892   2.930   2.432
 9110SOL     OW28228   0.850   5.750   4.488
 9110SOL    HW128229   0.867   5.692   4.568
 9110SOL    HW228230   0.755   5.782   4.490
 9111SOL     OW28231   4.727   2.819   5.942
 9111SOL    HW128232   4.631   2.808   5.966
 9111SOL    HW228233   4.777   2.735   5.966
 9112SOL     OW28234   1.684   5.211   2.679
 9112SOL    HW128235   1.725   5.124   2.705
 9112SOL    HW228236   1.599   5.194   2.629
 9113SOL     OW28237   5.559   2.743   3.593
 9113SOL    HW128238   5.652   2.771   3.619
 9113SOL    HW228239   5.559   2.646   3.570
 9114SOL     OW28240   1.577   6.312   3.855
 9114SOL    HW128241   1.673   6.326   3.880
 9114SOL    HW228242   1.547   6.222   3.886
 9115SOL     OW28243   6.035   4.740   3.282
 9115SOL    HW128244   6.068   4.834   3.291
 9115SOL    HW228245   6.020   4.701   3.372
 9116SOL     OW28246   0.325   6.639   3.328
 9116SOL    HW128247   0.288   6.731   3.347
 9116SOL    HW228248   0.259   6.570   3.358
 9117SOL     OW28249   4.301   1.403   6.870
 9117SOL    HW128250   4.256   1.397   6.781
 9117SOL    HW228251   4.307   1.312   6.910
 9118SOL     OW28252   5.917   3.731   0.411
 9118SOL    HW128253   5.880   3.718   0.503
 9118SOL    HW228254   5.843   3.750   0.347
 9119SOL     OW28255   3.574   6.471   1.123
 9119SOL    HW128256   3.494   6.430   1.080
 9119SOL    HW228257   3.594   6.559   1.080
 9120SOL     OW28258   6.895   2.593   6.315
 9120SOL    HW128259   6.944   2.562   6.397
 9120SOL    HW228260   6.833   2.521   6.284
 9121SOL     OW28261   3.861   0.572   5.560
 9121SOL    HW128262   3.904   0.629   5.490
 9121SOL    HW228263   3.763   0.591   5.564
 9122SOL     OW28264   2.164   3.946   2.186
 9122SOL    HW128265   2.077   3.991   2.165
 9122SOL    HW228266   2.224   4.011   2.233
 9123SOL     OW28267   1.579   0.142   3.529
 9123SOL    HW128268   1.613   0.151   3.435
 9123SOL    HW228269   1.630   0.071   3.576
 9124SOL     OW28270   3.653   4.766   1.574
 9124SOL    HW128271   3.646   4.866   1.578
 9124SOL    HW228272   3.616   4.726   1.658
 9125SOL     OW28273   3.352   5.687   0.110
 9125SOL    HW128274   3.366   5.693   0.011
 9125SOL    HW228275   3.394   5.603   0.144
 9126SOL     OW28276   4.405   4.601   0.939
 9126SOL    HW128277   4.500   4.574   0.923
 9126SOL    HW228278   4.402   4.699   0.962
 9127SOL     OW28279   6.981   3.398   4.987
 9127SOL    HW128280   0.009   3.382   5.074
 9127SOL    HW228281   6.919   3.476   4.995
 9128SOL     OW28282   6.182   3.129   4.746
 9128SOL    HW128283   6.266   3.158   4.701
 9128SOL    HW228284   6.199   3.047   4.800
 9129SOL     OW28285   2.208   1.990   1.212
 9129SOL    HW128286   2.278   2.059   1.197
 9129SOL    HW228287   2.145   2.021   1.284
 9130SOL     OW28288   3.032   4.389   5.511
 9130SOL    HW128289   3.001   4.429   5.597
 9130SOL    HW228290   2.956   4.344   5.465
 9131SOL     OW28291   6.227   2.806   1.101
 9131SOL    HW128292   6.285   2.876   1.060
 9131SOL    HW228293   6.166   2.769   1.031
 9132SOL     OW28294   0.886   4.800   3.726
 9132SOL    HW128295   0.897   4.701   3.731
 9132SOL    HW228296   0.860   4.826   3.633
 9133SOL     OW28297   4.114   0.799   0.814
 9133SOL    HW128298   4.041   0.794   0.883
 9133SOL    HW228299   4.184   0.865   0.844
 9134SOL     OW28300   4.277   5.244   0.850
 9134SOL    HW128301   4.351   5.307   0.873
 9134SOL    HW228302   4.214   5.237   0.927
 9135SOL     OW28303   1.296   5.759   1.617
 9135SOL    HW128304   1.348   5.755   1.532
 9135SOL    HW228305   1.206   5.718   1.603
 9136SOL     OW28306   5.308   5.158   6.457
 9136SOL    HW128307   5.300   5.204   6.369
 9136SOL    HW228308   5.403   5.162   6.489
 9137SOL     OW28309   4.894   6.109   6.239
 9137SOL    HW128310   4.823   6.079   6.303
 9137SOL    HW228311   4.969   6.043   6.239
 9138SOL     OW28312   2.334   3.001   0.392
 9138SOL    HW128313   2.257   2.961   0.343
 9138SOL    HW228314   2.310   3.012   0.489
 9139SOL     OW28315   0.008   0.192   1.519
 9139SOL    HW128316   6.960   0.264   1.499
 9139SOL    HW228317   0.074   0.226   1.585
 9140SOL     OW28318   0.545   4.197   2.286
 9140SOL    HW128319   0.611   4.140   2.236
 9140SOL    HW228320   0.530   4.159   2.377
 9141SOL     OW28321   6.810   5.484   5.920
 9141SOL    HW128322   6.852   5.562   5.966
 9141SOL    HW228323   6.717   5.471   5.954
 9142SOL     OW28324   1.068   3.496   2.743
 9142SOL    HW128325   0.992   3.432   2.755
 9142SOL    HW228326   1.032   3.588   2.728
 9143SOL     OW28327   0.379   3.743   2.827
 9143SOL    HW128328   0.341   3.779   2.741
 9143SOL    HW228329   0.400   3.819   2.888
 9144SOL     OW28330   2.660   4.971   4.825
 9144SOL    HW128331   2.577   4.968   4.880
 9144SOL    HW228332   2.650   5.038   4.752
 9145SOL     OW28333   0.914   0.084   6.476
 9145SOL    HW128334   0.908   7.009   6.443
 9145SOL    HW228335   0.833   0.135   6.447
 9146SOL     OW28336   6.078   3.181   3.373
 9146SOL    HW128337   6.161   3.141   3.413
 9146SOL    HW228338   6.095   3.277   3.352
 9147SOL     OW28339   5.624   6.973   3.792
 9147SOL    HW128340   5.676   7.004   3.872
 9147SOL    HW228341   5.674   6.997   3.708
 9148SOL     OW28342   6.449   0.267   1.465
 9148SOL    HW128343   6.455   0.188   1.525
 9148SOL    HW228344   6.355   0.279   1.433
 9149SOL     OW28345   6.058   3.610   1.004
 9149SOL    HW128346   6.052   3.611   0.904
 9149SOL    HW228347   6.150   3.634   1.032
 9150SOL     OW28348   2.683   3.952   6.777
 9150SOL    HW128349   2.648   4.041   6.805
 9150SOL    HW228350   2.711   3.956   6.681
 9151SOL     OW28351   1.698   3.913   4.003
 9151SOL    HW128352   1.662   4.002   3.975
 9151SOL    HW228353   1.753   3.875   3.928
 9152SOL     OW28354   1.858   4.278   3.945
 9152SOL    HW128355   1.877   4.376   3.949
 9152SOL    HW228356   1.942   4.227   3.966
 9153SOL     OW28357   0.048   2.188   6.445
 9153SOL    HW128358   6.969   2.169   6.450
 9153SOL    HW228359   0.098   2.101   6.446
 9154SOL     OW28360   6.328   5.316   3.315
 9154SOL    HW128361   6.311   5.407   3.353
 9154SOL    HW228362   6.361   5.256   3.388
 9155SOL     OW28363   0.993   6.020   2.525
 9155SOL    HW128364   1.007   6.002   2.428
 9155SOL    HW228365   1.009   6.117   2.544
 9156SOL     OW28366   6.687   3.790   0.175
 9156SOL    HW128367   6.650   3.859   0.113
 9156SOL    HW228368   6.631   3.785   0.258
 9157SOL     OW28369   3.456   4.313   6.513
 9157SOL    HW128370   3.507   4.338   6.431
 9157SOL    HW228371   3.359   4.336   6.501
 9158SOL     OW28372   6.819   4.009   4.171
 9158SOL    HW128373   6.767   3.952   4.108
 9158SOL    HW228374   6.911   3.972   4.182
 9159SOL     OW28375   3.553   6.616   2.934
 9159SOL    HW128376   3.602   6.554   2.995
 9159SOL    HW228377   3.515   6.692   2.988
 9160SOL     OW28378   0.616   4.731   6.489
 9160SOL    HW128379   0.571   4.655   6.443
 9160SOL    HW228380   0.678   4.696   6.560
 9161SOL     OW28381   5.973   4.052   1.602
 9161SOL    HW128382   5.941   4.005   1.685
 9161SOL    HW228383   5.902   4.050   1.533
 9162SOL     OW28384   4.706   2.112   2.500
 9162SOL    HW128385   4.753   2.024   2.505
 9162SOL    HW228386   4.714   2.148   2.407
 9163SOL     OW28387   1.594   1.975   3.257
 9163SOL    HW128388   1.502   1.977   3.218
 9163SOL    HW228389   1.608   1.890   3.306
 9164SOL     OW28390   2.600   0.267   6.834
 9164SOL    HW128391   2.635   0.316   6.754
 9164SOL    HW228392   2.615   0.322   6.916
 9165SOL     OW28393   5.005   2.435   5.267
 9165SOL    HW128394   4.961   2.388   5.190
 9165SOL    HW228395   4.946   2.428   5.347
 9166SOL     OW28396   4.674   5.881   1.618
 9166SOL    HW128397   4.603   5.873   1.548
 9166SOL    HW228398   4.637   5.928   1.698
 9167SOL     OW28399   1.187   0.841   5.860
 9167SOL    HW128400   1.161   0.755   5.904
 9167SOL    HW228401   1.287   0.847   5.856
 9168SOL     OW28402   6.441   5.224   4.299
 9168SOL    HW128403   6.367   5.230   4.233
 9168SOL    HW228404   6.411   5.174   4.381
 9169SOL     OW28405   6.132   6.194   0.115
 9169SOL    HW128406   6.123   6.139   0.198
 9169SOL    HW228407   6.083   6.150   0.040
 9170SOL     OW28408   1.441   1.223   6.412
 9170SOL    HW128409   1.423   1.321   6.402
 9170SOL    HW228410   1.370   1.182   6.469
 9171SOL     OW28411   3.321   4.801   0.538
 9171SOL    HW128412   3.393   4.789   0.605
 9171SOL    HW228413   3.248   4.857   0.576
 9172SOL     OW28414   5.303   1.292   4.549
 9172SOL    HW128415   5.240   1.236   4.602
 9172SOL    HW228416   5.253   1.344   4.479
 9173SOL     OW28417   6.094   2.228   3.995
 9173SOL    HW128418   6.058   2.151   4.047
 9173SOL    HW228419   6.106   2.306   4.056
 9174SOL     OW28420   0.701   5.723   6.986
 9174SOL    HW128421   0.751   5.671   0.036
 9174SOL    HW228422   0.746   5.713   6.897
 9175SOL     OW28423   1.836   6.526   6.924
 9175SOL    HW128424   1.912   6.530   6.859
 9175SOL    HW228425   1.849   6.594   6.996
 9176SOL     OW28426   1.784   1.185   2.858
 9176SOL    HW128427   1.735   1.201   2.944
 9176SOL    HW228428   1.751   1.249   2.788
 9177SOL     OW28429   0.137   4.912   4.079
 9177SOL    HW128430   0.227   4.955   4.073
 9177SOL    HW228431   0.136   4.847   4.155
 9178SOL     OW28432   2.005   6.250   0.079
 9178SOL    HW128433   1.908   6.258   0.057
 9178SOL    HW228434   2.035   6.332   0.128
 9179SOL     OW28435   4.501   6.182   5.211
 9179SOL    HW128436   4.462   6.164   5.302
 9179SOL    HW228437   4.442   6.245   5.162
 9180SOL     OW28438   0.150   2.109   4.250
 9180SOL    HW128439   0.067   2.088   4.199
 9180SOL    HW228440   0.196   2.187   4.209
 9181SOL     OW28441   3.947   1.807   3.469
 9181SOL    HW128442   3.893   1.826   3.552
 9181SOL    HW228443   4.033   1.858   3.474
 9182SOL     OW28444   2.165   1.162   3.186
 9182SOL    HW128445   2.175   1.159   3.286
 9182SOL    HW228446   2.100   1.233   3.161
 9183SOL     OW28447   5.281   2.130   6.088
 9183SOL    HW128448   5.364   2.142   6.142
 9183SOL    HW228449   5.209   2.190   6.122
 9184SOL     OW28450   3.192   2.895   0.948
 9184SOL    HW128451   3.153   2.853   1.030
 9184SOL    HW228452   3.290   2.876   0.945
 9185SOL     OW28453   0.355   0.511   6.944
 9185SOL    HW128454   0.430   0.494   6.880
 9185SOL    HW228455   0.392   0.525   0.017
 9186SOL     OW28456   5.069   0.457   5.942
 9186SOL    HW128457   5.094   0.552   5.961
 9186SOL    HW228458   5.151   0.400   5.942
 9187SOL     OW28459   5.417   1.930   0.431
 9187SOL    HW128460   5.392   1.961   0.340
 9187SOL    HW228461   5.515   1.939   0.444
 9188SOL     OW28462   1.122   0.094   1.902
 9188SOL    HW128463   1.078   0.020   1.952
 9188SOL    HW228464   1.130   0.069   1.806
 9189SOL     OW28465   2.848   1.615   3.573
 9189SOL    HW128466   2.860   1.552   3.496
 9189SOL    HW228467   2.806   1.566   3.650
 9190SOL     OW28468   5.765   3.965   5.368
 9190SOL    HW128469   5.770   3.976   5.467
 9190SOL    HW228470   5.858   3.956   5.331
 9191SOL     OW28471   5.178   6.207   6.207
 9191SOL    HW128472   5.111   6.189   6.279
 9191SOL    HW228473   5.133   6.254   6.130
 9192SOL     OW28474   6.706   3.930   5.932
 9192SOL    HW128475   6.792   3.965   5.897
 9192SOL    HW228476   6.693   3.960   6.027
 9193SOL     OW28477   3.783   3.261   3.261
 9193SOL    HW128478   3.847   3.280   3.336
 9193SOL    HW228479   3.690   3.254   3.298
 9194SOL     OW28480   2.821   5.616   2.910
 9194SOL    HW128481   2.904   5.629   2.964
 9194SOL    HW228482   2.842   5.624   2.813
 9195SOL     OW28483   0.502   3.192   3.727
 9195SOL    HW128484   0.416   3.150   3.697
 9195SOL    HW228485   0.577   3.126   3.714
 9196SOL     OW28486   4.186   0.664   3.082
 9196SOL    HW128487   4.266   0.626   3.128
 9196SOL    HW228488   4.184   0.633   2.987
 9197SOL     OW28489   2.951   2.974   6.661
 9197SOL    HW128490   2.966   2.903   6.592
 9197SOL    HW228491   2.921   3.059   6.617
 9198SOL     OW28492   5.777   3.381   5.645
 9198SOL    HW128493   5.752   3.477   5.634
 9198SOL    HW228494   5.719   3.339   5.714
 9199SOL     OW28495   1.868   4.073   6.621
 9199SOL    HW128496   1.822   4.047   6.706
 9199SOL    HW228497   1.800   4.094   6.551
 9200SOL     OW28498   6.213   0.204   0.438
 9200SOL    HW128499   6.302   0.176   0.403
 9200SOL    HW228500   6.186   0.290   0.395
 9201SOL     OW28501   0.032   4.485   1.868
 9201SOL    HW128502   6.962   4.441   1.880
 9201SOL    HW228503   0.102   4.415   1.857
 9202SOL     OW28504   2.764   5.251   4.200
 9202SOL    HW128505   2.720   5.177   4.252
 9202SOL    HW228506   2.832   5.211   4.138
 9203SOL     OW28507   5.238   0.995   5.495
 9203SOL    HW128508   5.335   0.972   5.485
 9203SOL    HW228509   5.225   1.050   5.578
 9204SOL     OW28510   5.610   4.221   2.942
 9204SOL    HW128511   5.645   4.128   2.940
 9204SOL    HW228512   5.614   4.261   2.850
 9205SOL     OW28513   6.029   2.669   2.747
 9205SOL    HW128514   5.969   2.724   2.805
 9205SOL    HW228515   5.990   2.662   2.655
 9206SOL     OW28516   1.640   6.184   3.173
 9206SOL    HW128517   1.731   6.208   3.138
 9206SOL    HW228518   1.610   6.254   3.238
 9207SOL     OW28519   4.058   5.933   6.780
 9207SOL    HW128520   3.970   5.892   6.803
 9207SOL    HW228521   4.044   6.014   6.724
 9208SOL     OW28522   4.939   3.610   2.270
 9208SOL    HW128523   5.021   3.561   2.240
 9208SOL    HW228524   4.891   3.645   2.190
 9209SOL     OW28525   3.843   1.370   2.369
 9209SOL    HW128526   3.854   1.278   2.406
 9209SOL    HW228527   3.748   1.400   2.383
 9210SOL     OW28528   2.080   0.045   1.024
 9210SOL    HW128529   2.129   0.109   1.083
 9210SOL    HW228530   1.986   0.078   1.010
 9211SOL     OW28531   4.735   1.869   6.873
 9211SOL    HW128532   4.637   1.855   6.882
 9211SOL    HW228533   4.763   1.854   6.779
 9212SOL     OW28534   5.524   4.562   4.550
 9212SOL    HW128535   5.598   4.501   4.520
 9212SOL    HW228536   5.437   4.526   4.517
 9213SOL     OW28537   5.959   6.724   3.512
 9213SOL    HW128538   5.951   6.625   3.522
 9213SOL    HW228539   5.922   6.769   3.593
 9214SOL     OW28540   2.283   2.644   4.602
 9214SOL    HW128541   2.366   2.598   4.634
 9214SOL    HW228542   2.242   2.591   4.528
 9215SOL     OW28543   0.548   4.059   2.518
 9215SOL    HW128544   0.593   4.074   2.606
 9215SOL    HW228545   0.581   3.973   2.479
 9216SOL     OW28546   2.719   6.099   5.254
 9216SOL    HW128547   2.817   6.101   5.235
 9216SOL    HW228548   2.685   6.005   5.246
 9217SOL     OW28549   4.804   1.521   5.914
 9217SOL    HW128550   4.865   1.442   5.917
 9217SOL    HW228551   4.841   1.595   5.971
 9218SOL     OW28552   5.874   6.474   6.069
 9218SOL    HW128553   5.793   6.494   6.014
 9218SOL    HW228554   5.942   6.546   6.054
 9219SOL     OW28555   3.575   3.121   5.597
 9219SOL    HW128556   3.530   3.057   5.535
 9219SOL    HW228557   3.507   3.186   5.632
 9220SOL     OW28558   1.583   6.462   2.836
 9220SOL    HW128559   1.629   6.506   2.912
 9220SOL    HW228560   1.487   6.447   2.859
 9221SOL     OW28561   2.410   0.644   6.517
 9221SOL    HW128562   2.418   0.647   6.417
 9221SOL    HW228563   2.502   0.643   6.557
 9222SOL     OW28564   1.672   4.514   3.567
 9222SOL    HW128565   1.744   4.527   3.499
 9222SOL    HW228566   1.599   4.580   3.553
 9223SOL     OW28567   1.741   3.831   4.785
 9223SOL    HW128568   1.667   3.891   4.753
 9223SOL    HW228569   1.805   3.816   4.710
 9224SOL     OW28570   1.796   4.276   3.669
 9224SOL    HW128571   1.804   4.266   3.768
 9224SOL    HW228572   1.745   4.359   3.648
 9225SOL     OW28573   4.605   6.987   6.253
 9225SOL    HW128574   4.538   6.937   6.199
 9225SOL    HW228575   4.697   6.958   6.226
 9226SOL     OW28576   1.114   6.954   0.711
 9226SOL    HW128577   1.027   6.989   0.747
 9226SOL    HW228578   1.146   7.014   0.639
 9227SOL     OW28579   2.664   5.319   0.765
 9227SOL    HW128580   2.729   5.393   0.782
 9227SOL    HW228581   2.572   5.357   0.760
 9228SOL     OW28582   2.528   2.479   5.795
 9228SOL    HW128583   2.501   2.410   5.728
 9228SOL    HW228584   2.627   2.480   5.804
 9229SOL     OW28585   0.153   4.752   6.485
 9229SOL    HW128586   0.126   4.661   6.517
 9229SOL    HW228587   0.072   4.809   6.473
 9230SOL     OW28588   4.846   2.266   3.970
 9230SOL    HW128589   4.863   2.294   3.876
 9230SOL    HW228590   4.899   2.184   3.991
 9231SOL     OW28591   0.713   5.250   5.353
 9231SOL    HW128592   0.789   5.217   5.297
 9231SOL    HW228593   0.687   5.342   5.323
 9232SOL     OW28594   1.665   5.808   1.666
 9232SOL    HW128595   1.578   5.849   1.697
 9232SOL    HW228596   1.714   5.772   1.745
 9233SOL     OW28597   0.386   0.539   0.191
 9233SOL    HW128598   0.301   0.546   0.243
 9233SOL    HW228599   0.461   0.575   0.247
 9234SOL     OW28600   2.417   4.702   0.657
 9234SOL    HW128601   2.475   4.704   0.576
 9234SOL    HW228602   2.331   4.655   0.635
 9235SOL     OW28603   2.396   2.649   3.964
 9235SOL    HW128604   2.333   2.654   3.887
 9235SOL    HW228605   2.479   2.600   3.936
 9236SOL     OW28606   1.903   3.282   6.608
 9236SOL    HW128607   1.905   3.381   6.597
 9236SOL    HW228608   1.822   3.256   6.661
 9237SOL     OW28609   5.485   5.453   3.294
 9237SOL    HW128610   5.525   5.420   3.208
 9237SOL    HW228611   5.391   5.480   3.278
 9238SOL     OW28612   1.511   3.244   5.200
 9238SOL    HW128613   1.495   3.179   5.126
 9238SOL    HW228614   1.430   3.250   5.258
 9239SOL     OW28615   0.490   4.600   0.266
 9239SOL    HW128616   0.450   4.644   0.346
 9239SOL    HW228617   0.520   4.508   0.290
 9240SOL     OW28618   4.839   2.880   2.748
 9240SOL    HW128619   4.805   2.950   2.811
 9240SOL    HW228620   4.929   2.850   2.777
 9241SOL     OW28621   6.199   6.604   0.508
 9241SOL    HW128622   6.249   6.668   0.450
 9241SOL    HW228623   6.127   6.560   0.455
 9242SOL     OW28624   1.598   2.138   1.925
 9242SOL    HW128625   1.673   2.205   1.918
 9242SOL    HW228626   1.531   2.155   1.853
 9243SOL     OW28627   0.622   0.275   1.744
 9243SOL    HW128628   0.614   0.353   1.682
 9243SOL    HW228629   0.641   0.192   1.691
 9244SOL     OW28630   4.251   6.722   4.930
 9244SOL    HW128631   4.234   6.771   5.015
 9244SOL    HW228632   4.266   6.625   4.950
 9245SOL     OW28633   1.241   4.715   3.395
 9245SOL    HW128634   1.237   4.813   3.373
 9245SOL    HW228635   1.151   4.674   3.380
 9246SOL     OW28636   6.288   0.822   4.394
 9246SOL    HW128637   6.294   0.727   4.362
 9246SOL    HW228638   6.353   0.878   4.343
 9247SOL     OW28639   3.621   5.437   3.223
 9247SOL    HW128640   3.549   5.449   3.292
 9247SOL    HW228641   3.630   5.521   3.169
 9248SOL     OW28642   2.478   1.638   5.285
 9248SOL    HW128643   2.517   1.569   5.224
 9248SOL    HW228644   2.471   1.725   5.236
 9249SOL     OW28645   3.835   4.871   1.827
 9249SOL    HW128646   3.755   4.811   1.824
 9249SOL    HW228647   3.873   4.870   1.920
 9250SOL     OW28648   0.173   3.565   4.268
 9250SOL    HW128649   0.254   3.522   4.309
 9250SOL    HW228650   0.192   3.661   4.251
 9251SOL     OW28651   3.749   2.504   0.750
 9251SOL    HW128652   3.815   2.438   0.715
 9251SOL    HW228653   3.731   2.485   0.847
 9252SOL     OW28654   4.284   0.546   5.152
 9252SOL    HW128655   4.207   0.581   5.206
 9252SOL    HW228656   4.342   0.623   5.123
 9253SOL     OW28657   1.053   4.817   5.855
 9253SOL    HW128658   0.965   4.782   5.824
 9253SOL    HW228659   1.096   4.869   5.782
 9254SOL     OW28660   6.285   4.424   2.424
 9254SOL    HW128661   6.231   4.374   2.493
 9254SOL    HW228662   6.381   4.397   2.432
 9255SOL     OW28663   6.235   4.766   0.488
 9255SOL    HW128664   6.206   4.861   0.475
 9255SOL    HW228665   6.241   4.746   0.585
 9256SOL     OW28666   2.054   6.820   1.678
 9256SOL    HW128667   2.026   6.855   1.767
 9256SOL    HW228668   2.018   6.881   1.606
 9257SOL     OW28669   0.219   5.530   3.945
 9257SOL    HW128670   0.275   5.570   4.018
 9257SOL    HW228671   0.126   5.516   3.977
 9258SOL     OW28672   3.702   3.457   0.757
 9258SOL    HW128673   3.757   3.422   0.681
 9258SOL    HW228674   3.762   3.490   0.830
 9259SOL     OW28675   2.077   1.651   6.585
 9259SOL    HW128676   2.060   1.582   6.655
 9259SOL    HW228677   2.013   1.637   6.509
 9260SOL     OW28678   5.691   2.675   5.609
 9260SOL    HW128679   5.668   2.682   5.706
 9260SOL    HW228680   5.686   2.580   5.580
 9261SOL     OW28681   4.092   2.092   0.955
 9261SOL    HW128682   4.054   2.181   0.980
 9261SOL    HW228683   4.021   2.023   0.962
 9262SOL     OW28684   6.585   6.482   4.120
 9262SOL    HW128685   6.647   6.404   4.112
 9262SOL    HW228686   6.609   6.536   4.201
 9263SOL     OW28687   2.503   4.683   3.070
 9263SOL    HW128688   2.475   4.778   3.079
 9263SOL    HW228689   2.542   4.668   2.979
 9264SOL     OW28690   5.510   4.027   6.701
 9264SOL    HW128691   5.418   3.993   6.680
 9264SOL    HW228692   5.577   3.963   6.665
 9265SOL     OW28693   4.469   2.116   0.012
 9265SOL    HW128694   4.514   2.205   0.011
 9265SOL    HW228695   4.470   2.077   6.939
 9266SOL     OW28696   0.569   4.396   1.444
 9266SOL    HW128697   0.495   4.461   1.462
 9266SOL    HW228698   0.560   4.360   1.352
 9267SOL     OW28699   0.615   0.918   3.596
 9267SOL    HW128700   0.576   0.872   3.675
 9267SOL    HW228701   0.543   0.934   3.528
 9268SOL     OW28702   0.626   6.595   1.563
 9268SOL    HW128703   0.544   6.537   1.569
 9268SOL    HW228704   0.706   6.537   1.548
 9269SOL     OW28705   4.508   0.027   0.366
 9269SOL    HW128706   4.582   7.006   0.421
 9269SOL    HW228707   4.460   0.095   0.421
 9270SOL     OW28708   3.359   1.027   6.428
 9270SOL    HW128709   3.437   0.993   6.375
 9270SOL    HW228710   3.301   0.951   6.455
 9271SOL     OW28711   0.962   0.329   6.900
 9271SOL    HW128712   0.899   0.354   6.974
 9271SOL    HW228713   0.940   0.381   6.818
 9272SOL     OW28714   6.547   6.489   6.062
 9272SOL    HW128715   6.617   6.523   5.999
 9272SOL    HW228716   6.564   6.525   6.153
 9273SOL     OW28717   5.041   5.530   3.807
 9273SOL    HW128718   5.115   5.484   3.857
 9273SOL    HW228719   5.009   5.608   3.860
 9274SOL     OW28720   0.715   3.272   0.301
 9274SOL    HW128721   0.782   3.246   0.370
 9274SOL    HW228722   0.633   3.308   0.347
 9275SOL     OW28723   0.836   6.499   1.364
 9275SOL    HW128724   0.789   6.441   1.297
 9275SOL    HW228725   0.839   6.593   1.329
 9276SOL     OW28726   3.246   4.114   0.253
 9276SOL    HW128727   3.325   4.118   0.191
 9276SOL    HW228728   3.181   4.186   0.229
 9277SOL     OW28729   4.354   4.601   2.361
 9277SOL    HW128730   4.414   4.521   2.371
 9277SOL    HW228731   4.407   4.684   2.377
 9278SOL     OW28732   0.450   0.803   4.346
 9278SOL    HW128733   0.535   0.843   4.312
 9278SOL    HW228734   0.458   0.787   4.444
 9279SOL     OW28735   3.794   5.019   1.333
 9279SOL    HW128736   3.723   5.045   1.398
 9279SOL    HW228737   3.756   4.955   1.266
 9280SOL     OW28738   1.373   1.354   2.875
 9280SOL    HW128739   1.326   1.377   2.960
 9280SOL    HW228740   1.389   1.255   2.872
 9281SOL     OW28741   3.479   4.075   6.655
 9281SOL    HW128742   3.387   4.047   6.682
 9281SOL    HW228743   3.474   4.161   6.604
 9282SOL     OW28744   3.566   7.007   4.534
 9282SOL    HW128745   3.545   0.029   4.623
 9282SOL    HW228746   3.561   6.908   4.541
 9283SOL     OW28747   4.825   6.281   6.514
 9283SOL    HW128748   4.909   6.262   6.566
 9283SOL    HW228749   4.745   6.264   6.572
 9284SOL     OW28750   2.989   4.053   5.151
 9284SOL    HW128751   2.973   4.149   5.176
 9284SOL    HW228752   3.087   4.033   5.155
 9285SOL     OW28753   6.255   3.264   2.472
 9285SOL    HW128754   6.271   3.361   2.451
 9285SOL    HW228755   6.334   3.229   2.522
 9286SOL     OW28756   4.609   6.144   0.564
 9286SOL    HW128757   4.651   6.195   0.489
 9286SOL    HW228758   4.540   6.200   0.608
 9287SOL     OW28759   2.965   4.833   5.832
 9287SOL    HW128760   2.974   4.926   5.866
 9287SOL    HW228761   3.025   4.772   5.885
 9288SOL     OW28762   4.335   2.237   3.819
 9288SOL    HW128763   4.277   2.270   3.894
 9288SOL    HW228764   4.318   2.140   3.804
 9289SOL     OW28765   4.237   6.258   6.771
 9289SOL    HW128766   4.315   6.240   6.712
 9289SOL    HW228767   4.234   6.191   6.845
 9290SOL     OW28768   5.609   0.590   4.763
 9290SOL    HW128769   5.637   0.558   4.854
 9290SOL    HW228770   5.690   0.618   4.711
 9291SOL     OW28771   1.165   5.480   5.550
 9291SOL    HW128772   1.251   5.446   5.586
 9291SOL    HW228773   1.183   5.541   5.473
 9292SOL     OW28774   1.415   1.178   5.983
 9292SOL    HW128775   1.319   1.150   5.979
 9292SOL    HW228776   1.427   1.261   5.929
 9293SOL     OW28777   5.006   2.787   5.699
 9293SOL    HW128778   5.023   2.699   5.655
 9293SOL    HW228779   5.092   2.821   5.739
 9294SOL     OW28780   4.645   0.826   0.182
 9294SOL    HW128781   4.606   0.735   0.169
 9294SOL    HW228782   4.644   0.876   0.095
 9295SOL     OW28783   0.838   0.597   4.957
 9295SOL    HW128784   0.885   0.686   4.955
 9295SOL    HW228785   0.860   0.546   4.873
 9296SOL     OW28786   2.821   4.431   0.794
 9296SOL    HW128787   2.751   4.381   0.845
 9296SOL    HW228788   2.871   4.367   0.735
 9297SOL     OW28789   6.666   6.631   3.149
 9297SOL    HW128790   6.633   6.559   3.089
 9297SOL    HW228791   6.601   6.707   3.149
 9298SOL     OW28792   1.315   6.339   5.604
 9298SOL    HW128793   1.251   6.262   5.602
 9298SOL    HW228794   1.393   6.316   5.663
 9299SOL     OW28795   2.155   2.408   4.849
 9299SOL    HW128796   2.148   2.356   4.934
 9299SOL    HW228797   2.243   2.456   4.847
 9300SOL     OW28798   1.443   5.696   5.454
 9300SOL    HW128799   1.490   5.753   5.386
 9300SOL    HW228800   1.365   5.651   5.410
 9301SOL     OW28801   0.477   4.156   4.521
 9301SOL    HW128802   0.474   4.077   4.583
 9301SOL    HW228803   0.421   4.137   4.441
 9302SOL     OW28804   2.239   3.170   5.233
 9302SOL    HW128805   2.325   3.119   5.232
 9302SOL    HW228806   2.184   3.145   5.154
 9303SOL     OW28807   2.989   4.022   0.317
 9303SOL    HW128808   2.939   3.969   0.249
 9303SOL    HW228809   3.087   4.014   0.300
 9304SOL     OW28810   5.149   4.800   0.641
 9304SOL    HW128811   5.193   4.873   0.693
 9304SOL    HW228812   5.138   4.829   0.546
 9305SOL     OW28813   2.552   1.421   0.799
 9305SOL    HW128814   2.465   1.460   0.770
 9305SOL    HW228815   2.626   1.485   0.777
 9306SOL     OW28816   0.507   4.309   5.178
 9306SOL    HW128817   0.550   4.246   5.114
 9306SOL    HW228818   0.416   4.275   5.202
 9307SOL     OW28819   2.507   2.907   1.037
 9307SOL    HW128820   2.536   2.820   0.998
 9307SOL    HW228821   2.523   2.981   0.971
 9308SOL     OW28822   1.789   3.932   1.345
 9308SOL    HW128823   1.704   3.879   1.345
 9308SOL    HW228824   1.797   3.982   1.259
 9309SOL     OW28825   4.326   6.084   5.444
 9309SOL    HW128826   4.321   6.077   5.544
 9309SOL    HW228827   4.322   5.992   5.404
 9310SOL     OW28828   4.205   6.116   6.091
 9310SOL    HW128829   4.257   6.183   6.038
 9310SOL    HW228830   4.136   6.163   6.146
 9311SOL     OW28831   4.433   3.445   1.659
 9311SOL    HW128832   4.476   3.356   1.676
 9311SOL    HW228833   4.337   3.441   1.686
 9312SOL     OW28834   0.711   2.116   0.938
 9312SOL    HW128835   0.747   2.183   1.003
 9312SOL    HW228836   0.611   2.113   0.944
 9313SOL     OW28837   1.152   6.590   1.702
 9313SOL    HW128838   1.191   6.499   1.713
 9313SOL    HW228839   1.190   6.651   1.771
 9314SOL     OW28840   5.015   2.582   0.646
 9314SOL    HW128841   5.082   2.630   0.589
 9314SOL    HW228842   4.960   2.522   0.589
 9315SOL     OW28843   5.747   1.401   6.614
 9315SOL    HW128844   5.728   1.308   6.584
 9315SOL    HW228845   5.661   1.452   6.621
 9316SOL     OW28846   4.720   0.900   5.479
 9316SOL    HW128847   4.818   0.918   5.488
 9316SOL    HW228848   4.687   0.855   5.562
 9317SOL     OW28849   2.777   5.752   4.237
 9317SOL    HW128850   2.787   5.782   4.332
 9317SOL    HW228851   2.729   5.665   4.234
 9318SOL     OW28852   4.544   6.450   0.162
 9318SOL    HW128853   4.530   6.467   0.260
 9318SOL    HW228854   4.487   6.512   0.109
 9319SOL     OW28855   2.356   4.302   0.561
 9319SOL    HW128856   2.452   4.295   0.535
 9319SOL    HW228857   2.320   4.211   0.580
 9320SOL     OW28858   6.220   0.515   5.954
 9320SOL    HW128859   6.281   0.451   6.001
 9320SOL    HW228860   6.194   0.588   6.017
 9321SOL     OW28861   0.172   2.928   5.662
 9321SOL    HW128862   0.198   3.021   5.636
 9321SOL    HW228863   0.077   2.927   5.692
 9322SOL     OW28864   6.294   4.005   5.726
 9322SOL    HW128865   6.222   4.068   5.696
 9322SOL    HW228866   6.379   4.025   5.676
 9323SOL     OW28867   1.252   3.372   3.116
 9323SOL    HW128868   1.346   3.337   3.124
 9323SOL    HW228869   1.255   3.463   3.075
 9324SOL     OW28870   1.291   4.101   1.291
 9324SOL    HW128871   1.350   4.076   1.368
 9324SOL    HW228872   1.217   4.161   1.324
 9325SOL     OW28873   1.572   5.522   2.542
 9325SOL    HW128874   1.631   5.565   2.473
 9325SOL    HW228875   1.596   5.556   2.633
 9326SOL     OW28876   4.162   4.305   0.272
 9326SOL    HW128877   4.244   4.301   0.330
 9326SOL    HW228878   4.153   4.219   0.222
 9327SOL     OW28879   4.728   0.891   3.160
 9327SOL    HW128880   4.654   0.826   3.140
 9327SOL    HW228881   4.751   0.887   3.257
 9328SOL     OW28882   3.025   6.530   4.225
 9328SOL    HW128883   2.956   6.462   4.247
 9328SOL    HW228884   3.099   6.526   4.292
 9329SOL     OW28885   0.284   6.163   6.390
 9329SOL    HW128886   0.232   6.146   6.473
 9329SOL    HW228887   0.350   6.090   6.376
 9330SOL     OW28888   6.021   0.022   6.455
 9330SOL    HW128889   6.028   0.112   6.496
 9330SOL    HW228890   5.935   0.015   6.404
 9331SOL     OW28891   1.820   3.074   5.187
 9331SOL    HW128892   1.898   3.013   5.171
 9331SOL    HW228893   1.748   3.054   5.120
 9332SOL     OW28894   4.429   5.964   0.890
 9332SOL    HW128895   4.455   6.058   0.913
 9332SOL    HW228896   4.383   5.923   0.969
 9333SOL     OW28897   3.541   5.374   0.467
 9333SOL    HW128898   3.624   5.428   0.458
 9333SOL    HW228899   3.461   5.431   0.449
 9334SOL     OW28900   4.802   6.890   5.438
 9334SOL    HW128901   4.888   6.893   5.387
 9334SOL    HW228902   4.743   6.819   5.400
 9335SOL     OW28903   2.616   1.958   1.822
 9335SOL    HW128904   2.555   2.024   1.866
 9335SOL    HW228905   2.710   1.978   1.847
 9336SOL     OW28906   6.513   1.081   4.973
 9336SOL    HW128907   6.486   0.996   4.928
 9336SOL    HW228908   6.459   1.092   5.057
 9337SOL     OW28909   4.688   0.777   5.751
 9337SOL    HW128910   4.770   0.796   5.806
 9337SOL    HW228911   4.611   0.831   5.785
 9338SOL     OW28912   6.499   5.970   0.293
 9338SOL    HW128913   6.434   5.950   0.367
 9338SOL    HW228914   6.471   6.054   0.247
 9339SOL     OW28915   6.205   4.807   6.225
 9339SOL    HW128916   6.237   4.902   6.230
 9339SOL    HW228917   6.107   4.805   6.207
 9340SOL     OW28918   3.531   5.961   2.429
 9340SOL    HW128919   3.581   6.026   2.486
 9340SOL    HW228920   3.492   6.009   2.350
 9341SOL     OW28921   5.822   4.324   6.458
 9341SOL    HW128922   5.904   4.304   6.511
 9341SOL    HW228923   5.829   4.416   6.418
 9342SOL     OW28924   2.712   0.409   4.590
 9342SOL    HW128925   2.718   0.310   4.601
 9342SOL    HW228926   2.803   0.449   4.584
 9343SOL     OW28927   4.711   4.469   1.954
 9343SOL    HW128928   4.645   4.396   1.970
 9343SOL    HW228929   4.804   4.434   1.965
 9344SOL     OW28930   5.933   5.319   5.675
 9344SOL    HW128931   6.007   5.254   5.654
 9344SOL    HW228932   5.917   5.378   5.596
 9345SOL     OW28933   6.916   6.066   0.173
 9345SOL    HW128934   6.991   6.037   0.233
 9345SOL    HW228935   6.894   5.992   0.110
 9346SOL     OW28936   5.624   6.802   1.859
 9346SOL    HW128937   5.565   6.822   1.781
 9346SOL    HW228938   5.667   6.886   1.890
 9347SOL     OW28939   3.745   5.485   1.282
 9347SOL    HW128940   3.662   5.479   1.226
 9347SOL    HW228941   3.779   5.393   1.301
 9348SOL     OW28942   2.467   6.169   2.720
 9348SOL    HW128943   2.536   6.225   2.674
 9348SOL    HW228944   2.458   6.081   2.673
 9349SOL     OW28945   6.593   5.682   2.241
 9349SOL    HW128946   6.602   5.632   2.328
 9349SOL    HW228947   6.581   5.779   2.260
 9350SOL     OW28948   0.120   1.671   4.909
 9350SOL    HW128949   0.030   1.634   4.887
 9350SOL    HW228950   0.186   1.596   4.915
 9351SOL     OW28951   2.563   0.702   5.444
 9351SOL    HW128952   2.624   0.629   5.414
 9351SOL    HW228953   2.526   0.750   5.365
 9352SOL     OW28954   2.331   2.152   5.884
 9352SOL    HW128955   2.271   2.094   5.828
 9352SOL    HW228956   2.288   2.241   5.897
 9353SOL     OW28957   1.074   4.232   1.366
 9353SOL    HW128958   0.988   4.204   1.409
 9353SOL    HW228959   1.058   4.314   1.311
 9354SOL     OW28960   6.404   2.291   1.421
 9354SOL    HW128961   6.360   2.321   1.337
 9354SOL    HW228962   6.483   2.349   1.441
 9355SOL     OW28963   6.983   0.417   4.173
 9355SOL    HW128964   0.034   0.346   4.186
 9355SOL    HW228965   6.983   0.479   4.251
 9356SOL     OW28966   4.326   5.126   1.777
 9356SOL    HW128967   4.234   5.109   1.812
 9356SOL    HW228968   4.354   5.219   1.799
 9357SOL     OW28969   2.966   3.151   0.396
 9357SOL    HW128970   2.906   3.074   0.419
 9357SOL    HW228971   2.984   3.152   0.298
 9358SOL     OW28972   5.828   4.553   1.476
 9358SOL    HW128973   5.888   4.598   1.543
 9358SOL    HW228974   5.768   4.489   1.523
 9359SOL     OW28975   6.951   4.249   6.618
 9359SOL    HW128976   6.896   4.267   6.699
 9359SOL    HW228977   7.007   4.330   6.597
 9360SOL     OW28978   2.085   0.067   5.391
 9360SOL    HW128979   2.106   0.160   5.419
 9360SOL    HW228980   1.996   0.064   5.346
 9361SOL     OW28981   3.019   6.201   2.674
 9361SOL    HW128982   2.993   6.187   2.769
 9361SOL    HW228983   3.073   6.123   2.643
 9362SOL     OW28984   2.256   1.106   2.428
 9362SOL    HW128985   2.314   1.155   2.363
 9362SOL    HW228986   2.275   1.008   2.423
 9363SOL     OW28987   3.610   5.724   2.461
 9363SOL    HW128988   3.601   5.657   2.387
 9363SOL    HW228989   3.572   5.812   2.431
 9364SOL     OW28990   4.538   2.795   6.264
 9364SOL    HW128991   4.510   2.866   6.329
 9364SOL    HW228992   4.601   2.732   6.309
 9365SOL     OW28993   2.558   2.328   5.027
 9365SOL    HW128994   2.493   2.390   4.985
 9365SOL    HW228995   2.609   2.377   5.098
 9366SOL     OW28996   3.197   1.711   0.648
 9366SOL    HW128997   3.236   1.626   0.683
 9366SOL    HW228998   3.155   1.761   0.724
 9367SOL     OW28999   6.997   5.426   4.052
 9367SOL    HW129000   6.974   5.375   3.969
 9367SOL    HW229001   6.914   5.441   4.106
 9368SOL     OW29002   3.738   1.843   1.937
 9368SOL    HW129003   3.791   1.877   2.015
 9368SOL    HW229004   3.787   1.864   1.852
 9369SOL     OW29005   6.599   1.279   6.038
 9369SOL    HW129006   6.505   1.265   6.007
 9369SOL    HW229007   6.646   1.340   5.975
 9370SOL     OW29008   5.926   1.143   3.099
 9370SOL    HW129009   5.875   1.216   3.054
 9370SOL    HW229010   5.887   1.125   3.189
 9371SOL     OW29011   1.068   5.194   0.480
 9371SOL    HW129012   1.112   5.105   0.490
 9371SOL    HW229013   0.969   5.181   0.472
 9372SOL     OW29014   5.338   6.280   3.222
 9372SOL    HW129015   5.292   6.307   3.307
 9372SOL    HW229016   5.399   6.353   3.192
 9373SOL     OW29017   4.386   1.498   3.241
 9373SOL    HW129018   4.471   1.484   3.189
 9373SOL    HW229019   4.326   1.560   3.191
 9374SOL     OW29020   5.907   3.034   0.348
 9374SOL    HW129021   5.868   2.950   0.308
 9374SOL    HW229022   6.006   3.021   0.360
 9375SOL     OW29023   6.968   1.911   3.366
 9375SOL    HW129024   6.968   1.837   3.433
 9375SOL    HW229025   6.905   1.889   3.292
 9376SOL     OW29026   3.537   3.840   1.173
 9376SOL    HW129027   3.560   3.744   1.161
 9376SOL    HW229028   3.516   3.882   1.085
 9377SOL     OW29029   6.477   5.188   3.517
 9377SOL    HW129030   6.469   5.089   3.509
 9377SOL    HW229031   6.536   5.211   3.594
 9378SOL     OW29032   2.592   6.923   6.023
 9378SOL    HW129033   2.493   6.919   6.012
 9378SOL    HW229034   2.619   7.017   6.046
 9379SOL     OW29035   4.804   4.660   4.706
 9379SOL    HW129036   4.807   4.745   4.759
 9379SOL    HW229037   4.832   4.583   4.764
 9380SOL     OW29038   6.202   6.399   5.481
 9380SOL    HW129039   6.217   6.383   5.579
 9380SOL    HW229040   6.282   6.369   5.429
 9381SOL     OW29041   2.802   2.967   5.470
 9381SOL    HW129042   2.841   3.001   5.555
 9381SOL    HW229043   2.706   2.942   5.484
 9382SOL     OW29044   4.272   0.921   3.180
 9382SOL    HW129045   4.243   0.990   3.114
 9382SOL    HW229046   4.265   0.830   3.139
 9383SOL     OW29047   3.591   6.494   4.692
 9383SOL    HW129048   3.611   6.400   4.718
 9383SOL    HW229049   3.633   6.557   4.757
 9384SOL     OW29050   4.037   5.884   2.311
 9384SOL    HW129051   4.084   5.799   2.332
 9384SOL    HW229052   4.095   5.942   2.254
 9385SOL     OW29053   4.270   1.768   2.606
 9385SOL    HW129054   4.315   1.735   2.523
 9385SOL    HW229055   4.195   1.829   2.582
 9386SOL     OW29056   3.517   5.731   4.508
 9386SOL    HW129057   3.497   5.761   4.601
 9386SOL    HW229058   3.433   5.701   4.463
 9387SOL     OW29059   4.090   6.825   1.388
 9387SOL    HW129060   4.006   6.785   1.352
 9387SOL    HW229061   4.161   6.755   1.394
 9388SOL     OW29062   1.406   6.350   2.117
 9388SOL    HW129063   1.325   6.354   2.059
 9388SOL    HW229064   1.460   6.269   2.094
 9389SOL     OW29065   2.394   0.358   5.250
 9389SOL    HW129066   2.394   0.408   5.337
 9389SOL    HW229067   2.455   0.279   5.257
 9390SOL     OW29068   3.996   5.882   3.321
 9390SOL    HW129069   3.905   5.867   3.281
 9390SOL    HW229070   4.065   5.880   3.249
 9391SOL     OW29071   2.099   1.021   5.640
 9391SOL    HW129072   2.008   0.984   5.623
 9391SOL    HW229073   2.095   1.086   5.716
 9392SOL     OW29074   0.425   6.877   4.662
 9392SOL    HW129075   0.354   6.909   4.599
 9392SOL    HW229076   0.382   6.853   4.749
 9393SOL     OW29077   3.732   1.778   4.208
 9393SOL    HW129078   3.695   1.736   4.291
 9393SOL    HW229079   3.659   1.785   4.139
 9394SOL     OW29080   6.228   2.574   3.347
 9394SOL    HW129081   6.301   2.629   3.305
 9394SOL    HW229082   6.268   2.494   3.391
 9395SOL     OW29083   2.560   2.155   0.594
 9395SOL    HW129084   2.531   2.088   0.525
 9395SOL    HW229085   2.506   2.144   0.677
 9396SOL     OW29086   0.065   6.451   4.724
 9396SOL    HW129087   0.089   6.355   4.735
 9396SOL    HW229088   7.002   6.459   4.667
 9397SOL     OW29089   2.407   0.159   0.358
 9397SOL    HW129090   2.432   0.248   0.322
 9397SOL    HW229091   2.428   0.088   0.290
 9398SOL     OW29092   1.903   0.435   6.957
 9398SOL    HW129093   1.908   0.361   6.890
 9398SOL    HW229094   1.947   0.406   0.023
 9399SOL     OW29095   6.951   1.964   0.358
 9399SOL    HW129096   6.873   2.006   0.311
 9399SOL    HW229097   6.959   1.869   0.329
 9400SOL     OW29098   5.149   3.703   1.732
 9400SOL    HW129099   5.212   3.779   1.746
 9400SOL    HW229100   5.055   3.738   1.732
 9401SOL     OW29101   2.637   6.700   3.705
 9401SOL    HW129102   2.679   6.700   3.614
 9401SOL    HW229103   2.633   6.606   3.739
 9402SOL     OW29104   1.817   4.770   5.972
 9402SOL    HW129105   1.737   4.754   5.915
 9402SOL    HW229106   1.815   4.708   6.051
 9403SOL     OW29107   5.042   2.102   2.718
 9403SOL    HW129108   4.949   2.067   2.733
 9403SOL    HW229109   5.071   2.153   2.798
 9404SOL     OW29110   1.022   5.006   6.706
 9404SOL    HW129111   1.111   5.013   6.661
 9404SOL    HW229112   1.025   4.932   6.774
 9405SOL     OW29113   6.412   6.657   1.780
 9405SOL    HW129114   6.440   6.597   1.855
 9405SOL    HW229115   6.444   6.750   1.798
 9406SOL     OW29116   0.381   1.526   5.690
 9406SOL    HW129117   0.407   1.470   5.768
 9406SOL    HW229118   0.409   1.479   5.605
 9407SOL     OW29119   2.786   6.972   2.286
 9407SOL    HW129120   2.689   6.953   2.273
 9407SOL    HW229121   2.812   6.950   2.379
 9408SOL     OW29122   3.258   1.236   5.906
 9408SOL    HW129123   3.229   1.152   5.952
 9408SOL    HW229124   3.191   1.260   5.836
 9409SOL     OW29125   4.715   4.151   4.731
 9409SOL    HW129126   4.620   4.180   4.736
 9409SOL    HW229127   4.746   4.118   4.820
 9410SOL     OW29128   3.694   5.507   1.595
 9410SOL    HW129129   3.773   5.568   1.590
 9410SOL    HW229130   3.651   5.514   1.685
 9411SOL     OW29131   3.735   4.539   1.134
 9411SOL    HW129132   3.805   4.597   1.092
 9411SOL    HW229133   3.703   4.582   1.218
 9412SOL     OW29134   0.659   3.443   1.648
 9412SOL    HW129135   0.748   3.485   1.660
 9412SOL    HW229136   0.594   3.484   1.713
 9413SOL     OW29137   4.238   5.640   5.181
 9413SOL    HW129138   4.224   5.706   5.107
 9413SOL    HW229139   4.183   5.666   5.260
 9414SOL     OW29140   3.423   1.686   3.093
 9414SOL    HW129141   3.423   1.715   3.188
 9414SOL    HW229142   3.507   1.718   3.048
 9415SOL     OW29143   2.253   6.381   2.499
 9415SOL    HW129144   2.351   6.360   2.499
 9415SOL    HW229145   2.213   6.352   2.586
 9416SOL     OW29146   0.430   1.417   1.484
 9416SOL    HW129147   0.384   1.496   1.443
 9416SOL    HW229148   0.470   1.444   1.572
 9417SOL     OW29149   2.898   0.231   5.607
 9417SOL    HW129150   2.990   0.237   5.647
 9417SOL    HW229151   2.873   0.134   5.597
 9418SOL     OW29152   2.281   6.290   0.618
 9418SOL    HW129153   2.293   6.388   0.634
 9418SOL    HW229154   2.190   6.262   0.650
 9419SOL     OW29155   3.691   6.109   5.229
 9419SOL    HW129156   3.607   6.067   5.265
 9419SOL    HW229157   3.667   6.193   5.181
 9420SOL     OW29158   0.799   1.666   5.268
 9420SOL    HW129159   0.851   1.711   5.195
 9420SOL    HW229160   0.825   1.570   5.273
 9421SOL     OW29161   2.445   5.978   5.572
 9421SOL    HW129162   2.367   6.031   5.603
 9421SOL    HW229163   2.413   5.901   5.517
 9422SOL     OW29164   5.263   6.951   2.220
 9422SOL    HW129165   5.174   6.914   2.247
 9422SOL    HW229166   5.332   6.879   2.229
 9423SOL     OW29167   4.454   0.747   2.830
 9423SOL    HW129168   4.482   0.771   2.737
 9423SOL    HW229169   4.356   0.765   2.841
 9424SOL     OW29170   4.915   0.446   5.539
 9424SOL    HW129171   4.962   0.379   5.481
 9424SOL    HW229172   4.839   0.487   5.488
 9425SOL     OW29173   6.754   3.463   6.320
 9425SOL    HW129174   6.713   3.379   6.354
 9425SOL    HW229175   6.753   3.463   6.220
 9426SOL     OW29176   2.616   1.459   0.056
 9426SOL    HW129177   2.528   1.439   0.099
 9426SOL    HW229178   2.678   1.382   0.072
 9427SOL     OW29179   2.368   4.593   5.368
 9427SOL    HW129180   2.451   4.582   5.315
 9427SOL    HW229181   2.378   4.546   5.456
 9428SOL     OW29182   5.236   0.144   2.035
 9428SOL    HW129183   5.322   0.164   1.988
 9428SOL    HW229184   5.249   0.066   2.097
 9429SOL     OW29185   1.363   4.318   1.684
 9429SOL    HW129186   1.323   4.367   1.607
 9429SOL    HW229187   1.460   4.302   1.667
 9430SOL     OW29188   6.427   6.228   1.840
 9430SOL    HW129189   6.468   6.143   1.871
 9430SOL    HW229190   6.385   6.276   1.918
 9431SOL     OW29191   5.371   4.343   0.532
 9431SOL    HW129192   5.438   4.398   0.581
 9431SOL    HW229193   5.410   4.253   0.512
 9432SOL     OW29194   6.757   0.246   3.582
 9432SOL    HW129195   6.755   0.292   3.493
 9432SOL    HW229196   6.786   0.151   3.570
 9433SOL     OW29197   3.028   4.892   4.041
 9433SOL    HW129198   3.003   4.831   4.116
 9433SOL    HW229199   3.122   4.922   4.054
 9434SOL     OW29200   5.505   4.817   3.448
 9434SOL    HW129201   5.506   4.753   3.372
 9434SOL    HW229202   5.594   4.818   3.493
 9435SOL     OW29203   1.308   1.202   4.108
 9435SOL    HW129204   1.394   1.153   4.095
 9435SOL    HW229205   1.327   1.298   4.127
 9436SOL     OW29206   1.341   3.646   1.847
 9436SOL    HW129207   1.399   3.582   1.796
 9436SOL    HW229208   1.258   3.665   1.794
 9437SOL     OW29209   1.204   6.187   3.682
 9437SOL    HW129210   1.208   6.097   3.724
 9437SOL    HW229211   1.297   6.218   3.661
 9438SOL     OW29212   1.082   6.351   1.005
 9438SOL    HW129213   1.090   6.339   0.906
 9438SOL    HW229214   1.049   6.443   1.026
 9439SOL     OW29215   0.392   3.271   2.215
 9439SOL    HW129216   0.481   3.239   2.183
 9439SOL    HW229217   0.398   3.368   2.239
 9440SOL     OW29218   4.893   5.335   4.395
 9440SOL    HW129219   4.905   5.251   4.448
 9440SOL    HW229220   4.982   5.380   4.383
 9441SOL     OW29221   1.537   5.424   4.923
 9441SOL    HW129222   1.535   5.349   4.857
 9441SOL    HW229223   1.629   5.463   4.927
 9442SOL     OW29224   6.273   1.866   0.158
 9442SOL    HW129225   6.322   1.840   0.241
 9442SOL    HW229226   6.326   1.841   0.077
 9443SOL     OW29227   2.115   4.346   1.356
 9443SOL    HW129228   2.045   4.309   1.295
 9443SOL    HW229229   2.205   4.335   1.314
 9444SOL     OW29230   0.770   3.463   6.786
 9444SOL    HW129231   0.783   3.371   6.821
 9444SOL    HW229232   0.740   3.459   6.690
 9445SOL     OW29233   5.402   3.495   2.219
 9445SOL    HW129234   5.341   3.487   2.140
 9445SOL    HW229235   5.348   3.504   2.302
 9446SOL     OW29236   6.833   0.068   2.761
 9446SOL    HW129237   6.899   7.016   2.783
 9446SOL    HW229238   6.818   0.070   2.662
 9447SOL     OW29239   5.535   3.215   3.298
 9447SOL    HW129240   5.534   3.282   3.224
 9447SOL    HW229241   5.497   3.129   3.264
 9448SOL     OW29242   5.359   6.186   5.960
 9448SOL    HW129243   5.291   6.174   6.032
 9448SOL    HW229244   5.326   6.254   5.895
 9449SOL     OW29245   6.972   5.612   6.246
 9449SOL    HW129246   6.918   5.666   6.181
 9449SOL    HW229247   6.998   5.668   6.323
 9450SOL     OW29248   2.752   5.315   4.814
 9450SOL    HW129249   2.838   5.277   4.781
 9450SOL    HW229250   2.751   5.315   4.914
 9451SOL     OW29251   4.637   5.655   6.121
 9451SOL    HW129252   4.598   5.731   6.068
 9451SOL    HW229253   4.571   5.580   6.123
 9452SOL     OW29254   1.700   3.162   1.159
 9452SOL    HW129255   1.727   3.090   1.095
 9452SOL    HW229256   1.646   3.122   1.233
 9453SOL     OW29257   2.230   4.152   3.065
 9453SOL    HW129258   2.236   4.069   3.009
 9453SOL    HW229259   2.137   4.189   3.060
 9454SOL     OW29260   2.396   3.796   5.892
 9454SOL    HW129261   2.455   3.781   5.971
 9454SOL    HW229262   2.321   3.730   5.894
 9455SOL     OW29263   3.404   1.227   2.345
 9455SOL    HW129264   3.370   1.172   2.420
 9455SOL    HW229265   3.459   1.303   2.381
 9456SOL     OW29266   0.112   4.474   0.296
 9456SOL    HW129267   0.090   4.521   0.382
 9456SOL    HW229268   0.182   4.405   0.313
 9457SOL     OW29269   1.367   3.684   6.712
 9457SOL    HW129270   1.456   3.727   6.701
 9457SOL    HW229271   1.297   3.739   6.667
 9458SOL     OW29272   1.067   4.798   6.877
 9458SOL    HW129273   1.020   4.849   6.948
 9458SOL    HW229274   1.052   4.700   6.889
 9459SOL     OW29275   6.567   5.262   2.457
 9459SOL    HW129276   6.610   5.211   2.532
 9459SOL    HW229277   6.488   5.211   2.424
 9460SOL     OW29278   0.337   1.736   5.282
 9460SOL    HW129279   0.278   1.658   5.263
 9460SOL    HW229280   0.365   1.780   5.197
 9461SOL     OW29281   6.045   1.766   3.238
 9461SOL    HW129282   5.976   1.800   3.173
 9461SOL    HW229283   6.067   1.839   3.303
 9462SOL     OW29284   1.685   3.511   2.994
 9462SOL    HW129285   1.742   3.437   2.959
 9462SOL    HW229286   1.616   3.535   2.925
 9463SOL     OW29287   0.269   0.767   0.965
 9463SOL    HW129288   0.230   0.683   1.002
 9463SOL    HW229289   0.365   0.774   0.992
 9464SOL     OW29290   5.554   6.577   6.753
 9464SOL    HW129291   5.555   6.479   6.730
 9464SOL    HW229292   5.589   6.630   6.675
 9465SOL     OW29293   6.924   0.491   3.277
 9465SOL    HW129294   6.980   0.521   3.355
 9465SOL    HW229295   6.978   0.496   3.193
 9466SOL     OW29296   4.288   3.525   5.261
 9466SOL    HW129297   4.271   3.467   5.181
 9466SOL    HW229298   4.201   3.554   5.300
 9467SOL     OW29299   1.101   2.941   1.408
 9467SOL    HW129300   1.076   3.038   1.419
 9467SOL    HW229301   1.182   2.934   1.351
 9468SOL     OW29302   5.960   2.518   6.418
 9468SOL    HW129303   6.010   2.488   6.499
 9468SOL    HW229304   5.918   2.439   6.373
 9469SOL     OW29305   5.825   5.251   1.705
 9469SOL    HW129306   5.859   5.165   1.745
 9469SOL    HW229307   5.821   5.242   1.606
 9470SOL     OW29308   5.508   3.161   6.233
 9470SOL    HW129309   5.594   3.212   6.234
 9470SOL    HW229310   5.459   3.180   6.149
 9471SOL     OW29311   6.956   2.867   5.532
 9471SOL    HW129312   0.027   2.829   5.553
 9471SOL    HW229313   6.887   2.794   5.537
 9472SOL     OW29314   6.723   3.689   4.324
 9472SOL    HW129315   6.815   3.650   4.327
 9472SOL    HW229316   6.722   3.773   4.379
 9473SOL     OW29317   4.012   6.508   5.459
 9473SOL    HW129318   3.988   6.431   5.400
 9473SOL    HW229319   3.941   6.521   5.529
 9474SOL     OW29320   6.095   3.913   1.147
 9474SOL    HW129321   6.182   3.900   1.194
 9474SOL    HW229322   6.029   3.845   1.180
 9475SOL     OW29323   3.362   3.526   0.573
 9475SOL    HW129324   3.299   3.530   0.650
 9475SOL    HW229325   3.341   3.446   0.516
 9476SOL     OW29326   2.966   3.304   4.716
 9476SOL    HW129327   2.917   3.389   4.738
 9476SOL    HW229328   2.953   3.238   4.790
 9477SOL     OW29329   0.306   3.412   1.646
 9477SOL    HW129330   0.325   3.457   1.559
 9477SOL    HW229331   0.362   3.453   1.718
 9478SOL     OW29332   5.779   4.001   6.171
 9478SOL    HW129333   5.745   3.952   6.090
 9478SOL    HW229334   5.850   3.946   6.216
 9479SOL     OW29335   5.754   6.808   6.163
 9479SOL    HW129336   5.775   6.781   6.256
 9479SOL    HW229337   5.816   6.763   6.099
 9480SOL     OW29338   4.288   4.449   6.475
 9480SOL    HW129339   4.375   4.430   6.430
 9480SOL    HW229340   4.305   4.479   6.569
 9481SOL     OW29341   5.892   3.744   1.286
 9481SOL    HW129342   5.808   3.720   1.237
 9481SOL    HW229343   5.880   3.725   1.384
 9482SOL     OW29344   6.242   1.182   3.241
 9482SOL    HW129345   6.197   1.154   3.156
 9482SOL    HW229346   6.262   1.101   3.296
 9483SOL     OW29347   1.887   1.291   1.111
 9483SOL    HW129348   1.911   1.377   1.157
 9483SOL    HW229349   1.788   1.289   1.093
 9484SOL     OW29350   5.318   1.801   2.974
 9484SOL    HW129351   5.222   1.829   2.986
 9484SOL    HW229352   5.372   1.878   2.941
 9485SOL     OW29353   0.743   6.829   1.580
 9485SOL    HW129354   0.694   6.742   1.568
 9485SOL    HW229355   0.747   6.852   1.677
 9486SOL     OW29356   2.093   5.003   0.819
 9486SOL    HW129357   2.082   5.078   0.754
 9486SOL    HW229358   2.003   4.979   0.857
 9487SOL     OW29359   2.899   3.747   3.930
 9487SOL    HW129360   2.917   3.834   3.883
 9487SOL    HW229361   2.971   3.729   3.997
 9488SOL     OW29362   2.522   6.402   1.404
 9488SOL    HW129363   2.512   6.495   1.439
 9488SOL    HW229364   2.467   6.339   1.459
 9489SOL     OW29365   3.224   3.808   1.283
 9489SOL    HW129366   3.136   3.785   1.323
 9489SOL    HW229367   3.276   3.723   1.266
 9490SOL     OW29368   5.497   6.988   0.228
 9490SOL    HW129369   5.596   6.983   0.242
 9490SOL    HW229370   5.466   0.064   0.243
 9491SOL     OW29371   6.885   4.839   4.742
 9491SOL    HW129372   6.934   4.755   4.717
 9491SOL    HW229373   6.851   4.831   4.836
 9492SOL     OW29374   3.164   3.500   2.685
 9492SOL    HW129375   3.217   3.585   2.682
 9492SOL    HW229376   3.225   3.423   2.700
 9493SOL     OW29377   4.315   5.385   4.184
 9493SOL    HW129378   4.337   5.387   4.086
 9493SOL    HW229379   4.278   5.296   4.208
 9494SOL     OW29380   4.693   3.805   0.841
 9494SOL    HW129381   4.606   3.758   0.852
 9494SOL    HW229382   4.709   3.866   0.919
 9495SOL     OW29383   6.625   2.402   4.519
 9495SOL    HW129384   6.659   2.330   4.579
 9495SOL    HW229385   6.525   2.403   4.522
 9496SOL     OW29386   5.043   4.651   6.903
 9496SOL    HW129387   5.099   4.634   6.983
 9496SOL    HW229388   5.076   4.596   6.826
 9497SOL     OW29389   4.724   4.008   0.554
 9497SOL    HW129390   4.786   3.934   0.528
 9497SOL    HW229391   4.774   4.095   0.552
 9498SOL     OW29392   5.456   0.665   6.118
 9498SOL    HW129393   5.442   0.570   6.146
 9498SOL    HW229394   5.371   0.700   6.079
 9499SOL     OW29395   2.324   3.527   5.481
 9499SOL    HW129396   2.240   3.572   5.451
 9499SOL    HW229397   2.383   3.594   5.526
 9500SOL     OW29398   3.208   6.250   1.828
 9500SOL    HW129399   3.221   6.349   1.820
 9500SOL    HW229400   3.296   6.204   1.812
 9501SOL     OW29401   3.247   1.425   4.744
 9501SOL    HW129402   3.275   1.431   4.840
 9501SOL    HW229403   3.244   1.516   4.704
 9502SOL     OW29404   0.349   1.935   5.084
 9502SOL    HW129405   0.400   1.890   5.011
 9502SOL    HW229406   0.326   2.028   5.056
 9503SOL     OW29407   0.305   1.155   1.475
 9503SOL    HW129408   0.339   1.248   1.491
 9503SOL    HW229409   0.208   1.160   1.450
 9504SOL     OW29410   6.907   2.256   0.863
 9504SOL    HW129411   6.942   2.348   0.882
 9504SOL    HW229412   6.982   2.190   0.868
 9505SOL     OW29413   5.725   3.939   3.470
 9505SOL    HW129414   5.631   3.917   3.494
 9505SOL    HW229415   5.765   3.863   3.419
 9506SOL     OW29416   0.696   3.218   6.412
 9506SOL    HW129417   0.654   3.298   6.369
 9506SOL    HW229418   0.787   3.203   6.373
 9507SOL     OW29419   2.139   1.177   4.152
 9507SOL    HW129420   2.089   1.093   4.170
 9507SOL    HW229421   2.163   1.220   4.239
 9508SOL     OW29422   6.303   2.546   0.781
 9508SOL    HW129423   6.270   2.465   0.733
 9508SOL    HW229424   6.346   2.608   0.716
 9509SOL     OW29425   1.150   6.530   5.289
 9509SOL    HW129426   1.080   6.550   5.357
 9509SOL    HW229427   1.155   6.431   5.274
 9510SOL     OW29428   0.476   4.002   1.724
 9510SOL    HW129429   0.481   4.071   1.796
 9510SOL    HW229430   0.508   4.041   1.637
 9511SOL     OW29431   0.808   1.818   0.031
 9511SOL    HW129432   0.764   1.736   7.013
 9511SOL    HW229433   0.737   1.880   0.065
 9512SOL     OW29434   5.587   1.973   3.281
 9512SOL    HW129435   5.508   1.955   3.341
 9512SOL    HW229436   5.671   1.967   3.334
 9513SOL     OW29437   1.647   3.237   4.764
 9513SOL    HW129438   1.732   3.216   4.812
 9513SOL    HW229439   1.629   3.335   4.771
 9514SOL     OW29440   1.588   3.782   6.961
 9514SOL    HW129441   1.514   3.775   0.009
 9514SOL    HW229442   1.659   3.715   6.984
 9515SOL     OW29443   1.658   5.736   6.879
 9515SOL    HW129444   1.690   5.796   6.952
 9515SOL    HW229445   1.560   5.719   6.890
 9516SOL     OW29446   5.037   3.604   4.706
 9516SOL    HW129447   5.010   3.528   4.765
 9516SOL    HW229448   5.073   3.567   4.620
 9517SOL     OW29449   1.411   4.667   1.158
 9517SOL    HW129450   1.476   4.609   1.109
 9517SOL    HW229451   1.447   4.690   1.248
 9518SOL     OW29452   1.461   2.319   6.890
 9518SOL    HW129453   1.552   2.337   6.928
 9518SOL    HW229454   1.460   2.229   6.846
 9519SOL     OW29455   3.164   3.538   2.975
 9519SOL    HW129456   3.256   3.537   3.015
 9519SOL    HW229457   3.169   3.522   2.877
 9520SOL     OW29458   6.414   1.753   4.034
 9520SOL    HW129459   6.490   1.814   4.059
 9520SOL    HW229460   6.422   1.667   4.084
 9521SOL     OW29461   3.489   4.183   1.725
 9521SOL    HW129462   3.394   4.176   1.695
 9521SOL    HW229463   3.549   4.190   1.645
 9522SOL     OW29464   4.204   5.560   2.546
 9522SOL    HW129465   4.166   5.488   2.604
 9522SOL    HW229466   4.262   5.620   2.601
 9523SOL     OW29467   2.474   5.397   4.934
 9523SOL    HW129468   2.532   5.477   4.919
 9523SOL    HW229469   2.508   5.346   5.013
 9524SOL     OW29470   1.576   2.788   1.498
 9524SOL    HW129471   1.511   2.724   1.457
 9524SOL    HW229472   1.557   2.796   1.596
 9525SOL     OW29473   1.980   1.669   5.829
 9525SOL    HW129474   2.047   1.600   5.857
 9525SOL    HW229475   1.980   1.744   5.895
 9526SOL     OW29476   6.015   4.889   0.631
 9526SOL    HW129477   6.071   4.967   0.660
 9526SOL    HW229478   6.053   4.805   0.670
 9527SOL     OW29479   2.412   0.203   4.677
 9527SOL    HW129480   2.430   0.287   4.625
 9527SOL    HW229481   2.424   0.124   4.617
 9528SOL     OW29482   6.116   1.809   1.190
 9528SOL    HW129483   6.035   1.845   1.236
 9528SOL    HW229484   6.198   1.832   1.242
 9529SOL     OW29485   5.226   3.827   0.815
 9529SOL    HW129486   5.189   3.906   0.765
 9529SOL    HW229487   5.199   3.834   0.911
 9530SOL     OW29488   1.167   4.452   4.541
 9530SOL    HW129489   1.236   4.393   4.497
 9530SOL    HW229490   1.211   4.506   4.613
 9531SOL     OW29491   4.258   5.042   3.251
 9531SOL    HW129492   4.244   5.130   3.205
 9531SOL    HW229493   4.202   4.972   3.206
 9532SOL     OW29494   6.648   4.948   1.159
 9532SOL    HW129495   6.562   4.926   1.206
 9532SOL    HW229496   6.680   4.867   1.110
 9533SOL     OW29497   0.876   5.289   3.910
 9533SOL    HW129498   0.796   5.273   3.968
 9533SOL    HW229499   0.921   5.202   3.890
 9534SOL     OW29500   5.683   4.326   4.695
 9534SOL    HW129501   5.669   4.228   4.677
 9534SOL    HW229502   5.778   4.350   4.679
 9535SOL     OW29503   2.159   0.912   6.363
 9535SOL    HW129504   2.256   0.931   6.378
 9535SOL    HW229505   2.128   0.845   6.430
 9536SOL     OW29506   3.728   3.281   5.414
 9536SOL    HW129507   3.710   3.361   5.472
 9536SOL    HW229508   3.712   3.198   5.467
 9537SOL     OW29509   3.212   1.705   4.672
 9537SOL    HW129510   3.222   1.742   4.579
 9537SOL    HW229511   3.136   1.751   4.718
 9538SOL     OW29512   4.622   0.713   4.293
 9538SOL    HW129513   4.581   0.774   4.361
 9538SOL    HW229514   4.662   0.767   4.219
 9539SOL     OW29515   2.871   3.421   4.307
 9539SOL    HW129516   2.785   3.448   4.262
 9539SOL    HW229517   2.898   3.492   4.371
 9540SOL     OW29518   5.212   5.469   4.636
 9540SOL    HW129519   5.161   5.465   4.722
 9540SOL    HW229520   5.218   5.377   4.598
 9541SOL     OW29521   1.958   0.756   5.857
 9541SOL    HW129522   2.008   0.699   5.922
 9541SOL    HW229523   1.962   0.715   5.766
 9542SOL     OW29524   5.470   5.318   4.223
 9542SOL    HW129525   5.452   5.287   4.316
 9542SOL    HW229526   5.499   5.414   4.225
 9543SOL     OW29527   3.852   0.434   6.049
 9543SOL    HW129528   3.905   0.426   5.964
 9543SOL    HW229529   3.878   0.360   6.111
 9544SOL     OW29530   5.149   3.379   3.994
 9544SOL    HW129531   5.228   3.334   4.035
 9544SOL    HW229532   5.159   3.382   3.895
 9545SOL     OW29533   6.312   5.100   2.413
 9545SOL    HW129534   6.270   5.187   2.435
 9545SOL    HW229535   6.253   5.025   2.444
 9546SOL     OW29536   3.705   1.387   5.955
 9546SOL    HW129537   3.744   1.456   5.893
 9546SOL    HW229538   3.709   1.421   6.049
 9547SOL     OW29539   2.160   5.375   3.902
 9547SOL    HW129540   2.219   5.311   3.852
 9547SOL    HW229541   2.163   5.353   4.000
 9548SOL     OW29542   0.385   5.593   4.804
 9548SOL    HW129543   0.417   5.634   4.889
 9548SOL    HW229544   0.347   5.664   4.745
 9549SOL     OW29545   2.467   1.280   2.286
 9549SOL    HW129546   2.482   1.377   2.272
 9549SOL    HW229547   2.553   1.237   2.316
 9550SOL     OW29548   6.409   2.465   1.012
 9550SOL    HW129549   6.371   2.517   0.935
 9550SOL    HW229550   6.399   2.367   0.994
 9551SOL     OW29551   5.968   3.255   5.892
 9551SOL    HW129552   5.943   3.182   5.956
 9551SOL    HW229553   5.920   3.240   5.805
 9552SOL     OW29554   2.498   6.202   5.925
 9552SOL    HW129555   2.487   6.198   6.025
 9552SOL    HW229556   2.595   6.211   5.903
 9553SOL     OW29557   5.684   2.588   0.173
 9553SOL    HW129558   5.596   2.635   0.163
 9553SOL    HW229559   5.676   2.494   0.140
 9554SOL     OW29560   1.431   6.343   3.325
 9554SOL    HW129561   1.467   6.376   3.412
 9554SOL    HW229562   1.360   6.274   3.341
 9555SOL     OW29563   0.555   1.197   3.272
 9555SOL    HW129564   0.595   1.241   3.192
 9555SOL    HW229565   0.487   1.257   3.313
 9556SOL     OW29566   1.736   3.574   0.869
 9556SOL    HW129567   1.823   3.623   0.860
 9556SOL    HW229568   1.730   3.532   0.959
 9557SOL     OW29569   5.526   7.004   1.395
 9557SOL    HW129570   5.582   0.012   1.316
 9557SOL    HW229571   5.457   6.937   1.366
 9558SOL     OW29572   5.825   5.971   5.218
 9558SOL    HW129573   5.785   5.948   5.307
 9558SOL    HW229574   5.831   5.888   5.162
 9559SOL     OW29575   1.054   3.974   0.207
 9559SOL    HW129576   1.011   3.951   0.295
 9559SOL    HW229577   0.984   3.974   0.135
 9560SOL     OW29578   2.561   1.075   2.897
 9560SOL    HW129579   2.501   1.096   2.974
 9560SOL    HW229580   2.573   1.157   2.841
 9561SOL     OW29581   0.237   0.336   1.632
 9561SOL    HW129582   0.233   0.380   1.722
 9561SOL    HW229583   0.288   0.394   1.569
 9562SOL     OW29584   2.780   6.700   4.602
 9562SOL    HW129585   2.815   6.680   4.510
 9562SOL    HW229586   2.784   6.618   4.658
 9563SOL     OW29587   0.314   6.861   6.902
 9563SOL    HW129588   0.305   6.762   6.911
 9563SOL    HW229589   0.405   6.889   6.930
 9564SOL     OW29590   2.481   0.911   0.761
 9564SOL    HW129591   2.398   0.901   0.816
 9564SOL    HW229592   2.560   0.882   0.816
 9565SOL     OW29593   3.266   0.985   5.663
 9565SOL    HW129594   3.299   1.073   5.629
 9565SOL    HW229595   3.297   0.912   5.602
 9566SOL     OW29596   2.583   6.127   0.404
 9566SOL    HW129597   2.658   6.089   0.459
 9566SOL    HW229598   2.581   6.081   0.315
 9567SOL     OW29599   5.185   4.250   6.983
 9567SOL    HW129600   5.204   4.224   0.059
 9567SOL    HW229601   5.271   4.263   6.934
 9568SOL     OW29602   4.128   1.626   0.213
 9568SOL    HW129603   4.068   1.563   0.263
 9568SOL    HW229604   4.099   1.720   0.230
 9569SOL     OW29605   0.152   1.193   2.117
 9569SOL    HW129606   0.108   1.278   2.147
 9569SOL    HW229607   0.250   1.208   2.107
 9570SOL     OW29608   0.454   2.791   1.239
 9570SOL    HW129609   0.468   2.890   1.230
 9570SOL    HW229610   0.483   2.761   1.330
 9571SOL     OW29611   2.755   3.400   5.505
 9571SOL    HW129612   2.691   3.450   5.447
 9571SOL    HW229613   2.721   3.307   5.520
 9572SOL     OW29614   1.995   5.102   2.346
 9572SOL    HW129615   1.928   5.040   2.387
 9572SOL    HW229616   1.988   5.098   2.247
 9573SOL     OW29617   0.542   1.764   6.882
 9573SOL    HW129618   0.490   1.848   6.892
 9573SOL    HW229619   0.625   1.781   6.828
 9574SOL     OW29620   3.503   2.847   2.560
 9574SOL    HW129621   3.457   2.843   2.649
 9574SOL    HW229622   3.570   2.773   2.554
 9575SOL     OW29623   0.011   1.416   2.218
 9575SOL    HW129624   6.940   1.431   2.259
 9575SOL    HW229625   0.082   1.454   2.278
 9576SOL     OW29626   1.954   1.925   0.761
 9576SOL    HW129627   1.950   1.895   0.665
 9576SOL    HW229628   2.049   1.932   0.790
 9577SOL     OW29629   0.773   0.109   5.822
 9577SOL    HW129630   0.772   0.173   5.745
 9577SOL    HW229631   0.850   0.046   5.811
 9578SOL     OW29632   1.108   2.926   3.135
 9578SOL    HW129633   1.094   3.011   3.085
 9578SOL    HW229634   1.019   2.888   3.161
 9579SOL     OW29635   0.251   6.113   3.210
 9579SOL    HW129636   0.219   6.162   3.291
 9579SOL    HW229637   0.331   6.058   3.234
 9580SOL     OW29638   4.459   3.059   0.737
 9580SOL    HW129639   4.485   3.075   0.642
 9580SOL    HW229640   4.391   2.986   0.741
 9581SOL     OW29641   0.455   0.444   6.593
 9581SOL    HW129642   0.367   0.407   6.563
 9581SOL    HW229643   0.466   0.537   6.560
 9582SOL     OW29644   4.216   5.872   5.018
 9582SOL    HW129645   4.229   5.803   4.946
 9582SOL    HW229646   4.306   5.901   5.051
 9583SOL     OW29647   2.987   3.810   1.496
 9583SOL    HW129648   2.902   3.760   1.508
 9583SOL    HW229649   3.038   3.811   1.583
 9584SOL     OW29650   6.774   4.747   5.729
 9584SOL    HW129651   6.779   4.832   5.781
 9584SOL    HW229652   6.680   4.711   5.734
 9585SOL     OW29653   5.471   6.536   3.033
 9585SOL    HW129654   5.518   6.622   3.012
 9585SOL    HW229655   5.537   6.461   3.031
 9586SOL     OW29656   4.668   5.433   2.251
 9586SOL    HW129657   4.766   5.416   2.250
 9586SOL    HW229658   4.651   5.527   2.280
 9587SOL     OW29659   0.899   0.011   1.376
 9587SOL    HW129660   0.827   0.038   1.440
 9587SOL    HW229661   0.906   6.930   1.375
 9588SOL     OW29662   5.911   6.876   0.526
 9588SOL    HW129663   5.958   6.800   0.571
 9588SOL    HW229664   5.950   6.963   0.556
 9589SOL     OW29665   1.531   4.621   0.456
 9589SOL    HW129666   1.519   4.638   0.358
 9589SOL    HW229667   1.453   4.568   0.491
 9590SOL     OW29668   6.134   2.955   1.850
 9590SOL    HW129669   6.194   2.970   1.928
 9590SOL    HW229670   6.144   3.030   1.785
 9591SOL     OW29671   2.959   5.547   5.974
 9591SOL    HW129672   2.890   5.620   5.969
 9591SOL    HW229673   2.971   5.520   6.070
 9592SOL     OW29674   2.608   4.719   0.464
 9592SOL    HW129675   2.666   4.639   0.473
 9592SOL    HW229676   2.660   4.794   0.423
 9593SOL     OW29677   0.953   1.193   6.573
 9593SOL    HW129678   0.910   1.228   6.490
 9593SOL    HW229679   0.979   1.098   6.560
 9594SOL     OW29680   1.964   5.247   4.113
 9594SOL    HW129681   1.967   5.160   4.163
 9594SOL    HW229682   1.940   5.229   4.017
 9595SOL     OW29683   0.173   3.126   4.151
 9595SOL    HW129684   0.271   3.141   4.144
 9595SOL    HW229685   0.154   3.028   4.159
 9596SOL     OW29686   0.795   5.130   6.660
 9596SOL    HW129687   0.858   5.063   6.699
 9596SOL    HW229688   0.826   5.158   6.570
 9597SOL     OW29689   6.807   4.344   1.801
 9597SOL    HW129690   6.801   4.313   1.707
 9597SOL    HW229691   6.755   4.429   1.812
 9598SOL     OW29692   2.167   4.709   3.246
 9598SOL    HW129693   2.160   4.659   3.332
 9598SOL    HW229694   2.195   4.646   3.173
 9599SOL     OW29695   2.437   0.542   4.187
 9599SOL    HW129696   2.390   0.625   4.215
 9599SOL    HW229697   2.524   0.534   4.236
 9600SOL     OW29698   2.997   6.814   0.021
 9600SOL    HW129699   2.932   6.761   6.984
 9600SOL    HW229700   2.985   6.911   0.002
 9601SOL     OW29701   5.111   4.483   0.542
 9601SOL    HW129702   5.169   4.437   0.610
 9601SOL    HW229703   5.079   4.571   0.579
 9602SOL     OW29704   6.018   4.010   6.762
 9602SOL    HW129705   5.974   4.018   6.851
 9602SOL    HW229706   5.957   3.962   6.699
 9603SOL     OW29707   4.550   1.376   5.904
 9603SOL    HW129708   4.541   1.289   5.952
 9603SOL    HW229709   4.640   1.416   5.924
 9604SOL     OW29710   5.035   0.066   0.885
 9604SOL    HW129711   4.982   0.143   0.851
 9604SOL    HW229712   5.132   0.080   0.864
 9605SOL     OW29713   1.231   6.161   3.398
 9605SOL    HW129714   1.303   6.099   3.368
 9605SOL    HW229715   1.202   6.136   3.491
 9606SOL     OW29716   2.012   5.950   0.164
 9606SOL    HW129717   2.098   5.901   0.147
 9606SOL    HW229718   2.022   6.045   0.137
 9607SOL     OW29719   2.397   0.959   6.739
 9607SOL    HW129720   2.297   0.962   6.738
 9607SOL    HW229721   2.433   1.048   6.768
 9608SOL     OW29722   0.337   4.800   1.863
 9608SOL    HW129723   0.309   4.841   1.776
 9608SOL    HW229724   0.368   4.706   1.847
 9609SOL     OW29725   2.545   2.815   0.325
 9609SOL    HW129726   2.483   2.893   0.331
 9609SOL    HW229727   2.538   2.760   0.408
 9610SOL     OW29728   1.670   4.982   3.928
 9610SOL    HW129729   1.645   4.957   3.834
 9610SOL    HW229730   1.661   5.081   3.940
 9611SOL     OW29731   1.215   6.261   0.266
 9611SOL    HW129732   1.203   6.340   0.326
 9611SOL    HW229733   1.289   6.203   0.301
 9612SOL     OW29734   0.171   3.777   1.545
 9612SOL    HW129735   0.234   3.835   1.494
 9612SOL    HW229736   0.144   3.699   1.488
 9613SOL     OW29737   5.257   0.355   3.382
 9613SOL    HW129738   5.311   0.376   3.463
 9613SOL    HW229739   5.205   0.436   3.353
 9614SOL     OW29740   3.996   2.609   1.724
 9614SOL    HW129741   4.061   2.537   1.746
 9614SOL    HW229742   3.911   2.568   1.690
 9615SOL     OW29743   2.527   0.436   0.598
 9615SOL    HW129744   2.486   0.420   0.688
 9615SOL    HW229745   2.626   0.425   0.605
 9616SOL     OW29746   3.763   3.746   1.447
 9616SOL    HW129747   3.705   3.664   1.450
 9616SOL    HW229748   3.836   3.738   1.514
 9617SOL     OW29749   1.610   3.227   3.364
 9617SOL    HW129750   1.575   3.298   3.425
 9617SOL    HW229751   1.615   3.140   3.413
 9618SOL     OW29752   3.587   6.508   0.115
 9618SOL    HW129753   3.629   6.431   0.162
 9618SOL    HW229754   3.572   6.485   0.018
 9619SOL     OW29755   1.782   6.641   6.526
 9619SOL    HW129756   1.705   6.702   6.543
 9619SOL    HW229757   1.789   6.623   6.427
 9620SOL     OW29758   4.240   0.661   6.394
 9620SOL    HW129759   4.224   0.611   6.309
 9620SOL    HW229760   4.323   0.627   6.439
 9621SOL     OW29761   1.130   2.239   1.978
 9621SOL    HW129762   1.162   2.231   1.884
 9621SOL    HW229763   1.041   2.285   1.979
 9622SOL     OW29764   0.095   1.098   0.468
 9622SOL    HW129765   0.073   1.177   0.524
 9622SOL    HW229766   0.019   1.033   0.469
 9623SOL     OW29767   2.952   3.596   5.766
 9623SOL    HW129768   2.978   3.519   5.708
 9623SOL    HW229769   2.944   3.679   5.710
 9624SOL     OW29770   6.980   3.677   3.064
 9624SOL    HW129771   0.004   3.592   3.033
 9624SOL    HW229772   7.013   3.753   3.008
 9625SOL     OW29773   4.949   5.995   6.602
 9625SOL    HW129774   4.872   6.008   6.540
 9625SOL    HW229775   4.956   5.898   6.627
 9626SOL     OW29776   3.930   5.220   0.390
 9626SOL    HW129777   3.854   5.203   0.452
 9626SOL    HW229778   3.996   5.282   0.433
 9627SOL     OW29779   6.805   6.230   5.018
 9627SOL    HW129780   6.847   6.141   4.998
 9627SOL    HW229781   6.721   6.239   4.964
 9628SOL     OW29782   4.726   4.898   0.480
 9628SOL    HW129783   4.759   4.806   0.499
 9628SOL    HW229784   4.751   4.924   0.386
 9629SOL     OW29785   0.285   6.855   1.787
 9629SOL    HW129786   0.279   6.955   1.794
 9629SOL    HW229787   0.343   6.819   1.860
 9630SOL     OW29788   6.443   0.059   4.800
 9630SOL    HW129789   6.420   0.006   4.882
 9630SOL    HW229790   6.430   0.156   4.818
 9631SOL     OW29791   6.919   6.650   6.753
 9631SOL    HW129792   6.922   6.739   6.798
 9631SOL    HW229793   6.994   6.643   6.687
 9632SOL     OW29794   1.123   0.005   2.569
 9632SOL    HW129795   1.195   7.007   2.501
 9632SOL    HW229796   1.089   6.937   2.604
 9633SOL     OW29797   5.286   5.220   5.944
 9633SOL    HW129798   5.330   5.132   5.960
 9633SOL    HW229799   5.339   5.272   5.877
 9634SOL     OW29800   1.013   5.995   4.048
 9634SOL    HW129801   1.012   5.970   4.145
 9634SOL    HW229802   1.107   6.009   4.018
 9635SOL     OW29803   1.741   4.892   5.324
 9635SOL    HW129804   1.818   4.956   5.314
 9635SOL    HW229805   1.659   4.932   5.284
 9636SOL     OW29806   3.803   2.003   5.917
 9636SOL    HW129807   3.784   1.913   5.956
 9636SOL    HW229808   3.740   2.022   5.842
 9637SOL     OW29809   2.207   1.479   6.266
 9637SOL    HW129810   2.301   1.483   6.301
 9637SOL    HW229811   2.145   1.458   6.341
 9638SOL     OW29812   6.426   3.686   6.381
 9638SOL    HW129813   6.435   3.748   6.459
 9638SOL    HW229814   6.517   3.656   6.352
 9639SOL     OW29815   4.061   1.446   2.538
 9639SOL    HW129816   3.980   1.410   2.492
 9639SOL    HW229817   4.143   1.419   2.488
 9640SOL     OW29818   2.172   2.834   3.549
 9640SOL    HW129819   2.259   2.829   3.499
 9640SOL    HW229820   2.173   2.915   3.608
 9641SOL     OW29821   3.848   6.217   0.812
 9641SOL    HW129822   3.943   6.250   0.812
 9641SOL    HW229823   3.812   6.219   0.718
 9642SOL     OW29824   3.402   6.669   4.875
 9642SOL    HW129825   3.497   6.638   4.884
 9642SOL    HW229826   3.373   6.711   4.961
 9643SOL     OW29827   5.529   5.584   4.248
 9643SOL    HW129828   5.447   5.619   4.292
 9643SOL    HW229829   5.609   5.608   4.302
 9644SOL     OW29830   1.053   4.268   6.435
 9644SOL    HW129831   1.010   4.323   6.364
 9644SOL    HW229832   1.056   4.319   6.520
 9645SOL     OW29833   2.337   5.579   3.908
 9645SOL    HW129834   2.299   5.640   3.838
 9645SOL    HW229835   2.289   5.492   3.907
 9646SOL     OW29836   2.920   4.786   1.834
 9646SOL    HW129837   2.961   4.727   1.764
 9646SOL    HW229838   2.882   4.729   1.907
 9647SOL     OW29839   6.477   5.604   2.009
 9647SOL    HW129840   6.525   5.637   2.090
 9647SOL    HW229841   6.379   5.605   2.026
 9648SOL     OW29842   4.264   1.180   0.392
 9648SOL    HW129843   4.256   1.132   0.305
 9648SOL    HW229844   4.299   1.117   0.461
 9649SOL     OW29845   2.827   6.337   7.012
 9649SOL    HW129846   2.741   6.293   0.018
 9649SOL    HW229847   2.903   6.278   0.019
 9650SOL     OW29848   6.244   5.165   2.142
 9650SOL    HW129849   6.302   5.246   2.145
 9650SOL    HW229850   6.261   5.108   2.222
 9651SOL     OW29851   0.336   1.098   6.442
 9651SOL    HW129852   0.414   1.155   6.469
 9651SOL    HW229853   0.345   1.074   6.345
 9652SOL     OW29854   1.906   4.077   0.675
 9652SOL    HW129855   1.845   3.997   0.668
 9652SOL    HW229856   1.856   4.159   0.646
 9653SOL     OW29857   4.288   5.024   4.573
 9653SOL    HW129858   4.311   4.943   4.627
 9653SOL    HW229859   4.307   5.007   4.477
 9654SOL     OW29860   3.237   2.720   1.547
 9654SOL    HW129861   3.228   2.811   1.505
 9654SOL    HW229862   3.280   2.730   1.637
 9655SOL     OW29863   0.312   0.976   0.319
 9655SOL    HW129864   0.221   0.999   0.353
 9655SOL    HW229865   0.304   0.908   0.246
 9656SOL     OW29866   2.528   1.132   1.250
 9656SOL    HW129867   2.533   1.198   1.175
 9656SOL    HW229868   2.619   1.098   1.272
 9657SOL     OW29869   5.631   0.392   3.697
 9657SOL    HW129870   5.541   0.363   3.665
 9657SOL    HW229871   5.698   0.378   3.625
 9658SOL     OW29872   6.315   2.014   3.479
 9658SOL    HW129873   6.354   1.965   3.557
 9658SOL    HW229874   6.368   1.993   3.397
 9659SOL     OW29875   6.605   4.618   0.068
 9659SOL    HW129876   6.569   4.525   0.060
 9659SOL    HW229877   6.533   4.679   0.099
 9660SOL     OW29878   0.226   5.409   0.372
 9660SOL    HW129879   0.130   5.400   0.346
 9660SOL    HW229880   0.276   5.327   0.344
 9661SOL     OW29881   4.230   5.516   1.229
 9661SOL    HW129882   4.305   5.451   1.217
 9661SOL    HW229883   4.206   5.522   1.326
 9662SOL     OW29884   6.279   2.858   4.604
 9662SOL    HW129885   6.269   2.795   4.681
 9662SOL    HW229886   6.360   2.915   4.619
 9663SOL     OW29887   1.251   5.785   4.150
 9663SOL    HW129888   1.317   5.803   4.223
 9663SOL    HW229889   1.298   5.782   4.062
 9664SOL     OW29890   5.530   0.275   2.941
 9664SOL    HW129891   5.441   0.308   2.911
 9664SOL    HW229892   5.537   0.177   2.923
 9665SOL     OW29893   5.332   5.210   5.337
 9665SOL    HW129894   5.292   5.290   5.381
 9665SOL    HW229895   5.282   5.128   5.365
 9666SOL     OW29896   5.369   4.255   1.739
 9666SOL    HW129897   5.332   4.336   1.784
 9666SOL    HW229898   5.431   4.207   1.801
 9667SOL     OW29899   4.035   3.172   4.114
 9667SOL    HW129900   3.983   3.254   4.090
 9667SOL    HW229901   4.043   3.165   4.213
 9668SOL     OW29902   6.464   1.479   6.176
 9668SOL    HW129903   6.541   1.436   6.128
 9668SOL    HW229904   6.457   1.441   6.268
 9669SOL     OW29905   0.945   1.309   1.049
 9669SOL    HW129906   1.030   1.287   1.001
 9669SOL    HW229907   0.908   1.225   1.091
 9670SOL     OW29908   5.009   5.038   6.311
 9670SOL    HW129909   4.993   5.060   6.408
 9670SOL    HW229910   5.061   5.111   6.268
 9671SOL     OW29911   0.555   5.321   6.326
 9671SOL    HW129912   0.577   5.325   6.228
 9671SOL    HW229913   0.597   5.399   6.372
 9672SOL     OW29914   1.652   6.869   4.388
 9672SOL    HW129915   1.696   6.958   4.402
 9672SOL    HW229916   1.721   6.796   4.395
 9673SOL     OW29917   5.355   4.309   6.736
 9673SOL    HW129918   5.352   4.212   6.709
 9673SOL    HW229919   5.434   4.353   6.694
 9674SOL     OW29920   2.967   6.140   2.920
 9674SOL    HW129921   2.869   6.123   2.921
 9674SOL    HW229922   3.007   6.115   3.008
 9675SOL     OW29923   5.746   1.375   1.671
 9675SOL    HW129924   5.722   1.279   1.685
 9675SOL    HW229925   5.720   1.428   1.751
 9676SOL     OW29926   1.304   3.818   5.463
 9676SOL    HW129927   1.370   3.743   5.469
 9676SOL    HW229928   1.300   3.851   5.369
 9677SOL     OW29929   2.863   4.537   6.165
 9677SOL    HW129930   2.950   4.488   6.169
 9677SOL    HW229931   2.789   4.471   6.152
 9678SOL     OW29932   3.265   4.100   2.914
 9678SOL    HW129933   3.332   4.108   2.988
 9678SOL    HW229934   3.312   4.106   2.826
 9679SOL     OW29935   1.031   1.303   1.772
 9679SOL    HW129936   1.047   1.399   1.794
 9679SOL    HW229937   0.990   1.295   1.682
 9680SOL     OW29938   6.510   0.458   3.539
 9680SOL    HW129939   6.495   0.501   3.629
 9680SOL    HW229940   6.559   0.372   3.551
 9681SOL     OW29941   2.691   0.660   1.410
 9681SOL    HW129942   2.751   0.655   1.490
 9681SOL    HW229943   2.711   0.583   1.349
 9682SOL     OW29944   5.164   5.245   3.463
 9682SOL    HW129945   5.104   5.274   3.538
 9682SOL    HW229946   5.141   5.151   3.437
 9683SOL     OW29947   3.678   5.168   0.899
 9683SOL    HW129948   3.657   5.105   0.823
 9683SOL    HW229949   3.617   5.247   0.895
 9684SOL     OW29950   0.386   3.245   5.211
 9684SOL    HW129951   0.351   3.294   5.131
 9684SOL    HW229952   0.438   3.165   5.182
 9685SOL     OW29953   2.081   2.976   1.233
 9685SOL    HW129954   2.042   2.887   1.209
 9685SOL    HW229955   2.012   3.032   1.278
 9686SOL     OW29956   6.382   2.113   0.708
 9686SOL    HW129957   6.478   2.101   0.680
 9686SOL    HW229958   6.334   2.026   0.701
 9687SOL     OW29959   2.156   0.588   3.523
 9687SOL    HW129960   2.125   0.569   3.617
 9687SOL    HW229961   2.172   0.502   3.475
 9688SOL     OW29962   6.394   2.323   3.695
 9688SOL    HW129963   6.433   2.249   3.749
 9688SOL    HW229964   6.456   2.345   3.619
 9689SOL     OW29965   1.629   6.440   0.658
 9689SOL    HW129966   1.659   6.528   0.623
 9689SOL    HW229967   1.577   6.454   0.743
 9690SOL     OW29968   5.858   5.379   6.458
 9690SOL    HW129969   5.782   5.340   6.406
 9690SOL    HW229970   5.940   5.381   6.401
 9691SOL     OW29971   2.542   4.538   1.495
 9691SOL    HW129972   2.567   4.614   1.436
 9691SOL    HW229973   2.623   4.505   1.544
 9692SOL     OW29974   2.260   5.181   2.627
 9692SOL    HW129975   2.269   5.091   2.583
 9692SOL    HW229976   2.165   5.194   2.656
 9693SOL     OW29977   0.044   5.302   2.196
 9693SOL    HW129978   0.034   5.213   2.151
 9693SOL    HW229979   6.975   5.331   2.232
 9694SOL     OW29980   2.512   1.002   6.167
 9694SOL    HW129981   2.466   0.983   6.253
 9694SOL    HW229982   2.467   0.952   6.093
 9695SOL     OW29983   6.232   4.174   1.230
 9695SOL    HW129984   6.317   4.205   1.186
 9695SOL    HW229985   6.154   4.201   1.174
 9696SOL     OW29986   5.029   2.373   1.274
 9696SOL    HW129987   5.065   2.393   1.183
 9696SOL    HW229988   4.931   2.356   1.268
 9697SOL     OW29989   6.748   5.127   6.838
 9697SOL    HW129990   6.685   5.116   6.761
 9697SOL    HW229991   6.842   5.134   6.804
 9698SOL     OW29992   5.667   1.032   5.460
 9698SOL    HW129993   5.754   0.987   5.443
 9698SOL    HW229994   5.595   0.963   5.471
 9699SOL     OW29995   0.073   4.341   6.193
 9699SOL    HW129996   0.019   4.309   6.116
 9699SOL    HW229997   0.092   4.439   6.182
 9700SOL     OW29998   4.133   5.167   5.731
 9700SOL    HW129999   4.166   5.111   5.808
 9700SOL    HW230000   4.035   5.151   5.718
 9701SOL     OW30001   3.686   5.314   4.802
 9701SOL    HW130002   3.763   5.301   4.740
 9701SOL    HW230003   3.637   5.398   4.778
 9702SOL     OW30004   5.598   0.348   6.600
 9702SOL    HW130005   5.511   0.298   6.593
 9702SOL    HW230006   5.588   0.438   6.558
 9703SOL     OW30007   3.283   5.605   4.164
 9703SOL    HW130008   3.300   5.551   4.247
 9703SOL    HW230009   3.349   5.580   4.094
 9704SOL     OW30010   2.851   0.900   2.363
 9704SOL    HW130011   2.951   0.897   2.370
 9704SOL    HW230012   2.812   0.836   2.429
 9705SOL     OW30013   5.268   5.003   0.758
 9705SOL    HW130014   5.225   5.084   0.719
 9705SOL    HW230015   5.356   5.029   0.799
 9706SOL     OW30016   0.224   1.969   1.107
 9706SOL    HW130017   0.152   1.965   1.037
 9706SOL    HW230018   0.201   2.039   1.174
 9707SOL     OW30019   6.502   4.227   2.161
 9707SOL    HW130020   6.411   4.189   2.178
 9707SOL    HW230021   6.526   4.215   2.065
 9708SOL     OW30022   1.955   2.571   3.133
 9708SOL    HW130023   1.942   2.472   3.145
 9708SOL    HW230024   2.023   2.604   3.198
 9709SOL     OW30025   0.067   5.756   3.556
 9709SOL    HW130026   0.110   5.690   3.617
 9709SOL    HW230027   0.127   5.773   3.477
 9710SOL     OW30028   0.574   1.572   2.862
 9710SOL    HW130029   0.621   1.605   2.780
 9710SOL    HW230030   0.508   1.502   2.837
 9711SOL     OW30031   1.624   3.388   6.379
 9711SOL    HW130032   1.591   3.352   6.292
 9711SOL    HW230033   1.654   3.483   6.367
 9712SOL     OW30034   5.523   3.602   4.852
 9712SOL    HW130035   5.524   3.697   4.822
 9712SOL    HW230036   5.437   3.581   4.897
 9713SOL     OW30037   0.393   5.422   2.998
 9713SOL    HW130038   0.476   5.397   3.047
 9713SOL    HW230039   0.399   5.518   2.970
 9714SOL     OW30040   1.884   0.839   1.840
 9714SOL    HW130041   1.921   0.929   1.864
 9714SOL    HW230042   1.944   0.794   1.773
 9715SOL     OW30043   6.701   5.629   4.612
 9715SOL    HW130044   6.794   5.607   4.583
 9715SOL    HW230045   6.636   5.564   4.572
 9716SOL     OW30046   4.144   2.566   6.933
 9716SOL    HW130047   4.098   2.506   6.869
 9716SOL    HW230048   4.109   2.659   6.923
 9717SOL     OW30049   5.730   5.946   5.464
 9717SOL    HW130050   5.633   5.927   5.480
 9717SOL    HW230051   5.772   5.976   5.550
 9718SOL     OW30052   4.636   3.271   1.712
 9718SOL    HW130053   4.602   3.185   1.750
 9718SOL    HW230054   4.727   3.257   1.674
 9719SOL     OW30055   0.601   2.004   0.154
 9719SOL    HW130056   0.540   1.930   0.183
 9719SOL    HW230057   0.634   2.053   0.235
 9720SOL     OW30058   0.514   5.733   1.562
 9720SOL    HW130059   0.587   5.700   1.502
 9720SOL    HW230060   0.426   5.700   1.529
 9721SOL     OW30061   0.889   2.421   1.957
 9721SOL    HW130062   0.889   2.400   2.055
 9721SOL    HW230063   0.811   2.376   1.913
 9722SOL     OW30064   0.616   6.721   3.504
 9722SOL    HW130065   0.593   6.647   3.441
 9722SOL    HW230066   0.600   6.809   3.459
 9723SOL     OW30067   1.602   6.069   2.560
 9723SOL    HW130068   1.567   6.137   2.496
 9723SOL    HW230069   1.699   6.086   2.578
 9724SOL     OW30070   3.233   2.958   1.374
 9724SOL    HW130071   3.186   2.888   1.320
 9724SOL    HW230072   3.297   3.008   1.316
 9725SOL     OW30073   4.327   3.591   6.011
 9725SOL    HW130074   4.340   3.539   6.095
 9725SOL    HW230075   4.335   3.689   6.030
 9726SOL     OW30076   4.222   0.380   4.748
 9726SOL    HW130077   4.188   0.286   4.738
 9726SOL    HW230078   4.275   0.405   4.667
 9727SOL     OW30079   1.088   3.543   5.494
 9727SOL    HW130080   1.187   3.549   5.509
 9727SOL    HW230081   1.051   3.634   5.480
 9728SOL     OW30082   0.866   6.568   6.304
 9728SOL    HW130083   0.917   6.516   6.234
 9728SOL    HW230084   0.783   6.517   6.329
 9729SOL     OW30085   1.229   4.552   2.758
 9729SOL    HW130086   1.233   4.593   2.666
 9729SOL    HW230087   1.300   4.482   2.766
 9730SOL     OW30088   0.209   3.584   2.435
 9730SOL    HW130089   0.269   3.584   2.356
 9730SOL    HW230090   0.191   3.490   2.463
 9731SOL     OW30091   4.496   4.850   0.615
 9731SOL    HW130092   4.577   4.881   0.565
 9731SOL    HW230093   4.471   4.758   0.585
 9732SOL     OW30094   5.922   5.969   2.938
 9732SOL    HW130095   5.987   6.034   2.898
 9732SOL    HW230096   5.925   5.976   3.037
 9733SOL     OW30097   5.702   5.294   4.819
 9733SOL    HW130098   5.735   5.199   4.816
 9733SOL    HW230099   5.606   5.297   4.795
 9734SOL     OW30100   5.289   2.103   3.964
 9734SOL    HW130101   5.357   2.147   4.022
 9734SOL    HW230102   5.239   2.173   3.913
 9735SOL     OW30103   1.624   4.652   2.705
 9735SOL    HW130104   1.631   4.631   2.803
 9735SOL    HW230105   1.672   4.583   2.652
 9736SOL     OW30106   5.523   1.324   5.489
 9736SOL    HW130107   5.577   1.241   5.498
 9736SOL    HW230108   5.548   1.388   5.562
 9737SOL     OW30109   4.747   2.764   4.982
 9737SOL    HW130110   4.701   2.715   4.909
 9737SOL    HW230111   4.723   2.722   5.070
 9738SOL     OW30112   1.693   6.708   3.374
 9738SOL    HW130113   1.780   6.728   3.330
 9738SOL    HW230114   1.708   6.688   3.471
 9739SOL     OW30115   0.608   4.730   1.976
 9739SOL    HW130116   0.611   4.773   2.066
 9739SOL    HW230117   0.553   4.786   1.914
 9740SOL     OW30118   6.302   3.074   3.518
 9740SOL    HW130119   6.281   2.976   3.510
 9740SOL    HW230120   6.321   3.096   3.614
 9741SOL     OW30121   4.687   1.282   2.356
 9741SOL    HW130122   4.682   1.294   2.455
 9741SOL    HW230123   4.724   1.365   2.315
 9742SOL     OW30124   4.735   0.320   3.270
 9742SOL    HW130125   4.828   0.292   3.293
 9742SOL    HW230126   4.688   0.352   3.353
 9743SOL     OW30127   2.206   1.655   5.335
 9743SOL    HW130128   2.165   1.695   5.253
 9743SOL    HW230129   2.299   1.625   5.315
 9744SOL     OW30130   0.685   0.214   2.833
 9744SOL    HW130131   0.650   0.303   2.805
 9744SOL    HW230132   0.609   0.155   2.860
 9745SOL     OW30133   0.399   2.186   5.659
 9745SOL    HW130134   0.446   2.254   5.714
 9745SOL    HW230135   0.459   2.158   5.583
 9746SOL     OW30136   5.800   1.757   5.323
 9746SOL    HW130137   5.734   1.682   5.323
 9746SOL    HW230138   5.751   1.845   5.328
 9747SOL     OW30139   1.414   0.902   1.734
 9747SOL    HW130140   1.336   0.964   1.725
 9747SOL    HW230141   1.497   0.954   1.756
 9748SOL     OW30142   1.328   0.090   4.786
 9748SOL    HW130143   1.356   0.030   4.711
 9748SOL    HW230144   1.329   0.185   4.756
 9749SOL     OW30145   2.035   2.221   5.642
 9749SOL    HW130146   1.965   2.245   5.575
 9749SOL    HW230147   2.037   2.290   5.715
 9750SOL     OW30148   5.711   4.926   4.125
 9750SOL    HW130149   5.616   4.960   4.128
 9750SOL    HW230150   5.772   4.997   4.161
 9751SOL     OW30151   2.374   2.504   1.123
 9751SOL    HW130152   2.403   2.537   1.213
 9751SOL    HW230153   2.354   2.406   1.129
 9752SOL     OW30154   4.543   0.732   6.322
 9752SOL    HW130155   4.482   0.751   6.246
 9752SOL    HW230156   4.549   0.633   6.337
 9753SOL     OW30157   6.263   6.301   4.864
 9753SOL    HW130158   6.234   6.224   4.806
 9753SOL    HW230159   6.193   6.318   4.934
 9754SOL     OW30160   1.088   1.750   6.947
 9754SOL    HW130161   0.999   1.782   6.980
 9754SOL    HW230162   1.158   1.768   7.016
 9755SOL     OW30163   4.195   3.383   5.076
 9755SOL    HW130164   4.233   3.308   5.020
 9755SOL    HW230165   4.104   3.357   5.109
 9756SOL     OW30166   6.462   2.891   0.091
 9756SOL    HW130167   6.548   2.843   0.073
 9756SOL    HW230168   6.465   2.931   0.183
 9757SOL     OW30169   5.187   3.178   3.340
 9757SOL    HW130170   5.163   3.259   3.286
 9757SOL    HW230171   5.243   3.116   3.284
 9758SOL     OW30172   1.661   6.660   6.130
 9758SOL    HW130173   1.566   6.686   6.148
 9758SOL    HW230174   1.695   6.605   6.206
 9759SOL     OW30175   2.143   6.714   1.049
 9759SOL    HW130176   2.217   6.670   1.100
 9759SOL    HW230177   2.163   6.812   1.040
 9760SOL     OW30178   5.080   4.064   5.069
 9760SOL    HW130179   5.108   4.099   4.979
 9760SOL    HW230180   5.090   3.965   5.071
 9761SOL     OW30181   5.735   6.087   2.106
 9761SOL    HW130182   5.652   6.033   2.122
 9761SOL    HW230183   5.808   6.053   2.164
 9762SOL     OW30184   2.950   2.248   4.529
 9762SOL    HW130185   2.923   2.280   4.620
 9762SOL    HW230186   2.970   2.150   4.533
 9763SOL     OW30187   4.677   2.255   1.915
 9763SOL    HW130188   4.764   2.299   1.892
 9763SOL    HW230189   4.692   2.156   1.924
 9764SOL     OW30190   1.343   1.858   3.482
 9764SOL    HW130191   1.325   1.925   3.410
 9764SOL    HW230192   1.432   1.815   3.467
 9765SOL     OW30193   6.799   1.849   4.801
 9765SOL    HW130194   6.779   1.860   4.899
 9765SOL    HW230195   6.850   1.764   4.787
 9766SOL     OW30196   2.512   0.422   3.071
 9766SOL    HW130197   2.573   0.348   3.043
 9766SOL    HW230198   2.496   0.483   2.994
 9767SOL     OW30199   4.994   1.893   4.638
 9767SOL    HW130200   4.914   1.911   4.695
 9767SOL    HW230201   5.069   1.860   4.696
 9768SOL     OW30202   5.357   2.410   2.338
 9768SOL    HW130203   5.427   2.369   2.280
 9768SOL    HW230204   5.316   2.339   2.395
 9769SOL     OW30205   1.583   1.261   1.888
 9769SOL    HW130206   1.568   1.185   1.952
 9769SOL    HW230207   1.653   1.323   1.926
 9770SOL     OW30208   5.822   6.377   6.315
 9770SOL    HW130209   5.780   6.288   6.298
 9770SOL    HW230210   5.851   6.417   6.228
 9771SOL     OW30211   4.341   4.538   1.217
 9771SOL    HW130212   4.401   4.459   1.229
 9771SOL    HW230213   4.384   4.602   1.153
 9772SOL     OW30214   0.145   6.622   1.741
 9772SOL    HW130215   0.202   6.697   1.775
 9772SOL    HW230216   0.144   6.548   1.808
 9773SOL     OW30217   5.391   6.178   3.562
 9773SOL    HW130218   5.348   6.102   3.611
 9773SOL    HW230219   5.466   6.143   3.506
 9774SOL     OW30220   5.830   5.316   2.953
 9774SOL    HW130221   5.894   5.255   2.906
 9774SOL    HW230222   5.818   5.399   2.899
 9775SOL     OW30223   2.230   2.069   4.391
 9775SOL    HW130224   2.315   2.078   4.339
 9775SOL    HW230225   2.219   2.148   4.451
 9776SOL     OW30226   6.911   5.750   4.965
 9776SOL    HW130227   6.959   5.680   4.912
 9776SOL    HW230228   6.816   5.757   4.932
 9777SOL     OW30229   5.623   5.249   6.596
 9777SOL    HW130230   5.673   5.251   6.683
 9777SOL    HW230231   5.654   5.171   6.542
 9778SOL     OW30232   5.688   0.306   3.934
 9778SOL    HW130233   5.676   0.330   3.838
 9778SOL    HW230234   5.617   0.351   3.989
 9779SOL     OW30235   2.653   1.449   4.695
 9779SOL    HW130236   2.625   1.358   4.727
 9779SOL    HW230237   2.656   1.512   4.773
 9780SOL     OW30238   2.475   2.243   0.843
 9780SOL    HW130239   2.386   2.240   0.798
 9780SOL    HW230240   2.466   2.210   0.937
 9781SOL     OW30241   2.002   4.441   4.114
 9781SOL    HW130242   1.973   4.533   4.085
 9781SOL    HW230243   1.937   4.405   4.180
 9782SOL     OW30244   6.718   0.262   0.785
 9782SOL    HW130245   6.718   0.361   0.767
 9782SOL    HW230246   6.698   0.246   0.881
 9783SOL     OW30247   6.227   1.216   1.838
 9783SOL    HW130248   6.199   1.194   1.745
 9783SOL    HW230249   6.298   1.287   1.835
 9784SOL     OW30250   4.454   1.514   3.505
 9784SOL    HW130251   4.440   1.500   3.407
 9784SOL    HW230252   4.401   1.594   3.535
 9785SOL     OW30253   6.977   2.951   3.466
 9785SOL    HW130254   6.929   3.033   3.436
 9785SOL    HW230255   6.913   2.874   3.470
 9786SOL     OW30256   1.568   4.817   5.531
 9786SOL    HW130257   1.660   4.824   5.490
 9786SOL    HW230258   1.502   4.794   5.459
 9787SOL     OW30259   5.175   4.040   2.002
 9787SOL    HW130260   5.187   3.941   2.014
 9787SOL    HW230261   5.083   4.059   1.970
 9788SOL     OW30262   0.709   0.408   3.800
 9788SOL    HW130263   0.745   0.501   3.806
 9788SOL    HW230264   0.725   0.371   3.709
 9789SOL     OW30265   2.055   5.450   6.005
 9789SOL    HW130266   2.148   5.422   5.981
 9789SOL    HW230267   2.004   5.371   6.037
 9790SOL     OW30268   5.775   2.768   4.830
 9790SOL    HW130269   5.710   2.733   4.897
 9790SOL    HW230270   5.794   2.865   4.849
 9791SOL     OW30271   0.726   0.831   2.013
 9791SOL    HW130272   0.800   0.858   2.074
 9791SOL    HW230273   0.764   0.792   1.930
 9792SOL     OW30274   4.703   5.077   1.954
 9792SOL    HW130275   4.726   5.174   1.953
 9792SOL    HW230276   4.786   5.023   1.939
 9793SOL     OW30277   4.875   5.721   2.817
 9793SOL    HW130278   4.939   5.704   2.742
 9793SOL    HW230279   4.885   5.815   2.849
 9794SOL     OW30280   5.600   3.494   6.588
 9794SOL    HW130281   5.684   3.512   6.638
 9794SOL    HW230282   5.548   3.422   6.636
 9795SOL     OW30283   1.326   2.837   3.914
 9795SOL    HW130284   1.234   2.838   3.952
 9795SOL    HW230285   1.352   2.930   3.887
 9796SOL     OW30286   3.157   4.285   0.846
 9796SOL    HW130287   3.150   4.186   0.860
 9796SOL    HW230288   3.135   4.307   0.751
 9797SOL     OW30289   4.461   3.601   0.260
 9797SOL    HW130290   4.393   3.554   0.204
 9797SOL    HW230291   4.432   3.695   0.277
 9798SOL     OW30292   2.774   0.714   1.133
 9798SOL    HW130293   2.676   0.719   1.154
 9798SOL    HW230294   2.797   0.621   1.107
 9799SOL     OW30295   3.408   3.365   2.741
 9799SOL    HW130296   3.459   3.298   2.687
 9799SOL    HW230297   3.449   3.456   2.730
 9800SOL     OW30298   3.993   6.054   5.929
 9800SOL    HW130299   4.084   6.082   5.958
 9800SOL    HW230300   4.001   5.975   5.868
 9801SOL     OW30301   4.190   5.387   0.214
 9801SOL    HW130302   4.097   5.380   0.177
 9801SOL    HW230303   4.186   5.429   0.305
 9802SOL     OW30304   0.045   3.365   2.079
 9802SOL    HW130305   0.032   3.383   2.177
 9802SOL    HW230306   0.044   3.266   2.064
 9803SOL     OW30307   6.271   0.641   6.516
 9803SOL    HW130308   6.244   0.562   6.463
 9803SOL    HW230309   6.366   0.664   6.495
 9804SOL     OW30310   0.362   4.895   3.671
 9804SOL    HW130311   0.423   4.956   3.722
 9804SOL    HW230312   0.276   4.884   3.721
 9805SOL     OW30313   1.117   5.623   6.691
 9805SOL    HW130314   1.119   5.525   6.667
 9805SOL    HW230315   1.207   5.663   6.671
 9806SOL     OW30316   0.688   2.476   1.560
 9806SOL    HW130317   0.655   2.412   1.491
 9806SOL    HW230318   0.782   2.503   1.538
 9807SOL     OW30319   3.310   1.824   0.032
 9807SOL    HW130320   3.269   1.915   0.033
 9807SOL    HW230321   3.392   1.825   6.994
 9808SOL     OW30322   6.065   0.543   5.735
 9808SOL    HW130323   6.005   0.622   5.742
 9808SOL    HW230324   6.116   0.532   5.820
 9809SOL     OW30325   1.061   1.386   5.829
 9809SOL    HW130326   1.005   1.347   5.756
 9809SOL    HW230327   1.151   1.343   5.828
 9810SOL     OW30328   2.603   1.811   3.189
 9810SOL    HW130329   2.613   1.809   3.288
 9810SOL    HW230330   2.649   1.892   3.152
 9811SOL     OW30331   6.322   5.964   3.747
 9811SOL    HW130332   6.247   6.011   3.792
 9811SOL    HW230333   6.286   5.886   3.695
 9812SOL     OW30334   3.809   2.168   6.383
 9812SOL    HW130335   3.754   2.174   6.466
 9812SOL    HW230336   3.845   2.075   6.374
 9813SOL     OW30337   6.326   5.413   0.212
 9813SOL    HW130338   6.241   5.407   0.160
 9813SOL    HW230339   6.310   5.380   0.305
 9814SOL     OW30340   6.638   0.551   6.216
 9814SOL    HW130341   6.725   0.512   6.246
 9814SOL    HW230342   6.650   0.595   6.127
 9815SOL     OW30343   6.877   2.719   0.919
 9815SOL    HW130344   6.888   2.792   0.851
 9815SOL    HW230345   6.780   2.705   0.937
 9816SOL     OW30346   5.929   1.016   6.407
 9816SOL    HW130347   5.995   0.983   6.474
 9816SOL    HW230348   5.843   1.038   6.454
 9817SOL     OW30349   3.294   5.324   1.848
 9817SOL    HW130350   3.209   5.293   1.891
 9817SOL    HW230351   3.272   5.386   1.773
 9818SOL     OW30352   1.983   1.391   3.098
 9818SOL    HW130353   1.956   1.481   3.064
 9818SOL    HW230354   1.904   1.344   3.136
 9819SOL     OW30355   5.771   4.047   4.566
 9819SOL    HW130356   5.705   4.022   4.495
 9819SOL    HW230357   5.795   3.966   4.619
 9820SOL     OW30358   2.859   2.108   6.747
 9820SOL    HW130359   2.828   2.151   6.662
 9820SOL    HW230360   2.954   2.131   6.764
 9821SOL     OW30361   4.608   2.205   1.487
 9821SOL    HW130362   4.691   2.252   1.457
 9821SOL    HW230363   4.559   2.263   1.552
 9822SOL     OW30364   4.377   5.820   4.295
 9822SOL    HW130365   4.339   5.736   4.333
 9822SOL    HW230366   4.337   5.899   4.342
 9823SOL     OW30367   1.378   0.664   2.341
 9823SOL    HW130368   1.393   0.646   2.438
 9823SOL    HW230369   1.280   0.656   2.320
 9824SOL     OW30370   2.524   5.927   5.824
 9824SOL    HW130371   2.518   5.916   5.724
 9824SOL    HW230372   2.490   6.017   5.850
 9825SOL     OW30373   5.323   5.936   5.288
 9825SOL    HW130374   5.342   6.034   5.289
 9825SOL    HW230375   5.228   5.921   5.262
 9826SOL     OW30376   3.633   0.034   5.746
 9826SOL    HW130377   3.634   7.008   5.657
 9826SOL    HW230378   3.577   7.000   5.810
 9827SOL     OW30379   2.085   5.526   2.591
 9827SOL    HW130380   2.098   5.429   2.569
 9827SOL    HW230381   2.097   5.581   2.508
 9828SOL     OW30382   3.417   2.080   4.777
 9828SOL    HW130383   3.378   2.097   4.867
 9828SOL    HW230384   3.514   2.101   4.778
 9829SOL     OW30385   4.732   6.064   5.953
 9829SOL    HW130386   4.782   6.011   5.885
 9829SOL    HW230387   4.785   6.068   6.038
 9830SOL     OW30388   5.969   1.173   2.731
 9830SOL    HW130389   6.061   1.174   2.690
 9830SOL    HW230390   5.962   1.246   2.798
 9831SOL     OW30391   0.169   4.053   2.300
 9831SOL    HW130392   0.237   3.985   2.272
 9831SOL    HW230393   0.078   4.024   2.272
 9832SOL     OW30394   5.131   4.743   4.324
 9832SOL    HW130395   5.041   4.720   4.286
 9832SOL    HW230396   5.183   4.796   4.257
 9833SOL     OW30397   3.619   4.061   3.700
 9833SOL    HW130398   3.580   4.108   3.780
 9833SOL    HW230399   3.555   3.992   3.667
 9834SOL     OW30400   2.448   5.524   5.650
 9834SOL    HW130401   2.480   5.564   5.736
 9834SOL    HW230402   2.513   5.544   5.577
 9835SOL     OW30403   3.735   4.129   4.612
 9835SOL    HW130404   3.798   4.063   4.652
 9835SOL    HW230405   3.721   4.108   4.515
 9836SOL     OW30406   1.148   3.864   6.675
 9836SOL    HW130407   1.066   3.831   6.721
 9836SOL    HW230408   1.130   3.874   6.577
 9837SOL     OW30409   5.775   2.092   1.462
 9837SOL    HW130410   5.831   2.155   1.516
 9837SOL    HW230411   5.682   2.127   1.455
 9838SOL     OW30412   1.099   5.758   1.275
 9838SOL    HW130413   1.067   5.667   1.302
 9838SOL    HW230414   1.074   5.824   1.346
 9839SOL     OW30415   4.476   1.118   3.453
 9839SOL    HW130416   4.490   1.151   3.546
 9839SOL    HW230417   4.425   1.032   3.455
 9840SOL     OW30418   5.126   1.835   6.756
 9840SOL    HW130419   5.194   1.899   6.721
 9840SOL    HW230420   5.103   1.858   6.850
 9841SOL     OW30421   0.290   5.338   3.586
 9841SOL    HW130422   0.301   5.431   3.620
 9841SOL    HW230423   0.325   5.273   3.653
 9842SOL     OW30424   4.099   2.843   6.957
 9842SOL    HW130425   4.143   2.851   0.027
 9842SOL    HW230426   4.029   2.914   6.948
 9843SOL     OW30427   6.719   6.428   0.924
 9843SOL    HW130428   6.672   6.512   0.952
 9843SOL    HW230429   6.816   6.435   0.946
 9844SOL     OW30430   5.474   0.654   4.514
 9844SOL    HW130431   5.411   0.640   4.438
 9844SOL    HW230432   5.481   0.570   4.568
 9845SOL     OW30433   0.824   2.116   2.221
 9845SOL    HW130434   0.826   2.130   2.320
 9845SOL    HW230435   0.836   2.204   2.175
 9846SOL     OW30436   5.456   1.443   1.259
 9846SOL    HW130437   5.528   1.451   1.190
 9846SOL    HW230438   5.486   1.381   1.332
 9847SOL     OW30439   3.875   2.960   1.346
 9847SOL    HW130440   3.966   2.956   1.386
 9847SOL    HW230441   3.806   2.959   1.419
 9848SOL     OW30442   3.240   3.905   5.526
 9848SOL    HW130443   3.253   4.003   5.509
 9848SOL    HW230444   3.281   3.852   5.452
 9849SOL     OW30445   1.408   0.625   6.684
 9849SOL    HW130446   1.476   0.698   6.692
 9849SOL    HW230447   1.402   0.595   6.589
 9850SOL     OW30448   6.947   0.749   4.318
 9850SOL    HW130449   6.959   0.690   4.398
 9850SOL    HW230450   6.861   0.724   4.272
 9851SOL     OW30451   3.792   5.263   4.332
 9851SOL    HW130452   3.693   5.256   4.339
 9851SOL    HW230453   3.826   5.196   4.265
 9852SOL     OW30454   1.343   1.378   6.691
 9852SOL    HW130455   1.312   1.296   6.644
 9852SOL    HW230456   1.433   1.362   6.732
 9853SOL     OW30457   0.329   4.173   4.282
 9853SOL    HW130458   0.256   4.152   4.347
 9853SOL    HW230459   0.288   4.199   4.194
 9854SOL     OW30460   0.681   6.134   6.024
 9854SOL    HW130461   0.712   6.211   5.968
 9854SOL    HW230462   0.617   6.078   5.971
 9855SOL     OW30463   0.673   3.361   0.803
 9855SOL    HW130464   0.761   3.405   0.788
 9855SOL    HW230465   0.602   3.407   0.750
 9856SOL     OW30466   6.124   4.977   3.330
 9856SOL    HW130467   6.208   5.028   3.312
 9856SOL    HW230468   6.052   5.040   3.360
 9857SOL     OW30469   5.113   2.517   3.124
 9857SOL    HW130470   5.115   2.512   3.024
 9857SOL    HW230471   5.026   2.558   3.153
 9858SOL     OW30472   1.127   6.575   2.373
 9858SOL    HW130473   1.188   6.541   2.445
 9858SOL    HW230474   1.040   6.526   2.376
 9859SOL     OW30475   0.119   4.918   5.207
 9859SOL    HW130476   0.096   4.938   5.112
 9859SOL    HW230477   0.170   4.832   5.212
 9860SOL     OW30478   2.078   1.864   5.202
 9860SOL    HW130479   2.086   1.902   5.110
 9860SOL    HW230480   2.109   1.932   5.269
 9861SOL     OW30481   2.713   1.457   3.757
 9861SOL    HW130482   2.705   1.476   3.855
 9861SOL    HW230483   2.711   1.358   3.742
 9862SOL     OW30484   2.225   4.770   1.118
 9862SOL    HW130485   2.172   4.844   1.076
 9862SOL    HW230486   2.309   4.806   1.156
 9863SOL     OW30487   2.841   5.722   0.659
 9863SOL    HW130488   2.927   5.686   0.622
 9863SOL    HW230489   2.817   5.674   0.743
 9864SOL     OW30490   2.829   6.370   5.400
 9864SOL    HW130491   2.799   6.370   5.305
 9864SOL    HW230492   2.749   6.365   5.460
 9865SOL     OW30493   0.408   6.934   5.184
 9865SOL    HW130494   0.482   6.893   5.239
 9865SOL    HW230495   0.444   6.961   5.095
 9866SOL     OW30496   6.321   4.694   4.453
 9866SOL    HW130497   6.356   4.647   4.371
 9866SOL    HW230498   6.322   4.793   4.437
 9867SOL     OW30499   4.951   2.038   2.112
 9867SOL    HW130500   4.852   2.042   2.128
 9867SOL    HW230501   4.999   2.073   2.192
 9868SOL     OW30502   1.355   4.458   3.390
 9868SOL    HW130503   1.443   4.459   3.437
 9868SOL    HW230504   1.318   4.551   3.387
 9869SOL     OW30505   0.262   2.608   1.126
 9869SOL    HW130506   0.307   2.587   1.039
 9869SOL    HW230507   0.319   2.673   1.177
 9870SOL     OW30508   3.491   1.289   1.751
 9870SOL    HW130509   3.563   1.314   1.685
 9870SOL    HW230510   3.423   1.362   1.754
 9871SOL     OW30511   0.064   3.432   5.260
 9871SOL    HW130512   0.021   3.522   5.254
 9871SOL    HW230513   0.006   3.372   5.315
 9872SOL     OW30514   2.310   5.669   5.195
 9872SOL    HW130515   2.326   5.687   5.098
 9872SOL    HW230516   2.245   5.594   5.205
 9873SOL     OW30517   1.975   1.846   6.022
 9873SOL    HW130518   1.896   1.845   6.083
 9873SOL    HW230519   2.059   1.841   6.076
 9874SOL     OW30520   0.863   2.840   5.003
 9874SOL    HW130521   0.791   2.784   4.962
 9874SOL    HW230522   0.914   2.887   4.931
 9875SOL     OW30523   6.778   6.170   0.803
 9875SOL    HW130524   6.826   6.189   0.717
 9875SOL    HW230525   6.755   6.256   0.849
 9876SOL     OW30526   3.202   0.082   3.273
 9876SOL    HW130527   3.131   0.143   3.306
 9876SOL    HW230528   3.198   7.014   3.322
 9877SOL     OW30529   0.550   4.548   4.841
 9877SOL    HW130530   0.648   4.566   4.850
 9877SOL    HW230531   0.498   4.627   4.873
 9878SOL     OW30532   1.826   3.146   0.115
 9878SOL    HW130533   1.751   3.144   0.181
 9878SOL    HW230534   1.848   3.052   0.088
 9879SOL     OW30535   1.533   4.454   6.291
 9879SOL    HW130536   1.565   4.373   6.242
 9879SOL    HW230537   1.447   4.485   6.252
 9880SOL     OW30538   2.359   0.856   0.103
 9880SOL    HW130539   2.357   0.912   0.020
 9880SOL    HW230540   2.268   0.851   0.143
 9881SOL     OW30541   5.137   0.807   4.593
 9881SOL    HW130542   5.072   0.882   4.604
 9881SOL    HW230543   5.137   0.751   4.676
 9882SOL     OW30544   3.880   2.953   4.733
 9882SOL    HW130545   3.812   2.886   4.763
 9882SOL    HW230546   3.859   2.983   4.640
 9883SOL     OW30547   1.889   6.184   0.929
 9883SOL    HW130548   1.973   6.150   0.971
 9883SOL    HW230549   1.911   6.249   0.856
 9884SOL     OW30550   1.539   2.933   6.914
 9884SOL    HW130551   1.579   2.859   6.859
 9884SOL    HW230552   1.593   3.016   6.902
 9885SOL     OW30553   6.634   3.236   3.865
 9885SOL    HW130554   6.714   3.185   3.896
 9885SOL    HW230555   6.659   3.293   3.787
 9886SOL     OW30556   5.435   6.302   1.477
 9886SOL    HW130557   5.468   6.380   1.424
 9886SOL    HW230558   5.424   6.329   1.573
 9887SOL     OW30559   3.601   6.731   0.507
 9887SOL    HW130560   3.694   6.721   0.471
 9887SOL    HW230561   3.601   6.798   0.581
 9888SOL     OW30562   5.695   6.025   2.451
 9888SOL    HW130563   5.684   6.004   2.548
 9888SOL    HW230564   5.729   6.118   2.441
 9889SOL     OW30565   0.359   4.942   3.261
 9889SOL    HW130566   0.426   4.928   3.189
 9889SOL    HW230567   0.405   4.977   3.343
 9890SOL     OW30568   6.551   3.343   0.766
 9890SOL    HW130569   6.471   3.291   0.795
 9890SOL    HW230570   6.553   3.348   0.667
 9891SOL     OW30571   4.807   5.248   0.621
 9891SOL    HW130572   4.854   5.264   0.534
 9891SOL    HW230573   4.853   5.300   0.694
 9892SOL     OW30574   1.989   5.592   3.930
 9892SOL    HW130575   1.914   5.607   3.866
 9892SOL    HW230576   2.045   5.515   3.899
 9893SOL     OW30577   5.992   5.151   2.822
 9893SOL    HW130578   6.023   5.095   2.899
 9893SOL    HW230579   5.970   5.092   2.745
 9894SOL     OW30580   3.514   2.082   5.860
 9894SOL    HW130581   3.479   2.007   5.803
 9894SOL    HW230582   3.442   2.149   5.875
 9895SOL     OW30583   5.269   2.532   6.464
 9895SOL    HW130584   5.242   2.501   6.555
 9895SOL    HW230585   5.190   2.576   6.420
 9896SOL     OW30586   3.446   3.355   0.831
 9896SOL    HW130587   3.521   3.404   0.788
 9896SOL    HW230588   3.468   3.338   0.927
 9897SOL     OW30589   4.909   1.632   2.794
 9897SOL    HW130590   4.921   1.645   2.696
 9897SOL    HW230591   4.977   1.686   2.844
 9898SOL     OW30592   1.129   5.331   5.293
 9898SOL    HW130593   1.172   5.420   5.283
 9898SOL    HW230594   1.113   5.311   5.389
 9899SOL     OW30595   5.161   4.945   2.086
 9899SOL    HW130596   5.237   4.953   2.021
 9899SOL    HW230597   5.168   5.016   2.155
 9900SOL     OW30598   1.554   2.174   3.890
 9900SOL    HW130599   1.604   2.087   3.891
 9900SOL    HW230600   1.620   2.249   3.885
 9901SOL     OW30601   2.205   2.381   6.295
 9901SOL    HW130602   2.201   2.332   6.382
 9901SOL    HW230603   2.131   2.448   6.291
 9902SOL     OW30604   3.535   3.916   0.893
 9902SOL    HW130605   3.614   3.919   0.832
 9902SOL    HW230606   3.452   3.938   0.841
 9903SOL     OW30607   4.477   2.196   2.625
 9903SOL    HW130608   4.533   2.123   2.584
 9903SOL    HW230609   4.519   2.285   2.607
 9904SOL     OW30610   6.854   2.510   0.122
 9904SOL    HW130611   6.881   2.438   0.187
 9904SOL    HW230612   6.891   2.489   0.032
 9905SOL     OW30613   1.312   6.022   6.320
 9905SOL    HW130614   1.353   6.001   6.232
 9905SOL    HW230615   1.291   5.937   6.368
 9906SOL     OW30616   1.847   3.122   6.306
 9906SOL    HW130617   1.846   3.164   6.397
 9906SOL    HW230618   1.839   3.023   6.315
 9907SOL     OW30619   2.339   6.173   2.958
 9907SOL    HW130620   2.251   6.143   2.922
 9907SOL    HW230621   2.407   6.172   2.885
 9908SOL     OW30622   0.700   3.508   6.522
 9908SOL    HW130623   0.701   3.510   6.422
 9908SOL    HW230624   0.623   3.562   6.555
 9909SOL     OW30625   3.209   1.579   2.904
 9909SOL    HW130626   3.153   1.509   2.947
 9909SOL    HW230627   3.261   1.628   2.975
 9910SOL     OW30628   6.620   4.598   1.106
 9910SOL    HW130629   6.650   4.566   1.195
 9910SOL    HW230630   6.520   4.597   1.102
 9911SOL     OW30631   4.466   4.974   3.414
 9911SOL    HW130632   4.397   5.010   3.352
 9911SOL    HW230633   4.433   4.888   3.455
 9912SOL     OW30634   4.892   0.656   2.172
 9912SOL    HW130635   4.920   0.719   2.245
 9912SOL    HW230636   4.933   0.567   2.189
 9913SOL     OW30637   5.543   2.892   2.723
 9913SOL    HW130638   5.585   2.926   2.807
 9913SOL    HW230639   5.588   2.808   2.695
 9914SOL     OW30640   1.642   6.987   5.145
 9914SOL    HW130641   1.734   6.950   5.131
 9914SOL    HW230642   1.648   0.067   5.159
 9915SOL     OW30643   4.999   3.594   4.066
 9915SOL    HW130644   4.943   3.513   4.083
 9915SOL    HW230645   5.085   3.567   4.024
 9916SOL     OW30646   1.962   2.916   2.408
 9916SOL    HW130647   1.973   3.005   2.452
 9916SOL    HW230648   2.027   2.907   2.332
 9917SOL     OW30649   3.377   3.744   5.353
 9917SOL    HW130650   3.352   3.650   5.332
 9917SOL    HW230651   3.476   3.753   5.357
 9918SOL     OW30652   2.142   1.263   6.133
 9918SOL    HW130653   2.155   1.261   6.034
 9918SOL    HW230654   2.137   1.358   6.164
 9919SOL     OW30655   1.349   5.906   2.235
 9919SOL    HW130656   1.405   5.981   2.198
 9919SOL    HW230657   1.323   5.845   2.161
 9920SOL     OW30658   3.857   6.397   1.293
 9920SOL    HW130659   3.855   6.377   1.195
 9920SOL    HW230660   3.855   6.496   1.307
 9921SOL     OW30661   5.969   6.829   2.981
 9921SOL    HW130662   6.035   6.888   2.935
 9921SOL    HW230663   5.962   6.855   3.077
 9922SOL     OW30664   4.373   4.595   0.635
 9922SOL    HW130665   4.286   4.546   0.622
 9922SOL    HW230666   4.384   4.618   0.731
 9923SOL     OW30667   6.446   2.143   5.999
 9923SOL    HW130668   6.518   2.119   5.934
 9923SOL    HW230669   6.457   2.089   6.083
 9924SOL     OW30670   6.653   1.631   3.073
 9924SOL    HW130671   6.581   1.589   3.019
 9924SOL    HW230672   6.690   1.565   3.138
 9925SOL     OW30673   2.495   3.685   5.637
 9925SOL    HW130674   2.476   3.745   5.714
 9925SOL    HW230675   2.534   3.599   5.671
 9926SOL     OW30676   1.353   1.525   0.861
 9926SOL    HW130677   1.285   1.575   0.807
 9926SOL    HW230678   1.358   1.431   0.827
 9927SOL     OW30679   0.505   2.109   2.403
 9927SOL    HW130680   0.448   2.066   2.473
 9927SOL    HW230681   0.447   2.154   2.335
 9928SOL     OW30682   0.564   4.371   1.961
 9928SOL    HW130683   0.620   4.314   1.900
 9928SOL    HW230684   0.623   4.411   2.031
 9929SOL     OW30685   3.495   4.388   5.886
 9929SOL    HW130686   3.564   4.449   5.924
 9929SOL    HW230687   3.469   4.320   5.955
 9930SOL     OW30688   6.930   0.427   6.782
 9930SOL    HW130689   6.997   0.403   6.852
 9930SOL    HW230690   6.875   0.346   6.760
 9931SOL     OW30691   1.355   6.428   4.971
 9931SOL    HW130692   1.317   6.521   4.963
 9931SOL    HW230693   1.453   6.434   4.989
 9932SOL     OW30694   1.893   1.629   0.791
 9932SOL    HW130695   1.845   1.616   0.878
 9932SOL    HW230696   1.895   1.726   0.767
 9933SOL     OW30697   2.876   1.031   3.096
 9933SOL    HW130698   2.782   0.996   3.095
 9933SOL    HW230699   2.901   1.058   3.189
 9934SOL     OW30700   5.719   1.575   6.251
 9934SOL    HW130701   5.638   1.619   6.289
 9934SOL    HW230702   5.798   1.636   6.257
 9935SOL     OW30703   2.690   2.224   0.309
 9935SOL    HW130704   2.626   2.231   0.385
 9935SOL    HW230705   2.767   2.286   0.324
 9936SOL     OW30706   4.969   5.365   5.594
 9936SOL    HW130707   5.010   5.283   5.635
 9936SOL    HW230708   4.898   5.400   5.655
 9937SOL     OW30709   0.302   0.252   2.948
 9937SOL    HW130710   0.328   0.247   3.045
 9937SOL    HW230711   0.203   0.265   2.940
 9938SOL     OW30712   6.727   1.122   4.571
 9938SOL    HW130713   6.705   1.026   4.555
 9938SOL    HW230714   6.796   1.152   4.506
 9939SOL     OW30715   2.117   3.769   0.771
 9939SOL    HW130716   2.139   3.680   0.732
 9939SOL    HW230717   2.133   3.841   0.704
 9940SOL     OW30718   0.561   6.854   2.988
 9940SOL    HW130719   0.661   6.850   2.990
 9940SOL    HW230720   0.529   6.931   3.044
 9941SOL     OW30721   3.927   4.933   5.595
 9941SOL    HW130722   3.886   4.923   5.685
 9941SOL    HW230723   3.893   4.861   5.535
 9942SOL     OW30724   4.717   4.622   3.438
 9942SOL    HW130725   4.793   4.583   3.385
 9942SOL    HW230726   4.630   4.597   3.395
 9943SOL     OW30727   1.734   3.695   0.231
 9943SOL    HW130728   1.791   3.749   0.291
 9943SOL    HW230729   1.775   3.691   0.140
 9944SOL     OW30730   1.599   5.045   0.247
 9944SOL    HW130731   1.661   5.056   0.169
 9944SOL    HW230732   1.514   5.002   0.217
 9945SOL     OW30733   6.129   3.881   0.300
 9945SOL    HW130734   6.212   3.877   0.355
 9945SOL    HW230735   6.050   3.859   0.356
 9946SOL     OW30736   5.610   0.889   2.726
 9946SOL    HW130737   5.576   0.974   2.766
 9946SOL    HW230738   5.710   0.888   2.730
 9947SOL     OW30739   1.057   2.300   4.345
 9947SOL    HW130740   1.011   2.212   4.340
 9947SOL    HW230741   1.048   2.349   4.258
 9948SOL     OW30742   6.520   0.408   3.897
 9948SOL    HW130743   6.506   0.383   3.993
 9948SOL    HW230744   6.548   0.327   3.846
 9949SOL     OW30745   6.595   4.476   4.793
 9949SOL    HW130746   6.516   4.414   4.791
 9949SOL    HW230747   6.568   4.566   4.757
 9950SOL     OW30748   6.328   5.180   5.967
 9950SOL    HW130749   6.357   5.114   5.897
 9950SOL    HW230750   6.407   5.232   5.999
 9951SOL     OW30751   0.637   3.215   2.871
 9951SOL    HW130752   0.633   3.138   2.808
 9951SOL    HW230753   0.544   3.240   2.898
 9952SOL     OW30754   0.696   4.236   1.772
 9952SOL    HW130755   0.667   4.293   1.695
 9952SOL    HW230756   0.777   4.184   1.746
 9953SOL     OW30757   6.135   2.525   3.696
 9953SOL    HW130758   6.127   2.574   3.783
 9953SOL    HW230759   6.138   2.427   3.713
 9954SOL     OW30760   2.904   1.239   6.029
 9954SOL    HW130761   2.870   1.333   6.030
 9954SOL    HW230762   2.956   1.223   5.945
 9955SOL     OW30763   4.469   3.569   0.957
 9955SOL    HW130764   4.504   3.654   0.997
 9955SOL    HW230765   4.517   3.491   0.996
 9956SOL     OW30766   1.289   4.823   2.982
 9956SOL    HW130767   1.328   4.808   2.891
 9956SOL    HW230768   1.200   4.778   2.987
 9957SOL     OW30769   5.119   6.773   1.740
 9957SOL    HW130770   5.178   6.698   1.708
 9957SOL    HW230771   5.113   6.771   1.840
 9958SOL     OW30772   4.220   4.942   5.548
 9958SOL    HW130773   4.203   4.846   5.571
 9958SOL    HW230774   4.160   5.000   5.604
 9959SOL     OW30775   4.337   4.185   1.083
 9959SOL    HW130776   4.399   4.241   1.137
 9959SOL    HW230777   4.288   4.122   1.143
 9960SOL     OW30778   6.361   6.878   0.573
 9960SOL    HW130779   6.313   6.815   0.634
 9960SOL    HW230780   6.344   6.852   0.478
 9961SOL     OW30781   2.118   4.177   1.898
 9961SOL    HW130782   2.134   4.273   1.921
 9961SOL    HW230783   2.081   4.170   1.806
 9962SOL     OW30784   3.125   5.439   2.592
 9962SOL    HW130785   3.207   5.415   2.642
 9962SOL    HW230786   3.142   5.520   2.535
 9963SOL     OW30787   2.118   1.417   0.419
 9963SOL    HW130788   2.102   1.414   0.518
 9963SOL    HW230789   2.031   1.416   0.371
 9964SOL     OW30790   4.544   4.586   5.321
 9964SOL    HW130791   4.509   4.494   5.305
 9964SOL    HW230792   4.641   4.582   5.344
 9965SOL     OW30793   2.676   6.374   5.161
 9965SOL    HW130794   2.586   6.335   5.180
 9965SOL    HW230795   2.718   6.326   5.084
 9966SOL     OW30796   2.731   4.727   2.217
 9966SOL    HW130797   2.677   4.807   2.191
 9966SOL    HW230798   2.763   4.680   2.135
 9967SOL     OW30799   6.572   0.002   2.334
 9967SOL    HW130800   6.548   7.010   2.431
 9967SOL    HW230801   6.517   6.960   2.278
 9968SOL     OW30802   4.278   6.074   0.017
 9968SOL    HW130803   4.252   5.980   0.040
 9968SOL    HW230804   4.201   6.135   0.036
 9969SOL     OW30805   0.942   4.450   4.711
 9969SOL    HW130806   1.023   4.474   4.658
 9969SOL    HW230807   0.924   4.352   4.702
 9970SOL     OW30808   5.391   5.374   1.959
 9970SOL    HW130809   5.489   5.353   1.967
 9970SOL    HW230810   5.380   5.463   1.916
 9971SOL     OW30811   1.076   3.048   1.871
 9971SOL    HW130812   1.058   2.967   1.814
 9971SOL    HW230813   1.072   3.022   1.968
 9972SOL     OW30814   3.735   4.019   0.708
 9972SOL    HW130815   3.790   4.046   0.630
 9972SOL    HW230816   3.791   4.019   0.790
 9973SOL     OW30817   3.989   1.660   4.167
 9973SOL    HW130818   3.915   1.715   4.204
 9973SOL    HW230819   4.076   1.688   4.208
 9974SOL     OW30820   6.661   2.419   3.544
 9974SOL    HW130821   6.750   2.463   3.553
 9974SOL    HW230822   6.659   2.361   3.462
 9975SOL     OW30823   1.058   5.325   6.614
 9975SOL    HW130824   0.999   5.276   6.549
 9975SOL    HW230825   1.153   5.299   6.598
 9976SOL     OW30826   1.933   4.977   5.580
 9976SOL    HW130827   1.931   5.046   5.508
 9976SOL    HW230828   2.008   4.999   5.644
 9977SOL     OW30829   5.347   5.017   4.742
 9977SOL    HW130830   5.297   5.047   4.661
 9977SOL    HW230831   5.284   5.010   4.820
 9978SOL     OW30832   0.371   1.740   6.027
 9978SOL    HW130833   0.464   1.759   5.995
 9978SOL    HW230834   0.368   1.747   6.127
 9979SOL     OW30835   4.893   3.359   5.755
 9979SOL    HW130836   4.867   3.430   5.689
 9979SOL    HW230837   4.873   3.391   5.848
 9980SOL     OW30838   1.394   0.922   0.147
 9980SOL    HW130839   1.352   0.955   0.063
 9980SOL    HW230840   1.322   0.897   0.213
 9981SOL     OW30841   0.899   2.437   1.029
 9981SOL    HW130842   0.880   2.463   0.934
 9981SOL    HW230843   0.952   2.510   1.072
 9982SOL     OW30844   2.827   1.183   5.149
 9982SOL    HW130845   2.847   1.089   5.175
 9982SOL    HW230846   2.728   1.198   5.152
 9983SOL     OW30847   6.388   2.945   2.465
 9983SOL    HW130848   6.454   3.020   2.458
 9983SOL    HW230849   6.308   2.965   2.408
 9984SOL     OW30850   0.444   6.276   1.262
 9984SOL    HW130851   0.532   6.272   1.215
 9984SOL    HW230852   0.424   6.370   1.289
 9985SOL     OW30853   3.273   5.195   0.609
 9985SOL    HW130854   3.372   5.207   0.603
 9985SOL    HW230855   3.238   5.151   0.526
 9986SOL     OW30856   4.961   4.650   0.802
 9986SOL    HW130857   4.870   4.691   0.809
 9986SOL    HW230858   5.026   4.718   0.768
 9987SOL     OW30859   5.607   3.415   1.693
 9987SOL    HW130860   5.654   3.336   1.654
 9987SOL    HW230861   5.510   3.394   1.705
 9988SOL     OW30862   6.352   6.001   4.051
 9988SOL    HW130863   6.371   5.909   4.086
 9988SOL    HW230864   6.283   6.044   4.109
 9989SOL     OW30865   6.377   3.790   1.284
 9989SOL    HW130866   6.475   3.810   1.292
 9989SOL    HW230867   6.327   3.847   1.350
 9990SOL     OW30868   0.169   6.230   3.453
 9990SOL    HW130869   0.085   6.175   3.448
 9990SOL    HW230870   0.230   6.190   3.520
 9991SOL     OW30871   1.451   3.964   3.531
 9991SOL    HW130872   1.436   3.898   3.605
 9991SOL    HW230873   1.435   3.919   3.443
 9992SOL     OW30874   3.391   4.094   1.102
 9992SOL    HW130875   3.455   4.105   1.027
 9992SOL    HW230876   3.352   4.182   1.127
 9993SOL     OW30877   3.347   5.847   3.963
 9993SOL    HW130878   3.317   5.942   3.958
 9993SOL    HW230879   3.335   5.814   4.057
 9994SOL     OW30880   0.409   3.930   4.017
 9994SOL    HW130881   0.437   3.996   4.087
 9994SOL    HW230882   0.486   3.909   3.958
 9995SOL     OW30883   3.218   0.579   4.424
 9995SOL    HW130884   3.282   0.533   4.486
 9995SOL    HW230885   3.268   0.616   4.346
 9996SOL     OW30886   2.622   4.263   0.476
 9996SOL    HW130887   2.617   4.176   0.524
 9996SOL    HW230888   2.617   4.248   0.377
 9997SOL     OW30889   5.380   1.853   3.890
 9997SOL    HW130890   5.351   1.941   3.929
 9997SOL    HW230891   5.305   1.815   3.835
 9998SOL     OW30892   4.751   4.101   2.488
 9998SOL    HW130893   4.771   4.013   2.444
 9998SOL    HW230894   4.654   4.121   2.479
 9999SOL     OW30895   0.856   0.225   3.950
 9999SOL    HW130896   0.794   0.287   3.902
 9999SOL    HW230897   0.950   0.244   3.922
10000SOL     OW30898   5.202   1.611   1.538
10000SOL    HW130899   5.154   1.563   1.611
10000SOL    HW230900   5.146   1.686   1.504
10001SOL     OW30901   3.219   6.529   2.459
10001SOL    HW130902   3.198   6.608   2.401
10001SOL    HW230903   3.164   6.450   2.429
10002SOL     OW30904   2.083   1.170   0.646
10002SOL    HW130905   2.176   1.155   0.612
10002SOL    HW230906   2.087   1.228   0.727
10003SOL     OW30907   2.811   1.631   2.508
10003SOL    HW130908   2.758   1.703   2.461
10003SOL    HW230909   2.777   1.541   2.479
10004SOL     OW30910   5.546   4.823   4.652
10004SOL    HW130911   5.459   4.850   4.693
10004SOL    HW230912   5.551   4.723   4.647
10005SOL     OW30913   2.830   5.636   3.541
10005SOL    HW130914   2.849   5.545   3.579
10005SOL    HW230915   2.772   5.687   3.605
10006SOL     OW30916   5.797   0.096   5.360
10006SOL    HW130917   5.853   0.161   5.411
10006SOL    HW230918   5.835   0.004   5.371
10007SOL     OW30919   0.727   3.755   4.831
10007SOL    HW130920   0.679   3.668   4.819
10007SOL    HW230921   0.825   3.740   4.819
10008SOL     OW30922   3.912   2.012   4.182
10008SOL    HW130923   3.833   1.952   4.188
10008SOL    HW230924   3.915   2.071   4.263
10009SOL     OW30925   1.890   3.713   1.637
10009SOL    HW130926   1.949   3.658   1.577
10009SOL    HW230927   1.919   3.703   1.732
10010SOL     OW30928   3.104   5.001   6.356
10010SOL    HW130929   3.014   5.035   6.382
10010SOL    HW230930   3.102   4.902   6.351
10011SOL     OW30931   6.970   4.499   0.073
10011SOL    HW130932   0.027   4.485   0.136
10011SOL    HW230933   6.971   4.593   0.040
10012SOL     OW30934   4.774   0.666   1.932
10012SOL    HW130935   4.823   0.641   2.015
10012SOL    HW230936   4.681   0.630   1.935
10013SOL     OW30937   1.483   4.704   5.143
10013SOL    HW130938   1.463   4.768   5.216
10013SOL    HW230939   1.509   4.616   5.182
10014SOL     OW30940   1.117   6.625   2.007
10014SOL    HW130941   1.082   6.676   2.086
10014SOL    HW230942   1.157   6.539   2.039
10015SOL     OW30943   3.714   5.059   6.953
10015SOL    HW130944   3.679   4.970   6.921
10015SOL    HW230945   3.660   5.132   6.912
10016SOL     OW30946   2.225   1.773   4.805
10016SOL    HW130947   2.211   1.742   4.711
10016SOL    HW230948   2.296   1.843   4.807
10017SOL     OW30949   2.251   1.618   2.577
10017SOL    HW130950   2.209   1.532   2.605
10017SOL    HW230951   2.209   1.649   2.491
10018SOL     OW30952   6.641   3.803   5.702
10018SOL    HW130953   6.676   3.868   5.770
10018SOL    HW230954   6.686   3.715   5.714
10019SOL     OW30955   0.304   1.492   3.246
10019SOL    HW130956   0.331   1.417   3.307
10019SOL    HW230957   0.230   1.545   3.290
10020SOL     OW30958   0.018   1.022   1.915
10020SOL    HW130959   0.079   1.083   1.967
10020SOL    HW230960   0.007   0.936   1.965
10021SOL     OW30961   0.936   2.810   1.979
10021SOL    HW130962   0.854   2.844   1.933
10021SOL    HW230963   1.010   2.800   1.912
10022SOL     OW30964   2.165   5.733   6.926
10022SOL    HW130965   2.181   5.776   6.837
10022SOL    HW230966   2.224   5.775   6.995
10023SOL     OW30967   2.771   6.218   5.753
10023SOL    HW130968   2.854   6.219   5.808
10023SOL    HW230969   2.789   6.175   5.664
10024SOL     OW30970   1.506   5.204   2.978
10024SOL    HW130971   1.587   5.258   2.954
10024SOL    HW230972   1.431   5.227   2.916
10025SOL     OW30973   1.772   3.129   1.974
10025SOL    HW130974   1.802   3.111   2.068
10025SOL    HW230975   1.719   3.213   1.971
10026SOL     OW30976   5.163   1.211   3.115
10026SOL    HW130977   5.070   1.191   3.085
10026SOL    HW230978   5.223   1.136   3.091
10027SOL     OW30979   0.984   2.569   5.416
10027SOL    HW130980   1.047   2.595   5.343
10027SOL    HW230981   1.020   2.599   5.504
10028SOL     OW30982   3.099   1.013   0.880
10028SOL    HW130983   3.122   1.065   0.962
10028SOL    HW230984   3.096   0.916   0.902
10029SOL     OW30985   0.429   3.317   4.407
10029SOL    HW130986   0.337   3.282   4.421
10029SOL    HW230987   0.434   3.364   4.319
10030SOL     OW30988   3.130   6.705   5.217
10030SOL    HW130989   3.074   6.654   5.283
10030SOL    HW230990   3.090   6.697   5.126
10031SOL     OW30991   4.645   5.030   4.481
10031SOL    HW130992   4.617   5.076   4.565
10031SOL    HW230993   4.630   5.091   4.403
10032SOL     OW30994   3.800   0.269   6.252
10032SOL    HW130995   3.807   0.191   6.190
10032SOL    HW230996   3.704   0.298   6.258
10033SOL     OW30997   3.975   1.598   4.667
10033SOL    HW130998   3.936   1.553   4.586
10033SOL    HW230999   3.989   1.695   4.647
10034SOL     OW31000   2.649   0.814   3.929
10034SOL    HW131001   2.599   0.833   4.013
10034SOL    HW231002   2.591   0.832   3.850
10035SOL     OW31003   5.539   3.884   1.090
10035SOL    HW131004   5.495   3.945   1.024
10035SOL    HW231005   5.637   3.903   1.093
10036SOL     OW31006   6.597   1.006   0.628
10036SOL    HW131007   6.501   1.036   0.624
10036SOL    HW231008   6.652   1.063   0.568
10037SOL     OW31009   6.457   0.235   6.542
10037SOL    HW131010   6.519   0.223   6.464
10037SOL    HW231011   6.401   0.153   6.553
10038SOL     OW31012   4.314   6.733   6.299
10038SOL    HW131013   4.399   6.703   6.342
10038SOL    HW231014   4.261   6.653   6.270
10039SOL     OW31015   5.039   6.260   5.009
10039SOL    HW131016   4.977   6.335   5.035
10039SOL    HW231017   4.987   6.189   4.962
10040SOL     OW31018   4.698   6.300   6.880
10040SOL    HW131019   4.634   6.259   6.946
10040SOL    HW231020   4.654   6.307   6.791
10041SOL     OW31021   5.942   5.465   5.426
10041SOL    HW131022   5.908   5.558   5.415
10041SOL    HW231023   5.956   5.424   5.337
10042SOL     OW31024   0.729   0.814   5.201
10042SOL    HW131025   0.768   0.731   5.241
10042SOL    HW231026   0.658   0.788   5.136
10043SOL     OW31027   0.487   0.080   3.152
10043SOL    HW131028   0.446   0.042   3.235
10043SOL    HW231029   0.478   0.179   3.152
10044SOL     OW31030   2.700   1.505   4.047
10044SOL    HW131031   2.739   1.420   4.082
10044SOL    HW231032   2.667   1.560   4.124
10045SOL     OW31033   5.331   0.157   4.307
10045SOL    HW131034   5.281   0.233   4.265
10045SOL    HW231035   5.419   0.190   4.342
10046SOL     OW31036   0.608   1.713   1.785
10046SOL    HW131037   0.517   1.735   1.818
10046SOL    HW231038   0.670   1.790   1.801
10047SOL     OW31039   6.136   3.064   5.113
10047SOL    HW131040   6.215   3.089   5.169
10047SOL    HW231041   6.166   3.005   5.038
10048SOL     OW31042   3.677   1.611   2.094
10048SOL    HW131043   3.579   1.622   2.112
10048SOL    HW231044   3.707   1.680   2.028
10049SOL     OW31045   0.708   0.807   6.439
10049SOL    HW131046   0.799   0.776   6.412
10049SOL    HW231047   0.717   0.885   6.501
10050SOL     OW31048   6.131   2.392   5.078
10050SOL    HW131049   6.220   2.412   5.118
10050SOL    HW231050   6.063   2.458   5.111
10051SOL     OW31051   6.536   2.623   4.947
10051SOL    HW131052   6.501   2.684   5.018
10051SOL    HW231053   6.597   2.556   4.987
10052SOL     OW31054   1.927   2.440   2.329
10052SOL    HW131055   1.847   2.405   2.377
10052SOL    HW231056   1.900   2.513   2.267
10053SOL     OW31057   3.706   5.108   1.840
10053SOL    HW131058   3.639   5.075   1.907
10053SOL    HW231059   3.768   5.034   1.816
10054SOL     OW31060   4.190   6.585   5.867
10054SOL    HW131061   4.132   6.525   5.923
10054SOL    HW231062   4.283   6.582   5.902
10055SOL     OW31063   6.240   2.265   5.394
10055SOL    HW131064   6.291   2.290   5.475
10055SOL    HW231065   6.291   2.291   5.312
10056SOL     OW31066   6.110   5.307   0.951
10056SOL    HW131067   6.060   5.359   1.020
10056SOL    HW231068   6.087   5.341   0.860
10057SOL     OW31069   3.759   0.981   4.302
10057SOL    HW131070   3.698   1.057   4.279
10057SOL    HW231071   3.798   0.996   4.393
10058SOL     OW31072   0.287   3.835   4.235
10058SOL    HW131073   0.316   3.855   4.142
10058SOL    HW231074   0.366   3.809   4.291
10059SOL     OW31075   4.867   6.856   0.800
10059SOL    HW131076   4.815   6.893   0.723
10059SOL    HW231077   4.926   6.927   0.837
10060SOL     OW31078   2.581   1.286   1.920
10060SOL    HW131079   2.509   1.353   1.904
10060SOL    HW231080   2.633   1.271   1.836
10061SOL     OW31081   4.740   1.499   4.031
10061SOL    HW131082   4.758   1.401   4.045
10061SOL    HW231083   4.722   1.542   4.119
10062SOL     OW31084   6.318   6.736   4.978
10062SOL    HW131085   6.357   6.666   4.917
10062SOL    HW231086   6.232   6.768   4.940
10063SOL     OW31087   1.872   1.631   3.061
10063SOL    HW131088   1.904   1.685   3.139
10063SOL    HW231089   1.805   1.684   3.009
10064SOL     OW31090   5.907   5.539   6.052
10064SOL    HW131091   5.943   5.626   6.086
10064SOL    HW231092   5.981   5.485   6.014
10065SOL     OW31093   2.460   0.705   2.042
10065SOL    HW131094   2.487   0.798   2.018
10065SOL    HW231095   2.398   0.669   1.973
10066SOL     OW31096   1.776   1.549   4.358
10066SOL    HW131097   1.697   1.589   4.312
10066SOL    HW231098   1.813   1.614   4.424
10067SOL     OW31099   5.598   3.946   5.864
10067SOL    HW131100   5.618   3.899   5.950
10067SOL    HW231101   5.500   3.957   5.854
10068SOL     OW31102   5.275   3.148   3.846
10068SOL    HW131103   5.326   3.178   3.926
10068SOL    HW231104   5.338   3.109   3.779
10069SOL     OW31105   1.799   5.571   3.728
10069SOL    HW131106   1.749   5.486   3.748
10069SOL    HW231107   1.813   5.577   3.629
10070SOL     OW31108   0.036   0.457   4.652
10070SOL    HW131109   6.955   0.456   4.651
10070SOL    HW231110   0.070   0.502   4.570
10071SOL     OW31111   4.901   5.302   4.107
10071SOL    HW131112   4.901   5.289   4.206
10071SOL    HW231113   4.871   5.394   4.085
10072SOL     OW31114   1.040   5.949   4.314
10072SOL    HW131115   1.140   5.947   4.321
10072SOL    HW231116   1.001   5.882   4.376
10073SOL     OW31117   6.336   4.115   4.504
10073SOL    HW131118   6.249   4.125   4.455
10073SOL    HW231119   6.405   4.076   4.443
10074SOL     OW31120   0.609   0.576   5.345
10074SOL    HW131121   0.671   0.649   5.374
10074SOL    HW231122   0.520   0.590   5.388
10075SOL     OW31123   1.531   2.168   2.385
10075SOL    HW131124   1.608   2.104   2.382
10075SOL    HW231125   1.562   2.255   2.423
10076SOL     OW31126   5.654   0.509   3.320
10076SOL    HW131127   5.609   0.541   3.237
10076SOL    HW231128   5.693   0.587   3.369
10077SOL     OW31129   3.359   2.351   6.829
10077SOL    HW131130   3.427   2.283   6.803
10077SOL    HW231131   3.340   2.342   6.927
10078SOL     OW31132   6.905   6.222   4.360
10078SOL    HW131133   6.990   6.227   4.413
10078SOL    HW231134   6.828   6.210   4.422
10079SOL     OW31135   0.755   3.387   2.039
10079SOL    HW131136   0.750   3.298   2.084
10079SOL    HW231137   0.843   3.396   1.992
10080SOL     OW31138   3.185   1.795   6.343
10080SOL    HW131139   3.117   1.844   6.398
10080SOL    HW231140   3.188   1.835   6.251
10081SOL     OW31141   6.846   0.581   7.013
10081SOL    HW131142   6.857   0.528   6.929
10081SOL    HW231143   6.935   0.604   0.032
10082SOL     OW31144   7.003   3.702   2.328
10082SOL    HW131145   0.077   3.670   2.346
10082SOL    HW231146   6.972   3.758   2.405
10083SOL     OW31147   5.360   0.769   2.900
10083SOL    HW131148   5.376   0.685   2.952
10083SOL    HW231149   5.444   0.793   2.850
10084SOL     OW31150   3.691   0.850   5.770
10084SOL    HW131151   3.765   0.783   5.780
10084SOL    HW231152   3.608   0.803   5.740
10085SOL     OW31153   0.377   5.610   2.314
10085SOL    HW131154   0.316   5.592   2.237
10085SOL    HW231155   0.338   5.682   2.371
10086SOL     OW31156   6.280   4.930   1.944
10086SOL    HW131157   6.269   5.000   2.015
10086SOL    HW231158   6.191   4.902   1.910
10087SOL     OW31159   0.561   6.706   4.190
10087SOL    HW131160   0.600   6.751   4.271
10087SOL    HW231161   0.505   6.629   4.220
10088SOL     OW31162   6.815   6.898   6.891
10088SOL    HW131163   6.896   6.947   6.857
10088SOL    HW231164   6.734   6.931   6.843
10089SOL     OW31165   2.420   2.627   3.143
10089SOL    HW131166   2.411   2.651   3.046
10089SOL    HW231167   2.385   2.535   3.158
10090SOL     OW31168   1.003   4.559   0.967
10090SOL    HW131169   0.945   4.599   1.038
10090SOL    HW231170   1.094   4.600   0.972
10091SOL     OW31171   1.236   3.282   4.925
10091SOL    HW131172   1.266   3.375   4.941
10091SOL    HW231173   1.314   3.219   4.934
10092SOL     OW31174   2.158   3.397   5.658
10092SOL    HW131175   2.071   3.370   5.616
10092SOL    HW231176   2.220   3.431   5.588
10093SOL     OW31177   1.238   4.110   4.772
10093SOL    HW131178   1.160   4.061   4.812
10093SOL    HW231179   1.207   4.201   4.742
10094SOL     OW31180   2.596   6.100   1.620
10094SOL    HW131181   2.544   6.022   1.654
10094SOL    HW231182   2.552   6.135   1.537
10095SOL     OW31183   6.368   2.084   5.703
10095SOL    HW131184   6.295   2.106   5.767
10095SOL    HW231185   6.413   2.169   5.674
10096SOL     OW31186   5.922   4.952   2.232
10096SOL    HW131187   5.944   4.866   2.278
10096SOL    HW231188   5.825   4.973   2.244
10097SOL     OW31189   1.286   1.046   6.944
10097SOL    HW131190   1.208   1.098   6.909
10097SOL    HW231191   1.371   1.085   6.908
10098SOL     OW31192   2.061   0.320   5.459
10098SOL    HW131193   1.986   0.372   5.420
10098SOL    HW231194   2.148   0.362   5.432
10099SOL     OW31195   6.951   5.182   6.591
10099SOL    HW131196   6.911   5.274   6.599
10099SOL    HW231197   0.010   5.175   6.652
10100SOL     OW31198   5.555   0.275   4.400
10100SOL    HW131199   5.581   0.198   4.458
10100SOL    HW231200   5.516   0.348   4.456
10101SOL     OW31201   5.623   4.393   1.592
10101SOL    HW131202   5.575   4.323   1.540
10101SOL    HW231203   5.609   4.379   1.690
10102SOL     OW31204   1.565   0.852   2.879
10102SOL    HW131205   1.559   0.752   2.886
10102SOL    HW231206   1.657   0.881   2.905
10103SOL     OW31207   2.652   1.239   5.403
10103SOL    HW131208   2.702   1.323   5.427
10103SOL    HW231209   2.565   1.237   5.452
10104SOL     OW31210   1.711   2.962   4.894
10104SOL    HW131211   1.737   2.901   4.819
10104SOL    HW231212   1.770   3.043   4.893
10105SOL     OW31213   1.107   1.051   0.150
10105SOL    HW131214   1.048   1.130   0.135
10105SOL    HW231215   1.161   1.033   0.068
10106SOL     OW31216   4.497   5.438   0.907
10106SOL    HW131217   4.524   5.365   0.969
10106SOL    HW231218   4.493   5.525   0.957
10107SOL     OW31219   0.092   1.507   0.365
10107SOL    HW131220   0.035   1.578   0.323
10107SOL    HW231221   0.179   1.547   0.394
10108SOL     OW31222   6.061   5.558   6.905
10108SOL    HW131223   6.015   5.551   6.816
10108SOL    HW231224   6.032   5.643   6.951
10109SOL     OW31225   3.678   6.373   2.020
10109SOL    HW131226   3.689   6.280   1.985
10109SOL    HW231227   3.587   6.382   2.062
10110SOL     OW31228   4.576   6.725   4.646
10110SOL    HW131229   4.646   6.796   4.655
10110SOL    HW231230   4.488   6.767   4.624
10111SOL     OW31231   6.363   2.922   4.070
10111SOL    HW131232   6.335   2.931   4.166
10111SOL    HW231233   6.281   2.915   4.012
10112SOL     OW31234   5.491   4.220   4.466
10112SOL    HW131235   5.573   4.277   4.457
10112SOL    HW231236   5.481   4.191   4.562
10113SOL     OW31237   4.472   0.931   5.772
10113SOL    HW131238   4.484   1.026   5.798
10113SOL    HW231239   4.380   0.901   5.799
10114SOL     OW31240   5.243   0.899   1.044
10114SOL    HW131241   5.251   0.817   0.988
10114SOL    HW231242   5.267   0.980   0.990
10115SOL     OW31243   3.192   2.186   3.602
10115SOL    HW131244   3.282   2.222   3.579
10115SOL    HW231245   3.135   2.184   3.520
10116SOL     OW31246   0.654   6.602   0.068
10116SOL    HW131247   0.738   6.642   0.033
10116SOL    HW231248   0.673   6.511   0.105
10117SOL     OW31249   6.789   0.028   5.229
10117SOL    HW131250   6.783   0.044   5.130
10117SOL    HW231251   6.743   0.103   5.277
10118SOL     OW31252   1.064   5.412   3.024
10118SOL    HW131253   1.071   5.494   2.967
10118SOL    HW231254   1.105   5.430   3.113
10119SOL     OW31255   0.936   6.410   4.685
10119SOL    HW131256   0.877   6.330   4.685
10119SOL    HW231257   1.021   6.389   4.637
10120SOL     OW31258   1.188   3.832   4.303
10120SOL    HW131259   1.277   3.796   4.276
10120SOL    HW231260   1.197   3.880   4.390
10121SOL     OW31261   6.474   4.966   5.757
10121SOL    HW131262   6.495   4.880   5.804
10121SOL    HW231263   6.457   4.948   5.660
10122SOL     OW31264   5.406   3.081   0.820
10122SOL    HW131265   5.447   3.058   0.909
10122SOL    HW231266   5.461   3.151   0.775
10123SOL     OW31267   6.534   6.449   0.077
10123SOL    HW131268   6.536   6.445   6.996
10123SOL    HW231269   6.512   6.542   0.107
10124SOL     OW31270   1.695   3.202   6.845
10124SOL    HW131271   1.621   3.268   6.859
10124SOL    HW231272   1.760   3.208   6.920
10125SOL     OW31273   1.346   0.528   2.733
10125SOL    HW131274   1.322   0.616   2.692
10125SOL    HW231275   1.437   0.536   2.775
10126SOL     OW31276   0.228   0.144   6.764
10126SOL    HW131277   0.178   0.108   6.685
10126SOL    HW231278   0.310   0.191   6.731
10127SOL     OW31279   2.903   4.861   5.386
10127SOL    HW131280   2.844   4.814   5.452
10127SOL    HW231281   2.862   4.853   5.295
10128SOL     OW31282   0.672   1.639   1.379
10128SOL    HW131283   0.588   1.602   1.339
10128SOL    HW231284   0.680   1.736   1.357
10129SOL     OW31285   5.135   3.051   4.089
10129SOL    HW131286   5.184   3.013   4.010
10129SOL    HW231287   5.181   3.135   4.119
10130SOL     OW31288   2.078   4.131   2.407
10130SOL    HW131289   2.161   4.161   2.358
10130SOL    HW231290   2.030   4.211   2.442
10131SOL     OW31291   0.493   0.664   2.986
10131SOL    HW131292   0.547   0.748   2.987
10131SOL    HW231293   0.553   0.585   2.998
10132SOL     OW31294   2.816   6.733   3.996
10132SOL    HW131295   2.903   6.690   3.972
10132SOL    HW231296   2.742   6.667   3.984
10133SOL     OW31297   4.942   6.223   1.621
10133SOL    HW131298   4.853   6.256   1.655
10133SOL    HW231299   5.003   6.301   1.609
10134SOL     OW31300   6.678   0.051   4.095
10134SOL    HW131301   6.746   0.051   4.022
10134SOL    HW231302   6.708   0.114   4.168
10135SOL     OW31303   5.357   2.990   3.264
10135SOL    HW131304   5.365   2.908   3.320
10135SOL    HW231305   5.347   2.963   3.168
10136SOL     OW31306   5.593   0.574   3.067
10136SOL    HW131307   5.624   0.505   3.002
10136SOL    HW231308   5.649   0.657   3.057
10137SOL     OW31309   5.996   4.618   4.122
10137SOL    HW131310   6.092   4.608   4.097
10137SOL    HW231311   5.942   4.546   4.079
10138SOL     OW31312   5.238   2.411   0.728
10138SOL    HW131313   5.242   2.314   0.704
10138SOL    HW231314   5.144   2.444   0.720
10139SOL     OW31315   3.576   3.977   3.296
10139SOL    HW131316   3.620   3.889   3.276
10139SOL    HW231317   3.512   3.966   3.371
10140SOL     OW31318   6.505   6.146   5.973
10140SOL    HW131319   6.471   6.208   5.903
10140SOL    HW231320   6.428   6.111   6.026
10141SOL     OW31321   3.259   1.339   4.034
10141SOL    HW131322   3.220   1.276   4.101
10141SOL    HW231323   3.208   1.425   4.037
10142SOL     OW31324   6.394   6.545   4.796
10142SOL    HW131325   6.352   6.467   4.843
10142SOL    HW231326   6.468   6.512   4.737
10143SOL     OW31327   4.514   0.648   0.409
10143SOL    HW131328   4.596   0.673   0.460
10143SOL    HW231329   4.539   0.614   0.318
10144SOL     OW31330   4.248   6.919   6.093
10144SOL    HW131331   4.279   6.852   6.161
10144SOL    HW231332   4.319   6.932   6.024
10145SOL     OW31333   3.376   5.730   5.624
10145SOL    HW131334   3.283   5.750   5.596
10145SOL    HW231335   3.440   5.767   5.556
10146SOL     OW31336   3.729   4.897   4.358
10146SOL    HW131337   3.704   4.828   4.426
10146SOL    HW231338   3.827   4.916   4.364
10147SOL     OW31339   5.446   4.132   4.727
10147SOL    HW131340   5.365   4.092   4.684
10147SOL    HW231341   5.418   4.208   4.787
10148SOL     OW31342   5.736   5.447   6.856
10148SOL    HW131343   5.697   5.518   6.914
10148SOL    HW231344   5.796   5.488   6.788
10149SOL     OW31345   5.775   1.833   1.081
10149SOL    HW131346   5.705   1.810   1.148
10149SOL    HW231347   5.817   1.750   1.046
10150SOL     OW31348   4.184   3.496   0.801
10150SOL    HW131349   4.273   3.450   0.792
10150SOL    HW231350   4.161   3.504   0.898
10151SOL     OW31351   1.093   6.625   0.180
10151SOL    HW131352   1.136   6.554   0.125
10151SOL    HW231353   1.134   6.714   0.157
10152SOL     OW31354   0.743   6.543   5.056
10152SOL    HW131355   0.833   6.499   5.057
10152SOL    HW231356   0.675   6.479   5.019
10153SOL     OW31357   5.106   6.036   3.772
10153SOL    HW131358   5.128   6.116   3.828
10153SOL    HW231359   5.190   5.986   3.750
10154SOL     OW31360   5.705   7.013   5.098
10154SOL    HW131361   5.730   6.916   5.103
10154SOL    HW231362   5.702   0.032   5.191
10155SOL     OW31363   3.473   1.859   5.680
10155SOL    HW131364   3.416   1.785   5.716
10155SOL    HW231365   3.436   1.891   5.593
10156SOL     OW31366   6.028   1.123   2.030
10156SOL    HW131367   6.122   1.154   2.012
10156SOL    HW231368   6.012   1.122   2.129
10157SOL     OW31369   6.028   2.839   6.454
10157SOL    HW131370   6.004   2.745   6.476
10157SOL    HW231371   5.955   2.879   6.398
10158SOL     OW31372   5.640   3.531   0.750
10158SOL    HW131373   5.675   3.517   0.843
10158SOL    HW231374   5.548   3.570   0.754
10159SOL     OW31375   2.830   3.030   6.263
10159SOL    HW131376   2.838   3.040   6.362
10159SOL    HW231377   2.873   2.945   6.234
10160SOL     OW31378   2.134   2.993   2.205
10160SOL    HW131379   2.162   3.087   2.221
10160SOL    HW231380   2.088   2.986   2.117
10161SOL     OW31381   3.436   3.389   6.538
10161SOL    HW131382   3.405   3.445   6.615
10161SOL    HW231383   3.374   3.312   6.526
10162SOL     OW31384   3.457   4.400   0.225
10162SOL    HW131385   3.424   4.316   0.181
10162SOL    HW231386   3.394   4.426   0.298
10163SOL     OW31387   5.406   5.351   5.713
10163SOL    HW131388   5.353   5.376   5.632
10163SOL    HW231389   5.482   5.291   5.686
10164SOL     OW31390   5.549   3.007   4.681
10164SOL    HW131391   5.610   3.018   4.759
10164SOL    HW231392   5.465   2.962   4.710
10165SOL     OW31393   0.858   1.657   3.195
10165SOL    HW131394   0.941   1.710   3.211
10165SOL    HW231395   0.798   1.664   3.274
10166SOL     OW31396   3.700   1.118   1.863
10166SOL    HW131397   3.628   1.171   1.818
10166SOL    HW231398   3.751   1.177   1.926
10167SOL     OW31399   2.715   2.505   6.740
10167SOL    HW131400   2.688   2.496   6.836
10167SOL    HW231401   2.651   2.564   6.692
10168SOL     OW31402   5.999   3.974   5.557
10168SOL    HW131403   6.017   3.968   5.459
10168SOL    HW231404   5.907   4.011   5.572
10169SOL     OW31405   6.352   3.797   3.332
10169SOL    HW131406   6.412   3.842   3.398
10169SOL    HW231407   6.257   3.809   3.362
10170SOL     OW31408   1.019   5.062   6.066
10170SOL    HW131409   0.925   5.093   6.069
10170SOL    HW231410   1.062   5.089   5.980
10171SOL     OW31411   6.611   3.018   5.783
10171SOL    HW131412   6.687   3.050   5.726
10171SOL    HW231413   6.636   3.027   5.879
10172SOL     OW31414   6.625   6.440   4.664
10172SOL    HW131415   6.692   6.478   4.601
10172SOL    HW231416   6.626   6.340   4.658
10173SOL     OW31417   0.585   2.374   1.051
10173SOL    HW131418   0.648   2.310   1.095
10173SOL    HW231419   0.623   2.466   1.054
10174SOL     OW31420   5.650   5.221   1.944
10174SOL    HW131421   5.740   5.265   1.942
10174SOL    HW231422   5.662   5.122   1.948
10175SOL     OW31423   5.732   2.399   4.261
10175SOL    HW131424   5.815   2.423   4.211
10175SOL    HW231425   5.725   2.299   4.268
10176SOL     OW31426   1.039   3.352   5.853
10176SOL    HW131427   1.078   3.423   5.794
10176SOL    HW231428   1.039   3.384   5.948
10177SOL     OW31429   2.120   0.457   0.387
10177SOL    HW131430   2.125   0.376   0.445
10177SOL    HW231431   2.186   0.525   0.420
10178SOL     OW31432   6.761   1.305   5.232
10178SOL    HW131433   6.688   1.308   5.163
10178SOL    HW231434   6.748   1.378   5.298
10179SOL     OW31435   0.682   1.966   6.265
10179SOL    HW131436   0.662   2.009   6.177
10179SOL    HW231437   0.601   1.968   6.323
10180SOL     OW31438   4.031   0.492   6.867
10180SOL    HW131439   4.022   0.394   6.850
10180SOL    HW231440   3.999   0.513   6.960
10181SOL     OW31441   5.529   2.654   2.190
10181SOL    HW131442   5.488   2.658   2.281
10181SOL    HW231443   5.489   2.725   2.132
10182SOL     OW31444   4.303   0.879   1.659
10182SOL    HW131445   4.247   0.957   1.632
10182SOL    HW231446   4.302   0.810   1.587
10183SOL     OW31447   7.009   2.269   6.158
10183SOL    HW131448   0.029   2.350   6.114
10183SOL    HW231449   0.025   2.260   6.251
10184SOL     OW31450   3.584   0.913   6.615
10184SOL    HW131451   3.519   0.851   6.572
10184SOL    HW231452   3.677   0.880   6.598
10185SOL     OW31453   5.795   5.795   1.928
10185SOL    HW131454   5.797   5.856   1.849
10185SOL    HW231455   5.867   5.726   1.919
10186SOL     OW31456   6.236   4.096   3.445
10186SOL    HW131457   6.172   4.044   3.388
10186SOL    HW231458   6.237   4.057   3.537
10187SOL     OW31459   0.629   3.218   1.020
10187SOL    HW131460   0.535   3.189   1.036
10187SOL    HW231461   0.634   3.268   0.933
10188SOL     OW31462   3.432   5.892   0.947
10188SOL    HW131463   3.531   5.903   0.941
10188SOL    HW231464   3.391   5.974   0.988
10189SOL     OW31465   0.980   0.795   6.325
10189SOL    HW131466   1.064   0.846   6.305
10189SOL    HW231467   0.976   0.715   6.266
10190SOL     OW31468   4.848   3.442   1.933
10190SOL    HW131469   4.753   3.444   1.902
10190SOL    HW231470   4.864   3.358   1.986
10191SOL     OW31471   5.174   4.998   5.379
10191SOL    HW131472   5.078   5.008   5.353
10191SOL    HW231473   5.189   4.908   5.418
10192SOL     OW31474   4.561   1.202   5.702
10192SOL    HW131475   4.537   1.260   5.779
10192SOL    HW231476   4.606   1.256   5.632
10193SOL     OW31477   4.119   3.439   2.004
10193SOL    HW131478   4.133   3.341   2.021
10193SOL    HW231479   4.154   3.492   2.081
10194SOL     OW31480   5.804   5.488   4.669
10194SOL    HW131481   5.745   5.431   4.726
10194SOL    HW231482   5.800   5.583   4.699
10195SOL     OW31483   6.338   5.428   1.069
10195SOL    HW131484   6.318   5.366   0.993
10195SOL    HW231485   6.273   5.412   1.143
10196SOL     OW31486   4.027   1.894   3.972
10196SOL    HW131487   4.018   1.799   4.001
10196SOL    HW231488   4.020   1.954   4.052
10197SOL     OW31489   6.411   1.956   5.448
10197SOL    HW131490   6.348   1.997   5.514
10197SOL    HW231491   6.428   2.020   5.373
10198SOL     OW31492   3.046   0.525   2.029
10198SOL    HW131493   3.004   0.528   2.120
10198SOL    HW231494   3.100   0.607   2.014
10199SOL     OW31495   2.433   2.361   6.895
10199SOL    HW131496   2.482   2.281   6.858
10199SOL    HW231497   2.490   2.407   6.962
10200SOL     OW31498   5.263   2.172   0.627
10200SOL    HW131499   5.302   2.181   0.535
10200SOL    HW231500   5.288   2.083   0.665
10201SOL     OW31501   1.615   4.153   0.745
10201SOL    HW131502   1.642   4.244   0.779
10201SOL    HW231503   1.519   4.155   0.718
10202SOL     OW31504   3.765   3.192   0.863
10202SOL    HW131505   3.853   3.182   0.817
10202SOL    HW231506   3.723   3.278   0.835
10203SOL     OW31507   6.093   3.054   3.700
10203SOL    HW131508   6.123   2.998   3.623
10203SOL    HW231509   6.171   3.104   3.738
10204SOL     OW31510   5.120   6.548   6.898
10204SOL    HW131511   5.138   6.579   6.991
10204SOL    HW231512   5.185   6.588   6.835
10205SOL     OW31513   2.178   0.983   1.556
10205SOL    HW131514   2.110   1.051   1.583
10205SOL    HW231515   2.142   0.891   1.573
10206SOL     OW31516   0.540   1.050   0.112
10206SOL    HW131517   0.544   0.966   0.058
10206SOL    HW231518   0.624   1.059   0.165
10207SOL     OW31519   1.156   1.829   6.521
10207SOL    HW131520   1.197   1.740   6.506
10207SOL    HW231521   1.059   1.826   6.497
10208SOL     OW31522   5.652   4.245   3.679
10208SOL    HW131523   5.651   4.157   3.632
10208SOL    HW231524   5.744   4.264   3.713
10209SOL     OW31525   0.140   0.344   6.949
10209SOL    HW131526   0.181   0.257   6.923
10209SOL    HW231527   0.213   0.413   6.959
10210SOL     OW31528   4.797   6.281   2.097
10210SOL    HW131529   4.729   6.208   2.085
10210SOL    HW231530   4.754   6.370   2.078
10211SOL     OW31531   4.376   6.469   4.267
10211SOL    HW131532   4.367   6.566   4.289
10211SOL    HW231533   4.303   6.441   4.205
10212SOL     OW31534   1.107   0.197   5.163
10212SOL    HW131535   1.162   0.189   5.246
10212SOL    HW231536   1.161   0.168   5.084
10213SOL     OW31537   4.985   3.292   1.002
10213SOL    HW131538   4.939   3.328   0.921
10213SOL    HW231539   5.017   3.199   0.983
10214SOL     OW31540   1.043   1.362   2.428
10214SOL    HW131541   1.059   1.458   2.405
10214SOL    HW231542   1.025   1.310   2.344
10215SOL     OW31543   4.034   3.369   3.420
10215SOL    HW131544   4.029   3.400   3.515
10215SOL    HW231545   4.071   3.442   3.363
10216SOL     OW31546   0.386   0.637   0.684
10216SOL    HW131547   0.296   0.593   0.690
10216SOL    HW231548   0.381   0.730   0.718
10217SOL     OW31549   3.033   1.900   3.399
10217SOL    HW131550   3.101   1.870   3.467
10217SOL    HW231551   3.074   1.897   3.308
10218SOL     OW31552   1.396   1.444   2.043
10218SOL    HW131553   1.440   1.531   2.064
10218SOL    HW231554   1.453   1.392   1.980
10219SOL     OW31555   7.000   2.681   3.171
10219SOL    HW131556   6.932   2.739   3.216
10219SOL    HW231557   7.000   2.590   3.213
10220SOL     OW31558   4.203   2.375   1.231
10220SOL    HW131559   4.234   2.283   1.206
10220SOL    HW231560   4.130   2.368   1.298
10221SOL     OW31561   0.614   5.234   3.242
10221SOL    HW131562   0.651   5.327   3.249
10221SOL    HW231563   0.666   5.183   3.174
10222SOL     OW31564   3.155   3.077   6.093
10222SOL    HW131565   3.200   3.080   6.183
10222SOL    HW231566   3.198   3.143   6.032
10223SOL     OW31567   0.420   4.628   1.534
10223SOL    HW131568   0.483   4.706   1.540
10223SOL    HW231569   0.418   4.580   1.622
10224SOL     OW31570   6.833   3.093   3.969
10224SOL    HW131571   6.885   3.160   4.023
10224SOL    HW231572   6.893   3.016   3.946
10225SOL     OW31573   1.597   4.672   5.768
10225SOL    HW131574   1.642   4.584   5.753
10225SOL    HW231575   1.588   4.720   5.681
10226SOL     OW31576   2.676   0.465   0.013
10226SOL    HW131577   2.655   0.563   0.013
10226SOL    HW231578   2.773   0.451   7.013
10227SOL     OW31579   5.104   4.753   0.358
10227SOL    HW131580   5.047   4.698   0.418
10227SOL    HW231581   5.132   4.699   0.279
10228SOL     OW31582   6.519   6.917   1.848
10228SOL    HW131583   6.530   6.955   1.940
10228SOL    HW231584   6.609   6.906   1.805
10229SOL     OW31585   1.147   2.983   5.391
10229SOL    HW131586   1.119   3.075   5.362
10229SOL    HW231587   1.120   2.917   5.321
10230SOL     OW31588   6.285   5.898   2.998
10230SOL    HW131589   6.263   5.945   3.084
10230SOL    HW231590   6.201   5.885   2.945
10231SOL     OW31591   0.667   5.884   5.022
10231SOL    HW131592   0.694   5.809   4.961
10231SOL    HW231593   0.675   5.971   4.974
10232SOL     OW31594   2.756   0.971   3.439
10232SOL    HW131595   2.741   0.981   3.341
10232SOL    HW231596   2.821   1.041   3.470
10233SOL     OW31597   3.779   3.951   5.128
10233SOL    HW131598   3.877   3.949   5.148
10233SOL    HW231599   3.745   4.044   5.137
10234SOL     OW31600   6.503   1.194   1.107
10234SOL    HW131601   6.564   1.251   1.162
10234SOL    HW231602   6.496   1.103   1.147
10235SOL     OW31603   1.998   2.471   1.815
10235SOL    HW131604   1.934   2.501   1.745
10235SOL    HW231605   2.091   2.496   1.788
10236SOL     OW31606   2.712   6.473   0.281
10236SOL    HW131607   2.775   6.414   0.332
10236SOL    HW231608   2.756   6.504   0.197
10237SOL     OW31609   6.782   2.989   0.049
10237SOL    HW131610   6.802   2.999   6.970
10237SOL    HW231611   6.756   3.078   0.086
10238SOL     OW31612   4.437   4.250   1.488
10238SOL    HW131613   4.441   4.174   1.553
10238SOL    HW231614   4.355   4.305   1.507
10239SOL     OW31615   1.472   2.672   4.741
10239SOL    HW131616   1.553   2.650   4.687
10239SOL    HW231617   1.411   2.730   4.688
10240SOL     OW31618   2.362   5.774   2.433
10240SOL    HW131619   2.342   5.811   2.342
10240SOL    HW231620   2.398   5.681   2.424
10241SOL     OW31621   5.515   0.844   2.186
10241SOL    HW131622   5.416   0.842   2.193
10241SOL    HW231623   5.556   0.835   2.277
10242SOL     OW31624   6.549   1.773   1.067
10242SOL    HW131625   6.568   1.835   0.991
10242SOL    HW231626   6.606   1.692   1.059
10243SOL     OW31627   2.377   4.022   1.695
10243SOL    HW131628   2.323   3.971   1.762
10243SOL    HW231629   2.366   4.120   1.712
10244SOL     OW31630   2.576   3.996   0.621
10244SOL    HW131631   2.618   3.926   0.563
10244SOL    HW231632   2.565   3.960   0.714
10245SOL     OW31633   3.821   3.845   1.224
10245SOL    HW131634   3.731   3.864   1.185
10245SOL    HW231635   3.811   3.794   1.309
10246SOL     OW31636   3.126   3.978   4.151
10246SOL    HW131637   3.042   4.018   4.115
10246SOL    HW231638   3.143   3.890   4.107
10247SOL     OW31639   0.172   3.669   6.276
10247SOL    HW131640   0.261   3.698   6.239
10247SOL    HW231641   0.111   3.748   6.282
10248SOL     OW31642   0.898   0.104   3.206
10248SOL    HW131643   0.828   0.175   3.215
10248SOL    HW231644   0.913   0.084   3.109
10249SOL     OW31645   3.074   5.735   6.581
10249SOL    HW131646   3.059   5.834   6.591
10249SOL    HW231647   2.996   5.694   6.535
10250SOL     OW31648   6.743   3.843   1.035
10250SOL    HW131649   6.723   3.923   0.977
10250SOL    HW231650   6.793   3.775   0.982
10251SOL     OW31651   1.958   1.639   4.140
10251SOL    HW131652   2.047   1.648   4.185
10251SOL    HW231653   1.894   1.594   4.203
10252SOL     OW31654   4.263   3.570   5.730
10252SOL    HW131655   4.278   3.559   5.828
10252SOL    HW231656   4.245   3.481   5.688
10253SOL     OW31657   2.704   6.352   0.612
10253SOL    HW131658   2.674   6.257   0.604
10253SOL    HW231659   2.784   6.368   0.555
10254SOL     OW31660   4.646   1.712   5.269
10254SOL    HW131661   4.550   1.732   5.291
10254SOL    HW231662   4.675   1.768   5.192
10255SOL     OW31663   2.596   6.875   0.789
10255SOL    HW131664   2.678   6.826   0.758
10255SOL    HW231665   2.601   6.970   0.759
10256SOL     OW31666   4.085   1.063   2.571
10256SOL    HW131667   4.180   1.045   2.597
10256SOL    HW231668   4.052   1.143   2.620
10257SOL     OW31669   1.117   5.546   4.174
10257SOL    HW131670   1.163   5.635   4.171
10257SOL    HW231671   1.020   5.557   4.155
10258SOL     OW31672   3.940   1.969   2.850
10258SOL    HW131673   4.024   1.973   2.905
10258SOL    HW231674   3.909   1.875   2.843
10259SOL     OW31675   0.859   4.347   3.417
10259SOL    HW131676   0.805   4.403   3.480
10259SOL    HW231677   0.856   4.251   3.445
10260SOL     OW31678   0.680   1.494   3.501
10260SOL    HW131679   0.691   1.512   3.599
10260SOL    HW231680   0.599   1.542   3.466
10261SOL     OW31681   6.758   4.685   0.544
10261SOL    HW131682   6.794   4.603   0.587
10261SOL    HW231683   6.790   4.691   0.450
10262SOL     OW31684   3.161   6.580   6.549
10262SOL    HW131685   3.144   6.516   6.474
10262SOL    HW231686   3.087   6.648   6.552
10263SOL     OW31687   5.690   0.438   0.437
10263SOL    HW131688   5.647   0.527   0.419
10263SOL    HW231689   5.644   0.395   0.515
10264SOL     OW31690   6.636   5.723   6.631
10264SOL    HW131691   6.617   5.648   6.694
10264SOL    HW231692   6.557   5.737   6.571
10265SOL     OW31693   3.641   2.427   6.827
10265SOL    HW131694   3.658   2.407   6.923
10265SOL    HW231695   3.602   2.347   6.782
10266SOL     OW31696   3.803   3.517   3.065
10266SOL    HW131697   3.784   3.449   3.136
10266SOL    HW231698   3.901   3.517   3.045
10267SOL     OW31699   5.106   1.177   0.925
10267SOL    HW131700   5.149   1.241   0.987
10267SOL    HW231701   5.061   1.227   0.851
10268SOL     OW31702   5.925   6.616   2.228
10268SOL    HW131703   5.923   6.561   2.311
10268SOL    HW231704   5.832   6.644   2.204
10269SOL     OW31705   1.311   2.557   5.951
10269SOL    HW131706   1.401   2.576   5.991
10269SOL    HW231707   1.313   2.468   5.906
10270SOL     OW31708   3.339   5.297   2.724
10270SOL    HW131709   3.387   5.211   2.743
10270SOL    HW231710   3.298   5.331   2.809
10271SOL     OW31711   3.297   2.402   0.085
10271SOL    HW131712   3.216   2.460   0.080
10271SOL    HW231713   3.375   2.456   0.116
10272SOL     OW31714   1.240   1.018   4.405
10272SOL    HW131715   1.149   0.984   4.384
10272SOL    HW231716   1.233   1.107   4.451
10273SOL     OW31717   3.228   5.187   3.792
10273SOL    HW131718   3.216   5.273   3.843
10273SOL    HW231719   3.313   5.191   3.739
10274SOL     OW31720   1.211   4.656   5.983
10274SOL    HW131721   1.161   4.570   5.977
10274SOL    HW231722   1.148   4.733   5.974
10275SOL     OW31723   0.134   0.356   2.194
10275SOL    HW131724   0.117   0.398   2.283
10275SOL    HW231725   0.215   0.297   2.200
10276SOL     OW31726   4.879   5.738   5.815
10276SOL    HW131727   4.909   5.756   5.909
10276SOL    HW231728   4.803   5.674   5.816
10277SOL     OW31729   1.813   6.135   4.905
10277SOL    HW131730   1.879   6.125   4.830
10277SOL    HW231731   1.738   6.071   4.891
10278SOL     OW31732   1.094   1.384   3.549
10278SOL    HW131733   1.067   1.288   3.557
10278SOL    HW231734   1.085   1.413   3.454
10279SOL     OW31735   1.942   5.029   4.297
10279SOL    HW131736   1.856   4.977   4.297
10279SOL    HW231737   2.012   4.977   4.347
10280SOL     OW31738   6.259   2.946   6.575
10280SOL    HW131739   6.243   3.044   6.560
10280SOL    HW231740   6.183   2.894   6.537
10281SOL     OW31741   6.374   2.110   3.869
10281SOL    HW131742   6.441   2.083   3.939
10281SOL    HW231743   6.295   2.152   3.913
10282SOL     OW31744   5.855   3.302   3.597
10282SOL    HW131745   5.935   3.253   3.563
10282SOL    HW231746   5.879   3.353   3.679
10283SOL     OW31747   1.362   3.110   1.128
10283SOL    HW131748   1.400   3.093   1.219
10283SOL    HW231749   1.262   3.111   1.134
10284SOL     OW31750   6.176   1.945   4.881
10284SOL    HW131751   6.140   2.017   4.821
10284SOL    HW231752   6.108   1.923   4.951
10285SOL     OW31753   4.385   6.505   2.585
10285SOL    HW131754   4.365   6.538   2.493
10285SOL    HW231755   4.481   6.476   2.590
10286SOL     OW31756   3.958   0.522   4.087
10286SOL    HW131757   3.972   0.424   4.071
10286SOL    HW231758   3.867   0.548   4.054
10287SOL     OW31759   2.500   5.656   2.148
10287SOL    HW131760   2.443   5.609   2.216
10287SOL    HW231761   2.506   5.599   2.066
10288SOL     OW31762   4.541   6.861   3.573
10288SOL    HW131763   4.514   6.944   3.525
10288SOL    HW231764   4.460   6.814   3.608
10289SOL     OW31765   2.943   6.376   0.483
10289SOL    HW131766   3.000   6.341   0.558
10289SOL    HW231767   2.988   6.454   0.441
10290SOL     OW31768   3.226   2.962   2.923
10290SOL    HW131769   3.206   2.950   3.020
10290SOL    HW231770   3.149   3.008   2.879
10291SOL     OW31771   3.901   2.183   3.069
10291SOL    HW131772   3.870   2.120   2.998
10291SOL    HW231773   3.827   2.246   3.093
10292SOL     OW31774   1.081   2.202   5.227
10292SOL    HW131775   1.174   2.166   5.233
10292SOL    HW231776   1.025   2.161   5.298
10293SOL     OW31777   1.049   3.149   3.356
10293SOL    HW131778   1.011   3.226   3.305
10293SOL    HW231779   1.146   3.137   3.332
10294SOL     OW31780   4.561   1.515   2.972
10294SOL    HW131781   4.597   1.551   2.886
10294SOL    HW231782   4.492   1.446   2.953
10295SOL     OW31783   0.860   3.209   5.693
10295SOL    HW131784   0.933   3.263   5.735
10295SOL    HW231785   0.831   3.251   5.608
10296SOL     OW31786   5.121   1.743   6.103
10296SOL    HW131787   5.105   1.819   6.167
10296SOL    HW231788   5.107   1.775   6.009
10297SOL     OW31789   2.135   0.967   6.788
10297SOL    HW131790   2.126   0.872   6.817
10297SOL    HW231791   2.054   0.993   6.735
10298SOL     OW31792   2.088   4.425   0.911
10298SOL    HW131793   2.068   4.330   0.933
10298SOL    HW231794   2.094   4.479   0.995
10299SOL     OW31795   3.707   5.269   2.911
10299SOL    HW131796   3.619   5.226   2.888
10299SOL    HW231797   3.726   5.256   3.009
10300SOL     OW31798   1.341   4.030   1.771
10300SOL    HW131799   1.402   4.006   1.846
10300SOL    HW231800   1.336   4.130   1.763
10301SOL     OW31801   4.342   1.965   5.431
10301SOL    HW131802   4.290   1.939   5.513
10301SOL    HW231803   4.343   1.889   5.366
10302SOL     OW31804   2.261   5.923   4.733
10302SOL    HW131805   2.199   5.918   4.655
10302SOL    HW231806   2.234   5.999   4.792
10303SOL     OW31807   1.440   5.786   3.910
10303SOL    HW131808   1.397   5.698   3.886
10303SOL    HW231809   1.539   5.777   3.902
10304SOL     OW31810   5.557   0.413   1.251
10304SOL    HW131811   5.527   0.372   1.165
10304SOL    HW231812   5.588   0.506   1.235
10305SOL     OW31813   1.650   4.061   5.587
10305SOL    HW131814   1.699   3.976   5.567
10305SOL    HW231815   1.557   4.040   5.617
10306SOL     OW31816   5.273   5.733   0.322
10306SOL    HW131817   5.182   5.692   0.321
10306SOL    HW231818   5.297   5.764   0.229
10307SOL     OW31819   3.050   1.488   5.033
10307SOL    HW131820   2.965   1.439   5.013
10307SOL    HW231821   3.091   1.518   4.947
10308SOL     OW31822   1.900   4.012   2.624
10308SOL    HW131823   1.938   3.927   2.661
10308SOL    HW231824   1.937   4.028   2.533
10309SOL     OW31825   7.005   1.728   0.209
10309SOL    HW131826   6.930   1.685   0.159
10309SOL    HW231827   0.057   1.756   0.145
10310SOL     OW31828   3.104   3.665   0.169
10310SOL    HW131829   3.118   3.695   0.075
10310SOL    HW231830   3.190   3.627   0.205
10311SOL     OW31831   6.624   5.476   0.355
10311SOL    HW131832   6.549   5.409   0.352
10311SOL    HW231833   6.633   5.519   0.266
10312SOL     OW31834   4.196   6.334   2.370
10312SOL    HW131835   4.164   6.403   2.305
10312SOL    HW231836   4.189   6.370   2.463
10313SOL     OW31837   3.490   5.866   1.830
10313SOL    HW131838   3.450   5.802   1.764
10313SOL    HW231839   3.520   5.815   1.911
10314SOL     OW31840   6.769   0.554   0.246
10314SOL    HW131841   6.700   0.623   0.268
10314SOL    HW231842   6.806   0.572   0.155
10315SOL     OW31843   5.756   6.019   4.466
10315SOL    HW131844   5.850   6.028   4.499
10315SOL    HW231845   5.705   6.103   4.487
10316SOL     OW31846   6.358   2.572   5.902
10316SOL    HW131847   6.308   2.487   5.912
10316SOL    HW231848   6.376   2.590   5.805
10317SOL     OW31849   3.990   6.126   6.607
10317SOL    HW131850   3.899   6.160   6.633
10317SOL    HW231851   4.046   6.203   6.578
10318SOL     OW31852   4.672   0.367   6.474
10318SOL    HW131853   4.723   0.320   6.402
10318SOL    HW231854   4.721   0.358   6.560
10319SOL     OW31855   0.600   3.549   5.673
10319SOL    HW131856   0.550   3.468   5.643
10319SOL    HW231857   0.656   3.584   5.597
10320SOL     OW31858   0.853   6.426   2.319
10320SOL    HW131859   0.840   6.380   2.231
10320SOL    HW231860   0.766   6.431   2.367
10321SOL     OW31861   5.665   2.212   1.745
10321SOL    HW131862   5.633   2.208   1.650
10321SOL    HW231863   5.760   2.180   1.749
10322SOL     OW31864   4.638   5.248   5.068
10322SOL    HW131865   4.588   5.220   5.149
10322SOL    HW231866   4.609   5.194   4.989
10323SOL     OW31867   5.895   4.616   5.277
10323SOL    HW131868   5.908   4.710   5.246
10323SOL    HW231869   5.926   4.553   5.206
10324SOL     OW31870   3.718   3.003   1.973
10324SOL    HW131871   3.720   2.962   2.064
10324SOL    HW231872   3.809   2.997   1.932
10325SOL     OW31873   6.188   4.261   2.202
10325SOL    HW131874   6.149   4.170   2.208
10325SOL    HW231875   6.182   4.307   2.291
10326SOL     OW31876   5.275   4.683   6.406
10326SOL    HW131877   5.298   4.602   6.458
10326SOL    HW231878   5.202   4.662   6.340
10327SOL     OW31879   2.366   2.628   0.676
10327SOL    HW131880   2.273   2.607   0.708
10327SOL    HW231881   2.391   2.563   0.604
10328SOL     OW31882   6.329   2.681   0.531
10328SOL    HW131883   6.276   2.689   0.447
10328SOL    HW231884   6.426   2.699   0.511
10329SOL     OW31885   2.445   0.912   3.768
10329SOL    HW131886   2.356   0.916   3.814
10329SOL    HW231887   2.436   0.860   3.683
10330SOL     OW31888   4.291   1.305   2.417
10330SOL    HW131889   4.233   1.256   2.351
10330SOL    HW231890   4.340   1.239   2.474
10331SOL     OW31891   6.557   6.783   6.365
10331SOL    HW131892   6.629   6.745   6.308
10331SOL    HW231893   6.572   6.757   6.460
10332SOL     OW31894   6.765   0.429   0.484
10332SOL    HW131895   6.771   0.468   0.392
10332SOL    HW231896   6.700   0.354   0.484
10333SOL     OW31897   1.092   4.453   5.140
10333SOL    HW131898   0.999   4.453   5.175
10333SOL    HW231899   1.148   4.516   5.193
10334SOL     OW31900   3.491   1.036   4.665
10334SOL    HW131901   3.455   1.128   4.650
10334SOL    HW231902   3.573   1.023   4.609
10335SOL     OW31903   2.584   4.187   0.213
10335SOL    HW131904   2.552   4.093   0.223
10335SOL    HW231905   2.545   4.227   0.130
10336SOL     OW31906   6.351   0.068   1.237
10336SOL    HW131907   6.416   0.085   1.311
10336SOL    HW231908   6.295   0.150   1.223
10337SOL     OW31909   0.176   6.320   6.647
10337SOL    HW131910   0.235   6.299   6.724
10337SOL    HW231911   0.081   6.324   6.677
10338SOL     OW31912   2.079   6.519   1.975
10338SOL    HW131913   2.116   6.584   1.909
10338SOL    HW231914   2.140   6.515   2.055
10339SOL     OW31915   4.988   3.612   6.000
10339SOL    HW131916   4.889   3.600   5.999
10339SOL    HW231917   5.014   3.677   6.072
10340SOL     OW31918   1.356   3.512   0.607
10340SOL    HW131919   1.425   3.508   0.535
10340SOL    HW231920   1.394   3.558   0.687
10341SOL     OW31921   2.038   3.292   2.088
10341SOL    HW131922   1.961   3.332   2.138
10341SOL    HW231923   2.100   3.365   2.060
10342SOL     OW31924   1.957   6.899   4.209
10342SOL    HW131925   2.027   6.969   4.196
10342SOL    HW231926   1.875   6.940   4.249
10343SOL     OW31927   3.373   4.948   6.276
10343SOL    HW131928   3.384   4.904   6.187
10343SOL    HW231929   3.309   4.894   6.331
10344SOL     OW31930   4.548   2.869   0.437
10344SOL    HW131931   4.532   2.792   0.498
10344SOL    HW231932   4.516   2.847   0.345
10345SOL     OW31933   1.856   1.572   6.348
10345SOL    HW131934   1.822   1.631   6.274
10345SOL    HW231935   1.841   1.476   6.323
10346SOL     OW31936   0.341   5.228   1.753
10346SOL    HW131937   0.280   5.214   1.831
10346SOL    HW231938   0.314   5.311   1.705
10347SOL     OW31939   3.693   1.468   3.058
10347SOL    HW131940   3.761   1.537   3.082
10347SOL    HW231941   3.633   1.503   2.987
10348SOL     OW31942   6.347   2.758   6.776
10348SOL    HW131943   6.309   2.831   6.718
10348SOL    HW231944   6.385   2.799   6.859
10349SOL     OW31945   1.245   0.585   0.079
10349SOL    HW131946   1.233   0.684   0.073
10349SOL    HW231947   1.318   0.557   0.016
10350SOL     OW31948   2.648   5.843   5.261
10350SOL    HW131949   2.568   5.819   5.315
10350SOL    HW231950   2.703   5.761   5.244
10351SOL     OW31951   4.320   4.828   6.491
10351SOL    HW131952   4.307   4.784   6.402
10351SOL    HW231953   4.348   4.923   6.478
10352SOL     OW31954   3.590   1.245   6.474
10352SOL    HW131955   3.689   1.233   6.467
10352SOL    HW231956   3.548   1.227   6.385
10353SOL     OW31957   6.658   3.349   5.217
10353SOL    HW131958   6.602   3.392   5.287
10353SOL    HW231959   6.652   3.401   5.132
10354SOL     OW31960   5.452   2.115   2.246
10354SOL    HW131961   5.456   2.118   2.147
10354SOL    HW231962   5.538   2.151   2.284
10355SOL     OW31963   2.517   6.601   1.653
10355SOL    HW131964   2.489   6.659   1.729
10355SOL    HW231965   2.484   6.508   1.668
10356SOL     OW31966   0.569   4.812   4.669
10356SOL    HW131967   0.510   4.740   4.632
10356SOL    HW231968   0.665   4.782   4.666
10357SOL     OW31969   1.405   3.019   6.311
10357SOL    HW131970   1.386   2.952   6.240
10357SOL    HW231971   1.364   2.989   6.397
10358SOL     OW31972   6.669   3.078   3.587
10358SOL    HW131973   6.599   3.012   3.613
10358SOL    HW231974   6.733   3.090   3.663
10359SOL     OW31975   0.690   1.916   1.422
10359SOL    HW131976   0.643   1.964   1.495
10359SOL    HW231977   0.678   1.967   1.336
10360SOL     OW31978   4.619   4.329   3.309
10360SOL    HW131979   4.709   4.371   3.321
10360SOL    HW231980   4.548   4.397   3.328
10361SOL     OW31981   2.524   6.116   3.181
10361SOL    HW131982   2.582   6.196   3.168
10361SOL    HW231983   2.465   6.104   3.102
10362SOL     OW31984   1.287   4.758   4.978
10362SOL    HW131985   1.304   4.850   4.943
10362SOL    HW231986   1.359   4.733   5.042
10363SOL     OW31987   4.505   1.133   2.238
10363SOL    HW131988   4.405   1.145   2.237
10363SOL    HW231989   4.548   1.217   2.271
10364SOL     OW31990   3.365   3.206   1.463
10364SOL    HW131991   3.463   3.211   1.483
10364SOL    HW231992   3.325   3.129   1.512
10365SOL     OW31993   4.104   5.155   6.262
10365SOL    HW131994   4.097   5.058   6.239
10365SOL    HW231995   4.043   5.175   6.338
10366SOL     OW31996   2.898   0.422   4.230
10366SOL    HW131997   2.814   0.471   4.255
10366SOL    HW231998   2.968   0.488   4.203
10367SOL     OW31999   6.116   2.376   2.522
10367SOL    HW132000   6.068   2.379   2.610
10367SOL    HW232001   6.103   2.462   2.474
10368SOL     OW32002   2.024   2.036   1.420
10368SOL    HW132003   2.018   2.114   1.483
10368SOL    HW232004   1.974   1.958   1.459
10369SOL     OW32005   4.569   1.074   6.010
10369SOL    HW132006   4.583   0.975   6.007
10369SOL    HW232007   4.658   1.121   6.011
10370SOL     OW32008   4.792   1.756   5.016
10370SOL    HW132009   4.723   1.805   4.963
10370SOL    HW232010   4.883   1.793   4.996
10371SOL     OW32011   3.737   5.745   4.888
10371SOL    HW132012   3.761   5.842   4.887
10371SOL    HW232013   3.735   5.710   4.794
10372SOL     OW32014   1.592   1.307   6.138
10372SOL    HW132015   1.508   1.282   6.090
10372SOL    HW232016   1.671   1.288   6.079
10373SOL     OW32017   2.389   6.299   4.884
10373SOL    HW132018   2.412   6.389   4.920
10373SOL    HW232019   2.473   6.250   4.859
10374SOL     OW32020   3.515   1.258   2.863
10374SOL    HW132021   3.601   1.230   2.821
10374SOL    HW232022   3.510   1.358   2.865
10375SOL     OW32023   3.960   1.792   6.945
10375SOL    HW132024   4.003   1.838   0.004
10375SOL    HW232025   3.870   1.759   6.972
10376SOL     OW32026   1.115   6.456   3.614
10376SOL    HW132027   1.147   6.361   3.614
10376SOL    HW232028   1.104   6.487   3.708
10377SOL     OW32029   6.540   1.120   3.742
10377SOL    HW132030   6.598   1.070   3.677
10377SOL    HW232031   6.444   1.100   3.723
10378SOL     OW32032   6.698   0.601   5.937
10378SOL    HW132033   6.708   0.697   5.914
10378SOL    HW232034   6.783   0.552   5.916
10379SOL     OW32035   4.288   0.644   4.846
10379SOL    HW132036   4.377   0.639   4.890
10379SOL    HW232037   4.260   0.553   4.816
10380SOL     OW32038   6.229   1.605   3.127
10380SOL    HW132039   6.260   1.537   3.193
10380SOL    HW232040   6.176   1.676   3.173
10381SOL     OW32041   4.902   5.749   6.091
10381SOL    HW132042   4.953   5.784   6.169
10381SOL    HW232043   4.810   5.723   6.119
10382SOL     OW32044   2.675   4.706   6.080
10382SOL    HW132045   2.756   4.659   6.115
10382SOL    HW232046   2.597   4.689   6.140
10383SOL     OW32047   0.872   3.180   0.518
10383SOL    HW132048   0.941   3.198   0.588
10383SOL    HW232049   0.834   3.088   0.532
10384SOL     OW32050   0.507   6.897   0.557
10384SOL    HW132051   0.475   6.807   0.587
10384SOL    HW232052   0.463   6.967   0.613
10385SOL     OW32053   4.876   7.019   6.197
10385SOL    HW132054   4.942   6.968   6.252
10385SOL    HW232055   4.900   7.009   6.100
10386SOL     OW32056   0.054   3.857   5.440
10386SOL    HW132057   6.984   3.886   5.475
10386SOL    HW232058   0.041   3.789   5.368
10387SOL     OW32059   3.318   1.669   2.658
10387SOL    HW132060   3.263   1.660   2.741
10387SOL    HW232061   3.333   1.765   2.638
10388SOL     OW32062   0.944   5.739   3.960
10388SOL    HW132063   0.868   5.738   4.026
10388SOL    HW232064   1.007   5.813   3.984
10389SOL     OW32065   0.666   5.704   2.489
10389SOL    HW132066   0.675   5.732   2.393
10389SOL    HW232067   0.701   5.777   2.548
10390SOL     OW32068   1.432   3.636   2.156
10390SOL    HW132069   1.488   3.679   2.085
10390SOL    HW232070   1.336   3.636   2.127
10391SOL     OW32071   1.247   5.739   6.200
10391SOL    HW132072   1.301   5.770   6.122
10391SOL    HW232073   1.166   5.797   6.210
10392SOL     OW32074   6.393   3.681   0.295
10392SOL    HW132075   6.327   3.607   0.282
10392SOL    HW232076   6.404   3.732   0.210
10393SOL     OW32077   0.546   1.745   3.329
10393SOL    HW132078   0.530   1.703   3.240
10393SOL    HW232079   0.470   1.805   3.352
10394SOL     OW32080   2.839   6.583   6.294
10394SOL    HW132081   2.893   6.599   6.211
10394SOL    HW232082   2.761   6.646   6.295
10395SOL     OW32083   6.616   0.911   4.250
10395SOL    HW132084   6.559   0.991   4.270
10395SOL    HW232085   6.637   0.909   4.153
10396SOL     OW32086   1.054   0.763   3.546
10396SOL    HW132087   0.979   0.828   3.527
10396SOL    HW232088   1.035   0.676   3.501
10397SOL     OW32089   3.823   1.314   3.270
10397SOL    HW132090   3.876   1.366   3.338
10397SOL    HW232091   3.817   1.367   3.185
10398SOL     OW32092   6.515   2.349   0.247
10398SOL    HW132093   6.568   2.371   0.329
10398SOL    HW232094   6.446   2.280   0.270
10399SOL     OW32095   4.262   1.633   5.676
10399SOL    HW132096   4.360   1.617   5.689
10399SOL    HW232097   4.212   1.602   5.757
10400SOL     OW32098   3.274   5.934   2.730
10400SOL    HW132099   3.339   5.979   2.791
10400SOL    HW232100   3.245   5.847   2.771
10401SOL     OW32101   6.251   6.415   2.425
10401SOL    HW132102   6.179   6.346   2.426
10401SOL    HW232103   6.341   6.370   2.432
10402SOL     OW32104   0.335   2.775   5.865
10402SOL    HW132105   0.333   2.795   5.767
10402SOL    HW232106   0.271   2.835   5.912
10403SOL     OW32107   5.012   1.621   2.537
10403SOL    HW132108   5.081   1.622   2.464
10403SOL    HW232109   4.968   1.531   2.540
10404SOL     OW32110   0.973   6.639   4.198
10404SOL    HW132111   1.016   6.730   4.198
10404SOL    HW232112   0.894   6.640   4.137
10405SOL     OW32113   1.676   5.302   5.313
10405SOL    HW132114   1.757   5.292   5.256
10405SOL    HW232115   1.685   5.386   5.368
10406SOL     OW32116   1.869   4.623   5.097
10406SOL    HW132117   1.969   4.619   5.105
10406SOL    HW232118   1.829   4.633   5.188
10407SOL     OW32119   1.404   0.798   6.188
10407SOL    HW132120   1.390   0.810   6.089
10407SOL    HW232121   1.486   0.847   6.216
10408SOL     OW32122   4.696   5.531   2.832
10408SOL    HW132123   4.636   5.535   2.912
10408SOL    HW232124   4.775   5.590   2.848
10409SOL     OW32125   0.240   4.292   1.819
10409SOL    HW132126   0.299   4.280   1.899
10409SOL    HW232127   0.205   4.204   1.789
10410SOL     OW32128   4.891   1.455   1.437
10410SOL    HW132129   4.859   1.362   1.453
10410SOL    HW232130   4.957   1.455   1.362
10411SOL     OW32131   1.925   4.731   3.701
10411SOL    HW132132   1.937   4.794   3.624
10411SOL    HW232133   1.974   4.646   3.683
10412SOL     OW32134   0.810   1.784   6.756
10412SOL    HW132135   0.841   1.841   6.832
10412SOL    HW232136   0.787   1.842   6.678
10413SOL     OW32137   1.030   1.873   0.905
10413SOL    HW132138   0.961   1.910   0.842
10413SOL    HW232139   1.120   1.907   0.879
10414SOL     OW32140   5.356   6.182   6.502
10414SOL    HW132141   5.391   6.119   6.432
10414SOL    HW232142   5.319   6.130   6.578
10415SOL     OW32143   1.278   5.560   3.862
10415SOL    HW132144   1.269   5.475   3.913
10415SOL    HW232145   1.188   5.593   3.835
10416SOL     OW32146   6.623   1.819   5.524
10416SOL    HW132147   6.537   1.869   5.525
10416SOL    HW232148   6.632   1.766   5.609
10417SOL     OW32149   4.144   5.184   2.868
10417SOL    HW132150   4.158   5.096   2.823
10417SOL    HW232151   4.130   5.254   2.798
10418SOL     OW32152   6.634   3.666   5.999
10418SOL    HW132153   6.639   3.764   5.978
10418SOL    HW232154   6.699   3.616   5.942
10419SOL     OW32155   3.474   0.814   5.455
10419SOL    HW132156   3.489   0.908   5.424
10419SOL    HW232157   3.562   0.774   5.482
10420SOL     OW32158   6.600   2.889   2.630
10420SOL    HW132159   6.634   2.798   2.652
10420SOL    HW232160   6.519   2.882   2.572
10421SOL     OW32161   1.241   4.639   3.923
10421SOL    HW132162   1.239   4.626   4.022
10421SOL    HW232163   1.180   4.573   3.879
10422SOL     OW32164   6.515   4.060   5.076
10422SOL    HW132165   6.549   3.968   5.093
10422SOL    HW232166   6.552   4.123   5.144
10423SOL     OW32167   3.537   5.012   4.218
10423SOL    HW132168   3.529   5.101   4.263
10423SOL    HW232169   3.610   4.959   4.262
10424SOL     OW32170   3.977   1.138   6.939
10424SOL    HW132171   3.972   1.092   0.009
10424SOL    HW232172   3.900   1.108   6.883
10425SOL     OW32173   1.221   0.075   1.325
10425SOL    HW132174   1.257   0.163   1.295
10425SOL    HW232175   1.123   0.071   1.307
10426SOL     OW32176   5.281   2.794   5.602
10426SOL    HW132177   5.370   2.810   5.645
10426SOL    HW232178   5.285   2.823   5.506
10427SOL     OW32179   4.835   5.709   5.177
10427SOL    HW132180   4.860   5.613   5.161
10427SOL    HW232181   4.776   5.741   5.102
10428SOL     OW32182   1.976   1.674   3.407
10428SOL    HW132183   2.054   1.682   3.470
10428SOL    HW232184   1.897   1.637   3.457
10429SOL     OW32185   1.067   3.242   2.398
10429SOL    HW132186   1.118   3.276   2.478
10429SOL    HW232187   0.996   3.179   2.429
10430SOL     OW32188   3.940   6.013   4.125
10430SOL    HW132189   3.970   5.958   4.047
10430SOL    HW232190   3.893   5.954   4.191
10431SOL     OW32191   2.565   1.703   4.266
10431SOL    HW132192   2.638   1.706   4.333
10431SOL    HW232193   2.486   1.655   4.304
10432SOL     OW32194   0.001   6.991   5.361
10432SOL    HW132195   6.939   7.007   5.304
10432SOL    HW232196   6.994   6.943   5.444
10433SOL     OW32197   1.973   0.217   1.453
10433SOL    HW132198   1.975   0.119   1.432
10433SOL    HW232199   2.047   0.263   1.406
10434SOL     OW32200   4.646   0.803   6.040
10434SOL    HW132201   4.713   0.789   6.113
10434SOL    HW232202   4.578   0.730   6.042
10435SOL     OW32203   0.972   2.231   6.364
10435SOL    HW132204   0.930   2.320   6.348
10435SOL    HW232205   0.993   2.221   6.461
10436SOL     OW32206   0.097   4.106   5.628
10436SOL    HW132207   0.053   4.167   5.562
10436SOL    HW232208   0.077   4.011   5.605
10437SOL     OW32209   4.828   5.434   5.155
10437SOL    HW132210   4.753   5.381   5.115
10437SOL    HW232211   4.907   5.375   5.169
10438SOL     OW32212   6.904   6.357   6.761
10438SOL    HW132213   6.874   6.453   6.770
10438SOL    HW232214   6.924   6.320   6.851
10439SOL     OW32215   6.583   0.549   4.390
10439SOL    HW132216   6.484   0.548   4.372
10439SOL    HW232217   6.632   0.562   4.303
10440SOL     OW32218   0.164   1.207   6.978
10440SOL    HW132219   0.133   1.293   6.938
10440SOL    HW232220   0.170   1.216   0.058
10441SOL     OW32221   3.215   1.385   1.138
10441SOL    HW132222   3.217   1.300   1.085
10441SOL    HW232223   3.205   1.363   1.235
10442SOL     OW32224   3.001   0.719   5.406
10442SOL    HW132225   3.066   0.785   5.368
10442SOL    HW232226   3.049   0.637   5.435
10443SOL     OW32227   0.340   1.754   3.745
10443SOL    HW132228   0.256   1.716   3.704
10443SOL    HW232229   0.329   1.852   3.758
10444SOL     OW32230   3.438   5.396   3.770
10444SOL    HW132231   3.369   5.361   3.708
10444SOL    HW232232   3.524   5.411   3.720
10445SOL     OW32233   0.907   4.095   2.459
10445SOL    HW132234   0.991   4.124   2.412
10445SOL    HW232235   0.868   4.016   2.411
10446SOL     OW32236   2.008   4.122   5.557
10446SOL    HW132237   1.972   4.042   5.605
10446SOL    HW232238   2.031   4.097   5.463
10447SOL     OW32239   6.387   2.304   3.393
10447SOL    HW132240   6.339   2.230   3.441
10447SOL    HW232241   6.429   2.267   3.310
10448SOL     OW32242   2.717   0.326   3.462
10448SOL    HW132243   2.803   0.377   3.455
10448SOL    HW232244   2.642   0.390   3.481
10449SOL     OW32245   3.438   5.747   6.866
10449SOL    HW132246   3.510   5.812   6.843
10449SOL    HW232247   3.407   5.700   6.783
10450SOL     OW32248   6.450   0.388   6.110
10450SOL    HW132249   6.479   0.347   6.023
10450SOL    HW232250   6.527   0.434   6.152
10451SOL     OW32251   1.691   1.015   4.508
10451SOL    HW132252   1.670   0.962   4.426
10451SOL    HW232253   1.701   1.111   4.483
10452SOL     OW32254   6.636   3.397   3.160
10452SOL    HW132255   6.661   3.470   3.223
10452SOL    HW232256   6.667   3.309   3.196
10453SOL     OW32257   4.420   6.166   3.093
10453SOL    HW132258   4.392   6.220   3.015
10453SOL    HW232259   4.356   6.179   3.169
10454SOL     OW32260   6.639   1.557   6.571
10454SOL    HW132261   6.578   1.575   6.649
10454SOL    HW232262   6.666   1.643   6.529
10455SOL     OW32263   6.076   6.462   4.377
10455SOL    HW132264   6.112   6.454   4.470
10455SOL    HW232265   6.045   6.555   4.361
10456SOL     OW32266   6.524   5.537   0.089
10456SOL    HW132267   6.439   5.507   0.131
10456SOL    HW232268   6.525   5.636   0.080
10457SOL     OW32269   4.151   3.093   6.750
10457SOL    HW132270   4.221   3.124   6.685
10457SOL    HW232271   4.113   3.006   6.719
10458SOL     OW32272   0.005   6.954   6.372
10458SOL    HW132273   6.938   6.960   6.322
10458SOL    HW232274   7.008   6.977   6.468
10459SOL     OW32275   6.799   5.037   0.741
10459SOL    HW132276   6.730   4.974   0.705
10459SOL    HW232277   6.765   5.131   0.735
10460SOL     OW32278   6.993   4.359   1.269
10460SOL    HW132279   0.027   4.380   1.187
10460SOL    HW232280   6.905   4.320   1.243
10461SOL     OW32281   6.696   5.090   5.135
10461SOL    HW132282   6.778   5.081   5.193
10461SOL    HW232283   6.616   5.060   5.186
10462SOL     OW32284   5.044   1.817   1.456
10462SOL    HW132285   4.998   1.828   1.543
10462SOL    HW232286   5.079   1.906   1.425
10463SOL     OW32287   4.672   2.405   6.161
10463SOL    HW132288   4.579   2.394   6.198
10463SOL    HW232289   4.667   2.439   6.068
10464SOL     OW32290   5.249   5.391   2.749
10464SOL    HW132291   5.209   5.416   2.838
10464SOL    HW232292   5.187   5.420   2.676
10465SOL     OW32293   5.066   4.063   2.467
10465SOL    HW132294   5.062   3.974   2.422
10465SOL    HW232295   5.126   4.058   2.547
10466SOL     OW32296   5.903   4.441   5.858
10466SOL    HW132297   5.935   4.347   5.863
10466SOL    HW232298   5.899   4.481   5.950
10467SOL     OW32299   1.800   2.583   6.779
10467SOL    HW132300   1.757   2.525   6.848
10467SOL    HW232301   1.895   2.600   6.804
10468SOL     OW32302   2.719   4.788   3.604
10468SOL    HW132303   2.793   4.792   3.671
10468SOL    HW232304   2.713   4.876   3.555
10469SOL     OW32305   5.566   2.409   5.783
10469SOL    HW132306   5.600   2.315   5.789
10469SOL    HW232307   5.618   2.467   5.845
10470SOL     OW32308   2.261   1.978   4.033
10470SOL    HW132309   2.360   1.992   4.032
10470SOL    HW232310   2.229   1.958   3.940
10471SOL     OW32311   2.458   0.437   0.343
10471SOL    HW132312   2.478   0.532   0.320
10471SOL    HW232313   2.483   0.420   0.439
10472SOL     OW32314   3.471   4.771   0.769
10472SOL    HW132315   3.387   4.722   0.793
10472SOL    HW232316   3.503   4.822   0.849
10473SOL     OW32317   5.462   5.917   6.315
10473SOL    HW132318   5.561   5.924   6.317
10473SOL    HW232319   5.434   5.830   6.355
10474SOL     OW32320   5.114   1.180   3.869
10474SOL    HW132321   5.209   1.166   3.839
10474SOL    HW232322   5.110   1.175   3.969
10475SOL     OW32323   2.398   6.369   1.702
10475SOL    HW132324   2.454   6.308   1.758
10475SOL    HW232325   2.302   6.347   1.715
10476SOL     OW32326   3.890   5.978   6.348
10476SOL    HW132327   3.868   5.887   6.314
10476SOL    HW232328   3.916   5.972   6.444
10477SOL     OW32329   0.268   5.978   4.126
10477SOL    HW132330   0.238   5.926   4.046
10477SOL    HW232331   0.254   6.075   4.109
10478SOL     OW32332   6.146   6.958   0.028
10478SOL    HW132333   6.100   0.015   0.074
10478SOL    HW232334   6.125   6.872   0.076
10479SOL     OW32335   6.609   3.010   2.217
10479SOL    HW132336   6.545   3.085   2.205
10479SOL    HW232337   6.675   3.032   2.289
10480SOL     OW32338   1.645   0.395   2.375
10480SOL    HW132339   1.643   0.436   2.284
10480SOL    HW232340   1.714   0.440   2.431
10481SOL     OW32341   0.748   6.565   2.913
10481SOL    HW132342   0.650   6.548   2.923
10481SOL    HW232343   0.764   6.662   2.896
10482SOL     OW32344   6.181   4.459   4.474
10482SOL    HW132345   6.232   4.540   4.502
10482SOL    HW232346   6.185   4.390   4.547
10483SOL     OW32347   5.646   5.070   0.013
10483SOL    HW132348   5.717   5.088   0.081
10483SOL    HW232349   5.689   5.041   6.946
10484SOL     OW32350   5.345   1.318   1.047
10484SOL    HW132351   5.405   1.238   1.056
10484SOL    HW232352   5.353   1.375   1.128
10485SOL     OW32353   4.157   4.659   6.288
10485SOL    HW132354   4.217   4.661   6.208
10485SOL    HW232355   4.189   4.588   6.351
10486SOL     OW32356   6.727   2.514   0.417
10486SOL    HW132357   6.668   2.501   0.496
10486SOL    HW232358   6.806   2.570   0.444
10487SOL     OW32359   5.711   6.781   2.130
10487SOL    HW132360   5.709   6.757   2.034
10487SOL    HW232361   5.702   6.881   2.140
10488SOL     OW32362   2.705   3.367   6.900
10488SOL    HW132363   2.682   3.450   6.951
10488SOL    HW232364   2.799   3.341   6.919
10489SOL     OW32365   0.482   6.769   6.067
10489SOL    HW132366   0.520   6.700   6.129
10489SOL    HW232367   0.382   6.765   6.071
10490SOL     OW32368   6.212   1.411   2.873
10490SOL    HW132369   6.277   1.483   2.899
10490SOL    HW232370   6.256   1.322   2.885
10491SOL     OW32371   1.538   3.433   6.802
10491SOL    HW132372   1.474   3.509   6.810
10491SOL    HW232373   1.612   3.459   6.740
10492SOL     OW32374   4.881   3.980   5.619
10492SOL    HW132375   4.860   3.911   5.550
10492SOL    HW232376   4.867   3.941   5.710
10493SOL     OW32377   3.362   0.456   1.588
10493SOL    HW132378   3.368   0.395   1.668
10493SOL    HW232379   3.350   0.550   1.620
10494SOL     OW32380   5.732   2.371   5.039
10494SOL    HW132381   5.744   2.363   5.138
10494SOL    HW232382   5.812   2.331   4.993
10495SOL     OW32383   1.337   6.934   1.133
10495SOL    HW132384   1.273   6.980   1.194
10495SOL    HW232385   1.417   6.904   1.186
10496SOL     OW32386   0.272   6.764   0.254
10496SOL    HW132387   0.350   6.825   0.239
10496SOL    HW232388   0.300   6.669   0.239
10497SOL     OW32389   1.839   0.198   0.925
10497SOL    HW132390   1.920   0.233   0.877
10497SOL    HW232391   1.808   0.115   0.880
10498SOL     OW32392   2.696   6.668   0.487
10498SOL    HW132393   2.683   6.612   0.405
10498SOL    HW232394   2.793   6.664   0.514
10499SOL     OW32395   2.635   6.504   2.665
10499SOL    HW132396   2.666   6.576   2.603
10499SOL    HW232397   2.539   6.519   2.688
10500SOL     OW32398   0.450   0.884   5.382
10500SOL    HW132399   0.531   0.938   5.404
10500SOL    HW232400   0.376   0.945   5.354
10501SOL     OW32401   1.879   5.214   3.322
10501SOL    HW132402   1.943   5.155   3.273
10501SOL    HW232403   1.929   5.283   3.374
10502SOL     OW32404   3.125   6.456   1.183
10502SOL    HW132405   3.046   6.413   1.140
10502SOL    HW232406   3.192   6.480   1.114
10503SOL     OW32407   4.577   2.594   0.570
10503SOL    HW132408   4.617   2.531   0.638
10503SOL    HW232409   4.630   2.589   0.485
10504SOL     OW32410   1.850   2.553   0.506
10504SOL    HW132411   1.946   2.531   0.525
10504SOL    HW232412   1.843   2.649   0.478
10505SOL     OW32413   5.720   6.175   0.559
10505SOL    HW132414   5.675   6.257   0.523
10505SOL    HW232415   5.785   6.140   0.491
10506SOL     OW32416   0.776   4.941   6.386
10506SOL    HW132417   0.700   4.877   6.398
10506SOL    HW232418   0.743   5.035   6.398
10507SOL     OW32419   2.098   6.520   0.546
10507SOL    HW132420   2.161   6.542   0.620
10507SOL    HW232421   2.032   6.594   0.535
10508SOL     OW32422   5.839   5.729   4.039
10508SOL    HW132423   5.824   5.759   3.945
10508SOL    HW232424   5.756   5.743   4.093
10509SOL     OW32425   1.122   6.700   6.232
10509SOL    HW132426   1.141   6.788   6.190
10509SOL    HW232427   1.068   6.713   6.315
10510SOL     OW32428   5.845   5.035   5.753
10510SOL    HW132429   5.761   5.050   5.700
10510SOL    HW232430   5.912   5.105   5.728
10511SOL     OW32431   4.450   2.632   0.994
10511SOL    HW132432   4.502   2.550   1.017
10511SOL    HW232433   4.352   2.612   1.000
10512SOL     OW32434   3.848   0.934   6.513
10512SOL    HW132435   3.927   0.899   6.563
10512SOL    HW232436   3.856   0.907   6.416
10513SOL     OW32437   6.900   2.281   5.825
10513SOL    HW132438   6.959   2.213   5.782
10513SOL    HW232439   6.955   2.343   5.881
10514SOL     OW32440   6.596   3.534   0.012
10514SOL    HW132441   6.503   3.525   0.046
10514SOL    HW232442   6.645   3.601   0.068
10515SOL     OW32443   5.924   2.863   2.901
10515SOL    HW132444   5.964   2.955   2.900
10515SOL    HW232445   5.840   2.864   2.957
10516SOL     OW32446   4.946   1.034   6.651
10516SOL    HW132447   4.959   1.007   6.746
10516SOL    HW232448   4.997   1.119   6.633
10517SOL     OW32449   0.758   2.167   2.500
10517SOL    HW132450   0.738   2.263   2.515
10517SOL    HW232451   0.678   2.122   2.460
10518SOL     OW32452   0.735   5.126   0.071
10518SOL    HW132453   0.679   5.068   0.012
10518SOL    HW232454   0.777   5.069   0.142
10519SOL     OW32455   3.248   2.367   5.707
10519SOL    HW132456   3.275   2.336   5.798
10519SOL    HW232457   3.330   2.385   5.653
10520SOL     OW32458   2.298   2.600   6.713
10520SOL    HW132459   2.354   2.670   6.756
10520SOL    HW232460   2.354   2.550   6.646
10521SOL     OW32461   6.319   5.915   1.587
10521SOL    HW132462   6.360   6.005   1.573
10521SOL    HW232463   6.344   5.855   1.510
10522SOL     OW32464   6.074   0.413   0.291
10522SOL    HW132465   6.123   0.436   0.207
10522SOL    HW232466   5.987   0.369   0.268
10523SOL     OW32467   0.425   6.156   4.692
10523SOL    HW132468   0.467   6.145   4.782
10523SOL    HW232469   0.418   6.254   4.670
10524SOL     OW32470   1.707   0.790   5.153
10524SOL    HW132471   1.775   0.745   5.094
10524SOL    HW232472   1.617   0.750   5.137
10525SOL     OW32473   2.842   6.733   5.659
10525SOL    HW132474   2.801   6.642   5.663
10525SOL    HW232475   2.851   6.769   5.752
10526SOL     OW32476   0.588   0.448   2.679
10526SOL    HW132477   0.498   0.490   2.686
10526SOL    HW232478   0.651   0.511   2.634
10527SOL     OW32479   1.391   3.098   3.974
10527SOL    HW132480   1.376   3.183   4.025
10527SOL    HW232481   1.470   3.050   4.013
10528SOL     OW32482   1.378   4.052   5.257
10528SOL    HW132483   1.455   4.115   5.267
10528SOL    HW232484   1.294   4.097   5.290
10529SOL     OW32485   1.037   5.971   2.946
10529SOL    HW132486   1.100   6.034   2.902
10529SOL    HW232487   1.003   6.012   3.031
10530SOL     OW32488   1.990   1.036   6.210
10530SOL    HW132489   2.022   1.130   6.198
10530SOL    HW232490   2.066   0.978   6.239
10531SOL     OW32491   2.161   3.417   4.428
10531SOL    HW132492   2.130   3.438   4.521
10531SOL    HW232493   2.172   3.318   4.418
10532SOL     OW32494   2.255   2.998   0.658
10532SOL    HW132495   2.295   2.986   0.749
10532SOL    HW232496   2.229   3.094   0.646
10533SOL     OW32497   3.133   1.574   4.084
10533SOL    HW132498   3.121   1.524   4.169
10533SOL    HW232499   3.056   1.637   4.071
10534SOL     OW32500   0.134   5.819   0.667
10534SOL    HW132501   0.101   5.780   0.581
10534SOL    HW232502   0.129   5.750   0.739
10535SOL     OW32503   0.358   2.491   2.280
10535SOL    HW132504   0.364   2.511   2.378
10535SOL    HW232505   0.271   2.526   2.245
10536SOL     OW32506   3.907   0.366   2.848
10536SOL    HW132507   3.912   0.447   2.907
10536SOL    HW232508   3.812   0.335   2.842
10537SOL     OW32509   3.377   5.464   3.342
10537SOL    HW132510   3.375   5.436   3.438
10537SOL    HW232511   3.340   5.390   3.285
10538SOL     OW32512   4.619   3.054   6.692
10538SOL    HW132513   4.673   3.103   6.761
10538SOL    HW232514   4.676   2.983   6.650
10539SOL     OW32515   0.814   4.095   6.517
10539SOL    HW132516   0.880   4.128   6.449
10539SOL    HW232517   0.721   4.116   6.485
10540SOL     OW32518   1.461   0.839   5.899
10540SOL    HW132519   1.485   0.819   5.804
10540SOL    HW232520   1.527   0.903   5.938
10541SOL     OW32521   3.475   3.873   1.772
10541SOL    HW132522   3.471   3.945   1.842
10541SOL    HW232523   3.532   3.798   1.805
10542SOL     OW32524   7.005   1.350   0.550
10542SOL    HW132525   0.008   1.409   0.472
10542SOL    HW232526   7.000   1.405   0.633
10543SOL     OW32527   0.231   1.062   5.297
10543SOL    HW132528   0.250   1.062   5.199
10543SOL    HW232529   0.241   1.155   5.332
10544SOL     OW32530   2.032   1.072   2.760
10544SOL    HW132531   1.939   1.108   2.755
10544SOL    HW232532   2.039   0.988   2.707
10545SOL     OW32533   6.640   6.793   2.808
10545SOL    HW132534   6.630   6.871   2.871
10545SOL    HW232535   6.572   6.800   2.735
10546SOL     OW32536   1.167   0.613   5.556
10546SOL    HW132537   1.172   0.515   5.572
10546SOL    HW232538   1.229   0.638   5.482
10547SOL     OW32539   4.616   1.581   2.250
10547SOL    HW132540   4.562   1.523   2.190
10547SOL    HW232541   4.707   1.541   2.264
10548SOL     OW32542   5.131   3.759   5.026
10548SOL    HW132543   5.106   3.677   5.077
10548SOL    HW232544   5.052   3.791   4.973
10549SOL     OW32545   6.378   0.579   2.436
10549SOL    HW132546   6.282   0.552   2.444
10549SOL    HW232547   6.415   0.542   2.351
10550SOL     OW32548   4.387   6.623   3.991
10550SOL    HW132549   4.370   6.668   4.079
10550SOL    HW232550   4.483   6.594   3.986
10551SOL     OW32551   1.700   2.497   5.101
10551SOL    HW132552   1.639   2.555   5.048
10551SOL    HW232553   1.651   2.461   5.181
10552SOL     OW32554   3.525   1.986   5.339
10552SOL    HW132555   3.425   1.991   5.335
10552SOL    HW232556   3.564   2.024   5.255
10553SOL     OW32557   1.300   4.894   1.512
10553SOL    HW132558   1.257   4.976   1.474
10553SOL    HW232559   1.229   4.836   1.554
10554SOL     OW32560   5.468   4.849   6.675
10554SOL    HW132561   5.406   4.895   6.739
10554SOL    HW232562   5.513   4.773   6.721
10555SOL     OW32563   2.898   2.081   1.649
10555SOL    HW132564   2.937   1.989   1.654
10555SOL    HW232565   2.968   2.144   1.615
10556SOL     OW32566   1.888   2.875   5.521
10556SOL    HW132567   1.874   2.782   5.485
10556SOL    HW232568   1.811   2.933   5.492
10557SOL     OW32569   1.331   2.321   3.388
10557SOL    HW132570   1.302   2.269   3.469
10557SOL    HW232571   1.386   2.399   3.416
10558SOL     OW32572   4.174   0.113   5.042
10558SOL    HW132573   4.255   0.074   4.997
10558SOL    HW232574   4.124   0.170   4.976
10559SOL     OW32575   4.013   1.375   0.982
10559SOL    HW132576   4.069   1.345   0.904
10559SOL    HW232577   3.983   1.295   1.034
10560SOL     OW32578   2.151   5.456   4.621
10560SOL    HW132579   2.193   5.385   4.678
10560SOL    HW232580   2.154   5.428   4.525
10561SOL     OW32581   2.150   4.769   0.371
10561SOL    HW132582   2.207   4.842   0.410
10561SOL    HW232583   2.146   4.779   0.272
10562SOL     OW32584   4.964   0.122   0.545
10562SOL    HW132585   4.970   0.033   0.499
10562SOL    HW232586   5.051   0.142   0.590
10563SOL     OW32587   2.042   1.176   4.454
10563SOL    HW132588   1.953   1.215   4.431
10563SOL    HW232589   2.029   1.088   4.500
10564SOL     OW32590   6.029   0.230   2.040
10564SOL    HW132591   6.105   0.168   2.056
10564SOL    HW232592   6.052   0.321   2.075
10565SOL     OW32593   0.794   0.721   5.483
10565SOL    HW132594   0.832   0.711   5.575
10565SOL    HW232595   0.827   0.807   5.443
10566SOL     OW32596   4.267   3.340   6.840
10566SOL    HW132597   4.362   3.326   6.868
10566SOL    HW232598   4.229   3.255   6.804
10567SOL     OW32599   2.128   3.306   3.841
10567SOL    HW132600   2.116   3.343   3.749
10567SOL    HW232601   2.079   3.362   3.907
10568SOL     OW32602   5.332   1.363   1.882
10568SOL    HW132603   5.233   1.360   1.888
10568SOL    HW232604   5.371   1.286   1.933
10569SOL     OW32605   6.434   3.226   2.236
10569SOL    HW132606   6.363   3.170   2.277
10569SOL    HW232607   6.429   3.319   2.273
10570SOL     OW32608   1.453   5.097   2.569
10570SOL    HW132609   1.389   5.047   2.629
10570SOL    HW232610   1.527   5.036   2.542
10571SOL     OW32611   6.726   5.517   3.996
10571SOL    HW132612   6.695   5.423   4.008
10571SOL    HW232613   6.674   5.561   3.924
10572SOL     OW32614   6.049   3.725   3.143
10572SOL    HW132615   6.007   3.650   3.195
10572SOL    HW232616   6.116   3.686   3.079
10573SOL     OW32617   5.687   6.350   3.142
10573SOL    HW132618   5.736   6.357   3.055
10573SOL    HW232619   5.628   6.269   3.140
10574SOL     OW32620   1.620   1.765   3.838
10574SOL    HW132621   1.542   1.712   3.871
10574SOL    HW232622   1.681   1.787   3.914
10575SOL     OW32623   0.163   0.696   4.168
10575SOL    HW132624   0.232   0.640   4.214
10575SOL    HW232625   0.078   0.693   4.221
10576SOL     OW32626   0.805   6.630   4.814
10576SOL    HW132627   0.761   6.597   4.897
10576SOL    HW232628   0.860   6.557   4.774
10577SOL     OW32629   1.207   2.769   6.612
10577SOL    HW132630   1.283   2.834   6.604
10577SOL    HW232631   1.236   2.691   6.668
10578SOL     OW32632   6.419   0.690   4.138
10578SOL    HW132633   6.470   0.743   4.070
10578SOL    HW232634   6.323   0.714   4.135
10579SOL     OW32635   4.048   1.539   0.630
10579SOL    HW132636   3.994   1.458   0.652
10579SOL    HW232637   4.110   1.517   0.554
10580SOL     OW32638   6.495   6.714   0.130
10580SOL    HW132639   6.489   6.775   0.051
10580SOL    HW232640   6.575   6.737   0.185
10581SOL     OW32641   5.913   0.012   2.679
10581SOL    HW132642   5.825   6.984   2.673
10581SOL    HW232643   5.899   0.109   2.694
10582SOL     OW32644   3.728   4.730   6.072
10582SOL    HW132645   3.733   4.633   6.048
10582SOL    HW232646   3.783   4.747   6.154
10583SOL     OW32647   4.159   0.928   6.363
10583SOL    HW132648   4.183   0.836   6.393
10583SOL    HW232649   4.108   0.923   6.277
10584SOL     OW32650   5.460   6.582   1.087
10584SOL    HW132651   5.475   6.535   1.001
10584SOL    HW232652   5.364   6.611   1.094
10585SOL     OW32653   1.489   3.143   5.650
10585SOL    HW132654   1.585   3.147   5.680
10585SOL    HW232655   1.429   3.144   5.730
10586SOL     OW32656   1.502   5.791   5.707
10586SOL    HW132657   1.483   5.748   5.618
10586SOL    HW232658   1.425   5.776   5.768
10587SOL     OW32659   5.745   3.414   0.167
10587SOL    HW132660   5.787   3.503   0.150
10587SOL    HW232661   5.816   3.343   0.163
10588SOL     OW32662   1.402   3.974   2.092
10588SOL    HW132663   1.443   4.045   2.150
10588SOL    HW232664   1.303   3.974   2.103
10589SOL     OW32665   5.366   1.533   4.133
10589SOL    HW132666   5.315   1.475   4.198
10589SOL    HW232667   5.309   1.611   4.107
10590SOL     OW32668   1.306   0.162   2.141
10590SOL    HW132669   1.243   0.129   2.071
10590SOL    HW232670   1.398   0.168   2.102
10591SOL     OW32671   1.307   1.564   5.489
10591SOL    HW132672   1.269   1.656   5.492
10591SOL    HW232673   1.255   1.508   5.425
10592SOL     OW32674   5.069   2.578   0.160
10592SOL    HW132675   5.027   2.536   0.080
10592SOL    HW232676   5.082   2.510   0.231
10593SOL     OW32677   2.751   5.559   0.845
10593SOL    HW132678   2.679   5.607   0.895
10593SOL    HW232679   2.820   5.525   0.910
10594SOL     OW32680   5.763   2.016   3.780
10594SOL    HW132681   5.761   2.105   3.826
10594SOL    HW232682   5.785   2.028   3.684
10595SOL     OW32683   3.207   6.970   5.788
10595SOL    HW132684   3.219   6.922   5.701
10595SOL    HW232685   3.201   0.049   5.771
10596SOL     OW32686   4.536   6.995   1.705
10596SOL    HW132687   4.496   0.019   1.786
10596SOL    HW232688   4.465   6.981   1.637
10597SOL     OW32689   2.718   1.284   4.239
10597SOL    HW132690   2.620   1.267   4.255
10597SOL    HW232691   2.749   1.229   4.162
10598SOL     OW32692   2.604   2.105   6.841
10598SOL    HW132693   2.695   2.118   6.803
10598SOL    HW232694   2.611   2.082   6.938
10599SOL     OW32695   5.580   1.228   0.471
10599SOL    HW132696   5.502   1.227   0.534
10599SOL    HW232697   5.569   1.302   0.406
10600SOL     OW32698   2.213   2.970   6.967
10600SOL    HW132699   2.249   3.060   6.940
10600SOL    HW232700   2.279   2.900   6.941
10601SOL     OW32701   2.460   5.129   6.332
10601SOL    HW132702   2.474   5.183   6.249
10601SOL    HW232703   2.432   5.036   6.307
10602SOL     OW32704   5.168   1.602   2.308
10602SOL    HW132705   5.171   1.541   2.229
10602SOL    HW232706   5.222   1.684   2.289
10603SOL     OW32707   2.003   5.948   3.170
10603SOL    HW132708   2.006   5.862   3.119
10603SOL    HW232709   1.927   5.946   3.235
10604SOL     OW32710   5.690   4.388   4.372
10604SOL    HW132711   5.644   4.465   4.329
10604SOL    HW232712   5.784   4.413   4.396
10605SOL     OW32713   0.569   5.427   6.716
10605SOL    HW132714   0.623   5.359   6.766
10605SOL    HW232715   0.485   5.385   6.683
10606SOL     OW32716   6.201   0.514   1.770
10606SOL    HW132717   6.239   0.534   1.680
10606SOL    HW232718   6.177   0.600   1.816
10607SOL     OW32719   3.887   3.963   5.909
10607SOL    HW132720   3.921   3.987   5.818
10607SOL    HW232721   3.945   3.891   5.948
10608SOL     OW32722   5.616   1.979   5.010
10608SOL    HW132723   5.635   1.883   4.986
10608SOL    HW232724   5.642   2.038   4.934
10609SOL     OW32725   3.520   5.484   1.101
10609SOL    HW132726   3.427   5.499   1.135
10609SOL    HW232727   3.540   5.550   1.028
10610SOL     OW32728   0.821   4.192   0.107
10610SOL    HW132729   0.806   4.287   0.081
10610SOL    HW232730   0.912   4.164   0.078
10611SOL     OW32731   5.729   3.290   6.886
10611SOL    HW132732   5.790   3.358   6.847
10611SOL    HW232733   5.764   3.261   6.976
10612SOL     OW32734   2.561   6.489   6.148
10612SOL    HW132735   2.579   6.507   6.051
10612SOL    HW232736   2.566   6.575   6.199
10613SOL     OW32737   0.046   6.845   6.059
10613SOL    HW132738   6.985   6.791   6.035
10613SOL    HW232739   0.031   6.887   6.149
10614SOL     OW32740   0.180   1.621   4.052
10614SOL    HW132741   0.102   1.680   4.033
10614SOL    HW232742   0.205   1.571   3.969
10615SOL     OW32743   4.066   5.721   5.378
10615SOL    HW132744   3.981   5.678   5.407
10615SOL    HW232745   4.116   5.754   5.459
10616SOL     OW32746   3.277   6.478   0.113
10616SOL    HW132747   3.208   6.467   0.042
10616SOL    HW232748   3.368   6.463   0.073
10617SOL     OW32749   1.826   2.109   0.919
10617SOL    HW132750   1.870   2.049   0.853
10617SOL    HW232751   1.882   2.114   1.002
10618SOL     OW32752   6.430   2.655   0.252
10618SOL    HW132753   6.446   2.724   0.181
10618SOL    HW232754   6.435   2.564   0.211
10619SOL     OW32755   0.650   3.833   2.399
10619SOL    HW132756   0.721   3.833   2.328
10619SOL    HW232757   0.647   3.743   2.443
10620SOL     OW32758   0.900   5.543   5.677
10620SOL    HW132759   0.914   5.446   5.697
10620SOL    HW232760   0.882   5.556   5.580
10621SOL     OW32761   1.672   5.668   0.247
10621SOL    HW132762   1.725   5.597   0.201
10621SOL    HW232763   1.679   5.657   0.346
10622SOL     OW32764   4.202   0.862   2.119
10622SOL    HW132765   4.299   0.853   2.099
10622SOL    HW232766   4.162   0.771   2.133
10623SOL     OW32767   5.512   2.952   4.066
10623SOL    HW132768   5.470   2.916   4.150
10623SOL    HW232769   5.507   2.883   3.994
10624SOL     OW32770   0.835   1.347   5.264
10624SOL    HW132771   0.847   1.367   5.167
10624SOL    HW232772   0.812   1.251   5.276
10625SOL     OW32773   0.385   4.398   0.054
10625SOL    HW132774   0.436   4.314   0.073
10625SOL    HW232775   0.388   4.458   0.134
10626SOL     OW32776   1.056   2.438   1.741
10626SOL    HW132777   0.978   2.437   1.803
10626SOL    HW232778   1.059   2.352   1.690
10627SOL     OW32779   6.299   6.364   2.876
10627SOL    HW132780   6.296   6.456   2.837
10627SOL    HW232781   6.261   6.365   2.969
10628SOL     OW32782   5.604   5.277   5.346
10628SOL    HW132783   5.510   5.244   5.329
10628SOL    HW232784   5.601   5.370   5.381
10629SOL     OW32785   2.420   4.488   5.647
10629SOL    HW132786   2.339   4.440   5.682
10629SOL    HW232787   2.459   4.545   5.719
10630SOL     OW32788   6.156   0.696   3.538
10630SOL    HW132789   6.199   0.631   3.475
10630SOL    HW232790   6.082   0.650   3.587
10631SOL     OW32791   1.269   6.172   4.287
10631SOL    HW132792   1.284   6.271   4.296
10631SOL    HW232793   1.257   6.149   4.190
10632SOL     OW32794   6.045   2.451   4.197
10632SOL    HW132795   6.018   2.539   4.237
10632SOL    HW232796   6.099   2.399   4.264
10633SOL     OW32797   2.662   4.299   0.980
10633SOL    HW132798   2.709   4.281   1.066
10633SOL    HW232799   2.564   4.309   0.996
10634SOL     OW32800   2.986   5.603   0.043
10634SOL    HW132801   3.080   5.632   0.061
10634SOL    HW232802   2.940   5.583   0.130
10635SOL     OW32803   3.050   0.847   1.159
10635SOL    HW132804   3.061   0.828   1.061
10635SOL    HW232805   2.974   0.792   1.195
10636SOL     OW32806   0.743   1.989   1.765
10636SOL    HW132807   0.653   2.024   1.794
10636SOL    HW232808   0.808   1.999   1.840
10637SOL     OW32809   3.631   4.042   5.464
10637SOL    HW132810   3.593   4.096   5.539
10637SOL    HW232811   3.692   4.100   5.409
10638SOL     OW32812   0.620   6.433   3.340
10638SOL    HW132813   0.520   6.440   3.337
10638SOL    HW232814   0.649   6.352   3.289
10639SOL     OW32815   1.001   1.645   3.704
10639SOL    HW132816   1.027   1.562   3.655
10639SOL    HW232817   1.078   1.709   3.704
10640SOL     OW32818   4.333   6.947   6.850
10640SOL    HW132819   4.370   6.964   6.941
10640SOL    HW232820   4.407   6.917   6.789
10641SOL     OW32821   4.399   1.611   0.241
10641SOL    HW132822   4.425   1.707   0.251
10641SOL    HW232823   4.306   1.605   0.204
10642SOL     OW32824   0.621   2.263   1.383
10642SOL    HW132825   0.707   2.255   1.333
10642SOL    HW232826   0.551   2.301   1.322
10643SOL     OW32827   2.289   3.958   5.707
10643SOL    HW132828   2.323   3.894   5.776
10643SOL    HW232829   2.348   3.954   5.626
10644SOL     OW32830   4.326   2.009   4.147
10644SOL    HW132831   4.340   2.058   4.061
10644SOL    HW232832   4.368   1.918   4.141
10645SOL     OW32833   0.829   1.140   4.153
10645SOL    HW132834   0.864   1.214   4.210
10645SOL    HW232835   0.794   1.178   4.067
10646SOL     OW32836   0.621   2.095   6.028
10646SOL    HW132837   0.533   2.135   6.002
10646SOL    HW232838   0.690   2.167   6.031
10647SOL     OW32839   5.639   5.274   6.272
10647SOL    HW132840   5.629   5.294   6.174
10647SOL    HW232841   5.640   5.175   6.285
10648SOL     OW32842   5.140   3.555   6.451
10648SOL    HW132843   5.192   3.600   6.523
10648SOL    HW232844   5.203   3.505   6.391
10649SOL     OW32845   0.167   4.504   4.485
10649SOL    HW132846   0.112   4.552   4.416
10649SOL    HW232847   0.248   4.559   4.506
10650SOL     OW32848   1.356   6.483   3.872
10650SOL    HW132849   1.422   6.413   3.847
10650SOL    HW232850   1.366   6.562   3.811
10651SOL     OW32851   4.409   0.006   5.298
10651SOL    HW132852   4.400   0.105   5.291
10651SOL    HW232853   4.397   6.998   5.394
10652SOL     OW32854   3.322   0.063   6.150
10652SOL    HW132855   3.395   0.026   6.208
10652SOL    HW232856   3.251   7.013   6.138
10653SOL     OW32857   5.244   4.486   4.425
10653SOL    HW132858   5.192   4.403   4.405
10653SOL    HW232859   5.223   4.556   4.357
10654SOL     OW32860   3.260   6.923   1.582
10654SOL    HW132861   3.202   6.916   1.501
10654SOL    HW232862   3.223   6.865   1.655
10655SOL     OW32863   2.968   5.319   2.149
10655SOL    HW132864   3.037   5.293   2.217
10655SOL    HW232865   3.002   5.298   2.058
10656SOL     OW32866   6.385   2.486   6.733
10656SOL    HW132867   6.390   2.581   6.764
10656SOL    HW232868   6.412   2.425   6.807
10657SOL     OW32869   6.024   6.645   0.739
10657SOL    HW132870   6.079   6.620   0.819
10657SOL    HW232871   6.076   6.627   0.656
10658SOL     OW32872   0.731   4.393   5.024
10658SOL    HW132873   0.638   4.420   4.998
10658SOL    HW232874   0.795   4.465   4.996
10659SOL     OW32875   5.762   0.166   0.968
10659SOL    HW132876   5.714   0.146   0.883
10659SOL    HW232877   5.852   0.204   0.947
10660SOL     OW32878   4.869   4.065   6.042
10660SOL    HW132879   4.870   4.006   5.961
10660SOL    HW232880   4.781   4.059   6.088
10661SOL     OW32881   0.236   6.555   2.441
10661SOL    HW132882   0.292   6.473   2.454
10661SOL    HW232883   0.240   6.611   2.523
10662SOL     OW32884   6.638   0.818   0.816
10662SOL    HW132885   6.737   0.818   0.802
10662SOL    HW232886   6.594   0.872   0.745
10663SOL     OW32887   0.878   0.394   1.309
10663SOL    HW132888   0.896   0.358   1.401
10663SOL    HW232889   0.847   0.319   1.250
10664SOL     OW32890   2.187   4.196   6.615
10664SOL    HW132891   2.207   4.273   6.555
10664SOL    HW232892   2.100   4.154   6.589
10665SOL     OW32893   1.056   1.486   0.138
10665SOL    HW132894   1.012   1.408   0.183
10665SOL    HW232895   1.086   1.459   0.047
10666SOL     OW32896   3.580   4.829   6.896
10666SOL    HW132897   3.609   4.762   6.964
10666SOL    HW232898   3.486   4.857   6.915
10667SOL     OW32899   3.900   1.893   5.537
10667SOL    HW132900   3.873   1.798   5.553
10667SOL    HW232901   3.832   1.955   5.576
10668SOL     OW32902   1.580   1.903   5.983
10668SOL    HW132903   1.587   1.867   5.890
10668SOL    HW232904   1.487   1.889   6.016
10669SOL     OW32905   0.573   6.889   0.917
10669SOL    HW132906   0.542   6.893   1.012
10669SOL    HW232907   0.497   6.911   0.856
10670SOL     OW32908   5.787   4.714   5.896
10670SOL    HW132909   5.801   4.782   5.824
10670SOL    HW232910   5.701   4.665   5.879
10671SOL     OW32911   2.161   3.149   2.740
10671SOL    HW132912   2.190   3.065   2.692
10671SOL    HW232913   2.165   3.134   2.838
10672SOL     OW32914   0.284   2.712   0.656
10672SOL    HW132915   0.249   2.763   0.578
10672SOL    HW232916   0.354   2.647   0.625
10673SOL     OW32917   2.895   2.625   5.792
10673SOL    HW132918   2.862   2.531   5.793
10673SOL    HW232919   2.850   2.676   5.866
10674SOL     OW32920   3.870   3.584   0.965
10674SOL    HW132921   3.919   3.670   0.949
10674SOL    HW232922   3.929   3.521   1.014
10675SOL     OW32923   0.563   0.424   5.659
10675SOL    HW132924   0.639   0.364   5.634
10675SOL    HW232925   0.584   0.518   5.631
10676SOL     OW32926   5.713   0.851   6.572
10676SOL    HW132927   5.713   0.770   6.630
10676SOL    HW232928   5.730   0.824   6.477
10677SOL     OW32929   0.403   0.626   2.391
10677SOL    HW132930   0.310   0.656   2.366
10677SOL    HW232931   0.465   0.704   2.386
10678SOL     OW32932   2.864   5.906   2.682
10678SOL    HW132933   2.909   5.817   2.698
10678SOL    HW232934   2.818   5.936   2.766
10679SOL     OW32935   5.747   5.405   4.410
10679SOL    HW132936   5.771   5.489   4.360
10679SOL    HW232937   5.769   5.417   4.507
10680SOL     OW32938   1.690   3.004   2.626
10680SOL    HW132939   1.779   3.046   2.612
10680SOL    HW232940   1.624   3.040   2.560
10681SOL     OW32941   6.321   4.112   6.436
10681SOL    HW132942   6.375   4.159   6.505
10681SOL    HW232943   6.381   4.075   6.365
10682SOL     OW32944   1.624   1.526   3.153
10682SOL    HW132945   1.712   1.534   3.105
10682SOL    HW232946   1.578   1.442   3.124
10683SOL     OW32947   2.094   2.333   3.995
10683SOL    HW132948   2.166   2.387   4.040
10683SOL    HW232949   2.086   2.245   4.042
10684SOL     OW32950   5.416   4.092   0.996
10684SOL    HW132951   5.317   4.097   1.008
10684SOL    HW232952   5.445   4.161   0.929
10685SOL     OW32953   0.967   4.107   3.225
10685SOL    HW132954   1.047   4.126   3.283
10685SOL    HW232955   0.884   4.117   3.280
10686SOL     OW32956   3.608   5.975   6.850
10686SOL    HW132957   3.573   6.061   6.885
10686SOL    HW232958   3.648   5.922   6.924
10687SOL     OW32959   0.081   5.214   2.629
10687SOL    HW132960   0.101   5.312   2.622
10687SOL    HW232961   0.137   5.173   2.701
10688SOL     OW32962   6.532   4.339   2.414
10688SOL    HW132963   6.517   4.288   2.329
10688SOL    HW232964   6.612   4.302   2.462
10689SOL     OW32965   0.022   0.265   2.999
10689SOL    HW132966   6.946   0.256   2.970
10689SOL    HW232967   0.056   0.176   3.030
10690SOL     OW32968   4.088   5.334   2.656
10690SOL    HW132969   4.094   5.306   2.560
10690SOL    HW232970   3.999   5.375   2.674
10691SOL     OW32971   6.765   1.297   1.640
10691SOL    HW132972   6.760   1.369   1.710
10691SOL    HW232973   6.848   1.308   1.587
10692SOL     OW32974   3.068   5.923   3.871
10692SOL    HW132975   3.094   5.939   3.966
10692SOL    HW232976   3.071   5.825   3.852
10693SOL     OW32977   0.938   1.617   0.850
10693SOL    HW132978   0.935   1.544   0.919
10693SOL    HW232979   0.914   1.704   0.893
10694SOL     OW32980   3.487   6.251   0.906
10694SOL    HW132981   3.455   6.235   0.813
10694SOL    HW232982   3.586   6.236   0.910
10695SOL     OW32983   0.444   2.873   4.027
10695SOL    HW132984   0.377   2.838   4.093
10695SOL    HW232985   0.517   2.806   4.015
10696SOL     OW32986   6.859   6.119   1.524
10696SOL    HW132987   6.791   6.187   1.553
10696SOL    HW232988   6.917   6.159   1.453
10697SOL     OW32989   0.317   6.341   3.712
10697SOL    HW132990   0.405   6.342   3.759
10697SOL    HW232991   0.294   6.434   3.683
10698SOL     OW32992   2.764   0.257   3.193
10698SOL    HW132993   2.722   0.229   3.106
10698SOL    HW232994   2.705   0.322   3.240
10699SOL     OW32995   4.606   1.778   3.019
10699SOL    HW132996   4.558   1.690   3.017
10699SOL    HW232997   4.552   1.847   2.971
10700SOL     OW32998   0.220   6.654   0.836
10700SOL    HW132999   0.304   6.630   0.788
10700SOL    HW233000   0.141   6.638   0.776
10701SOL     OW33001   3.858   5.741   6.943
10701SOL    HW133002   3.922   5.673   6.907
10701SOL    HW233003   3.780   5.694   6.986
10702SOL     OW33004   6.099   2.663   0.373
10702SOL    HW133005   6.115   2.760   0.351
10702SOL    HW233006   6.057   2.618   0.294
10703SOL     OW33007   3.862   4.029   3.558
10703SOL    HW133008   3.842   4.049   3.462
10703SOL    HW233009   3.788   4.065   3.615
10704SOL     OW33010   4.812   6.814   2.319
10704SOL    HW133011   4.841   6.874   2.244
10704SOL    HW233012   4.713   6.823   2.332
10705SOL     OW33013   1.317   4.254   6.768
10705SOL    HW133014   1.332   4.288   6.861
10705SOL    HW233015   1.305   4.155   6.770
10706SOL     OW33016   3.925   0.688   1.745
10706SOL    HW133017   3.850   0.622   1.746
10706SOL    HW233018   4.013   0.640   1.743
10707SOL     OW33019   6.728   6.947   5.748
10707SOL    HW133020   6.657   6.956   5.678
10707SOL    HW233021   6.705   7.006   5.826
10708SOL     OW33022   4.837   1.244   1.157
10708SOL    HW133023   4.932   1.268   1.175
10708SOL    HW233024   4.816   1.259   1.060
10709SOL     OW33025   6.521   0.304   5.044
10709SOL    HW133026   6.466   0.259   5.115
10709SOL    HW233027   6.611   0.326   5.080
10710SOL     OW33028   6.325   5.612   3.870
10710SOL    HW133029   6.324   5.516   3.901
10710SOL    HW233030   6.231   5.642   3.852
10711SOL     OW33031   1.844   0.249   4.186
10711SOL    HW133032   1.820   0.346   4.176
10711SOL    HW233033   1.867   0.211   4.096
10712SOL     OW33034   3.856   1.660   4.911
10712SOL    HW133035   3.918   1.731   4.946
10712SOL    HW233036   3.887   1.631   4.820
10713SOL     OW33037   2.551   5.862   1.960
10713SOL    HW133038   2.620   5.830   1.896
10713SOL    HW233039   2.509   5.783   2.006
10714SOL     OW33040   0.670   4.710   5.064
10714SOL    HW133041   0.705   4.754   5.147
10714SOL    HW233042   0.746   4.675   5.010
10715SOL     OW33043   4.900   2.109   4.249
10715SOL    HW133044   4.863   2.017   4.254
10715SOL    HW233045   4.980   2.110   4.190
10716SOL     OW33046   6.505   1.300   4.558
10716SOL    HW133047   6.593   1.254   4.564
10716SOL    HW233048   6.436   1.236   4.525
10717SOL     OW33049   6.486   1.201   2.194
10717SOL    HW133050   6.457   1.175   2.102
10717SOL    HW233051   6.586   1.196   2.199
10718SOL     OW33052   6.351   5.216   6.756
10718SOL    HW133053   6.342   5.197   6.853
10718SOL    HW233054   6.380   5.312   6.743
10719SOL     OW33055   5.062   1.327   1.852
10719SOL    HW133056   5.011   1.401   1.808
10719SOL    HW233057   5.066   1.248   1.791
10720SOL     OW33058   0.136   3.433   6.640
10720SOL    HW133059   0.088   3.429   6.552
10720SOL    HW233060   0.102   3.510   6.693
10721SOL     OW33061   6.038   2.494   4.745
10721SOL    HW133062   5.952   2.505   4.795
10721SOL    HW233063   6.024   2.512   4.648
10722SOL     OW33064   6.262   3.444   0.244
10722SOL    HW133065   6.172   3.429   0.287
10722SOL    HW233066   6.269   3.389   0.161
10723SOL     OW33067   5.762   4.572   6.358
10723SOL    HW133068   5.694   4.625   6.408
10723SOL    HW233069   5.718   4.524   6.283
10724SOL     OW33070   4.300   6.423   6.207
10724SOL    HW133071   4.241   6.358   6.256
10724SOL    HW233072   4.396   6.403   6.227
10725SOL     OW33073   0.553   6.315   4.296
10725SOL    HW133074   0.593   6.224   4.309
10725SOL    HW233075   0.613   6.369   4.238
10726SOL     OW33076   6.069   0.550   4.651
10726SOL    HW133077   5.996   0.612   4.622
10726SOL    HW233078   6.072   0.471   4.589
10727SOL     OW33079   2.060   5.654   5.437
10727SOL    HW133080   2.091   5.568   5.398
10727SOL    HW233081   1.970   5.641   5.479
10728SOL     OW33082   4.609   6.931   3.171
10728SOL    HW133083   4.573   6.945   3.079
10728SOL    HW233084   4.579   7.005   3.230
10729SOL     OW33085   6.354   2.533   2.743
10729SOL    HW133086   6.357   2.510   2.646
10729SOL    HW233087   6.319   2.626   2.754
10730SOL     OW33088   2.213   6.466   2.218
10730SOL    HW133089   2.162   6.507   2.293
10730SOL    HW233090   2.278   6.399   2.254
10731SOL     OW33091   3.394   5.977   0.274
10731SOL    HW133092   3.471   6.038   0.257
10731SOL    HW233093   3.376   5.923   0.191
10732SOL     OW33094   5.727   5.989   2.723
10732SOL    HW133095   5.655   5.973   2.790
10732SOL    HW233096   5.816   5.983   2.768
10733SOL     OW33097   6.213   1.570   6.101
10733SOL    HW133098   6.299   1.519   6.104
10733SOL    HW233099   6.165   1.548   6.016
10734SOL     OW33100   1.634   0.511   6.516
10734SOL    HW133101   1.717   0.560   6.541
10734SOL    HW233102   1.651   0.413   6.518
10735SOL     OW33103   0.907   4.962   2.090
10735SOL    HW133104   0.932   5.041   2.145
10735SOL    HW233105   0.892   4.883   2.150
10736SOL     OW33106   0.025   0.863   3.531
10736SOL    HW133107   0.034   0.933   3.461
10736SOL    HW233108   0.072   0.893   3.614
10737SOL     OW33109   0.317   1.723   0.951
10737SOL    HW133110   0.417   1.719   0.961
10737SOL    HW233111   0.279   1.779   1.025
10738SOL     OW33112   2.754   0.884   2.769
10738SOL    HW133113   2.686   0.908   2.838
10738SOL    HW233114   2.844   0.917   2.798
10739SOL     OW33115   5.786   1.496   2.292
10739SOL    HW133116   5.820   1.559   2.223
10739SOL    HW233117   5.698   1.529   2.328
10740SOL     OW33118   1.632   6.526   5.898
10740SOL    HW133119   1.663   6.434   5.921
10740SOL    HW233120   1.639   6.585   5.978
10741SOL     OW33121   1.755   2.770   3.083
10741SOL    HW133122   1.705   2.776   3.169
10741SOL    HW233123   1.823   2.697   3.088
10742SOL     OW33124   6.264   5.536   2.345
10742SOL    HW133125   6.336   5.517   2.279
10742SOL    HW233126   6.203   5.606   2.308
10743SOL     OW33127   3.276   1.481   5.552
10743SOL    HW133128   3.193   1.490   5.607
10743SOL    HW233129   3.273   1.545   5.476
10744SOL     OW33130   2.723   0.433   1.274
10744SOL    HW133131   2.739   0.424   1.176
10744SOL    HW233132   2.652   0.368   1.302
10745SOL     OW33133   2.026   4.129   0.904
10745SOL    HW133134   1.996   4.121   0.808
10745SOL    HW233135   2.110   4.078   0.917
10746SOL     OW33136   2.395   5.936   6.959
10746SOL    HW133137   2.331   6.013   6.961
10746SOL    HW233138   2.379   5.882   6.876
10747SOL     OW33139   6.167   2.312   4.392
10747SOL    HW133140   6.214   2.346   4.474
10747SOL    HW233141   6.071   2.295   4.414
10748SOL     OW33142   4.084   5.130   1.013
10748SOL    HW133143   4.064   5.095   1.105
10748SOL    HW233144   4.090   5.053   0.949
10749SOL     OW33145   6.466   5.011   2.628
10749SOL    HW133146   6.433   5.047   2.541
10749SOL    HW233147   6.410   4.932   2.654
10750SOL     OW33148   4.919   3.303   4.107
10750SOL    HW133149   4.899   3.205   4.108
10750SOL    HW233150   5.007   3.319   4.063
10751SOL     OW33151   1.630   3.451   5.051
10751SOL    HW133152   1.567   3.386   5.092
10751SOL    HW233153   1.602   3.470   4.957
10752SOL     OW33154   5.644   5.398   0.329
10752SOL    HW133155   5.710   5.459   0.373
10752SOL    HW233156   5.558   5.447   0.313
10753SOL     OW33157   5.295   6.243   3.965
10753SOL    HW133158   5.224   6.285   3.909
10753SOL    HW233159   5.258   6.223   4.056
10754SOL     OW33160   0.989   2.846   1.652
10754SOL    HW133161   1.026   2.865   1.561
10754SOL    HW233162   0.890   2.861   1.651
10755SOL     OW33163   6.666   2.938   1.407
10755SOL    HW133164   6.693   2.908   1.316
10755SOL    HW233165   6.608   2.868   1.450
10756SOL     OW33166   6.604   2.444   0.698
10756SOL    HW133167   6.668   2.399   0.762
10756SOL    HW233168   6.522   2.472   0.748
10757SOL     OW33169   6.555   3.889   0.383
10757SOL    HW133170   6.577   3.880   0.480
10757SOL    HW233171   6.483   3.824   0.358
10758SOL     OW33172   0.457   6.630   6.642
10758SOL    HW133173   0.446   6.619   6.740
10758SOL    HW233174   0.529   6.697   6.624
10759SOL     OW33175   1.718   1.759   6.198
10759SOL    HW133176   1.682   1.761   6.104
10759SOL    HW233177   1.721   1.851   6.235
10760SOL     OW33178   0.713   6.214   0.428
10760SOL    HW133179   0.782   6.263   0.481
10760SOL    HW233180   0.749   6.125   0.401
10761SOL     OW33181   0.954   1.957   6.297
10761SOL    HW133182   0.854   1.960   6.288
10761SOL    HW233183   0.987   2.047   6.325
10762SOL     OW33184   4.147   0.760   5.697
10762SOL    HW133185   4.139   0.669   5.655
10762SOL    HW233186   4.088   0.824   5.649
10763SOL     OW33187   5.822   0.336   3.517
10763SOL    HW133188   5.778   0.396   3.451
10763SOL    HW233189   5.906   0.298   3.477
10764SOL     OW33190   4.567   1.377   4.931
10764SOL    HW133191   4.501   1.314   4.891
10764SOL    HW233192   4.602   1.340   5.016
10765SOL     OW33193   6.108   2.400   1.954
10765SOL    HW133194   6.039   2.471   1.940
10765SOL    HW233195   6.064   2.310   1.958
10766SOL     OW33196   1.013   4.784   0.457
10766SOL    HW133197   1.082   4.857   0.456
10766SOL    HW233198   1.011   4.741   0.547
10767SOL     OW33199   1.492   5.746   0.647
10767SOL    HW133200   1.550   5.670   0.675
10767SOL    HW233201   1.405   5.743   0.697
10768SOL     OW33202   5.566   5.698   0.353
10768SOL    HW133203   5.469   5.678   0.368
10768SOL    HW233204   5.598   5.764   0.420
10769SOL     OW33205   2.892   3.993   5.460
10769SOL    HW133206   2.959   3.944   5.403
10769SOL    HW233207   2.825   4.038   5.402
10770SOL     OW33208   5.473   6.790   4.471
10770SOL    HW133209   5.530   6.756   4.397
10770SOL    HW233210   5.447   6.714   4.531
10771SOL     OW33211   5.278   6.858   5.616
10771SOL    HW133212   5.321   6.849   5.706
10771SOL    HW233213   5.332   6.806   5.549
10772SOL     OW33214   5.545   6.057   3.208
10772SOL    HW133215   5.455   6.099   3.199
10772SOL    HW233216   5.573   6.060   3.304
10773SOL     OW33217   6.927   4.139   0.702
10773SOL    HW133218   0.002   4.173   0.695
10773SOL    HW233219   6.891   4.122   0.610
10774SOL     OW33220   1.451   2.392   0.759
10774SOL    HW133221   1.364   2.343   0.767
10774SOL    HW233222   1.524   2.338   0.801
10775SOL     OW33223   1.690   4.414   0.839
10775SOL    HW133224   1.771   4.389   0.891
10775SOL    HW233225   1.714   4.480   0.768
10776SOL     OW33226   0.001   0.897   2.679
10776SOL    HW133227   0.099   0.910   2.691
10776SOL    HW233228   6.997   0.802   2.699
10777SOL     OW33229   2.993   0.683   3.677
10777SOL    HW133230   2.898   0.694   3.647
10777SOL    HW233231   3.023   0.589   3.657
10778SOL     OW33232   6.617   6.672   4.332
10778SOL    HW133233   6.530   6.646   4.373
10778SOL    HW233234   6.636   6.768   4.354
10779SOL     OW33235   5.236   5.026   3.251
10779SOL    HW133236   5.221   5.057   3.157
10779SOL    HW233237   5.322   5.064   3.285
10780SOL     OW33238   0.600   5.860   4.480
10780SOL    HW133239   0.583   5.767   4.513
10780SOL    HW233240   0.513   5.903   4.456
10781SOL     OW33241   5.944   2.217   4.979
10781SOL    HW133242   5.976   2.172   4.895
10781SOL    HW233243   6.022   2.260   5.025
10782SOL     OW33244   0.809   2.779   5.456
10782SOL    HW133245   0.873   2.704   5.438
10782SOL    HW233246   0.751   2.756   5.535
10783SOL     OW33247   1.303   2.340   2.695
10783SOL    HW133248   1.267   2.420   2.742
10783SOL    HW233249   1.290   2.351   2.596
10784SOL     OW33250   2.698   6.222   2.564
10784SOL    HW133251   2.790   6.205   2.599
10784SOL    HW233252   2.700   6.301   2.502
10785SOL     OW33253   1.776   5.357   1.584
10785SOL    HW133254   1.772   5.423   1.659
10785SOL    HW233255   1.868   5.318   1.579
10786SOL     OW33256   4.657   1.977   2.000
10786SOL    HW133257   4.662   1.929   2.088
10786SOL    HW233258   4.655   1.911   1.926
10787SOL     OW33259   3.359   1.012   3.745
10787SOL    HW133260   3.402   0.965   3.668
10787SOL    HW233261   3.411   1.095   3.767
10788SOL     OW33262   0.378   4.325   0.364
10788SOL    HW133263   0.365   4.229   0.340
10788SOL    HW233264   0.444   4.332   0.439
10789SOL     OW33265   6.456   1.305   6.820
10789SOL    HW133266   6.508   1.260   6.747
10789SOL    HW233267   6.515   1.320   6.899
10790SOL     OW33268   0.713   2.426   4.968
10790SOL    HW133269   0.669   2.341   4.937
10790SOL    HW233270   0.713   2.491   4.892
10791SOL     OW33271   2.025   1.391   2.815
10791SOL    HW133272   1.981   1.307   2.846
10791SOL    HW233273   2.112   1.403   2.862
10792SOL     OW33274   3.696   2.303   1.398
10792SOL    HW133275   3.599   2.297   1.375
10792SOL    HW233276   3.722   2.399   1.408
10793SOL     OW33277   4.591   1.697   4.714
10793SOL    HW133278   4.659   1.635   4.754
10793SOL    HW233279   4.583   1.778   4.772
10794SOL     OW33280   4.456   3.013   1.624
10794SOL    HW133281   4.501   3.018   1.712
10794SOL    HW233282   4.359   3.036   1.634
10795SOL     OW33283   0.207   3.561   2.968
10795SOL    HW133284   0.224   3.648   2.922
10795SOL    HW233285   0.275   3.547   3.040
10796SOL     OW33286   6.538   6.432   6.820
10796SOL    HW133287   6.505   6.522   6.791
10796SOL    HW233288   6.565   6.379   6.739
10797SOL     OW33289   4.300   2.843   0.741
10797SOL    HW133290   4.374   2.783   0.771
10797SOL    HW233291   4.222   2.788   0.713
10798SOL     OW33292   2.978   6.769   6.502
10798SOL    HW133293   2.917   6.698   6.466
10798SOL    HW233294   2.925   6.833   6.558
10799SOL     OW33295   3.017   1.262   2.451
10799SOL    HW133296   3.055   1.347   2.488
10799SOL    HW233297   2.948   1.283   2.382
10800SOL     OW33298   1.446   0.045   6.649
10800SOL    HW133299   1.490   7.015   6.574
10800SOL    HW233300   1.348   0.049   6.634
10801SOL     OW33301   1.859   5.548   6.393
10801SOL    HW133302   1.864   5.643   6.361
10801SOL    HW233303   1.948   5.504   6.379
10802SOL     OW33304   1.291   3.812   3.988
10802SOL    HW133305   1.313   3.791   4.084
10802SOL    HW233306   1.260   3.729   3.942
10803SOL     OW33307   6.125   4.961   5.120
10803SOL    HW133308   6.189   4.967   5.196
10803SOL    HW233309   6.034   4.939   5.155
10804SOL     OW33310   5.976   4.334   1.922
10804SOL    HW133311   6.020   4.343   1.832
10804SOL    HW233312   5.991   4.418   1.975
10805SOL     OW33313   4.170   6.549   0.759
10805SOL    HW133314   4.144   6.460   0.797
10805SOL    HW233315   4.140   6.555   0.664
10806SOL     OW33316   5.418   3.869   0.547
10806SOL    HW133317   5.367   3.810   0.609
10806SOL    HW233318   5.465   3.940   0.599
10807SOL     OW33319   3.537   5.959   3.141
10807SOL    HW133320   3.524   6.010   3.226
10807SOL    HW233321   3.632   5.927   3.136
10808SOL     OW33322   0.683   2.481   6.179
10808SOL    HW133323   0.651   2.572   6.153
10808SOL    HW233324   0.714   2.432   6.097
10809SOL     OW33325   2.923   0.417   3.902
10809SOL    HW133326   2.832   0.450   3.877
10809SOL    HW233327   2.940   0.434   3.999
10810SOL     OW33328   0.485   1.468   5.145
10810SOL    HW133329   0.408   1.484   5.083
10810SOL    HW233330   0.504   1.370   5.149
10811SOL     OW33331   4.488   5.168   5.256
10811SOL    HW133332   4.516   5.120   5.339
10811SOL    HW233333   4.388   5.167   5.248
10812SOL     OW33334   6.679   2.620   2.658
10812SOL    HW133335   6.670   2.626   2.757
10812SOL    HW233336   6.622   2.546   2.624
10813SOL     OW33337   2.926   6.107   2.228
10813SOL    HW133338   2.940   6.040   2.301
10813SOL    HW233339   2.846   6.081   2.173
10814SOL     OW33340   1.913   0.188   5.126
10814SOL    HW133341   2.012   0.197   5.122
10814SOL    HW233342   1.888   0.093   5.144
10815SOL     OW33343   5.614   4.322   2.684
10815SOL    HW133344   5.557   4.265   2.625
10815SOL    HW233345   5.693   4.354   2.633
10816SOL     OW33346   1.440   0.736   2.085
10816SOL    HW133347   1.427   0.691   2.174
10816SOL    HW233348   1.429   0.669   2.012
10817SOL     OW33349   5.016   0.295   2.920
10817SOL    HW133350   5.074   0.267   2.997
10817SOL    HW233351   4.922   0.268   2.938
10818SOL     OW33352   5.210   2.901   6.537
10818SOL    HW133353   5.184   2.958   6.615
10818SOL    HW233354   5.292   2.938   6.494
10819SOL     OW33355   0.380   4.619   6.368
10819SOL    HW133356   0.334   4.578   6.290
10819SOL    HW233357   0.323   4.691   6.406
10820SOL     OW33358   0.012   6.510   3.817
10820SOL    HW133359   6.973   6.429   3.825
10820SOL    HW233360   6.975   6.589   3.792
10821SOL     OW33361   6.558   0.283   1.850
10821SOL    HW133362   6.591   0.198   1.891
10821SOL    HW233363   6.512   0.338   1.920
10822SOL     OW33364   1.149   3.911   2.240
10822SOL    HW133365   1.185   3.891   2.331
10822SOL    HW233366   1.180   3.840   2.176
10823SOL     OW33367   2.301   6.094   0.995
10823SOL    HW133368   2.386   6.043   0.988
10823SOL    HW233369   2.320   6.192   0.988
10824SOL     OW33370   4.901   1.096   2.728
10824SOL    HW133371   4.949   1.155   2.794
10824SOL    HW233372   4.958   1.017   2.708
10825SOL     OW33373   3.273   0.902   0.625
10825SOL    HW133374   3.358   0.955   0.622
10825SOL    HW233375   3.211   0.941   0.693
10826SOL     OW33376   0.371   3.580   2.224
10826SOL    HW133377   0.339   3.583   2.130
10826SOL    HW233378   0.470   3.565   2.225
10827SOL     OW33379   0.150   3.211   4.425
10827SOL    HW133380   0.164   3.186   4.329
10827SOL    HW233381   0.053   3.230   4.441
10828SOL     OW33382   1.411   5.736   0.264
10828SOL    HW133383   1.382   5.773   0.352
10828SOL    HW233384   1.504   5.700   0.272
10829SOL     OW33385   3.220   4.020   2.036
10829SOL    HW133386   3.300   4.077   2.019
10829SOL    HW233387   3.199   4.020   2.134
10830SOL     OW33388   5.287   2.909   4.764
10830SOL    HW133389   5.255   2.954   4.680
10830SOL    HW233390   5.262   2.964   4.843
10831SOL     OW33391   5.448   1.152   2.434
10831SOL    HW133392   5.508   1.147   2.515
10831SOL    HW233393   5.433   1.248   2.410
10832SOL     OW33394   0.995   1.943   0.527
10832SOL    HW133395   0.930   1.913   0.457
10832SOL    HW233396   0.960   1.919   0.618
10833SOL     OW33397   2.760   0.822   4.389
10833SOL    HW133398   2.857   0.838   4.373
10833SOL    HW233399   2.730   0.873   4.470
10834SOL     OW33400   0.597   1.712   5.701
10834SOL    HW133401   0.528   1.640   5.689
10834SOL    HW233402   0.577   1.788   5.639
10835SOL     OW33403   5.667   1.879   2.309
10835SOL    HW133404   5.676   1.978   2.310
10835SOL    HW233405   5.628   1.849   2.222
10836SOL     OW33406   1.288   2.024   6.318
10836SOL    HW133407   1.345   1.984   6.247
10836SOL    HW233408   1.202   1.973   6.325
10837SOL     OW33409   0.105   4.543   0.559
10837SOL    HW133410   0.123   4.595   0.643
10837SOL    HW233411   0.013   4.505   0.563
10838SOL     OW33412   5.454   6.992   6.621
10838SOL    HW133413   5.503   0.018   6.695
10838SOL    HW233414   5.503   6.910   6.592
10839SOL     OW33415   1.757   1.944   0.108
10839SOL    HW133416   1.676   1.944   0.167
10839SOL    HW233417   1.819   1.871   0.137
10840SOL     OW33418   3.382   5.097   1.720
10840SOL    HW133419   3.339   5.175   1.765
10840SOL    HW233420   3.426   5.039   1.788
10841SOL     OW33421   4.170   5.738   5.868
10841SOL    HW133422   4.156   5.639   5.865
10841SOL    HW233423   4.141   5.773   5.957
10842SOL     OW33424   6.240   3.371   0.804
10842SOL    HW133425   6.183   3.447   0.770
10842SOL    HW233426   6.230   3.364   0.903
10843SOL     OW33427   0.623   1.712   2.152
10843SOL    HW133428   0.680   1.697   2.072
10843SOL    HW233429   0.678   1.702   2.235
10844SOL     OW33430   5.600   7.017   2.672
10844SOL    HW133431   5.548   6.988   2.752
10844SOL    HW233432   5.549   0.070   2.623
10845SOL     OW33433   1.076   0.645   1.611
10845SOL    HW133434   1.128   0.593   1.543
10845SOL    HW233435   1.037   0.726   1.569
10846SOL     OW33436   4.212   2.055   1.225
10846SOL    HW133437   4.196   2.043   1.127
10846SOL    HW233438   4.125   2.066   1.272
10847SOL     OW33439   3.711   2.305   5.800
10847SOL    HW133440   3.645   2.377   5.824
10847SOL    HW233441   3.678   2.217   5.834
10848SOL     OW33442   1.438   0.634   0.465
10848SOL    HW133443   1.372   0.681   0.524
10848SOL    HW233444   1.500   0.700   0.424
10849SOL     OW33445   2.711   5.028   4.391
10849SOL    HW133446   2.694   5.070   4.480
10849SOL    HW233447   2.707   4.928   4.399
10850SOL     OW33448   5.477   6.949   6.899
10850SOL    HW133449   5.570   6.950   6.861
10850SOL    HW233450   5.469   6.875   6.965
10851SOL     OW33451   2.751   2.272   6.574
10851SOL    HW133452   2.736   2.296   6.478
10851SOL    HW233453   2.745   2.354   6.630
10852SOL     OW33454   0.388   0.925   6.674
10852SOL    HW133455   0.365   0.964   6.763
10852SOL    HW233456   0.360   0.988   6.601
10853SOL     OW33457   2.951   1.288   4.400
10853SOL    HW133458   2.967   1.198   4.440
10853SOL    HW233459   2.869   1.284   4.342
10854SOL     OW33460   6.387   6.734   6.829
10854SOL    HW133461   6.394   6.733   6.729
10854SOL    HW233462   6.404   6.826   6.862
10855SOL     OW33463   1.717   6.105   1.940
10855SOL    HW133464   1.696   6.089   1.843
10855SOL    HW233465   1.764   6.192   1.951
10856SOL     OW33466   5.978   6.839   6.839
10856SOL    HW133467   6.031   6.907   6.890
10856SOL    HW233468   6.020   6.749   6.851
10857SOL     OW33469   6.554   1.627   3.706
10857SOL    HW133470   6.455   1.634   3.695
10857SOL    HW233471   6.583   1.532   3.692
10858SOL     OW33472   1.370   3.077   0.060
10858SOL    HW133473   1.358   3.031   0.149
10858SOL    HW233474   1.417   3.016   7.016
10859SOL     OW33475   0.840   4.851   3.461
10859SOL    HW133476   0.889   4.870   3.376
10859SOL    HW233477   0.743   4.872   3.450
10860SOL     OW33478   6.702   1.762   0.131
10860SOL    HW133479   6.651   1.690   0.180
10860SOL    HW233480   6.727   1.834   0.195
10861SOL     OW33481   3.015   2.773   1.798
10861SOL    HW133482   3.076   2.702   1.834
10861SOL    HW233483   3.037   2.860   1.840
10862SOL     OW33484   3.291   2.207   5.928
10862SOL    HW133485   3.222   2.134   5.932
10862SOL    HW233486   3.320   2.230   6.021
10863SOL     OW33487   2.638   0.921   3.170
10863SOL    HW133488   2.629   0.822   3.158
10863SOL    HW233489   2.573   0.968   3.110
10864SOL     OW33490   2.399   4.317   1.675
10864SOL    HW133491   2.308   4.346   1.704
10864SOL    HW233492   2.464   4.392   1.688
10865SOL     OW33493   4.904   2.722   3.292
10865SOL    HW133494   4.981   2.718   3.356
10865SOL    HW233495   4.887   2.817   3.267
10866SOL     OW33496   6.784   3.971   2.214
10866SOL    HW133497   6.816   3.957   2.308
10866SOL    HW233498   6.788   4.068   2.191
10867SOL     OW33499   3.316   2.355   0.467
10867SOL    HW133500   3.248   2.294   0.427
10867SOL    HW233501   3.392   2.300   0.503
10868SOL     OW33502   1.253   2.184   3.717
10868SOL    HW133503   1.347   2.170   3.749
10868SOL    HW233504   1.197   2.105   3.741
10869NA      NA33505   0.175   1.834   5.919
10870NA      NA33506   4.381   4.722   5.177
10871NA      NA33507   1.346   5.478   2.512
10872NA      NA33508   5.227   4.145   3.313
10873NA      NA33509   4.270   2.332   5.243
10874NA      NA33510   2.541   5.105   0.850
10875NA      NA33511   0.973   5.492   6.876
10876NA      NA33512   3.410   3.986   1.316
10877NA      NA33513   4.329   5.058   0.727
10878NA      NA33514   3.450   1.127   6.651
10879NA      NA33515   5.662   5.699   2.073
10880NA      NA33516   1.305   6.711   5.342
10881NA      NA33517   4.516   4.989   1.808
10882NA      NA33518   3.074   2.993   6.893
   7.01902   7.01902   7.01902
