Generated by trjconv : CNT in water t= 239.00000
33518
    1C        C    1   2.841   2.767   4.747
    1C        C    2   2.898   2.717   4.866
    1C        C    3   2.843   2.774   4.982
    1C        C    4   2.850   2.776   4.260
    1C        C    5   2.904   2.731   4.383
    1C        C    6   2.854   2.781   4.505
    1C        C    7   3.011   2.639   4.624
    1C        C    8   2.897   2.722   4.626
    1C        C    9   3.074   2.601   4.745
    1C        C   10   3.008   2.629   4.867
    1C        C   11   3.183   2.491   4.977
    1C        C   12   3.062   2.563   4.978
    1C        C   13   2.848   2.770   3.773
    1C        C   14   2.896   2.716   3.894
    1C        C   15   2.847   2.772   4.015
    1C        C   16   3.017   2.646   4.138
    1C        C   17   2.900   2.726   4.137
    1C        C   18   3.079   2.612   4.260
    1C        C   19   3.015   2.644   4.382
    1C        C   20   3.206   2.553   4.502
    1C        C   21   3.073   2.601   4.503
    1C        C   22   3.275   2.531   4.624
    1C        C   23   3.205   2.546   4.746
    1C        C   24   3.413   2.491   4.865
    1C        C   25   3.270   2.503   4.864
    1C        C   26   3.489   2.475   4.982
    1C        C   27   2.852   2.769   3.283
    1C        C   28   2.908   2.726   3.405
    1C        C   29   2.858   2.775   3.528
    1C        C   30   3.017   2.639   3.652
    1C        C   31   2.904   2.724   3.651
    1C        C   32   3.076   2.600   3.774
    1C        C   33   3.011   2.633   3.894
    1C        C   34   3.205   2.549   4.018
    1C        C   35   3.074   2.601   4.017
    1C        C   36   3.278   2.532   4.138
    1C        C   37   3.209   2.558   4.259
    1C        C   38   3.415   2.509   4.382
    1C        C   39   3.276   2.535   4.381
    1C        C   40   3.486   2.503   4.504
    1C        C   41   3.414   2.505   4.625
    1C        C   42   3.629   2.483   4.744
    1C        C   43   3.486   2.485   4.744
    1C        C   44   3.704   2.489   4.863
    1C        C   45   3.627   2.480   4.979
    1C        C   46   2.842   2.758   2.793
    1C        C   47   2.898   2.716   2.916
    1C        C   48   2.846   2.765   3.038
    1C        C   49   3.018   2.640   3.161
    1C        C   50   2.903   2.723   3.160
    1C        C   51   3.078   2.600   3.283
    1C        C   52   3.017   2.636   3.405
    1C        C   53   3.205   2.545   3.527
    1C        C   54   3.075   2.601   3.529
    1C        C   55   3.272   2.523   3.650
    1C        C   56   3.207   2.547   3.773
    1C        C   57   3.413   2.506   3.894
    1C        C   58   3.274   2.528   3.896
    1C        C   59   3.486   2.496   4.015
    1C        C   60   3.415   2.500   4.137
    1C        C   61   3.626   2.501   4.258
    1C        C   62   3.485   2.496   4.260
    1C        C   63   3.697   2.513   4.379
    1C        C   64   3.627   2.509   4.502
    1C        C   65   3.834   2.549   4.621
    1C        C   66   3.699   2.507   4.624
    1C        C   67   3.905   2.564   4.742
    1C        C   68   3.840   2.527   4.863
    1C        C   69   4.050   2.585   4.977
    1C        C   70   3.921   2.529   4.977
    1C        C   71   2.829   2.738   2.307
    1C        C   72   2.889   2.696   2.428
    1C        C   73   2.835   2.749   2.548
    1C        C   74   3.008   2.627   2.671
    1C        C   75   2.893   2.710   2.670
    1C        C   76   3.071   2.597   2.793
    1C        C   77   3.013   2.634   2.916
    1C        C   78   3.205   2.545   3.039
    1C        C   79   3.076   2.602   3.038
    1C        C   80   3.275   2.528   3.160
    1C        C   81   3.208   2.545   3.283
    1C        C   82   3.412   2.494   3.404
    1C        C   83   3.274   2.521   3.406
    1C        C   84   3.484   2.494   3.526
    1C        C   85   3.412   2.503   3.647
    1C        C   86   3.622   2.502   3.770
    1C        C   87   3.481   2.499   3.770
    1C        C   88   3.694   2.513   3.892
    1C        C   89   3.627   2.505   4.016
    1C        C   90   3.836   2.542   4.135
    1C        C   91   3.699   2.509   4.137
    1C        C   92   3.898   2.575   4.257
    1C        C   93   3.834   2.549   4.380
    1C        C   94   4.032   2.631   4.497
    1C        C   95   3.904   2.572   4.501
    1C        C   96   4.090   2.671   4.619
    1C        C   97   4.029   2.632   4.741
    1C        C   98   4.189   2.767   4.859
    1C        C   99   4.098   2.657   4.863
    1C        C  100   4.208   2.846   4.973
    1C        C  101   2.817   2.732   2.072
    1C        C  102   2.988   2.588   2.191
    1C        C  103   2.875   2.676   2.187
    1C        C  104   3.062   2.567   2.310
    1C        C  105   3.003   2.613   2.430
    1C        C  106   3.203   2.537   2.549
    1C        C  107   3.070   2.586   2.551
    1C        C  108   3.269   2.520   2.672
    1C        C  109   3.199   2.537   2.794
    1C        C  110   3.409   2.499   2.915
    1C        C  111   3.269   2.519   2.916
    1C        C  112   3.483   2.494   3.035
    1C        C  113   3.415   2.509   3.158
    1C        C  114   3.624   2.505   3.280
    1C        C  115   3.483   2.503   3.282
    1C        C  116   3.693   2.509   3.403
    1C        C  117   3.625   2.499   3.526
    1C        C  118   3.831   2.547   3.646
    1C        C  119   3.695   2.509   3.649
    1C        C  120   3.896   2.571   3.768
    1C        C  121   3.830   2.549   3.891
    1C        C  122   4.024   2.641   4.013
    1C        C  123   3.899   2.575   4.012
    1C        C  124   4.088   2.672   4.135
    1C        C  125   4.025   2.638   4.257
    1C        C  126   4.195   2.771   4.377
    1C        C  127   4.090   2.676   4.376
    1C        C  128   4.245   2.822   4.499
    1C        C  129   4.191   2.770   4.618
    1C        C  130   4.322   2.940   4.739
    1C        C  131   4.239   2.825   4.739
    1C        C  132   4.358   3.001   4.861
    1C        C  133   4.285   2.962   4.974
    1C        C  134   3.174   2.464   2.081
    1C        C  135   3.041   2.507   2.085
    1C        C  136   3.262   2.480   2.188
    1C        C  137   3.196   2.520   2.307
    1C        C  138   3.406   2.476   2.429
    1C        C  139   3.267   2.503   2.427
    1C        C  140   3.480   2.478   2.549
    1C        C  141   3.406   2.489   2.669
    1C        C  142   3.619   2.494   2.791
    1C        C  143   3.478   2.489   2.791
    1C        C  144   3.691   2.503   2.912
    1C        C  145   3.624   2.491   3.035
    1C        C  146   3.830   2.542   3.155
    1C        C  147   3.694   2.505   3.157
    1C        C  148   3.896   2.564   3.278
    1C        C  149   3.831   2.541   3.401
    1C        C  150   4.022   2.633   3.521
    1C        C  151   3.899   2.564   3.523
    1C        C  152   4.079   2.672   3.644
    1C        C  153   4.023   2.634   3.768
    1C        C  154   4.188   2.769   3.889
    1C        C  155   4.081   2.677   3.889
    1C        C  156   4.236   2.819   4.012
    1C        C  157   4.196   2.763   4.135
    1C        C  158   4.339   2.925   4.251
    1C        C  159   4.251   2.814   4.255
    1C        C  160   4.376   2.987   4.372
    1C        C  161   4.337   2.930   4.495
    1C        C  162   4.444   3.113   4.617
    1C        C  163   4.375   2.990   4.617
    1C        C  164   4.472   3.182   4.737
    1C        C  165   4.437   3.118   4.858
    1C        C  166   4.509   3.320   4.977
    1C        C  167   4.480   3.183   4.974
    1C        C  168   3.474   2.425   2.071
    1C        C  169   3.400   2.452   2.187
    1C        C  170   3.617   2.470   2.307
    1C        C  171   3.475   2.461   2.307
    1C        C  172   3.692   2.489   2.424
    1C        C  173   3.621   2.488   2.546
    1C        C  174   3.826   2.535   2.667
    1C        C  175   3.690   2.497   2.669
    1C        C  176   3.893   2.566   2.788
    1C        C  177   3.827   2.541   2.911
    1C        C  178   4.023   2.627   3.029
    1C        C  179   3.896   2.565   3.032
    1C        C  180   4.082   2.666   3.151
    1C        C  181   4.021   2.629   3.273
    1C        C  182   4.190   2.756   3.399
    1C        C  183   4.079   2.668   3.396
    1C        C  184   4.242   2.805   3.521
    1C        C  185   4.191   2.758   3.644
    1C        C  186   4.333   2.918   3.764
    1C        C  187   4.240   2.812   3.765
    1C        C  188   4.378   2.976   3.885
    1C        C  189   4.334   2.921   4.007
    1C        C  190   4.443   3.107   4.126
    1C        C  191   4.378   2.981   4.128
    1C        C  192   4.472   3.172   4.248
    1C        C  193   4.439   3.114   4.372
    1C        C  194   4.515   3.313   4.491
    1C        C  195   4.468   3.179   4.494
    1C        C  196   4.530   3.384   4.612
    1C        C  197   4.513   3.318   4.735
    1C        C  198   4.552   3.530   4.851
    1C        C  199   4.532   3.388   4.857
    1C        C  200   4.580   3.619   4.960
    1C        C  201   3.613   2.410   2.078
    1C        C  202   3.829   2.502   2.183
    1C        C  203   3.692   2.459   2.187
    1C        C  204   3.898   2.535   2.302
    1C        C  205   3.830   2.519   2.425
    1C        C  206   4.024   2.612   2.542
    1C        C  207   3.896   2.552   2.546
    1C        C  208   4.084   2.654   2.662
    1C        C  209   4.020   2.627   2.785
    1C        C  210   4.198   2.745   2.907
    1C        C  211   4.084   2.662   2.906
    1C        C  212   4.250   2.794   3.030
    1C        C  213   4.194   2.751   3.152
    1C        C  214   4.331   2.910   3.272
    1C        C  215   4.240   2.803   3.276
    1C        C  216   4.367   2.973   3.394
    1C        C  217   4.327   2.918   3.517
    1C        C  218   4.430   3.103   3.638
    1C        C  219   4.368   2.976   3.640
    1C        C  220   4.460   3.171   3.758
    1C        C  221   4.441   3.102   3.880
    1C        C  222   4.503   3.306   4.003
    1C        C  223   4.466   3.169   4.002
    1C        C  224   4.519   3.378   4.123
    1C        C  225   4.513   3.308   4.246
    1C        C  226   4.532   3.520   4.368
    1C        C  227   4.528   3.379   4.367
    1C        C  228   4.526   3.595   4.487
    1C        C  229   4.533   3.526   4.610
    1C        C  230   4.504   3.739   4.727
    1C        C  231   4.540   3.601   4.729
    1C        C  232   4.492   3.818   4.843
    1C        C  233   4.538   3.752   4.958
    1C        C  234   4.018   2.604   2.064
    1C        C  235   3.893   2.542   2.065
    1C        C  236   4.078   2.652   2.181
    1C        C  237   4.022   2.605   2.302
    1C        C  238   4.196   2.738   2.419
    1C        C  239   4.087   2.647   2.420
    1C        C  240   4.253   2.783   2.540
    1C        C  241   4.198   2.738   2.662
    1C        C  242   4.335   2.903   2.783
    1C        C  243   4.246   2.794   2.783
    1C        C  244   4.375   2.962   2.905
    1C        C  245   4.338   2.904   3.028
    1C        C  246   4.440   3.091   3.148
    1C        C  247   4.376   2.965   3.150
    1C        C  248   4.461   3.161   3.269
    1C        C  249   4.433   3.098   3.393
    1C        C  250   4.499   3.300   3.513
    1C        C  251   4.461   3.164   3.515
    1C        C  252   4.511   3.372   3.633
    1C        C  253   4.504   3.306   3.758
    1C        C  254   4.527   3.515   3.879
    1C        C  255   4.518   3.374   3.880
    1C        C  256   4.524   3.588   4.000
    1C        C  257   4.525   3.519   4.123
    1C        C  258   4.495   3.728   4.243
    1C        C  259   4.523   3.590   4.245
    1C        C  260   4.467   3.798   4.363
    1C        C  261   4.492   3.732   4.486
    1C        C  262   4.422   3.936   4.603
    1C        C  263   4.474   3.805   4.605
    1C        C  264   4.402   4.010   4.722
    1C        C  265   4.435   3.947   4.844
    1C        C  266   4.320   4.134   4.958
    1C        C  267   4.388   4.013   4.959
    1C        C  268   4.264   2.772   2.062
    1C        C  269   4.194   2.733   2.177
    1C        C  270   4.346   2.886   2.300
    1C        C  271   4.254   2.778   2.297
    1C        C  272   4.386   2.950   2.419
    1C        C  273   4.346   2.889   2.540
    1C        C  274   4.443   3.083   2.660
    1C        C  275   4.375   2.959   2.659
    1C        C  276   4.465   3.152   2.781
    1C        C  277   4.438   3.088   2.904
    1C        C  278   4.504   3.292   3.026
    1C        C  279   4.466   3.155   3.025
    1C        C  280   4.521   3.364   3.146
    1C        C  281   4.504   3.296   3.269
    1C        C  282   4.526   3.507   3.390
    1C        C  283   4.521   3.366   3.390
    1C        C  284   4.518   3.579   3.512
    1C        C  285   4.524   3.513   3.636
    1C        C  286   4.499   3.725   3.754
    1C        C  287   4.528   3.587   3.757
    1C        C  288   4.482   3.794   3.876
    1C        C  289   4.497   3.727   4.000
    1C        C  290   4.427   3.929   4.118
    1C        C  291   4.476   3.797   4.121
    1C        C  292   4.390   3.994   4.238
    1C        C  293   4.417   3.930   4.361
    1C        C  294   4.324   4.125   4.479
    1C        C  295   4.389   3.999   4.481
    1C        C  296   4.283   4.189   4.598
    1C        C  297   4.325   4.129   4.719
    1C        C  298   4.203   4.313   4.839
    1C        C  299   4.282   4.194   4.837
    1C        C  300   4.170   4.404   4.945
    1C        C  301   4.355   2.876   2.061
    1C        C  302   4.467   3.065   2.178
    1C        C  303   4.401   2.938   2.179
    1C        C  304   4.484   3.139   2.298
    1C        C  305   4.443   3.079   2.419
    1C        C  306   4.511   3.284   2.537
    1C        C  307   4.476   3.147   2.538
    1C        C  308   4.516   3.357   2.658
    1C        C  309   4.499   3.289   2.781
    1C        C  310   4.531   3.500   2.902
    1C        C  311   4.518   3.359   2.902
    1C        C  312   4.526   3.572   3.023
    1C        C  313   4.527   3.505   3.147
    1C        C  314   4.492   3.716   3.264
    1C        C  315   4.521   3.578   3.268
    1C        C  316   4.475   3.784   3.387
    1C        C  317   4.493   3.718   3.510
    1C        C  318   4.426   3.921   3.629
    1C        C  319   4.479   3.791   3.631
    1C        C  320   4.395   3.985   3.751
    1C        C  321   4.430   3.925   3.874
    1C        C  322   4.316   4.107   3.994
    1C        C  323   4.395   3.990   3.994
    1C        C  324   4.268   4.164   4.114
    1C        C  325   4.317   4.114   4.237
    1C        C  326   4.183   4.281   4.352
    1C        C  327   4.280   4.180   4.357
    1C        C  328   4.133   4.335   4.473
    1C        C  329   4.188   4.294   4.596
    1C        C  330   4.021   4.428   4.712
    1C        C  331   4.140   4.349   4.717
    1C        C  332   3.970   4.488   4.829
    1C        C  333   4.051   4.478   4.942
    1C        C  334   4.551   3.265   2.063
    1C        C  335   4.534   3.126   2.067
    1C        C  336   4.542   3.348   2.176
    1C        C  337   4.525   3.275   2.295
    1C        C  338   4.524   3.492   2.413
    1C        C  339   4.529   3.351   2.414
    1C        C  340   4.517   3.566   2.534
    1C        C  341   4.518   3.499   2.658
    1C        C  342   4.491   3.708   2.772
    1C        C  343   4.523   3.571   2.780
    1C        C  344   4.472   3.775   2.894
    1C        C  345   4.495   3.710   3.018
    1C        C  346   4.421   3.910   3.138
    1C        C  347   4.466   3.776   3.139
    1C        C  348   4.392   3.976   3.260
    1C        C  349   4.423   3.916   3.384
    1C        C  350   4.317   4.101   3.504
    1C        C  351   4.396   3.984   3.505
    1C        C  352   4.275   4.158   3.626
    1C        C  353   4.317   4.103   3.749
    1C        C  354   4.168   4.255   3.865
    1C        C  355   4.271   4.159   3.870
    1C        C  356   4.115   4.308   3.986
    1C        C  357   4.167   4.263   4.109
    1C        C  358   4.006   4.400   4.229
    1C        C  359   4.119   4.316   4.231
    1C        C  360   3.947   4.441   4.351
    1C        C  361   4.013   4.411   4.472
    1C        C  362   3.828   4.521   4.591
    1C        C  363   3.956   4.462   4.591
    1C        C  364   3.762   4.549   4.713
    1C        C  365   3.840   4.542   4.831
    1C        C  366   3.631   4.590   4.946
    1C        C  367   3.769   4.571   4.948
    1C        C  368   4.504   3.561   2.056
    1C        C  369   4.526   3.488   2.174
    1C        C  370   4.502   3.705   2.287
    1C        C  371   4.515   3.564   2.292
    1C        C  372   4.485   3.777   2.407
    1C        C  373   4.497   3.705   2.528
    1C        C  374   4.413   3.903   2.647
    1C        C  375   4.474   3.775   2.649
    1C        C  376   4.380   3.965   2.770
    1C        C  377   4.422   3.908   2.892
    1C        C  378   4.320   4.093   3.013
    1C        C  379   4.393   3.972   3.014
    1C        C  380   4.273   4.152   3.132
    1C        C  381   4.315   4.094   3.254
    1C        C  382   4.176   4.250   3.378
    1C        C  383   4.273   4.148   3.378
    1C        C  384   4.123   4.302   3.498
    1C        C  385   4.175   4.258   3.622
    1C        C  386   4.003   4.386   3.740
    1C        C  387   4.118   4.304   3.742
    1C        C  388   3.943   4.430   3.860
    1C        C  389   3.999   4.388   3.983
    1C        C  390   3.815   4.490   4.106
    1C        C  391   3.942   4.428   4.106
    1C        C  392   3.749   4.517   4.228
    1C        C  393   3.821   4.503   4.349
    1C        C  394   3.616   4.550   4.473
    1C        C  395   3.757   4.536   4.470
    1C        C  396   3.545   4.565   4.593
    1C        C  397   3.622   4.568   4.711
    1C        C  398   3.411   4.548   4.836
    1C        C  399   3.550   4.571   4.833
    1C        C  400   3.343   4.516   4.954
    1C        C  401   4.503   3.700   2.051
    1C        C  402   4.450   3.914   2.165
    1C        C  403   4.490   3.778   2.167
    1C        C  404   4.406   3.975   2.284
    1C        C  405   4.425   3.905   2.405
    1C        C  406   4.318   4.091   2.526
    1C        C  407   4.393   3.971   2.525
    1C        C  408   4.277   4.151   2.647
    1C        C  409   4.312   4.089   2.769
    1C        C  410   4.173   4.248   2.890
    1C        C  411   4.271   4.147   2.891
    1C        C  412   4.119   4.295   3.012
    1C        C  413   4.173   4.252   3.135
    1C        C  414   4.002   4.377   3.254
    1C        C  415   4.117   4.295   3.257
    1C        C  416   3.943   4.418   3.376
    1C        C  417   4.006   4.382   3.497
    1C        C  418   3.815   4.482   3.616
    1C        C  419   3.941   4.417   3.617
    1C        C  420   3.750   4.510   3.738
    1C        C  421   3.815   4.490   3.861
    1C        C  422   3.610   4.537   3.984
    1C        C  423   3.749   4.514   3.984
    1C        C  424   3.540   4.541   4.107
    1C        C  425   3.609   4.534   4.230
    1C        C  426   3.400   4.555   4.354
    1C        C  427   3.541   4.547   4.353
    1C        C  428   3.331   4.549   4.477
    1C        C  429   3.403   4.562   4.598
    1C        C  430   3.193   4.521   4.720
    1C        C  431   3.332   4.551   4.719
    1C        C  432   3.126   4.492   4.842
    1C        C  433   3.207   4.489   4.957
    1C        C  434   4.380   4.118   2.049
    1C        C  435   4.448   3.996   2.051
    1C        C  436   4.305   4.165   2.162
    1C        C  437   4.333   4.097   2.284
    1C        C  438   4.184   4.253   2.400
    1C        C  439   4.284   4.154   2.404
    1C        C  440   4.127   4.298   2.521
    1C        C  441   4.180   4.254   2.645
    1C        C  442   4.004   4.373   2.765
    1C        C  443   4.119   4.291   2.766
    1C        C  444   3.942   4.412   2.885
    1C        C  445   4.002   4.373   3.007
    1C        C  446   3.813   4.465   3.132
    1C        C  447   3.944   4.412   3.130
    1C        C  448   3.745   4.491   3.253
    1C        C  449   3.813   4.474   3.376
    1C        C  450   3.606   4.535   3.498
    1C        C  451   3.744   4.503   3.496
    1C        C  452   3.538   4.548   3.621
    1C        C  453   3.612   4.539   3.741
    1C        C  454   3.398   4.549   3.862
    1C        C  455   3.539   4.549   3.862
    1C        C  456   3.332   4.535   3.986
    1C        C  457   3.399   4.547   4.110
    1C        C  458   3.191   4.514   4.234
    1C        C  459   3.329   4.547   4.232
    1C        C  460   3.126   4.492   4.357
    1C        C  461   3.194   4.516   4.479
    1C        C  462   2.996   4.432   4.602
    1C        C  463   3.124   4.493   4.599
    1C        C  464   2.930   4.402   4.723
    1C        C  465   2.991   4.446   4.844
    1C        C  466   2.807   4.337   4.959
    1C        C  467   2.910   4.431   4.961
    1C        C  468   4.131   4.293   2.040
    1C        C  469   4.189   4.249   2.160
    1C        C  470   4.005   4.370   2.279
    1C        C  471   4.126   4.295   2.279
    1C        C  472   3.943   4.407   2.400
    1C        C  473   4.010   4.377   2.521
    1C        C  474   3.813   4.463   2.645
    1C        C  475   3.942   4.404   2.642
    1C        C  476   3.746   4.493   2.765
    1C        C  477   3.813   4.470   2.887
    1C        C  478   3.607   4.514   3.011
    1C        C  479   3.746   4.488   3.010
    1C        C  480   3.535   4.532   3.132
    1C        C  481   3.608   4.527   3.253
    1C        C  482   3.396   4.531   3.374
    1C        C  483   3.537   4.535   3.374
    1C        C  484   3.328   4.530   3.498
    1C        C  485   3.397   4.545   3.620
    1C        C  486   3.189   4.501   3.744
    1C        C  487   3.324   4.541   3.742
    1C        C  488   3.126   4.480   3.869
    1C        C  489   3.194   4.504   3.990
    1C        C  490   3.002   4.416   4.115
    1C        C  491   3.127   4.482   4.112
    1C        C  492   2.943   4.382   4.239
    1C        C  493   2.998   4.431   4.359
    1C        C  494   2.830   4.300   4.483
    1C        C  495   2.937   4.393   4.480
    1C        C  496   2.782   4.249   4.605
    1C        C  497   2.818   4.313   4.726
    1C        C  498   2.669   4.162   4.845
    1C        C  499   2.754   4.275   4.845
    1C        C  500   2.597   4.115   4.955
    1C        C  501   4.011   4.363   2.040
    1C        C  502   3.818   4.467   2.156
    1C        C  503   3.943   4.402   2.156
    1C        C  504   3.746   4.483   2.276
    1C        C  505   3.810   4.454   2.399
    1C        C  506   3.609   4.514   2.521
    1C        C  507   3.745   4.478   2.522
    1C        C  508   3.536   4.518   2.643
    1C        C  509   3.606   4.516   2.765
    1C        C  510   3.396   4.526   2.885
    1C        C  511   3.537   4.524   2.889
    1C        C  512   3.324   4.521   3.006
    1C        C  513   3.394   4.531   3.129
    1C        C  514   3.187   4.495   3.254
    1C        C  515   3.325   4.527   3.252
    1C        C  516   3.123   4.471   3.377
    1C        C  517   3.190   4.499   3.498
    1C        C  518   2.998   4.414   3.628
    1C        C  519   3.122   4.482   3.621
    1C        C  520   2.939   4.372   3.749
    1C        C  521   3.002   4.412   3.869
    1C        C  522   2.842   4.277   3.994
    1C        C  523   2.945   4.375   3.992
    1C        C  524   2.792   4.234   4.119
    1C        C  525   2.836   4.290   4.241
    1C        C  526   2.695   4.132   4.365
    1C        C  527   2.780   4.245   4.363
    1C        C  528   2.654   4.075   4.488
    1C        C  529   2.695   4.138   4.607
    1C        C  530   2.585   3.956   4.731
    1C        C  531   2.643   4.086   4.728
    1C        C  532   2.537   3.900   4.853
    1C        C  533   2.525   3.995   4.959
    1C        C  534   3.616   4.556   2.042
    1C        C  535   3.750   4.515   2.043
    1C        C  536   3.535   4.535   2.158
    1C        C  537   3.607   4.512   2.279
    1C        C  538   3.394   4.514   2.403
    1C        C  539   3.536   4.520   2.401
    1C        C  540   3.322   4.504   2.523
    1C        C  541   3.395   4.509   2.644
    1C        C  542   3.184   4.487   2.764
    1C        C  543   3.323   4.515   2.765
    1C        C  544   3.120   4.462   2.887
    1C        C  545   3.188   4.485   3.009
    1C        C  546   2.999   4.394   3.133
    1C        C  547   3.121   4.466   3.132
    1C        C  548   2.943   4.362   3.259
    1C        C  549   2.997   4.406   3.382
    1C        C  550   2.834   4.278   3.505
    1C        C  551   2.938   4.373   3.506
    1C        C  552   2.782   4.229   3.627
    1C        C  553   2.833   4.278   3.749
    1C        C  554   2.700   4.118   3.875
    1C        C  555   2.787   4.229   3.873
    1C        C  556   2.662   4.061   3.999
    1C        C  557   2.704   4.123   4.119
    1C        C  558   2.603   3.941   4.245
    1C        C  559   2.664   4.068   4.243
    1C        C  560   2.566   3.881   4.367
    1C        C  561   2.590   3.949   4.489
    1C        C  562   2.530   3.747   4.617
    1C        C  563   2.566   3.884   4.612
    1C        C  564   2.505   3.679   4.738
    1C        C  565   2.517   3.758   4.855
    1C        C  566   2.534   3.544   4.975
    1C        C  567   2.526   3.683   4.972
    1C        C  568   3.327   4.476   2.042
    1C        C  569   3.396   4.507   2.160
    1C        C  570   3.184   4.472   2.282
    1C        C  571   3.323   4.502   2.282
    1C        C  572   3.113   4.459   2.403
    1C        C  573   3.182   4.486   2.524
    1C        C  574   2.986   4.401   2.649
    1C        C  575   3.112   4.464   2.645
    1C        C  576   2.928   4.360   2.771
    1C        C  577   2.993   4.401   2.890
    1C        C  578   2.828   4.267   3.015
    1C        C  579   2.936   4.358   3.012
    1C        C  580   2.782   4.220   3.140
    1C        C  581   2.835   4.271   3.261
    1C        C  582   2.701   4.110   3.385
    1C        C  583   2.789   4.220   3.384
    1C        C  584   2.658   4.055   3.509
    1C        C  585   2.696   4.117   3.630
    1C        C  586   2.593   3.934   3.757
    1C        C  587   2.663   4.057   3.754
    1C        C  588   2.568   3.870   3.881
    1C        C  589   2.596   3.937   4.002
    1C        C  590   2.536   3.736   4.127
    1C        C  591   2.570   3.872   4.126
    1C        C  592   2.528   3.670   4.252
    1C        C  593   2.534   3.744   4.373
    1C        C  594   2.511   3.534   4.496
    1C        C  595   2.520   3.675   4.496
    1C        C  596   2.515   3.464   4.618
    1C        C  597   2.507   3.536   4.739
    1C        C  598   2.527   3.324   4.858
    1C        C  599   2.520   3.465   4.860
    1C        C  600   2.532   3.249   4.976
    1C        C  601   3.192   4.444   2.044
    1C        C  602   2.980   4.393   2.159
    1C        C  603   3.116   4.440   2.161
    1C        C  604   2.925   4.359   2.286
    1C        C  605   2.987   4.396   2.407
    1C        C  606   2.816   4.270   2.526
    1C        C  607   2.924   4.361   2.529
    1C        C  608   2.771   4.216   2.649
    1C        C  609   2.820   4.269   2.771
    1C        C  610   2.685   4.110   2.897
    1C        C  611   2.768   4.224   2.895
    1C        C  612   2.653   4.051   3.022
    1C        C  613   2.692   4.110   3.144
    1C        C  614   2.593   3.924   3.266
    1C        C  615   2.655   4.051   3.266
    1C        C  616   2.570   3.863   3.392
    1C        C  617   2.597   3.928   3.514
    1C        C  618   2.528   3.728   3.637
    1C        C  619   2.568   3.864   3.637
    1C        C  620   2.514   3.662   3.761
    1C        C  621   2.527   3.735   3.881
    1C        C  622   2.503   3.528   4.008
    1C        C  623   2.515   3.668   4.005
    1C        C  624   2.510   3.456   4.130
    1C        C  625   2.518   3.529   4.251
    1C        C  626   2.540   3.322   4.378
    1C        C  627   2.519   3.462   4.375
    1C        C  628   2.549   3.249   4.499
    1C        C  629   2.534   3.324   4.618
    1C        C  630   2.591   3.117   4.742
    1C        C  631   2.545   3.251   4.738
    1C        C  632   2.611   3.046   4.864
    1C        C  633   2.562   3.112   4.981
    1C        C  634   2.783   4.301   2.054
    1C        C  635   2.893   4.387   2.046
    1C        C  636   2.748   4.228   2.169
    1C        C  637   2.811   4.274   2.286
    1C        C  638   2.681   4.102   2.408
    1C        C  639   2.764   4.216   2.406
    1C        C  640   2.640   4.046   2.532
    1C        C  641   2.682   4.107   2.652
    1C        C  642   2.587   3.920   2.778
    1C        C  643   2.650   4.047   2.776
    1C        C  644   2.560   3.855   2.900
    1C        C  645   2.591   3.924   3.020
    1C        C  646   2.529   3.724   3.148
    1C        C  647   2.566   3.860   3.143
    1C        C  648   2.515   3.655   3.271
    1C        C  649   2.532   3.727   3.392
    1C        C  650   2.511   3.517   3.517
    1C        C  651   2.520   3.658   3.515
    1C        C  652   2.511   3.449   3.641
    1C        C  653   2.507   3.521   3.763
    1C        C  654   2.526   3.314   3.889
    1C        C  655   2.504   3.454   3.888
    1C        C  656   2.549   3.247   4.011
    1C        C  657   2.532   3.317   4.133
    1C        C  658   2.608   3.121   4.256
    1C        C  659   2.550   3.250   4.257
    1C        C  660   2.635   3.055   4.378
    1C        C  661   2.600   3.118   4.499
    1C        C  662   2.709   2.937   4.627
    1C        C  663   2.630   3.054   4.622
    1C        C  664   2.750   2.877   4.748
    1C        C  665   2.695   2.930   4.868
    1C        C  666   2.744   2.871   4.986
    1C        C  667   2.689   4.021   2.055
    1C        C  668   2.683   4.103   2.168
    1C        C  669   2.582   3.911   2.290
    1C        C  670   2.642   4.040   2.288
    1C        C  671   2.556   3.848   2.414
    1C        C  672   2.579   3.919   2.533
    1C        C  673   2.521   3.717   2.660
    1C        C  674   2.560   3.853   2.657
    1C        C  675   2.510   3.647   2.782
    1C        C  676   2.527   3.718   2.904
    1C        C  677   2.500   3.511   3.029
    1C        C  678   2.513   3.652   3.028
    1C        C  679   2.503   3.441   3.152
    1C        C  680   2.504   3.514   3.273
    1C        C  681   2.532   3.306   3.399
    1C        C  682   2.507   3.445   3.396
    1C        C  683   2.554   3.243   3.524
    1C        C  684   2.539   3.311   3.647
    1C        C  685   2.603   3.112   3.769
    1C        C  686   2.549   3.242   3.770
    1C        C  687   2.633   3.052   3.894
    1C        C  688   2.604   3.118   4.016
    1C        C  689   2.708   2.931   4.137
    1C        C  690   2.632   3.050   4.136
    1C        C  691   2.751   2.877   4.261
    1C        C  692   2.710   2.936   4.382
    1C        C  693   2.755   2.882   4.505
    1C        C  694   2.628   3.894   2.057
    1C        C  695   2.532   3.700   2.173
    1C        C  696   2.577   3.833   2.172
    1C        C  697   2.509   3.636   2.297
    1C        C  698   2.520   3.711   2.416
    1C        C  699   2.490   3.505   2.543
    1C        C  700   2.500   3.646   2.540
    1C        C  701   2.496   3.434   2.664
    1C        C  702   2.495   3.507   2.785
    1C        C  703   2.513   3.297   2.909
    1C        C  704   2.498   3.438   2.909
    1C        C  705   2.536   3.230   3.031
    1C        C  706   2.530   3.303   3.153
    1C        C  707   2.603   3.107   3.276
    1C        C  708   2.550   3.238   3.277
    1C        C  709   2.639   3.048   3.399
    1C        C  710   2.607   3.112   3.521
    1C        C  711   2.712   2.933   3.650
    1C        C  712   2.637   3.052   3.646
    1C        C  713   2.753   2.874   3.772
    1C        C  714   2.713   2.936   3.893
    1C        C  715   2.754   2.878   4.015
    1C        C  716   2.450   3.496   2.060
    1C        C  717   2.496   3.629   2.058
    1C        C  718   2.464   3.423   2.182
    1C        C  719   2.482   3.497   2.302
    1C        C  720   2.508   3.289   2.426
    1C        C  721   2.482   3.427   2.425
    1C        C  722   2.534   3.222   2.547
    1C        C  723   2.515   3.294   2.667
    1C        C  724   2.581   3.092   2.794
    1C        C  725   2.527   3.223   2.789
    1C        C  726   2.610   3.027   2.916
    1C        C  727   2.579   3.096   3.035
    1C        C  728   2.709   2.923   3.159
    1C        C  729   2.628   3.039   3.155
    1C        C  730   2.755   2.872   3.283
    1C        C  731   2.716   2.929   3.406
    1C        C  732   2.759   2.876   3.529
    1C        C  733   2.482   3.197   2.073
    1C        C  734   2.491   3.282   2.184
    1C        C  735   2.582   3.086   2.308
    1C        C  736   2.522   3.215   2.306
    1C        C  737   2.614   3.020   2.429
    1C        C  738   2.586   3.090   2.548
    1C        C  739   2.698   2.914   2.671
    1C        C  740   2.617   3.030   2.672
    1C        C  741   2.743   2.859   2.793
    1C        C  742   2.695   2.915   2.914
    1C        C  743   2.748   2.867   3.036
    1C        C  744   2.547   3.074   2.072
    1C        C  745   2.687   2.903   2.189
    1C        C  746   2.607   3.020   2.186
    1C        C  747   2.730   2.840   2.308
    1C        C  748   2.686   2.898   2.428
    1C        C  749   2.738   2.851   2.551
    1C        C  750   2.734   2.843   2.072
    1C        C  751   3.663   2.293   2.003
    1C        O  752   3.607   2.184   2.033
    1C        O  753   3.686   2.310   1.866
    1C        C  754   4.650   3.057   2.006
    1C        O  755   4.628   2.989   1.902
    1C        O  756   4.768   3.047   2.080
    1C        C  757   4.416   4.213   1.941
    1C        O  758   4.520   4.279   1.966
    1C        O  759   4.398   4.183   1.806
    1C        C  760   3.589   4.674   1.957
    1C        O  761   3.646   4.780   1.993
    1C        O  762   3.572   4.658   1.819
    1C        C  763   2.884   4.489   1.940
    1C        O  764   2.943   4.467   1.830
    1C        O  765   2.823   4.616   1.948
    1C        C  766   2.346   3.459   1.962
    1C        O  767   2.382   3.463   1.841
    1C        O  768   2.209   3.480   1.986
    1C        C  769   4.712   3.591   5.021
    1C        O  770   4.725   3.625   5.142
    1C        O  771   4.831   3.559   4.955
    1C        C  772   4.268   4.452   5.046
    1C        O  773   4.254   4.454   5.171
    1C        O  774   4.383   4.527   5.017
    1C        C  775   4.152   2.509   5.053
    1C        O  776   4.229   2.422   5.004
    1C        O  777   4.184   2.534   5.187
    1C        C  778   2.897   4.546   5.053
    1C        O  779   2.805   4.628   5.025
    1C        O  780   2.903   4.513   5.189
    1C        C  781   2.457   3.048   5.064
    1C        O  782   2.371   2.971   5.013
    1C        O  783   2.466   3.028   5.201
    1C        C  784   2.401   3.993   5.040
    1C        O  785   2.293   4.050   5.010
    1C        O  786   2.418   3.999   5.179
    1C        C  787   2.942   2.426   2.010
    1C        O  788   2.946   2.419   1.884
    1C        O  789   2.889   2.309   2.061
    1C        C  790   3.188   2.397   5.091
    1C        O  791   3.178   2.273   5.072
    1C        O  792   3.232   2.446   5.214
    1C        H  793   4.269   3.032   5.054
    1C        H  794   4.176   2.806   5.067
    1C        H  795   4.496   3.128   5.065
    1C        H  796   4.538   3.359   5.072
    1C        H  797   4.544   3.811   5.047
    1C        H  798   4.394   3.963   5.054
    1C        H  799   4.357   4.196   5.036
    1C        H  800   4.007   4.491   5.039
    1C        H  801   3.821   4.607   5.034
    1C        H  802   3.590   4.647   5.026
    1C        H  803   3.395   4.514   5.047
    1C        H  804   3.159   4.512   5.050
    1C        H  805   3.907   2.452   5.050
    1C        H  806   3.673   2.452   5.072
    1C        H  807   2.987   2.532   5.047
    1C        H  808   3.443   2.473   5.079
    1C        H  809   2.884   2.757   5.079
    1C        H  810   2.693   2.877   5.080
    1C        H  811   2.538   3.299   5.070
    1C        H  812   2.530   3.495   5.071
    1C        H  813   2.509   3.730   5.067
    1C        H  814   2.572   4.187   5.031
    1C        H  815   2.762   4.311   5.052
    1C        H  816   2.719   2.891   1.977
    1C        H  817   2.835   2.679   1.981
    1C        H  818   3.188   2.371   2.030
    1C        H  819   3.432   2.449   1.975
    1C        H  820   3.855   2.520   1.968
    1C        H  821   4.084   2.576   1.985
    1C        H  822   4.289   2.698   1.988
    1C        H  823   4.326   2.944   1.984
    1C        H  824   4.562   3.302   1.963
    1C        H  825   4.441   3.515   1.982
    1C        H  826   4.467   3.743   1.960
    1C        H  827   3.790   4.492   1.946
    1C        H  828   3.953   4.347   1.951
    1C        H  829   4.200   4.320   1.963
    1C        H  830   4.510   3.969   1.969
    1C        H  831   2.617   3.847   1.962
    1C        H  832   2.738   4.051   1.965
    1C        H  833   2.719   4.293   1.969
    1C        H  834   3.376   4.448   1.952
    1C        H  835   3.149   4.415   1.950
    1C        H  836   2.549   3.014   1.983
    1C        H  837   2.391   3.205   2.017
    1C        H  838   2.528   3.661   1.961
    2V3OU   H29  839   2.810   3.543   2.491
    2V3OU   C27  840   2.788   3.498   2.591
    2V3OU   H27  841   2.728   3.568   2.655
    2V3OU   H28  842   2.729   3.403   2.583
    2V3OU   O11  843   2.913   3.477   2.656
    2V3OU   C15  844   2.924   3.396   2.768
    2V3OU   C13  845   3.053   3.374   2.822
    2V3OU   C14  846   3.082   3.271   2.911
    2V3OU   C16  847   2.978   3.191   2.958
    2V3OU    H6  848   2.996   3.101   3.018
    2V3OU   C12  849   3.216   3.234   2.962
    2V3OU    O2  850   3.230   3.127   3.025
    2V3OU   C10  851   3.329   3.305   2.900
    2V3OU    C8  852   3.458   3.268   2.935
    2V3OU   O10  853   3.487   3.156   3.007
    2V3OU   H26  854   3.403   3.110   3.023
    2V3OU    C6  855   3.566   3.354   2.898
    2V3OU    C5  856   3.538   3.470   2.826
    2V3OU    C4  857   3.704   3.297   2.892
    2V3OU    H4  858   3.723   3.231   2.981
    2V3OU    H5  859   3.707   3.229   2.801
    2V3OU    C2  860   3.816   3.401   2.899
    2V3OU    O6  861   3.804   3.475   3.020
    2V3OU   H21  862   3.762   3.554   2.981
    2V3OU    C3  863   3.784   3.500   2.787
    2V3OU    H2  864   3.864   3.578   2.776
    2V3OU    H3  865   3.786   3.437   2.694
    2V3OU   C25  866   3.948   3.323   2.892
    2V3OU    O7  867   4.000   3.289   2.786
    2V3OU   C26  868   4.031   3.288   3.014
    2V3OU   H22  869   4.064   3.383   3.064
    2V3OU   H23  870   4.116   3.221   2.985
    2V3OU    O8  871   3.960   3.209   3.108
    2V3OU   H24  872   3.925   3.260   3.183
    2V3OU    C1  873   3.648   3.567   2.793
    2V3OU    H1  874   3.629   3.623   2.697
    2V3OU    O3  875   3.650   3.651   2.909
    2V3OU   C19  876   3.621   3.790   2.892
    2V3OU    H9  877   3.522   3.804   2.839
    2V3OU    O4  878   3.720   3.845   2.809
    2V3OU   C20  879   3.848   3.872   2.867
    2V3OU   H10  880   3.892   3.770   2.887
    2V3OU   C24  881   3.613   3.857   3.030
    2V3OU   H16  882   3.537   3.796   3.084
    2V3OU   H17  883   3.569   3.958   3.010
    2V3OU   C23  884   3.750   3.870   3.096
    2V3OU   H15  885   3.790   3.765   3.116
    2V3OU    N1  886   3.735   3.955   3.212
    2V3OU   H19  887   3.805   3.933   3.280
    2V3OU   H20  888   3.645   3.938   3.253
    2V3OU   C21  889   3.848   3.946   3.001
    2V3OU   H11  890   3.949   3.928   3.048
    2V3OU    O5  891   3.834   4.087   3.005
    2V3OU   H18  892   3.778   4.105   3.083
    2V3OU   C22  893   3.914   3.948   2.753
    2V3OU   H12  894   3.860   4.044   2.732
    2V3OU   H13  895   3.908   3.888   2.658
    2V3OU   H14  896   4.024   3.959   2.769
    2V3OU   C11  897   3.161   3.465   2.783
    2V3OU    O1  898   3.137   3.587   2.766
    2V3OU    C9  899   3.296   3.421   2.824
    2V3OU    C7  900   3.404   3.502   2.791
    2V3OU    O9  901   3.389   3.605   2.699
    2V3OU   H25  902   3.296   3.628   2.687
    2V3OU   C17  903   2.821   3.316   2.821
    2V3OU    H7  904   2.724   3.349   2.783
    2V3OU   C18  905   2.848   3.215   2.913
    2V3OU    H8  906   2.782   3.166   2.986
    3SOL     OW  907   2.465   5.026   0.341
    3SOL    HW1  908   2.429   5.087   0.412
    3SOL    HW2  909   2.563   5.014   0.355
    4SOL     OW  910   0.093   6.652   2.219
    4SOL    HW1  911   0.004   6.674   2.259
    4SOL    HW2  912   0.082   6.630   2.122
    5SOL     OW  913   4.291   1.643   2.942
    5SOL    HW1  914   4.264   1.624   3.036
    5SOL    HW2  915   4.389   1.632   2.932
    6SOL     OW  916   4.024   1.142   1.913
    6SOL    HW1  917   4.040   1.239   1.900
    6SOL    HW2  918   4.082   1.108   1.987
    7SOL     OW  919   6.951   3.407   2.744
    7SOL    HW1  920   6.866   3.377   2.701
    7SOL    HW2  921   0.001   3.340   2.725
    8SOL     OW  922   3.556   0.681   0.080
    8SOL    HW1  923   3.555   0.726   0.169
    8SOL    HW2  924   3.541   0.583   0.093
    9SOL     OW  925   5.233   0.972   5.850
    9SOL    HW1  926   5.278   0.885   5.871
    9SOL    HW2  927   5.144   0.975   5.895
   10SOL     OW  928   1.616   4.880   6.315
   10SOL    HW1  929   1.633   4.905   6.410
   10SOL    HW2  930   1.534   4.927   6.281
   11SOL     OW  931   2.855   0.137   6.015
   11SOL    HW1  932   2.869   0.080   6.096
   11SOL    HW2  933   2.903   0.223   6.026
   12SOL     OW  934   3.256   5.894   3.438
   12SOL    HW1  935   3.326   5.932   3.377
   12SOL    HW2  936   3.300   5.837   3.507
   13SOL     OW  937   4.034   6.421   4.418
   13SOL    HW1  938   3.977   6.420   4.336
   13SOL    HW2  939   4.114   6.478   4.402
   14SOL     OW  940   3.703   5.825   5.877
   14SOL    HW1  941   3.655   5.763   5.815
   14SOL    HW2  942   3.792   5.786   5.901
   15SOL     OW  943   1.077   6.448   2.159
   15SOL    HW1  944   1.018   6.529   2.163
   15SOL    HW2  945   1.027   6.373   2.116
   16SOL     OW  946   4.973   2.593   5.767
   16SOL    HW1  947   4.939   2.602   5.860
   16SOL    HW2  948   4.946   2.673   5.713
   17SOL     OW  949   5.373   6.569   6.253
   17SOL    HW1  950   5.463   6.555   6.295
   17SOL    HW2  951   5.365   6.663   6.220
   18SOL     OW  952   3.273   0.824   5.607
   18SOL    HW1  953   3.195   0.885   5.613
   18SOL    HW2  954   3.272   0.777   5.518
   19SOL     OW  955   0.043   1.888   3.208
   19SOL    HW1  956   0.048   1.814   3.274
   19SOL    HW2  957   0.013   1.852   3.119
   20SOL     OW  958   5.111   1.599   3.836
   20SOL    HW1  959   5.033   1.536   3.840
   20SOL    HW2  960   5.178   1.574   3.906
   21SOL     OW  961   3.350   1.402   2.765
   21SOL    HW1  962   3.342   1.312   2.806
   21SOL    HW2  963   3.443   1.437   2.778
   22SOL     OW  964   2.533   6.676   6.996
   22SOL    HW1  965   2.538   6.745   0.046
   22SOL    HW2  966   2.616   6.621   6.997
   23SOL     OW  967   5.730   5.810   3.204
   23SOL    HW1  968   5.758   5.877   3.135
   23SOL    HW2  969   5.673   5.740   3.161
   24SOL     OW  970   4.164   0.288   3.054
   24SOL    HW1  971   4.105   0.219   3.096
   24SOL    HW2  972   4.148   0.377   3.099
   25SOL     OW  973   2.932   0.804   4.711
   25SOL    HW1  974   3.004   0.760   4.657
   25SOL    HW2  975   2.955   0.799   4.808
   26SOL     OW  976   0.571   0.808   0.178
   26SOL    HW1  977   0.504   0.883   0.172
   26SOL    HW2  978   0.584   0.783   0.274
   27SOL     OW  979   1.320   2.409   2.357
   27SOL    HW1  980   1.300   2.326   2.305
   27SOL    HW2  981   1.237   2.441   2.403
   28SOL     OW  982   3.083   1.827   5.839
   28SOL    HW1  983   3.009   1.839   5.905
   28SOL    HW2  984   3.047   1.788   5.755
   29SOL     OW  985   5.947   1.481   1.786
   29SOL    HW1  986   5.964   1.578   1.766
   29SOL    HW2  987   6.032   1.438   1.816
   30SOL     OW  988   4.281   0.523   3.770
   30SOL    HW1  989   4.277   0.467   3.852
   30SOL    HW2  990   4.260   0.618   3.794
   31SOL     OW  991   1.047   2.804   6.176
   31SOL    HW1  992   0.964   2.835   6.131
   31SOL    HW2  993   1.077   2.718   6.136
   32SOL     OW  994   0.631   1.629   2.574
   32SOL    HW1  995   0.628   1.544   2.626
   32SOL    HW2  996   0.622   1.610   2.477
   33SOL     OW  997   1.456   4.750   5.892
   33SOL    HW1  998   1.428   4.669   5.841
   33SOL    HW2  999   1.465   4.828   5.829
   34SOL     OW 1000   2.906   0.152   4.094
   34SOL    HW1 1001   2.970   0.205   4.039
   34SOL    HW2 1002   2.831   0.211   4.124
   35SOL     OW 1003   3.761   4.037   6.628
   35SOL    HW1 1004   3.681   4.045   6.568
   35SOL    HW2 1005   3.772   3.942   6.656
   36SOL     OW 1006   6.036   1.378   4.625
   36SOL    HW1 1007   6.043   1.303   4.559
   36SOL    HW2 1008   6.017   1.463   4.577
   37SOL     OW 1009   1.370   2.261   0.322
   37SOL    HW1 1010   1.380   2.167   0.288
   37SOL    HW2 1011   1.317   2.315   0.257
   38SOL     OW 1012   0.330   5.264   2.067
   38SOL    HW1 1013   0.298   5.356   2.046
   38SOL    HW2 1014   0.307   5.241   2.162
   39SOL     OW 1015   6.639   4.538   6.475
   39SOL    HW1 1016   6.607   4.540   6.570
   39SOL    HW2 1017   6.703   4.463   6.462
   40SOL     OW 1018   5.310   1.963   0.384
   40SOL    HW1 1019   5.329   1.867   0.402
   40SOL    HW2 1020   5.320   1.982   0.287
   41SOL     OW 1021   6.729   5.174   2.948
   41SOL    HW1 1022   6.684   5.264   2.951
   41SOL    HW2 1023   6.700   5.121   3.028
   42SOL     OW 1024   2.692   5.666   4.745
   42SOL    HW1 1025   2.708   5.686   4.842
   42SOL    HW2 1026   2.671   5.568   4.735
   43SOL     OW 1027   5.250   0.130   5.711
   43SOL    HW1 1028   5.313   0.207   5.722
   43SOL    HW2 1029   5.277   0.055   5.771
   44SOL     OW 1030   4.321   1.285   5.943
   44SOL    HW1 1031   4.305   1.324   6.033
   44SOL    HW2 1032   4.405   1.323   5.904
   45SOL     OW 1033   4.156   5.933   2.344
   45SOL    HW1 1034   4.191   5.851   2.298
   45SOL    HW2 1035   4.219   6.009   2.329
   46SOL     OW 1036   0.438   2.958   2.784
   46SOL    HW1 1037   0.479   3.045   2.810
   46SOL    HW2 1038   0.509   2.888   2.776
   47SOL     OW 1039   4.971   3.903   0.969
   47SOL    HW1 1040   5.034   3.827   0.953
   47SOL    HW2 1041   5.023   3.985   0.994
   48SOL     OW 1042   6.853   3.505   5.447
   48SOL    HW1 1043   6.945   3.504   5.486
   48SOL    HW2 1044   6.791   3.552   5.510
   49SOL     OW 1045   4.688   3.900   1.783
   49SOL    HW1 1046   4.773   3.888   1.834
   49SOL    HW2 1047   4.649   3.989   1.804
   50SOL     OW 1048   5.772   1.117   5.422
   50SOL    HW1 1049   5.676   1.145   5.409
   50SOL    HW2 1050   5.832   1.187   5.383
   51SOL     OW 1051   2.362   6.378   2.941
   51SOL    HW1 1052   2.315   6.331   2.866
   51SOL    HW2 1053   2.299   6.389   3.018
   52SOL     OW 1054   5.969   3.276   2.558
   52SOL    HW1 1055   6.063   3.286   2.525
   52SOL    HW2 1056   5.949   3.349   2.623
   53SOL     OW 1057   3.723   6.452   3.990
   53SOL    HW1 1058   3.664   6.408   3.922
   53SOL    HW2 1059   3.685   6.541   4.014
   54SOL     OW 1060   3.815   4.760   1.185
   54SOL    HW1 1061   3.848   4.802   1.269
   54SOL    HW2 1062   3.837   4.662   1.186
   55SOL     OW 1063   2.430   3.009   6.360
   55SOL    HW1 1064   2.431   3.099   6.404
   55SOL    HW2 1065   2.343   2.964   6.380
   56SOL     OW 1066   0.173   0.420   1.302
   56SOL    HW1 1067   0.167   0.472   1.217
   56SOL    HW2 1068   0.167   0.484   1.380
   57SOL     OW 1069   4.459   1.121   1.657
   57SOL    HW1 1070   4.530   1.149   1.592
   57SOL    HW2 1071   4.475   1.164   1.745
   58SOL     OW 1072   0.204   6.645   5.682
   58SOL    HW1 1073   0.227   6.719   5.745
   58SOL    HW2 1074   0.245   6.560   5.715
   59SOL     OW 1075   1.476   2.436   5.612
   59SOL    HW1 1076   1.420   2.509   5.651
   59SOL    HW2 1077   1.461   2.432   5.514
   60SOL     OW 1078   5.551   2.395   4.593
   60SOL    HW1 1079   5.570   2.299   4.613
   60SOL    HW2 1080   5.538   2.445   4.679
   61SOL     OW 1081   6.532   2.242   4.705
   61SOL    HW1 1082   6.577   2.161   4.740
   61SOL    HW2 1083   6.542   2.246   4.605
   62SOL     OW 1084   1.418   1.297   1.628
   62SOL    HW1 1085   1.338   1.273   1.574
   62SOL    HW2 1086   1.448   1.389   1.605
   63SOL     OW 1087   5.522   1.102   3.525
   63SOL    HW1 1088   5.436   1.112   3.473
   63SOL    HW2 1089   5.581   1.180   3.507
   64SOL     OW 1090   0.206   3.628   5.831
   64SOL    HW1 1091   0.268   3.672   5.766
   64SOL    HW2 1092   0.153   3.557   5.784
   65SOL     OW 1093   0.692   4.986   6.631
   65SOL    HW1 1094   0.593   4.975   6.646
   65SOL    HW2 1095   0.707   5.058   6.564
   66SOL     OW 1096   4.349   1.243   5.528
   66SOL    HW1 1097   4.447   1.262   5.528
   66SOL    HW2 1098   4.299   1.329   5.516
   67SOL     OW 1099   5.739   3.716   5.864
   67SOL    HW1 1100   5.814   3.775   5.895
   67SOL    HW2 1101   5.722   3.646   5.932
   68SOL     OW 1102   6.397   0.759   6.652
   68SOL    HW1 1103   6.308   0.720   6.672
   68SOL    HW2 1104   6.460   0.686   6.625
   69SOL     OW 1105   0.899   3.876   6.239
   69SOL    HW1 1106   0.832   3.948   6.220
   69SOL    HW2 1107   0.932   3.885   6.333
   70SOL     OW 1108   5.530   4.369   5.038
   70SOL    HW1 1109   5.533   4.407   5.131
   70SOL    HW2 1110   5.615   4.393   4.990
   71SOL     OW 1111   4.250   1.609   3.864
   71SOL    HW1 1112   4.179   1.542   3.844
   71SOL    HW2 1113   4.233   1.650   3.953
   72SOL     OW 1114   1.943   0.018   4.044
   72SOL    HW1 1115   1.921   0.100   4.097
   72SOL    HW2 1116   1.914   0.031   3.949
   73SOL     OW 1117   3.398   0.750   1.271
   73SOL    HW1 1118   3.488   0.714   1.296
   73SOL    HW2 1119   3.356   0.794   1.350
   74SOL     OW 1120   4.126   0.162   0.242
   74SOL    HW1 1121   4.050   0.132   0.299
   74SOL    HW2 1122   4.091   0.207   0.160
   75SOL     OW 1123   4.662   0.762   0.786
   75SOL    HW1 1124   4.637   0.858   0.791
   75SOL    HW2 1125   4.699   0.742   0.695
   76SOL     OW 1126   2.724   3.643   1.610
   76SOL    HW1 1127   2.756   3.624   1.517
   76SOL    HW2 1128   2.676   3.563   1.646
   77SOL     OW 1129   0.396   6.851   3.439
   77SOL    HW1 1130   0.372   6.942   3.474
   77SOL    HW2 1131   0.466   6.810   3.496
   78SOL     OW 1132   5.839   1.462   0.274
   78SOL    HW1 1133   5.817   1.373   0.233
   78SOL    HW2 1134   5.924   1.455   0.325
   79SOL     OW 1135   2.982   5.985   0.904
   79SOL    HW1 1136   2.936   5.898   0.922
   79SOL    HW2 1137   3.068   5.989   0.954
   80SOL     OW 1138   4.714   1.073   4.546
   80SOL    HW1 1139   4.743   1.169   4.550
   80SOL    HW2 1140   4.730   1.030   4.634
   81SOL     OW 1141   2.189   0.021   2.426
   81SOL    HW1 1142   2.090   0.020   2.408
   81SOL    HW2 1143   2.236   6.992   2.356
   82SOL     OW 1144   5.707   4.785   0.743
   82SOL    HW1 1145   5.644   4.725   0.694
   82SOL    HW2 1146   5.790   4.734   0.765
   83SOL     OW 1147   0.722   0.403   0.268
   83SOL    HW1 1148   0.734   0.456   0.184
   83SOL    HW2 1149   0.783   0.325   0.268
   84SOL     OW 1150   6.456   2.737   3.500
   84SOL    HW1 1151   6.502   2.693   3.577
   84SOL    HW2 1152   6.521   2.793   3.450
   85SOL     OW 1153   1.632   0.918   4.011
   85SOL    HW1 1154   1.705   0.981   3.985
   85SOL    HW2 1155   1.544   0.956   3.983
   86SOL     OW 1156   0.524   1.625   5.976
   86SOL    HW1 1157   0.440   1.638   5.925
   86SOL    HW2 1158   0.508   1.561   6.052
   87SOL     OW 1159   4.590   4.011   0.921
   87SOL    HW1 1160   4.667   4.030   0.981
   87SOL    HW2 1161   4.585   3.913   0.903
   88SOL     OW 1162   3.402   1.713   5.858
   88SOL    HW1 1163   3.494   1.717   5.820
   88SOL    HW2 1164   3.353   1.798   5.838
   89SOL     OW 1165   2.128   2.702   5.771
   89SOL    HW1 1166   2.176   2.785   5.799
   89SOL    HW2 1167   2.125   2.638   5.848
   90SOL     OW 1168   4.080   5.145   2.053
   90SOL    HW1 1169   4.091   5.112   2.147
   90SOL    HW2 1170   4.070   5.067   1.991
   91SOL     OW 1171   5.810   4.235   5.741
   91SOL    HW1 1172   5.721   4.236   5.695
   91SOL    HW2 1173   5.881   4.256   5.674
   92SOL     OW 1174   4.432   4.526   0.859
   92SOL    HW1 1175   4.508   4.556   0.803
   92SOL    HW2 1176   4.417   4.591   0.934
   93SOL     OW 1177   3.309   3.637   0.540
   93SOL    HW1 1178   3.271   3.574   0.473
   93SOL    HW2 1179   3.270   3.728   0.526
   94SOL     OW 1180   2.029   6.093   5.984
   94SOL    HW1 1181   1.969   6.062   5.910
   94SOL    HW2 1182   2.042   6.018   6.049
   95SOL     OW 1183   0.847   0.451   2.900
   95SOL    HW1 1184   0.920   0.508   2.862
   95SOL    HW2 1185   0.868   0.429   2.995
   96SOL     OW 1186   3.330   0.456   4.837
   96SOL    HW1 1187   3.385   0.379   4.870
   96SOL    HW2 1188   3.261   0.423   4.773
   97SOL     OW 1189   2.512   3.297   6.257
   97SOL    HW1 1190   2.472   3.284   6.348
   97SOL    HW2 1191   2.533   3.394   6.244
   98SOL     OW 1192   0.594   3.698   0.794
   98SOL    HW1 1193   0.584   3.780   0.851
   98SOL    HW2 1194   0.535   3.706   0.713
   99SOL     OW 1195   3.755   2.389   1.457
   99SOL    HW1 1196   3.826   2.432   1.402
   99SOL    HW2 1197   3.726   2.451   1.530
  100SOL     OW 1198   0.759   6.779   5.096
  100SOL    HW1 1199   0.667   6.812   5.075
  100SOL    HW2 1200   0.789   6.816   5.184
  101SOL     OW 1201   1.422   4.983   2.495
  101SOL    HW1 1202   1.377   5.022   2.414
  101SOL    HW2 1203   1.355   4.970   2.568
  102SOL     OW 1204   3.826   5.543   1.546
  102SOL    HW1 1205   3.863   5.458   1.582
  102SOL    HW2 1206   3.897   5.590   1.493
  103SOL     OW 1207   2.106   2.302   1.587
  103SOL    HW1 1208   2.177   2.257   1.642
  103SOL    HW2 1209   2.039   2.343   1.647
  104SOL     OW 1210   1.739   5.872   2.462
  104SOL    HW1 1211   1.794   5.842   2.540
  104SOL    HW2 1212   1.740   5.800   2.391
  105SOL     OW 1213   6.779   1.207   6.189
  105SOL    HW1 1214   6.737   1.219   6.099
  105SOL    HW2 1215   6.858   1.267   6.198
  106SOL     OW 1216   3.527   6.386   4.823
  106SOL    HW1 1217   3.565   6.408   4.913
  106SOL    HW2 1218   3.511   6.471   4.773
  107SOL     OW 1219   0.972   0.901   0.881
  107SOL    HW1 1220   0.932   0.902   0.972
  107SOL    HW2 1221   0.973   0.807   0.846
  108SOL     OW 1222   2.668   6.562   5.714
  108SOL    HW1 1223   2.743   6.596   5.656
  108SOL    HW2 1224   2.587   6.619   5.702
  109SOL     OW 1225   0.803   0.973   2.218
  109SOL    HW1 1226   0.714   0.929   2.228
  109SOL    HW2 1227   0.848   0.981   2.307
  110SOL     OW 1228   3.030   5.873   3.818
  110SOL    HW1 1229   3.028   5.782   3.777
  110SOL    HW2 1230   3.091   5.873   3.897
  111SOL     OW 1231   1.208   1.010   4.204
  111SOL    HW1 1232   1.241   1.024   4.297
  111SOL    HW2 1233   1.256   0.932   4.163
  112SOL     OW 1234   3.567   6.427   6.340
  112SOL    HW1 1235   3.555   6.377   6.254
  112SOL    HW2 1236   3.660   6.414   6.374
  113SOL     OW 1237   0.652   5.502   2.635
  113SOL    HW1 1238   0.618   5.408   2.641
  113SOL    HW2 1239   0.718   5.518   2.709
  114SOL     OW 1240   1.513   6.969   2.286
  114SOL    HW1 1241   1.591   6.993   2.229
  114SOL    HW2 1242   1.479   6.879   2.261
  115SOL     OW 1243   4.785   1.720   3.479
  115SOL    HW1 1244   4.854   1.661   3.436
  115SOL    HW2 1245   4.825   1.767   3.558
  116SOL     OW 1246   6.169   5.599   2.062
  116SOL    HW1 1247   6.114   5.531   2.013
  116SOL    HW2 1248   6.110   5.676   2.088
  117SOL     OW 1249   1.655   1.991   0.698
  117SOL    HW1 1250   1.683   2.065   0.637
  117SOL    HW2 1251   1.562   1.963   0.676
  118SOL     OW 1252   1.732   0.823   2.432
  118SOL    HW1 1253   1.720   0.742   2.374
  118SOL    HW2 1254   1.674   0.897   2.397
  119SOL     OW 1255   0.592   0.103   0.109
  119SOL    HW1 1256   0.586   0.036   0.035
  119SOL    HW2 1257   0.678   0.090   0.159
  120SOL     OW 1258   5.816   0.266   6.441
  120SOL    HW1 1259   5.857   0.203   6.375
  120SOL    HW2 1260   5.821   0.227   6.533
  121SOL     OW 1261   1.754   3.367   5.950
  121SOL    HW1 1262   1.805   3.427   6.011
  121SOL    HW2 1263   1.701   3.422   5.885
  122SOL     OW 1264   1.524   3.762   6.536
  122SOL    HW1 1265   1.492   3.785   6.628
  122SOL    HW2 1266   1.461   3.801   6.469
  123SOL     OW 1267   0.692   1.149   2.603
  123SOL    HW1 1268   0.733   1.059   2.611
  123SOL    HW2 1269   0.620   1.147   2.533
  124SOL     OW 1270   3.718   2.513   0.552
  124SOL    HW1 1271   3.681   2.420   0.541
  124SOL    HW2 1272   3.645   2.575   0.581
  125SOL     OW 1273   3.637   1.795   0.732
  125SOL    HW1 1274   3.708   1.851   0.690
  125SOL    HW2 1275   3.679   1.724   0.788
  126SOL     OW 1276   1.804   4.436   0.593
  126SOL    HW1 1277   1.876   4.386   0.641
  126SOL    HW2 1278   1.715   4.396   0.616
  127SOL     OW 1279   0.910   4.794   6.717
  127SOL    HW1 1280   0.975   4.757   6.651
  127SOL    HW2 1281   0.828   4.824   6.668
  128SOL     OW 1282   5.022   2.311   1.498
  128SOL    HW1 1283   5.009   2.246   1.423
  128SOL    HW2 1284   4.948   2.301   1.565
  129SOL     OW 1285   2.819   3.647   6.258
  129SOL    HW1 1286   2.855   3.660   6.166
  129SOL    HW2 1287   2.873   3.578   6.305
  130SOL     OW 1288   1.274   1.826   4.523
  130SOL    HW1 1289   1.192   1.805   4.470
  130SOL    HW2 1290   1.324   1.901   4.480
  131SOL     OW 1291   4.546   0.834   3.427
  131SOL    HW1 1292   4.488   0.860   3.504
  131SOL    HW2 1293   4.584   0.916   3.385
  132SOL     OW 1294   2.848   3.323   1.892
  132SOL    HW1 1295   2.869   3.255   1.822
  132SOL    HW2 1296   2.870   3.286   1.982
  133SOL     OW 1297   5.310   1.336   4.213
  133SOL    HW1 1298   5.339   1.250   4.256
  133SOL    HW2 1299   5.386   1.373   4.160
  134SOL     OW 1300   6.731   0.958   2.636
  134SOL    HW1 1301   6.786   1.036   2.608
  134SOL    HW2 1302   6.634   0.981   2.631
  135SOL     OW 1303   5.567   3.680   3.743
  135SOL    HW1 1304   5.546   3.590   3.781
  135SOL    HW2 1305   5.595   3.742   3.816
  136SOL     OW 1306   2.208   5.337   5.270
  136SOL    HW1 1307   2.230   5.359   5.175
  136SOL    HW2 1308   2.110   5.349   5.285
  137SOL     OW 1309   5.845   1.571   3.259
  137SOL    HW1 1310   5.899   1.494   3.293
  137SOL    HW2 1311   5.771   1.536   3.202
  138SOL     OW 1312   1.322   4.078   2.573
  138SOL    HW1 1313   1.346   4.170   2.604
  138SOL    HW2 1314   1.363   4.010   2.633
  139SOL     OW 1315   1.562   6.769   5.392
  139SOL    HW1 1316   1.636   6.835   5.387
  139SOL    HW2 1317   1.594   6.680   5.361
  140SOL     OW 1318   0.983   6.684   3.681
  140SOL    HW1 1319   1.023   6.775   3.673
  140SOL    HW2 1320   1.042   6.628   3.740
  141SOL     OW 1321   0.285   2.601   5.088
  141SOL    HW1 1322   0.199   2.650   5.104
  141SOL    HW2 1323   0.297   2.532   5.159
  142SOL     OW 1324   1.022   4.099   1.255
  142SOL    HW1 1325   1.068   4.011   1.256
  142SOL    HW2 1326   1.040   4.148   1.340
  143SOL     OW 1327   5.503   4.039   0.786
  143SOL    HW1 1328   5.586   4.003   0.743
  143SOL    HW2 1329   5.456   4.099   0.722
  144SOL     OW 1330   1.203   4.851   6.003
  144SOL    HW1 1331   1.285   4.807   5.968
  144SOL    HW2 1332   1.227   4.915   6.076
  145SOL     OW 1333   0.646   5.753   0.991
  145SOL    HW1 1334   0.675   5.688   0.921
  145SOL    HW2 1335   0.593   5.827   0.948
  146SOL     OW 1336   4.556   0.993   5.981
  146SOL    HW1 1337   4.475   0.976   6.036
  146SOL    HW2 1338   4.607   0.907   5.970
  147SOL     OW 1339   5.334   3.113   6.519
  147SOL    HW1 1340   5.255   3.103   6.579
  147SOL    HW2 1341   5.412   3.061   6.556
  148SOL     OW 1342   6.884   5.583   0.977
  148SOL    HW1 1343   6.897   5.546   1.069
  148SOL    HW2 1344   6.792   5.560   0.944
  149SOL     OW 1345   4.105   2.221   3.824
  149SOL    HW1 1346   4.168   2.292   3.856
  149SOL    HW2 1347   4.103   2.146   3.889
  150SOL     OW 1348   5.833   0.083   0.474
  150SOL    HW1 1349   5.847   7.007   0.464
  150SOL    HW2 1350   5.770   0.115   0.403
  151SOL     OW 1351   3.261   1.873   1.282
  151SOL    HW1 1352   3.303   1.790   1.245
  151SOL    HW2 1353   3.193   1.908   1.218
  152SOL     OW 1354   0.126   0.544   1.539
  152SOL    HW1 1355   0.186   0.592   1.603
  152SOL    HW2 1356   0.032   0.573   1.554
  153SOL     OW 1357   3.011   0.800   3.732
  153SOL    HW1 1358   3.046   0.834   3.644
  153SOL    HW2 1359   2.990   0.703   3.724
  154SOL     OW 1360   1.157   3.562   1.496
  154SOL    HW1 1361   1.246   3.539   1.535
  154SOL    HW2 1362   1.138   3.659   1.511
  155SOL     OW 1363   0.629   1.600   4.612
  155SOL    HW1 1364   0.684   1.516   4.612
  155SOL    HW2 1365   0.647   1.651   4.528
  156SOL     OW 1366   0.328   0.696   0.977
  156SOL    HW1 1367   0.332   0.715   1.075
  156SOL    HW2 1368   0.380   0.765   0.928
  157SOL     OW 1369   5.119   2.932   1.653
  157SOL    HW1 1370   5.060   2.851   1.655
  157SOL    HW2 1371   5.092   2.995   1.726
  158SOL     OW 1372   1.810   3.637   2.069
  158SOL    HW1 1373   1.792   3.590   1.983
  158SOL    HW2 1374   1.903   3.617   2.099
  159SOL     OW 1375   4.926   4.153   2.866
  159SOL    HW1 1376   4.916   4.074   2.805
  159SOL    HW2 1377   4.917   4.237   2.813
  160SOL     OW 1378   5.096   5.845   1.115
  160SOL    HW1 1379   5.170   5.911   1.127
  160SOL    HW2 1380   5.120   5.781   1.041
  161SOL     OW 1381   1.686   6.200   3.501
  161SOL    HW1 1382   1.640   6.114   3.483
  161SOL    HW2 1383   1.640   6.274   3.451
  162SOL     OW 1384   3.491   6.341   0.292
  162SOL    HW1 1385   3.459   6.368   0.383
  162SOL    HW2 1386   3.588   6.365   0.282
  163SOL     OW 1387   6.217   5.487   1.434
  163SOL    HW1 1388   6.285   5.459   1.367
  163SOL    HW2 1389   6.252   5.565   1.486
  164SOL     OW 1390   6.942   4.347   2.231
  164SOL    HW1 1391   6.936   4.404   2.314
  164SOL    HW2 1392   6.982   4.401   2.157
  165SOL     OW 1393   5.265   3.481   1.187
  165SOL    HW1 1394   5.314   3.494   1.273
  165SOL    HW2 1395   5.321   3.425   1.125
  166SOL     OW 1396   1.316   3.745   2.410
  166SOL    HW1 1397   1.222   3.779   2.412
  166SOL    HW2 1398   1.353   3.754   2.318
  167SOL     OW 1399   4.924   3.173   6.859
  167SOL    HW1 1400   4.956   3.129   6.775
  167SOL    HW2 1401   4.893   3.103   6.923
  168SOL     OW 1402   3.127   2.951   1.012
  168SOL    HW1 1403   3.134   2.860   1.053
  168SOL    HW2 1404   3.079   3.012   1.075
  169SOL     OW 1405   5.604   2.125   1.756
  169SOL    HW1 1406   5.697   2.090   1.763
  169SOL    HW2 1407   5.605   2.225   1.759
  170SOL     OW 1408   0.650   0.166   3.073
  170SOL    HW1 1409   0.736   0.148   3.026
  170SOL    HW2 1410   0.588   0.088   3.060
  171SOL     OW 1411   2.539   4.757   6.979
  171SOL    HW1 1412   2.447   4.750   6.943
  171SOL    HW2 1413   2.566   4.853   6.987
  172SOL     OW 1414   6.449   0.992   2.611
  172SOL    HW1 1415   6.387   1.070   2.620
  172SOL    HW2 1416   6.404   0.909   2.642
  173SOL     OW 1417   6.582   1.123   4.093
  173SOL    HW1 1418   6.563   1.221   4.096
  173SOL    HW2 1419   6.676   1.106   4.124
  174SOL     OW 1420   4.031   5.922   3.809
  174SOL    HW1 1421   4.121   5.941   3.771
  174SOL    HW2 1422   3.971   5.887   3.737
  175SOL     OW 1423   3.227   6.963   1.910
  175SOL    HW1 1424   3.130   6.947   1.894
  175SOL    HW2 1425   3.275   6.965   1.822
  176SOL     OW 1426   6.542   4.097   0.629
  176SOL    HW1 1427   6.474   4.154   0.583
  176SOL    HW2 1428   6.621   4.153   0.653
  177SOL     OW 1429   6.020   2.956   2.679
  177SOL    HW1 1430   5.964   3.036   2.661
  177SOL    HW2 1431   5.976   2.898   2.747
  178SOL     OW 1432   2.679   3.678   6.515
  178SOL    HW1 1433   2.687   3.579   6.509
  178SOL    HW2 1434   2.730   3.720   6.440
  179SOL     OW 1435   4.435   1.623   5.658
  179SOL    HW1 1436   4.387   1.705   5.687
  179SOL    HW2 1437   4.381   1.575   5.589
  180SOL     OW 1438   2.173   6.895   0.257
  180SOL    HW1 1439   2.133   6.814   0.301
  180SOL    HW2 1440   2.105   6.936   0.195
  181SOL     OW 1441   3.495   3.232   5.898
  181SOL    HW1 1442   3.442   3.146   5.899
  181SOL    HW2 1443   3.494   3.270   5.806
  182SOL     OW 1444   3.572   1.857   5.225
  182SOL    HW1 1445   3.490   1.857   5.167
  182SOL    HW2 1446   3.561   1.924   5.299
  183SOL     OW 1447   3.826   2.162   3.115
  183SOL    HW1 1448   3.835   2.183   3.213
  183SOL    HW2 1449   3.777   2.236   3.069
  184SOL     OW 1450   0.939   6.814   4.589
  184SOL    HW1 1451   0.970   6.817   4.684
  184SOL    HW2 1452   0.866   6.880   4.576
  185SOL     OW 1453   0.201   1.350   6.322
  185SOL    HW1 1454   0.174   1.298   6.241
  185SOL    HW2 1455   0.184   1.295   6.404
  186SOL     OW 1456   5.711   0.842   4.362
  186SOL    HW1 1457   5.804   0.806   4.355
  186SOL    HW2 1458   5.663   0.827   4.275
  187SOL     OW 1459   5.111   0.163   2.547
  187SOL    HW1 1460   5.100   0.192   2.642
  187SOL    HW2 1461   5.140   0.067   2.545
  188SOL     OW 1462   1.191   3.018   2.561
  188SOL    HW1 1463   1.111   3.074   2.582
  188SOL    HW2 1464   1.182   2.929   2.607
  189SOL     OW 1465   2.506   5.354   1.267
  189SOL    HW1 1466   2.483   5.264   1.303
  189SOL    HW2 1467   2.423   5.409   1.260
  190SOL     OW 1468   5.283   2.785   4.841
  190SOL    HW1 1469   5.286   2.739   4.752
  190SOL    HW2 1470   5.339   2.867   4.839
  191SOL     OW 1471   6.137   0.477   6.654
  191SOL    HW1 1472   6.147   0.409   6.581
  191SOL    HW2 1473   6.131   0.568   6.613
  192SOL     OW 1474   0.882   5.216   1.669
  192SOL    HW1 1475   0.839   5.302   1.698
  192SOL    HW2 1476   0.981   5.223   1.679
  193SOL     OW 1477   4.291   3.860   5.312
  193SOL    HW1 1478   4.224   3.840   5.240
  193SOL    HW2 1479   4.363   3.790   5.311
  194SOL     OW 1480   4.203   1.050   2.972
  194SOL    HW1 1481   4.236   1.021   2.882
  194SOL    HW2 1482   4.109   1.084   2.965
  195SOL     OW 1483   1.680   6.720   4.161
  195SOL    HW1 1484   1.740   6.748   4.236
  195SOL    HW2 1485   1.723   6.644   4.111
  196SOL     OW 1486   3.133   0.777   0.819
  196SOL    HW1 1487   3.133   0.872   0.851
  196SOL    HW2 1488   3.040   0.750   0.795
  197SOL     OW 1489   2.177   0.033   1.314
  197SOL    HW1 1490   2.237   0.096   1.364
  197SOL    HW2 1491   2.188   6.963   1.349
  198SOL     OW 1492   5.105   6.743   1.455
  198SOL    HW1 1493   5.089   6.647   1.479
  198SOL    HW2 1494   5.018   6.788   1.439
  199SOL     OW 1495   0.258   1.612   3.284
  199SOL    HW1 1496   0.173   1.597   3.333
  199SOL    HW2 1497   0.238   1.637   3.189
  200SOL     OW 1498   1.054   4.815   2.236
  200SOL    HW1 1499   0.955   4.819   2.245
  200SOL    HW2 1500   1.090   4.746   2.298
  201SOL     OW 1501   6.359   6.705   6.037
  201SOL    HW1 1502   6.299   6.658   5.973
  201SOL    HW2 1503   6.407   6.779   5.990
  202SOL     OW 1504   4.728   0.670   6.506
  202SOL    HW1 1505   4.724   0.757   6.556
  202SOL    HW2 1506   4.807   0.617   6.537
  203SOL     OW 1507   4.662   2.391   4.563
  203SOL    HW1 1508   4.756   2.376   4.533
  203SOL    HW2 1509   4.611   2.440   4.492
  204SOL     OW 1510   0.610   0.861   6.192
  204SOL    HW1 1511   0.532   0.827   6.139
  204SOL    HW2 1512   0.586   0.949   6.233
  205SOL     OW 1513   0.843   1.188   2.877
  205SOL    HW1 1514   0.840   1.111   2.941
  205SOL    HW2 1515   0.801   1.161   2.790
  206SOL     OW 1516   6.922   4.742   1.006
  206SOL    HW1 1517   6.887   4.648   1.009
  206SOL    HW2 1518   7.002   4.746   0.946
  207SOL     OW 1519   5.429   1.543   3.606
  207SOL    HW1 1520   5.480   1.557   3.691
  207SOL    HW2 1521   5.337   1.581   3.615
  208SOL     OW 1522   5.762   2.539   5.055
  208SOL    HW1 1523   5.845   2.505   5.011
  208SOL    HW2 1524   5.778   2.633   5.086
  209SOL     OW 1525   0.226   4.656   3.636
  209SOL    HW1 1526   0.166   4.636   3.558
  209SOL    HW2 1527   0.266   4.572   3.670
  210SOL     OW 1528   4.007   1.772   0.822
  210SOL    HW1 1529   3.959   1.848   0.865
  210SOL    HW2 1530   3.968   1.685   0.854
  211SOL     OW 1531   2.432   6.072   3.216
  211SOL    HW1 1532   2.515   6.025   3.185
  211SOL    HW2 1533   2.429   6.070   3.316
  212SOL     OW 1534   1.209   4.337   1.975
  212SOL    HW1 1535   1.281   4.402   1.951
  212SOL    HW2 1536   1.124   4.365   1.929
  213SOL     OW 1537   3.132   0.603   0.146
  213SOL    HW1 1538   3.108   0.699   0.134
  213SOL    HW2 1539   3.193   0.575   0.072
  214SOL     OW 1540   4.667   5.032   1.390
  214SOL    HW1 1541   4.726   5.020   1.310
  214SOL    HW2 1542   4.571   5.031   1.361
  215SOL     OW 1543   2.062   3.719   1.074
  215SOL    HW1 1544   1.964   3.706   1.094
  215SOL    HW2 1545   2.097   3.637   1.028
  216SOL     OW 1546   2.329   6.052   3.879
  216SOL    HW1 1547   2.362   5.979   3.818
  216SOL    HW2 1548   2.380   6.049   3.965
  217SOL     OW 1549   1.993   2.533   4.213
  217SOL    HW1 1550   2.031   2.441   4.217
  217SOL    HW2 1551   2.067   2.600   4.216
  218SOL     OW 1552   0.762   3.715   4.329
  218SOL    HW1 1553   0.703   3.645   4.369
  218SOL    HW2 1554   0.850   3.717   4.378
  219SOL     OW 1555   4.570   6.541   6.276
  219SOL    HW1 1556   4.665   6.547   6.306
  219SOL    HW2 1557   4.526   6.465   6.323
  220SOL     OW 1558   3.663   0.230   1.174
  220SOL    HW1 1559   3.665   0.144   1.225
  220SOL    HW2 1560   3.754   0.272   1.175
  221SOL     OW 1561   6.323   2.974   1.260
  221SOL    HW1 1562   6.314   3.073   1.247
  221SOL    HW2 1563   6.232   2.934   1.269
  222SOL     OW 1564   2.453   4.992   5.153
  222SOL    HW1 1565   2.546   4.956   5.157
  222SOL    HW2 1566   2.446   5.060   5.080
  223SOL     OW 1567   5.346   2.666   0.277
  223SOL    HW1 1568   5.304   2.664   0.368
  223SOL    HW2 1569   5.438   2.706   0.284
  224SOL     OW 1570   1.988   1.848   4.798
  224SOL    HW1 1571   2.007   1.942   4.825
  224SOL    HW2 1572   1.902   1.844   4.747
  225SOL     OW 1573   4.665   3.109   6.171
  225SOL    HW1 1574   4.701   3.016   6.164
  225SOL    HW2 1575   4.582   3.109   6.227
  226SOL     OW 1576   1.381   0.656   6.097
  226SOL    HW1 1577   1.448   0.726   6.120
  226SOL    HW2 1578   1.300   0.699   6.059
  227SOL     OW 1579   1.565   3.389   3.098
  227SOL    HW1 1580   1.505   3.393   3.018
  227SOL    HW2 1581   1.639   3.325   3.081
  228SOL     OW 1582   2.852   6.331   3.989
  228SOL    HW1 1583   2.922   6.322   3.918
  228SOL    HW2 1584   2.879   6.279   4.069
  229SOL     OW 1585   5.179   5.892   6.973
  229SOL    HW1 1586   5.111   5.952   7.014
  229SOL    HW2 1587   5.143   5.799   6.968
  230SOL     OW 1588   3.237   4.872   3.448
  230SOL    HW1 1589   3.216   4.966   3.472
  230SOL    HW2 1590   3.335   4.855   3.462
  231SOL     OW 1591   6.254   2.194   6.911
  231SOL    HW1 1592   6.249   2.112   6.967
  231SOL    HW2 1593   6.185   2.189   6.839
  232SOL     OW 1594   0.956   3.409   6.496
  232SOL    HW1 1595   1.027   3.473   6.467
  232SOL    HW2 1596   0.946   3.337   6.428
  233SOL     OW 1597   2.800   2.080   3.681
  233SOL    HW1 1598   2.723   2.135   3.648
  233SOL    HW2 1599   2.881   2.099   3.626
  234SOL     OW 1600   4.679   0.173   5.115
  234SOL    HW1 1601   4.768   0.209   5.141
  234SOL    HW2 1602   4.688   0.116   5.034
  235SOL     OW 1603   3.489   2.924   1.838
  235SOL    HW1 1604   3.517   2.980   1.760
  235SOL    HW2 1605   3.562   2.861   1.863
  236SOL     OW 1606   4.590   3.045   6.754
  236SOL    HW1 1607   4.603   2.994   6.670
  236SOL    HW2 1608   4.565   2.983   6.828
  237SOL     OW 1609   5.672   4.771   1.958
  237SOL    HW1 1610   5.624   4.684   1.966
  237SOL    HW2 1611   5.719   4.791   2.043
  238SOL     OW 1612   5.105   2.028   0.525
  238SOL    HW1 1613   5.107   1.994   0.619
  238SOL    HW2 1614   5.185   1.993   0.476
  239SOL     OW 1615   0.547   5.632   6.373
  239SOL    HW1 1616   0.480   5.562   6.346
  239SOL    HW2 1617   0.632   5.588   6.400
  240SOL     OW 1618   0.413   2.693   3.065
  240SOL    HW1 1619   0.349   2.731   2.998
  240SOL    HW2 1620   0.504   2.685   3.025
  241SOL     OW 1621   1.843   0.413   4.582
  241SOL    HW1 1622   1.844   0.318   4.614
  241SOL    HW2 1623   1.765   0.461   4.623
  242SOL     OW 1624   3.516   3.240   5.070
  242SOL    HW1 1625   3.444   3.213   5.006
  242SOL    HW2 1626   3.602   3.195   5.045
  243SOL     OW 1627   4.092   0.388   5.690
  243SOL    HW1 1628   4.138   0.305   5.656
  243SOL    HW2 1629   4.149   0.432   5.758
  244SOL     OW 1630   5.870   2.239   4.367
  244SOL    HW1 1631   5.847   2.328   4.404
  244SOL    HW2 1632   5.843   2.235   4.270
  245SOL     OW 1633   6.455   3.755   4.170
  245SOL    HW1 1634   6.526   3.798   4.226
  245SOL    HW2 1635   6.490   3.738   4.078
  246SOL     OW 1636   5.115   2.529   3.416
  246SOL    HW1 1637   5.179   2.592   3.461
  246SOL    HW2 1638   5.165   2.450   3.380
  247SOL     OW 1639   2.685   1.780   1.534
  247SOL    HW1 1640   2.693   1.693   1.582
  247SOL    HW2 1641   2.641   1.847   1.593
  248SOL     OW 1642   3.870   1.975   2.767
  248SOL    HW1 1643   3.916   2.064   2.766
  248SOL    HW2 1644   3.872   1.938   2.860
  249SOL     OW 1645   4.130   6.952   5.170
  249SOL    HW1 1646   4.162   6.993   5.085
  249SOL    HW2 1647   4.186   6.985   5.246
  250SOL     OW 1648   5.295   2.464   0.915
  250SOL    HW1 1649   5.322   2.415   0.832
  250SOL    HW2 1650   5.361   2.444   0.988
  251SOL     OW 1651   4.606   3.917   5.856
  251SOL    HW1 1652   4.645   3.856   5.787
  251SOL    HW2 1653   4.680   3.970   5.898
  252SOL     OW 1654   6.586   6.671   6.790
  252SOL    HW1 1655   6.585   6.581   6.748
  252SOL    HW2 1656   6.564   6.663   6.888
  253SOL     OW 1657   2.789   4.571   0.262
  253SOL    HW1 1658   2.874   4.619   0.284
  253SOL    HW2 1659   2.802   4.519   0.177
  254SOL     OW 1660   5.166   2.982   3.550
  254SOL    HW1 1661   5.205   2.903   3.598
  254SOL    HW2 1662   5.155   2.959   3.453
  255SOL     OW 1663   1.819   2.830   4.503
  255SOL    HW1 1664   1.847   2.765   4.573
  255SOL    HW2 1665   1.811   2.921   4.542
  256SOL     OW 1666   6.401   4.168   6.192
  256SOL    HW1 1667   6.338   4.100   6.230
  256SOL    HW2 1668   6.385   4.178   6.094
  257SOL     OW 1669   5.192   6.299   3.940
  257SOL    HW1 1670   5.261   6.362   3.904
  257SOL    HW2 1671   5.234   6.209   3.954
  258SOL     OW 1672   1.370   5.091   4.559
  258SOL    HW1 1673   1.424   5.135   4.487
  258SOL    HW2 1674   1.286   5.145   4.575
  259SOL     OW 1675   1.343   1.566   2.405
  259SOL    HW1 1676   1.373   1.471   2.394
  259SOL    HW2 1677   1.402   1.626   2.350
  260SOL     OW 1678   4.687   1.321   0.929
  260SOL    HW1 1679   4.746   1.343   1.006
  260SOL    HW2 1680   4.591   1.320   0.959
  261SOL     OW 1681   6.045   3.939   0.369
  261SOL    HW1 1682   6.119   3.920   0.433
  261SOL    HW2 1683   6.082   3.979   0.286
  262SOL     OW 1684   6.378   4.253   0.480
  262SOL    HW1 1685   6.279   4.241   0.480
  262SOL    HW2 1686   6.405   4.306   0.400
  263SOL     OW 1687   0.548   1.164   3.601
  263SOL    HW1 1688   0.506   1.101   3.536
  263SOL    HW2 1689   0.479   1.196   3.666
  264SOL     OW 1690   4.790   3.348   6.201
  264SOL    HW1 1691   4.752   3.263   6.166
  264SOL    HW2 1692   4.727   3.390   6.266
  265SOL     OW 1693   4.905   4.919   3.065
  265SOL    HW1 1694   4.998   4.915   3.028
  265SOL    HW2 1695   4.878   5.015   3.075
  266SOL     OW 1696   3.214   3.064   5.521
  266SOL    HW1 1697   3.175   2.973   5.507
  266SOL    HW2 1698   3.275   3.087   5.446
  267SOL     OW 1699   0.501   1.717   6.285
  267SOL    HW1 1700   0.597   1.743   6.283
  267SOL    HW2 1701   0.446   1.792   6.247
  268SOL     OW 1702   3.831   0.498   5.029
  268SOL    HW1 1703   3.911   0.558   5.034
  268SOL    HW2 1704   3.811   0.462   5.120
  269SOL     OW 1705   1.641   3.209   1.384
  269SOL    HW1 1706   1.565   3.148   1.362
  269SOL    HW2 1707   1.728   3.161   1.369
  270SOL     OW 1708   6.984   0.418   0.131
  270SOL    HW1 1709   0.060   0.408   0.127
  270SOL    HW2 1710   6.942   0.357   0.063
  271SOL     OW 1711   1.658   1.858   6.975
  271SOL    HW1 1712   1.613   1.828   0.035
  271SOL    HW2 1713   1.627   1.950   6.951
  272SOL     OW 1714   3.118   4.879   4.333
  272SOL    HW1 1715   3.203   4.927   4.354
  272SOL    HW2 1716   3.096   4.893   4.236
  273SOL     OW 1717   1.895   3.928   5.126
  273SOL    HW1 1718   1.917   3.890   5.037
  273SOL    HW2 1719   1.801   3.964   5.125
  274SOL     OW 1720   4.838   1.744   2.777
  274SOL    HW1 1721   4.926   1.733   2.732
  274SOL    HW2 1722   4.796   1.831   2.750
  275SOL     OW 1723   6.267   4.696   4.914
  275SOL    HW1 1724   6.256   4.656   5.005
  275SOL    HW2 1725   6.347   4.757   4.914
  276SOL     OW 1726   6.913   5.698   2.543
  276SOL    HW1 1727   6.958   5.761   2.480
  276SOL    HW2 1728   6.978   5.630   2.575
  277SOL     OW 1729   1.713   3.820   0.936
  277SOL    HW1 1730   1.734   3.754   1.008
  277SOL    HW2 1731   1.761   3.795   0.852
  278SOL     OW 1732   6.537   5.220   1.850
  278SOL    HW1 1733   6.579   5.133   1.876
  278SOL    HW2 1734   6.598   5.269   1.788
  279SOL     OW 1735   6.349   2.787   4.762
  279SOL    HW1 1736   6.362   2.810   4.666
  279SOL    HW2 1737   6.398   2.703   4.783
  280SOL     OW 1738   2.854   6.946   2.861
  280SOL    HW1 1739   2.838   0.012   2.820
  280SOL    HW2 1740   2.897   6.885   2.794
  281SOL     OW 1741   3.333   4.969   2.139
  281SOL    HW1 1742   3.424   4.965   2.099
  281SOL    HW2 1743   3.339   5.003   2.233
  282SOL     OW 1744   3.611   1.621   5.377
  282SOL    HW1 1745   3.630   1.703   5.322
  282SOL    HW2 1746   3.652   1.541   5.334
  283SOL     OW 1747   6.763   1.251   5.642
  283SOL    HW1 1748   6.676   1.299   5.635
  283SOL    HW2 1749   6.767   1.178   5.574
  284SOL     OW 1750   1.266   4.468   4.577
  284SOL    HW1 1751   1.171   4.496   4.588
  284SOL    HW2 1752   1.283   4.386   4.631
  285SOL     OW 1753   5.391   5.004   5.559
  285SOL    HW1 1754   5.431   5.095   5.549
  285SOL    HW2 1755   5.380   4.983   5.656
  286SOL     OW 1756   3.404   5.810   4.770
  286SOL    HW1 1757   3.501   5.807   4.795
  286SOL    HW2 1758   3.349   5.777   4.847
  287SOL     OW 1759   0.244   4.403   6.928
  287SOL    HW1 1760   0.191   4.326   6.963
  287SOL    HW2 1761   0.185   4.460   6.870
  288SOL     OW 1762   3.790   1.744   5.965
  288SOL    HW1 1763   3.728   1.672   5.995
  288SOL    HW2 1764   3.796   1.815   6.035
  289SOL     OW 1765   0.009   4.872   4.833
  289SOL    HW1 1766   0.033   4.843   4.926
  289SOL    HW2 1767   0.023   4.795   4.770
  290SOL     OW 1768   5.335   1.567   3.984
  290SOL    HW1 1769   5.419   1.610   3.952
  290SOL    HW2 1770   5.315   1.598   4.077
  291SOL     OW 1771   2.040   2.117   4.851
  291SOL    HW1 1772   1.972   2.190   4.855
  291SOL    HW2 1773   2.079   2.102   4.942
  292SOL     OW 1774   1.794   1.765   3.074
  292SOL    HW1 1775   1.883   1.786   3.032
  292SOL    HW2 1776   1.794   1.671   3.107
  293SOL     OW 1777   4.823   4.565   1.886
  293SOL    HW1 1778   4.869   4.496   1.831
  293SOL    HW2 1779   4.889   4.608   1.947
  294SOL     OW 1780   6.404   5.421   6.257
  294SOL    HW1 1781   6.372   5.428   6.351
  294SOL    HW2 1782   6.428   5.326   6.237
  295SOL     OW 1783   3.157   1.744   4.148
  295SOL    HW1 1784   3.160   1.743   4.248
  295SOL    HW2 1785   3.247   1.769   4.112
  296SOL     OW 1786   5.675   1.791   2.372
  296SOL    HW1 1787   5.694   1.852   2.295
  296SOL    HW2 1788   5.724   1.824   2.453
  297SOL     OW 1789   2.504   4.714   2.863
  297SOL    HW1 1790   2.433   4.784   2.851
  297SOL    HW2 1791   2.524   4.703   2.960
  298SOL     OW 1792   3.378   6.141   0.682
  298SOL    HW1 1793   3.432   6.074   0.732
  298SOL    HW2 1794   3.438   6.194   0.622
  299SOL     OW 1795   3.831   3.573   6.366
  299SOL    HW1 1796   3.779   3.579   6.451
  299SOL    HW2 1797   3.857   3.478   6.349
  300SOL     OW 1798   5.682   0.767   1.779
  300SOL    HW1 1799   5.687   0.707   1.859
  300SOL    HW2 1800   5.768   0.816   1.768
  301SOL     OW 1801   5.395   3.096   1.003
  301SOL    HW1 1802   5.352   3.052   0.924
  301SOL    HW2 1803   5.395   3.195   0.990
  302SOL     OW 1804   0.339   0.897   3.679
  302SOL    HW1 1805   0.298   0.979   3.718
  302SOL    HW2 1806   0.269   0.826   3.669
  303SOL     OW 1807   6.385   6.937   1.767
  303SOL    HW1 1808   6.325   6.882   1.710
  303SOL    HW2 1809   6.355   0.009   1.766
  304SOL     OW 1810   2.256   0.122   4.955
  304SOL    HW1 1811   2.198   0.043   4.933
  304SOL    HW2 1812   2.315   0.142   4.876
  305SOL     OW 1813   0.488   3.024   0.363
  305SOL    HW1 1814   0.440   3.026   0.451
  305SOL    HW2 1815   0.454   3.098   0.305
  306SOL     OW 1816   2.504   0.078   3.597
  306SOL    HW1 1817   2.431   0.145   3.609
  306SOL    HW2 1818   2.593   0.124   3.600
  307SOL     OW 1819   5.033   6.147   0.073
  307SOL    HW1 1820   5.018   6.098   0.159
  307SOL    HW2 1821   4.949   6.194   0.047
  308SOL     OW 1822   6.192   3.512   4.766
  308SOL    HW1 1823   6.133   3.462   4.703
  308SOL    HW2 1824   6.146   3.521   4.854
  309SOL     OW 1825   2.917   5.859   6.500
  309SOL    HW1 1826   2.822   5.838   6.522
  309SOL    HW2 1827   2.920   5.914   6.417
  310SOL     OW 1828   6.245   0.049   5.323
  310SOL    HW1 1829   6.153   0.016   5.306
  310SOL    HW2 1830   6.309   6.995   5.326
  311SOL     OW 1831   4.752   4.799   3.242
  311SOL    HW1 1832   4.672   4.763   3.196
  311SOL    HW2 1833   4.803   4.858   3.180
  312SOL     OW 1834   4.315   0.729   5.120
  312SOL    HW1 1835   4.269   0.813   5.152
  312SOL    HW2 1836   4.379   0.698   5.191
  313SOL     OW 1837   3.361   3.843   2.440
  313SOL    HW1 1838   3.379   3.941   2.431
  313SOL    HW2 1839   3.270   3.823   2.405
  314SOL     OW 1840   3.618   5.708   6.903
  314SOL    HW1 1841   3.684   5.670   6.839
  314SOL    HW2 1842   3.592   5.638   6.970
  315SOL     OW 1843   1.337   2.483   4.009
  315SOL    HW1 1844   1.420   2.536   3.991
  315SOL    HW2 1845   1.303   2.445   3.923
  316SOL     OW 1846   2.852   1.701   4.074
  316SOL    HW1 1847   2.948   1.721   4.092
  316SOL    HW2 1848   2.841   1.605   4.050
  317SOL     OW 1849   0.303   1.031   1.168
  317SOL    HW1 1850   0.288   0.963   1.240
  317SOL    HW2 1851   0.400   1.033   1.143
  318SOL     OW 1852   1.133   5.575   6.688
  318SOL    HW1 1853   1.229   5.584   6.713
  318SOL    HW2 1854   1.107   5.648   6.625
  319SOL     OW 1855   6.823   0.547   3.862
  319SOL    HW1 1856   6.816   0.642   3.831
  319SOL    HW2 1857   6.731   0.506   3.865
  320SOL     OW 1858   6.375   2.281   0.678
  320SOL    HW1 1859   6.364   2.262   0.580
  320SOL    HW2 1860   6.287   2.272   0.724
  321SOL     OW 1861   3.975   1.552   0.226
  321SOL    HW1 1862   4.053   1.526   0.170
  321SOL    HW2 1863   3.982   1.509   0.316
  322SOL     OW 1864   3.981   3.131   4.457
  322SOL    HW1 1865   4.078   3.136   4.481
  322SOL    HW2 1866   3.942   3.223   4.456
  323SOL     OW 1867   0.975   3.151   6.285
  323SOL    HW1 1868   0.975   3.209   6.203
  323SOL    HW2 1869   1.053   3.088   6.281
  324SOL     OW 1870   2.477   1.358   5.102
  324SOL    HW1 1871   2.569   1.326   5.079
  324SOL    HW2 1872   2.438   1.406   5.024
  325SOL     OW 1873   1.184   3.072   1.654
  325SOL    HW1 1874   1.141   2.985   1.677
  325SOL    HW2 1875   1.115   3.134   1.616
  326SOL     OW 1876   1.298   5.084   6.950
  326SOL    HW1 1877   1.303   5.154   6.879
  326SOL    HW2 1878   1.207   5.084   6.991
  327SOL     OW 1879   1.445   5.214   3.705
  327SOL    HW1 1880   1.471   5.119   3.720
  327SOL    HW2 1881   1.346   5.223   3.708
  328SOL     OW 1882   1.141   5.058   2.079
  328SOL    HW1 1883   1.121   4.981   2.139
  328SOL    HW2 1884   1.056   5.107   2.059
  329SOL     OW 1885   4.094   3.795   4.770
  329SOL    HW1 1886   4.175   3.849   4.746
  329SOL    HW2 1887   4.060   3.826   4.859
  330SOL     OW 1888   3.320   6.939   1.471
  330SOL    HW1 1889   3.292   7.001   1.398
  330SOL    HW2 1890   3.379   6.988   1.535
  331SOL     OW 1891   3.399   4.744   0.933
  331SOL    HW1 1892   3.346   4.692   1.000
  331SOL    HW2 1893   3.339   4.776   0.861
  332SOL     OW 1894   4.083   1.680   5.125
  332SOL    HW1 1895   4.086   1.613   5.050
  332SOL    HW2 1896   4.059   1.770   5.088
  333SOL     OW 1897   3.302   0.168   5.871
  333SOL    HW1 1898   3.365   0.225   5.924
  333SOL    HW2 1899   3.260   0.100   5.932
  334SOL     OW 1900   2.592   0.601   1.487
  334SOL    HW1 1901   2.607   0.601   1.586
  334SOL    HW2 1902   2.644   0.676   1.446
  335SOL     OW 1903   4.153   6.709   4.988
  335SOL    HW1 1904   4.114   6.697   4.897
  335SOL    HW2 1905   4.097   6.773   5.040
  336SOL     OW 1906   1.993   0.841   3.901
  336SOL    HW1 1907   1.995   0.748   3.938
  336SOL    HW2 1908   2.056   0.847   3.823
  337SOL     OW 1909   0.483   2.833   0.056
  337SOL    HW1 1910   0.416   2.808   0.126
  337SOL    HW2 1911   0.575   2.832   0.097
  338SOL     OW 1912   2.783   2.284   1.491
  338SOL    HW1 1913   2.856   2.254   1.553
  338SOL    HW2 1914   2.776   2.383   1.493
  339SOL     OW 1915   3.024   6.643   3.429
  339SOL    HW1 1916   3.084   6.582   3.481
  339SOL    HW2 1917   2.967   6.589   3.367
  340SOL     OW 1918   4.736   4.459   5.546
  340SOL    HW1 1919   4.791   4.491   5.623
  340SOL    HW2 1920   4.753   4.518   5.467
  341SOL     OW 1921   6.769   1.362   4.983
  341SOL    HW1 1922   6.826   1.284   4.957
  341SOL    HW2 1923   6.803   1.444   4.937
  342SOL     OW 1924   5.964   3.933   6.992
  342SOL    HW1 1925   5.890   3.872   6.967
  342SOL    HW2 1926   6.052   3.885   6.983
  343SOL     OW 1927   1.739   4.917   0.764
  343SOL    HW1 1928   1.836   4.897   0.754
  343SOL    HW2 1929   1.705   4.963   0.682
  344SOL     OW 1930   0.893   5.222   2.055
  344SOL    HW1 1931   0.896   5.237   2.154
  344SOL    HW2 1932   0.852   5.302   2.010
  345SOL     OW 1933   4.862   1.857   3.722
  345SOL    HW1 1934   4.940   1.856   3.785
  345SOL    HW2 1935   4.777   1.865   3.775
  346SOL     OW 1936   2.274   0.923   2.582
  346SOL    HW1 1937   2.216   0.949   2.659
  346SOL    HW2 1938   2.367   0.907   2.613
  347SOL     OW 1939   3.392   5.463   6.301
  347SOL    HW1 1940   3.481   5.472   6.255
  347SOL    HW2 1941   3.398   5.504   6.392
  348SOL     OW 1942   5.805   4.024   1.781
  348SOL    HW1 1943   5.734   4.093   1.764
  348SOL    HW2 1944   5.820   3.971   1.698
  349SOL     OW 1945   6.676   4.667   0.560
  349SOL    HW1 1946   6.732   4.745   0.587
  349SOL    HW2 1947   6.735   4.594   0.525
  350SOL     OW 1948   3.650   3.498   0.937
  350SOL    HW1 1949   3.560   3.511   0.979
  350SOL    HW2 1950   3.651   3.413   0.885
  351SOL     OW 1951   1.921   2.713   0.204
  351SOL    HW1 1952   1.928   2.681   0.299
  351SOL    HW2 1953   1.867   2.797   0.201
  352SOL     OW 1954   2.866   1.384   4.679
  352SOL    HW1 1955   2.906   1.432   4.601
  352SOL    HW2 1956   2.917   1.408   4.762
  353SOL     OW 1957   2.829   6.201   0.643
  353SOL    HW1 1958   2.796   6.106   0.646
  353SOL    HW2 1959   2.833   6.238   0.736
  354SOL     OW 1960   3.226   2.701   0.650
  354SOL    HW1 1961   3.185   2.634   0.712
  354SOL    HW2 1962   3.244   2.786   0.699
  355SOL     OW 1963   0.531   3.430   2.813
  355SOL    HW1 1964   0.493   3.472   2.730
  355SOL    HW2 1965   0.582   3.499   2.864
  356SOL     OW 1966   3.435   7.004   5.402
  356SOL    HW1 1967   3.449   7.006   5.501
  356SOL    HW2 1968   3.482   6.926   5.362
  357SOL     OW 1969   6.726   0.042   5.511
  357SOL    HW1 1970   6.626   0.050   5.510
  357SOL    HW2 1971   6.753   6.976   5.473
  358SOL     OW 1972   4.802   0.576   1.365
  358SOL    HW1 1973   4.764   0.667   1.376
  358SOL    HW2 1974   4.896   0.574   1.399
  359SOL     OW 1975   1.757   2.417   1.997
  359SOL    HW1 1976   1.772   2.319   1.984
  359SOL    HW2 1977   1.743   2.461   1.909
  360SOL     OW 1978   0.989   5.503   6.406
  360SOL    HW1 1979   1.037   5.581   6.446
  360SOL    HW2 1980   1.006   5.500   6.308
  361SOL     OW 1981   5.896   5.995   2.941
  361SOL    HW1 1982   5.864   6.063   3.007
  361SOL    HW2 1983   5.962   6.037   2.879
  362SOL     OW 1984   3.768   3.670   1.800
  362SOL    HW1 1985   3.859   3.683   1.839
  362SOL    HW2 1986   3.716   3.754   1.809
  363SOL     OW 1987   5.376   4.736   4.091
  363SOL    HW1 1988   5.361   4.834   4.100
  363SOL    HW2 1989   5.474   4.717   4.090
  364SOL     OW 1990   6.198   5.356   5.890
  364SOL    HW1 1991   6.291   5.326   5.869
  364SOL    HW2 1992   6.202   5.434   5.952
  365SOL     OW 1993   5.338   6.002   2.314
  365SOL    HW1 1994   5.346   6.013   2.413
  365SOL    HW2 1995   5.372   5.911   2.288
  366SOL     OW 1996   6.301   0.705   6.225
  366SOL    HW1 1997   6.317   0.781   6.287
  366SOL    HW2 1998   6.202   0.694   6.209
  367SOL     OW 1999   4.731   2.944   1.010
  367SOL    HW1 2000   4.820   2.910   0.977
  367SOL    HW2 2001   4.681   2.985   0.934
  368SOL     OW 2002   0.488   3.593   5.287
  368SOL    HW1 2003   0.481   3.498   5.317
  368SOL    HW2 2004   0.469   3.599   5.189
  369SOL     OW 2005   6.897   5.246   1.188
  369SOL    HW1 2006   6.881   5.344   1.198
  369SOL    HW2 2007   6.875   5.218   1.094
  370SOL     OW 2008   2.613   1.874   5.957
  370SOL    HW1 2009   2.585   1.808   5.888
  370SOL    HW2 2010   2.583   1.965   5.931
  371SOL     OW 2011   2.429   3.706   6.714
  371SOL    HW1 2012   2.528   3.717   6.711
  371SOL    HW2 2013   2.397   3.716   6.808
  372SOL     OW 2014   0.810   6.639   6.228
  372SOL    HW1 2015   0.848   6.713   6.173
  372SOL    HW2 2016   0.733   6.598   6.180
  373SOL     OW 2017   6.261   6.253   4.695
  373SOL    HW1 2018   6.295   6.194   4.621
  373SOL    HW2 2019   6.176   6.296   4.666
  374SOL     OW 2020   2.983   1.874   2.898
  374SOL    HW1 2021   3.042   1.799   2.870
  374SOL    HW2 2022   3.010   1.907   2.988
  375SOL     OW 2023   0.916   4.834   3.849
  375SOL    HW1 2024   0.970   4.893   3.909
  375SOL    HW2 2025   0.959   4.744   3.845
  376SOL     OW 2026   2.122   1.605   4.771
  376SOL    HW1 2027   2.062   1.557   4.708
  376SOL    HW2 2028   2.091   1.700   4.781
  377SOL     OW 2029   0.710   1.989   1.556
  377SOL    HW1 2030   0.735   2.085   1.570
  377SOL    HW2 2031   0.622   1.971   1.599
  378SOL     OW 2032   3.168   2.649   5.645
  378SOL    HW1 2033   3.146   2.630   5.549
  378SOL    HW2 2034   3.084   2.672   5.694
  379SOL     OW 2035   5.879   4.175   0.631
  379SOL    HW1 2036   5.855   4.196   0.536
  379SOL    HW2 2037   5.873   4.076   0.645
  380SOL     OW 2038   2.663   1.139   1.100
  380SOL    HW1 2039   2.642   1.227   1.058
  380SOL    HW2 2040   2.678   1.152   1.198
  381SOL     OW 2041   1.401   4.641   2.710
  381SOL    HW1 2042   1.412   4.733   2.748
  381SOL    HW2 2043   1.308   4.609   2.728
  382SOL     OW 2044   5.493   6.369   5.874
  382SOL    HW1 2045   5.438   6.413   5.944
  382SOL    HW2 2046   5.447   6.288   5.840
  383SOL     OW 2047   4.971   3.046   5.412
  383SOL    HW1 2048   5.025   3.051   5.496
  383SOL    HW2 2049   4.895   3.111   5.416
  384SOL     OW 2050   6.188   5.588   4.675
  384SOL    HW1 2051   6.117   5.610   4.742
  384SOL    HW2 2052   6.221   5.672   4.633
  385SOL     OW 2053   4.306   6.234   5.414
  385SOL    HW1 2054   4.274   6.328   5.424
  385SOL    HW2 2055   4.246   6.185   5.350
  386SOL     OW 2056   2.732   6.129   5.414
  386SOL    HW1 2057   2.783   6.165   5.335
  386SOL    HW2 2058   2.726   6.200   5.484
  387SOL     OW 2059   0.873   6.673   3.289
  387SOL    HW1 2060   0.847   6.606   3.358
  387SOL    HW2 2061   0.822   6.758   3.304
  388SOL     OW 2062   1.255   1.922   3.885
  388SOL    HW1 2063   1.315   1.989   3.927
  388SOL    HW2 2064   1.160   1.942   3.910
  389SOL     OW 2065   4.255   4.157   1.401
  389SOL    HW1 2066   4.290   4.247   1.376
  389SOL    HW2 2067   4.316   4.114   1.467
  390SOL     OW 2068   3.536   0.982   0.075
  390SOL    HW1 2069   3.569   0.899   0.031
  390SOL    HW2 2070   3.543   1.058   0.010
  391SOL     OW 2071   2.070   3.896   5.588
  391SOL    HW1 2072   2.075   3.978   5.645
  391SOL    HW2 2073   2.018   3.825   5.636
  392SOL     OW 2074   1.700   4.322   1.301
  392SOL    HW1 2075   1.767   4.300   1.371
  392SOL    HW2 2076   1.649   4.404   1.328
  393SOL     OW 2077   1.007   4.949   6.999
  393SOL    HW1 2078   0.936   4.990   0.032
  393SOL    HW2 2079   0.975   4.942   6.904
  394SOL     OW 2080   0.184   2.666   6.916
  394SOL    HW1 2081   0.211   2.735   6.983
  394SOL    HW2 2082   0.193   2.575   6.956
  395SOL     OW 2083   4.843   4.583   3.389
  395SOL    HW1 2084   4.761   4.527   3.399
  395SOL    HW2 2085   4.817   4.673   3.354
  396SOL     OW 2086   2.866   3.330   2.328
  396SOL    HW1 2087   2.865   3.256   2.396
  396SOL    HW2 2088   2.880   3.292   2.237
  397SOL     OW 2089   5.428   2.139   6.202
  397SOL    HW1 2090   5.383   2.090   6.127
  397SOL    HW2 2091   5.455   2.230   6.170
  398SOL     OW 2092   1.360   0.143   3.314
  398SOL    HW1 2093   1.421   0.220   3.295
  398SOL    HW2 2094   1.269   0.162   3.278
  399SOL     OW 2095   5.562   6.201   3.990
  399SOL    HW1 2096   5.593   6.275   4.050
  399SOL    HW2 2097   5.636   6.135   3.977
  400SOL     OW 2098   6.218   6.550   5.859
  400SOL    HW1 2099   6.209   6.631   5.802
  400SOL    HW2 2100   6.303   6.502   5.836
  401SOL     OW 2101   4.857   0.469   6.166
  401SOL    HW1 2102   4.911   0.423   6.096
  401SOL    HW2 2103   4.901   0.456   6.255
  402SOL     OW 2104   6.999   0.976   3.474
  402SOL    HW1 2105   7.006   0.879   3.498
  402SOL    HW2 2106   6.905   0.997   3.448
  403SOL     OW 2107   3.845   0.959   5.116
  403SOL    HW1 2108   3.773   0.946   5.047
  403SOL    HW2 2109   3.893   0.873   5.130
  404SOL     OW 2110   1.572   4.893   4.580
  404SOL    HW1 2111   1.503   4.964   4.589
  404SOL    HW2 2112   1.624   4.886   4.665
  405SOL     OW 2113   2.052   3.035   3.006
  405SOL    HW1 2114   2.087   3.110   3.061
  405SOL    HW2 2115   1.956   3.052   2.983
  406SOL     OW 2116   0.029   4.174   5.148
  406SOL    HW1 2117   0.038   4.125   5.235
  406SOL    HW2 2118   6.979   4.243   5.156
  407SOL     OW 2119   1.473   2.431   5.345
  407SOL    HW1 2120   1.505   2.505   5.287
  407SOL    HW2 2121   1.411   2.372   5.293
  408SOL     OW 2122   3.393   2.120   3.061
  408SOL    HW1 2123   3.472   2.143   3.005
  408SOL    HW2 2124   3.310   2.160   3.022
  409SOL     OW 2125   6.765   3.288   1.275
  409SOL    HW1 2126   6.709   3.371   1.281
  409SOL    HW2 2127   6.734   3.233   1.197
  410SOL     OW 2128   1.048   1.526   1.166
  410SOL    HW1 2129   0.951   1.524   1.189
  410SOL    HW2 2130   1.064   1.593   1.093
  411SOL     OW 2131   6.488   0.846   1.375
  411SOL    HW1 2132   6.398   0.880   1.401
  411SOL    HW2 2133   6.477   0.765   1.317
  412SOL     OW 2134   3.721   4.906   2.731
  412SOL    HW1 2135   3.682   4.892   2.822
  412SOL    HW2 2136   3.797   4.842   2.718
  413SOL     OW 2137   5.288   4.164   1.567
  413SOL    HW1 2138   5.202   4.187   1.613
  413SOL    HW2 2139   5.346   4.245   1.563
  414SOL     OW 2140   3.089   6.610   3.873
  414SOL    HW1 2141   3.139   6.524   3.878
  414SOL    HW2 2142   2.993   6.595   3.896
  415SOL     OW 2143   0.729   0.258   6.934
  415SOL    HW1 2144   0.675   0.216   7.007
  415SOL    HW2 2145   0.818   0.286   6.970
  416SOL     OW 2146   4.726   5.454   5.160
  416SOL    HW1 2147   4.657   5.507   5.111
  416SOL    HW2 2148   4.771   5.511   5.228
  417SOL     OW 2149   2.392   0.313   5.970
  417SOL    HW1 2150   2.357   0.223   5.995
  417SOL    HW2 2151   2.439   0.307   5.882
  418SOL     OW 2152   2.860   6.918   6.162
  418SOL    HW1 2153   2.780   6.868   6.128
  418SOL    HW2 2154   2.943   6.869   6.135
  419SOL     OW 2155   0.852   0.008   3.027
  419SOL    HW1 2156   0.896   6.984   2.950
  419SOL    HW2 2157   0.915   0.009   3.105
  420SOL     OW 2158   5.882   1.399   6.488
  420SOL    HW1 2159   5.878   1.436   6.395
  420SOL    HW2 2160   5.809   1.331   6.499
  421SOL     OW 2161   5.812   3.559   4.546
  421SOL    HW1 2162   5.741   3.588   4.609
  421SOL    HW2 2163   5.870   3.490   4.589
  422SOL     OW 2164   4.665   3.254   0.448
  422SOL    HW1 2165   4.640   3.333   0.503
  422SOL    HW2 2166   4.678   3.283   0.353
  423SOL     OW 2167   1.910   1.922   0.072
  423SOL    HW1 2168   1.825   1.877   0.044
  423SOL    HW2 2169   1.906   1.943   0.169
  424SOL     OW 2170   1.778   4.480   2.341
  424SOL    HW1 2171   1.863   4.526   2.315
  424SOL    HW2 2172   1.748   4.515   2.431
  425SOL     OW 2173   4.969   1.835   3.989
  425SOL    HW1 2174   4.885   1.816   4.039
  425SOL    HW2 2175   5.030   1.756   3.993
  426SOL     OW 2176   2.493   2.560   4.491
  426SOL    HW1 2177   2.434   2.506   4.431
  426SOL    HW2 2178   2.439   2.632   4.535
  427SOL     OW 2179   6.079   0.152   3.992
  427SOL    HW1 2180   6.030   0.160   3.905
  427SOL    HW2 2181   6.118   0.241   4.016
  428SOL     OW 2182   3.987   0.800   2.885
  428SOL    HW1 2183   3.900   0.787   2.933
  428SOL    HW2 2184   4.003   0.897   2.871
  429SOL     OW 2185   0.690   4.967   3.685
  429SOL    HW1 2186   0.601   4.992   3.724
  429SOL    HW2 2187   0.740   4.909   3.749
  430SOL     OW 2188   1.221   6.809   4.536
  430SOL    HW1 2189   1.122   6.812   4.547
  430SOL    HW2 2190   1.260   6.898   4.558
  431SOL     OW 2191   3.064   1.439   0.680
  431SOL    HW1 2192   3.072   1.539   0.672
  431SOL    HW2 2193   3.042   1.416   0.775
  432SOL     OW 2194   6.026   2.166   0.943
  432SOL    HW1 2195   6.051   2.211   0.857
  432SOL    HW2 2196   5.953   2.218   0.987
  433SOL     OW 2197   2.318   6.470   5.896
  433SOL    HW1 2198   2.312   6.474   5.796
  433SOL    HW2 2199   2.242   6.416   5.932
  434SOL     OW 2200   4.448   5.800   3.263
  434SOL    HW1 2201   4.412   5.846   3.182
  434SOL    HW2 2202   4.443   5.862   3.342
  435SOL     OW 2203   3.647   2.154   5.550
  435SOL    HW1 2204   3.701   2.122   5.628
  435SOL    HW2 2205   3.708   2.172   5.473
  436SOL     OW 2206   3.296   5.681   2.176
  436SOL    HW1 2207   3.278   5.720   2.266
  436SOL    HW2 2208   3.289   5.752   2.106
  437SOL     OW 2209   0.789   1.490   5.951
  437SOL    HW1 2210   0.706   1.546   5.954
  437SOL    HW2 2211   0.844   1.515   5.872
  438SOL     OW 2212   1.045   3.660   4.060
  438SOL    HW1 2213   0.972   3.713   4.017
  438SOL    HW2 2214   1.133   3.684   4.017
  439SOL     OW 2215   5.488   6.414   2.222
  439SOL    HW1 2216   5.527   6.471   2.149
  439SOL    HW2 2217   5.420   6.353   2.182
  440SOL     OW 2218   3.364   1.243   6.120
  440SOL    HW1 2219   3.397   1.306   6.190
  440SOL    HW2 2220   3.351   1.293   6.034
  441SOL     OW 2221   6.398   3.622   3.657
  441SOL    HW1 2222   6.398   3.552   3.728
  441SOL    HW2 2223   6.314   3.676   3.663
  442SOL     OW 2224   4.905   5.651   5.712
  442SOL    HW1 2225   4.930   5.699   5.796
  442SOL    HW2 2226   4.974   5.667   5.642
  443SOL     OW 2227   5.665   3.983   4.451
  443SOL    HW1 2228   5.589   3.925   4.422
  443SOL    HW2 2229   5.750   3.930   4.452
  444SOL     OW 2230   4.313   0.476   6.259
  444SOL    HW1 2231   4.393   0.460   6.200
  444SOL    HW2 2232   4.341   0.525   6.341
  445SOL     OW 2233   2.244   5.896   2.827
  445SOL    HW1 2234   2.215   5.965   2.760
  445SOL    HW2 2235   2.243   5.937   2.918
  446SOL     OW 2236   4.234   5.933   2.792
  446SOL    HW1 2237   4.266   6.028   2.800
  446SOL    HW2 2238   4.157   5.929   2.728
  447SOL     OW 2239   6.437   3.413   4.759
  447SOL    HW1 2240   6.469   3.433   4.666
  447SOL    HW2 2241   6.348   3.456   4.773
  448SOL     OW 2242   2.610   0.718   2.763
  448SOL    HW1 2243   2.608   0.691   2.859
  448SOL    HW2 2244   2.545   0.661   2.711
  449SOL     OW 2245   2.843   1.438   4.002
  449SOL    HW1 2246   2.881   1.415   4.091
  449SOL    HW2 2247   2.797   1.358   3.963
  450SOL     OW 2248   1.759   4.867   3.600
  450SOL    HW1 2249   1.820   4.866   3.679
  450SOL    HW2 2250   1.742   4.961   3.572
  451SOL     OW 2251   2.071   2.256   4.465
  451SOL    HW1 2252   2.086   2.287   4.559
  451SOL    HW2 2253   2.067   2.156   4.464
  452SOL     OW 2254   4.352   6.693   1.519
  452SOL    HW1 2255   4.335   6.787   1.491
  452SOL    HW2 2256   4.268   6.654   1.559
  453SOL     OW 2257   3.462   6.705   6.318
  453SOL    HW1 2258   3.492   6.612   6.296
  453SOL    HW2 2259   3.414   6.743   6.239
  454SOL     OW 2260   6.938   3.924   6.973
  454SOL    HW1 2261   6.843   3.938   6.945
  454SOL    HW2 2262   6.980   3.856   6.913
  455SOL     OW 2263   6.396   2.975   4.972
  455SOL    HW1 2264   6.396   2.908   4.898
  455SOL    HW2 2265   6.392   2.928   5.060
  456SOL     OW 2266   1.334   0.750   4.214
  456SOL    HW1 2267   1.378   0.668   4.177
  456SOL    HW2 2268   1.356   0.759   4.311
  457SOL     OW 2269   2.097   4.002   4.233
  457SOL    HW1 2270   2.029   3.957   4.175
  457SOL    HW2 2271   2.120   4.091   4.195
  458SOL     OW 2272   3.323   0.704   2.854
  458SOL    HW1 2273   3.317   0.663   2.945
  458SOL    HW2 2274   3.251   0.773   2.844
  459SOL     OW 2275   1.726   0.389   5.311
  459SOL    HW1 2276   1.795   0.318   5.301
  459SOL    HW2 2277   1.638   0.347   5.334
  460SOL     OW 2278   1.462   0.502   4.929
  460SOL    HW1 2279   1.401   0.525   4.853
  460SOL    HW2 2280   1.478   0.584   4.985
  461SOL     OW 2281   6.531   5.063   5.866
  461SOL    HW1 2282   6.437   5.032   5.873
  461SOL    HW2 2283   6.593   4.984   5.866
  462SOL     OW 2284   3.832   3.760   5.386
  462SOL    HW1 2285   3.837   3.857   5.410
  462SOL    HW2 2286   3.877   3.706   5.457
  463SOL     OW 2287   0.418   0.502   3.394
  463SOL    HW1 2288   0.445   0.589   3.351
  463SOL    HW2 2289   0.354   0.521   3.468
  464SOL     OW 2290   2.931   0.654   5.924
  464SOL    HW1 2291   3.019   0.608   5.929
  464SOL    HW2 2292   2.896   0.648   5.830
  465SOL     OW 2293   0.626   2.458   7.005
  465SOL    HW1 2294   0.614   2.538   6.946
  465SOL    HW2 2295   0.554   2.391   6.986
  466SOL     OW 2296   2.667   6.654   4.255
  466SOL    HW1 2297   2.580   6.698   4.229
  466SOL    HW2 2298   2.650   6.587   4.326
  467SOL     OW 2299   1.487   1.671   2.786
  467SOL    HW1 2300   1.417   1.626   2.730
  467SOL    HW2 2301   1.493   1.626   2.875
  468SOL     OW 2302   4.104   5.496   5.693
  468SOL    HW1 2303   4.072   5.589   5.675
  468SOL    HW2 2304   4.157   5.463   5.615
  469SOL     OW 2305   3.040   4.255   5.730
  469SOL    HW1 2306   2.996   4.344   5.743
  469SOL    HW2 2307   3.121   4.266   5.671
  470SOL     OW 2308   4.092   5.999   2.027
  470SOL    HW1 2309   4.161   6.030   2.092
  470SOL    HW2 2310   4.089   5.899   2.026
  471SOL     OW 2311   2.875   2.143   4.209
  471SOL    HW1 2312   2.826   2.221   4.249
  471SOL    HW2 2313   2.880   2.153   4.110
  472SOL     OW 2314   5.591   4.810   6.739
  472SOL    HW1 2315   5.688   4.824   6.757
  472SOL    HW2 2316   5.537   4.875   6.792
  473SOL     OW 2317   0.548   2.397   2.091
  473SOL    HW1 2318   0.483   2.342   2.144
  473SOL    HW2 2319   0.617   2.435   2.152
  474SOL     OW 2320   5.870   5.229   5.464
  474SOL    HW1 2321   5.963   5.262   5.475
  474SOL    HW2 2322   5.834   5.201   5.554
  475SOL     OW 2323   6.023   3.305   0.016
  475SOL    HW1 2324   6.003   3.356   6.956
  475SOL    HW2 2325   5.996   3.209   0.004
  476SOL     OW 2326   7.002   3.605   1.996
  476SOL    HW1 2327   7.009   3.580   1.899
  476SOL    HW2 2328   0.064   3.649   2.025
  477SOL     OW 2329   2.436   5.860   3.701
  477SOL    HW1 2330   2.387   5.899   3.623
  477SOL    HW2 2331   2.527   5.830   3.672
  478SOL     OW 2332   3.880   6.395   3.480
  478SOL    HW1 2333   3.929   6.372   3.564
  478SOL    HW2 2334   3.927   6.354   3.402
  479SOL     OW 2335   4.046   3.221   5.048
  479SOL    HW1 2336   3.955   3.235   5.009
  479SOL    HW2 2337   4.070   3.124   5.044
  480SOL     OW 2338   2.802   0.411   1.521
  480SOL    HW1 2339   2.727   0.465   1.482
  480SOL    HW2 2340   2.816   0.438   1.617
  481SOL     OW 2341   0.437   6.607   1.802
  481SOL    HW1 2342   0.384   6.685   1.770
  481SOL    HW2 2343   0.530   6.636   1.826
  482SOL     OW 2344   4.533   4.788   3.085
  482SOL    HW1 2345   4.477   4.869   3.103
  482SOL    HW2 2346   4.473   4.709   3.071
  483SOL     OW 2347   6.706   2.088   2.333
  483SOL    HW1 2348   6.704   2.186   2.351
  483SOL    HW2 2349   6.789   2.066   2.281
  484SOL     OW 2350   1.681   4.322   4.825
  484SOL    HW1 2351   1.669   4.420   4.844
  484SOL    HW2 2352   1.674   4.271   4.911
  485SOL     OW 2353   5.148   4.457   2.721
  485SOL    HW1 2354   5.056   4.417   2.722
  485SOL    HW2 2355   5.209   4.402   2.777
  486SOL     OW 2356   6.155   1.353   6.532
  486SOL    HW1 2357   6.212   1.423   6.488
  486SOL    HW2 2358   6.059   1.372   6.514
  487SOL     OW 2359   0.640   0.755   2.807
  487SOL    HW1 2360   0.587   0.720   2.884
  487SOL    HW2 2361   0.735   0.725   2.816
  488SOL     OW 2362   0.926   6.956   2.715
  488SOL    HW1 2363   0.836   7.000   2.705
  488SOL    HW2 2364   0.996   7.015   2.675
  489SOL     OW 2365   5.650   6.209   5.332
  489SOL    HW1 2366   5.741   6.170   5.317
  489SOL    HW2 2367   5.618   6.186   5.424
  490SOL     OW 2368   1.104   6.087   4.410
  490SOL    HW1 2369   1.036   6.027   4.367
  490SOL    HW2 2370   1.121   6.166   4.352
  491SOL     OW 2371   1.155   3.586   1.202
  491SOL    HW1 2372   1.193   3.564   1.292
  491SOL    HW2 2373   1.165   3.508   1.141
  492SOL     OW 2374   1.370   0.975   5.584
  492SOL    HW1 2375   1.399   1.039   5.655
  492SOL    HW2 2376   1.272   0.958   5.592
  493SOL     OW 2377   2.478   0.012   5.520
  493SOL    HW1 2378   2.571   0.036   5.547
  493SOL    HW2 2379   2.468   0.021   5.421
  494SOL     OW 2380   1.534   1.354   6.261
  494SOL    HW1 2381   1.506   1.340   6.356
  494SOL    HW2 2382   1.619   1.407   6.259
  495SOL     OW 2383   3.287   6.340   5.001
  495SOL    HW1 2384   3.379   6.310   5.028
  495SOL    HW2 2385   3.280   6.339   4.902
  496SOL     OW 2386   6.310   1.778   1.843
  496SOL    HW1 2387   6.397   1.816   1.813
  496SOL    HW2 2388   6.324   1.718   1.922
  497SOL     OW 2389   3.502   1.248   4.473
  497SOL    HW1 2390   3.448   1.207   4.547
  497SOL    HW2 2391   3.442   1.273   4.397
  498SOL     OW 2392   0.817   4.603   2.509
  498SOL    HW1 2393   0.905   4.566   2.481
  498SOL    HW2 2394   0.753   4.527   2.527
  499SOL     OW 2395   1.844   5.219   5.047
  499SOL    HW1 2396   1.775   5.176   5.104
  499SOL    HW2 2397   1.853   5.315   5.072
  500SOL     OW 2398   5.829   2.522   6.131
  500SOL    HW1 2399   5.769   2.530   6.051
  500SOL    HW2 2400   5.792   2.576   6.207
  501SOL     OW 2401   3.913   6.942   1.057
  501SOL    HW1 2402   3.916   0.017   1.036
  501SOL    HW2 2403   3.907   6.889   0.972
  502SOL     OW 2404   0.750   4.887   6.081
  502SOL    HW1 2405   0.660   4.850   6.056
  502SOL    HW2 2406   0.815   4.870   6.007
  503SOL     OW 2407   2.319   4.983   6.302
  503SOL    HW1 2408   2.224   5.002   6.278
  503SOL    HW2 2409   2.323   4.919   6.378
  504SOL     OW 2410   0.482   5.809   1.666
  504SOL    HW1 2411   0.430   5.838   1.585
  504SOL    HW2 2412   0.556   5.749   1.638
  505SOL     OW 2413   4.430   6.994   5.042
  505SOL    HW1 2414   4.495   7.020   5.113
  505SOL    HW2 2415   4.444   6.897   5.019
  506SOL     OW 2416   2.898   6.040   1.993
  506SOL    HW1 2417   2.826   6.011   1.931
  506SOL    HW2 2418   2.945   6.120   1.955
  507SOL     OW 2419   4.001   0.096   2.579
  507SOL    HW1 2420   3.960   0.187   2.567
  507SOL    HW2 2421   3.934   0.035   2.622
  508SOL     OW 2422   0.063   2.423   2.745
  508SOL    HW1 2423   0.019   2.334   2.756
  508SOL    HW2 2424   0.066   2.470   2.833
  509SOL     OW 2425   4.338   1.194   0.681
  509SOL    HW1 2426   4.348   1.214   0.778
  509SOL    HW2 2427   4.311   1.099   0.669
  510SOL     OW 2428   0.076   5.032   5.941
  510SOL    HW1 2429   7.014   5.011   5.991
  510SOL    HW2 2430   0.101   5.127   5.957
  511SOL     OW 2431   1.060   2.176   6.709
  511SOL    HW1 2432   0.992   2.249   6.700
  511SOL    HW2 2433   1.018   2.088   6.685
  512SOL     OW 2434   6.341   2.876   6.788
  512SOL    HW1 2435   6.265   2.904   6.846
  512SOL    HW2 2436   6.308   2.818   6.714
  513SOL     OW 2437   5.207   6.867   2.773
  513SOL    HW1 2438   5.123   6.916   2.795
  513SOL    HW2 2439   5.193   6.812   2.691
  514SOL     OW 2440   7.015   0.375   4.520
  514SOL    HW1 2441   0.037   0.431   4.589
  514SOL    HW2 2442   0.030   0.396   4.430
  515SOL     OW 2443   1.756   0.062   6.857
  515SOL    HW1 2444   1.735   0.110   6.942
  515SOL    HW2 2445   1.756   0.127   6.781
  516SOL     OW 2446   2.738   4.762   2.160
  516SOL    HW1 2447   2.802   4.754   2.236
  516SOL    HW2 2448   2.774   4.711   2.081
  517SOL     OW 2449   3.383   4.794   1.713
  517SOL    HW1 2450   3.457   4.758   1.770
  517SOL    HW2 2451   3.322   4.719   1.686
  518SOL     OW 2452   2.692   2.429   3.833
  518SOL    HW1 2453   2.656   2.460   3.745
  518SOL    HW2 2454   2.636   2.465   3.907
  519SOL     OW 2455   0.015   6.354   3.527
  519SOL    HW1 2456   6.952   6.400   3.507
  519SOL    HW2 2457   7.019   6.269   3.576
  520SOL     OW 2458   0.398   3.478   6.516
  520SOL    HW1 2459   0.491   3.494   6.549
  520SOL    HW2 2460   0.355   3.407   6.572
  521SOL     OW 2461   5.228   5.918   5.071
  521SOL    HW1 2462   5.306   5.961   5.025
  521SOL    HW2 2463   5.167   5.989   5.105
  522SOL     OW 2464   4.074   3.696   2.731
  522SOL    HW1 2465   4.058   3.794   2.718
  522SOL    HW2 2466   4.063   3.674   2.828
  523SOL     OW 2467   6.670   5.742   2.120
  523SOL    HW1 2468   6.574   5.755   2.146
  523SOL    HW2 2469   6.685   5.646   2.095
  524SOL     OW 2470   1.610   2.715   2.549
  524SOL    HW1 2471   1.579   2.733   2.642
  524SOL    HW2 2472   1.634   2.802   2.504
  525SOL     OW 2473   1.765   4.210   6.149
  525SOL    HW1 2474   1.762   4.302   6.188
  525SOL    HW2 2475   1.693   4.200   6.081
  526SOL     OW 2476   3.303   6.820   4.188
  526SOL    HW1 2477   3.221   6.767   4.206
  526SOL    HW2 2478   3.369   6.805   4.262
  527SOL     OW 2479   0.448   2.194   0.333
  527SOL    HW1 2480   0.371   2.257   0.335
  527SOL    HW2 2481   0.532   2.244   0.310
  528SOL     OW 2482   1.776   2.570   3.828
  528SOL    HW1 2483   1.844   2.624   3.779
  528SOL    HW2 2484   1.738   2.501   3.766
  529SOL     OW 2485   1.823   0.168   4.751
  529SOL    HW1 2486   1.857   0.209   4.836
  529SOL    HW2 2487   1.869   0.081   4.735
  530SOL     OW 2488   4.089   3.466   2.612
  530SOL    HW1 2489   4.089   3.549   2.667
  530SOL    HW2 2490   4.084   3.386   2.672
  531SOL     OW 2491   1.223   1.013   2.888
  531SOL    HW1 2492   1.169   1.092   2.860
  531SOL    HW2 2493   1.321   1.037   2.884
  532SOL     OW 2494   1.509   3.516   0.567
  532SOL    HW1 2495   1.486   3.494   0.662
  532SOL    HW2 2496   1.554   3.605   0.563
  533SOL     OW 2497   4.427   6.883   3.513
  533SOL    HW1 2498   4.358   6.860   3.444
  533SOL    HW2 2499   4.402   6.969   3.557
  534SOL     OW 2500   6.006   6.224   2.697
  534SOL    HW1 2501   6.082   6.179   2.650
  534SOL    HW2 2502   5.921   6.176   2.678
  535SOL     OW 2503   7.007   4.352   2.668
  535SOL    HW1 2504   6.958   4.372   2.753
  535SOL    HW2 2505   6.993   4.256   2.643
  536SOL     OW 2506   6.352   4.955   2.533
  536SOL    HW1 2507   6.427   4.996   2.481
  536SOL    HW2 2508   6.380   4.945   2.629
  537SOL     OW 2509   3.898   0.042   4.212
  537SOL    HW1 2510   3.871   0.116   4.273
  537SOL    HW2 2511   3.868   0.062   4.119
  538SOL     OW 2512   0.893   4.591   4.388
  538SOL    HW1 2513   0.889   4.511   4.328
  538SOL    HW2 2514   0.932   4.668   4.337
  539SOL     OW 2515   1.826   5.214   2.215
  539SOL    HW1 2516   1.870   5.145   2.158
  539SOL    HW2 2517   1.746   5.251   2.167
  540SOL     OW 2518   1.740   0.754   3.469
  540SOL    HW1 2519   1.691   0.841   3.475
  540SOL    HW2 2520   1.679   0.679   3.492
  541SOL     OW 2521   4.563   5.630   3.935
  541SOL    HW1 2522   4.569   5.546   3.990
  541SOL    HW2 2523   4.603   5.706   3.986
  542SOL     OW 2524   4.478   6.579   6.691
  542SOL    HW1 2525   4.413   6.614   6.759
  542SOL    HW2 2526   4.566   6.624   6.702
  543SOL     OW 2527   5.807   3.590   3.246
  543SOL    HW1 2528   5.861   3.536   3.310
  543SOL    HW2 2529   5.866   3.622   3.172
  544SOL     OW 2530   0.495   5.338   0.080
  544SOL    HW1 2531   0.474   5.435   0.069
  544SOL    HW2 2532   0.426   5.295   0.139
  545SOL     OW 2533   4.024   1.059   1.262
  545SOL    HW1 2534   4.088   0.985   1.284
  545SOL    HW2 2535   3.939   1.045   1.313
  546SOL     OW 2536   1.694   4.048   1.535
  546SOL    HW1 2537   1.675   4.040   1.632
  546SOL    HW2 2538   1.619   4.095   1.490
  547SOL     OW 2539   3.661   2.615   1.076
  547SOL    HW1 2540   3.698   2.556   1.005
  547SOL    HW2 2541   3.603   2.562   1.138
  548SOL     OW 2542   3.379   3.604   1.816
  548SOL    HW1 2543   3.382   3.505   1.834
  548SOL    HW2 2544   3.467   3.645   1.838
  549SOL     OW 2545   5.326   2.347   1.730
  549SOL    HW1 2546   5.401   2.342   1.665
  549SOL    HW2 2547   5.274   2.432   1.715
  550SOL     OW 2548   0.966   5.687   3.322
  550SOL    HW1 2549   0.949   5.639   3.236
  550SOL    HW2 2550   0.927   5.634   3.398
  551SOL     OW 2551   0.125   0.341   1.887
  551SOL    HW1 2552   0.053   0.405   1.861
  551SOL    HW2 2553   0.201   0.391   1.930
  552SOL     OW 2554   5.787   4.024   5.948
  552SOL    HW1 2555   5.710   3.973   5.987
  552SOL    HW2 2556   5.767   4.045   5.852
  553SOL     OW 2557   2.658   6.785   3.875
  553SOL    HW1 2558   2.573   6.837   3.865
  553SOL    HW2 2559   2.713   6.824   3.949
  554SOL     OW 2560   6.002   6.849   0.298
  554SOL    HW1 2561   6.057   6.771   0.268
  554SOL    HW2 2562   5.938   6.819   0.369
  555SOL     OW 2563   3.102   4.879   4.743
  555SOL    HW1 2564   3.091   4.846   4.836
  555SOL    HW2 2565   3.017   4.864   4.692
  556SOL     OW 2566   4.818   1.969   4.209
  556SOL    HW1 2567   4.735   2.015   4.180
  556SOL    HW2 2568   4.832   1.982   4.307
  557SOL     OW 2569   6.762   5.207   6.719
  557SOL    HW1 2570   6.854   5.175   6.741
  557SOL    HW2 2571   6.701   5.189   6.796
  558SOL     OW 2572   3.198   3.182   3.888
  558SOL    HW1 2573   3.250   3.097   3.893
  558SOL    HW2 2574   3.136   3.188   3.967
  559SOL     OW 2575   6.812   5.177   5.114
  559SOL    HW1 2576   6.805   5.259   5.171
  559SOL    HW2 2577   6.751   5.106   5.150
  560SOL     OW 2578   6.328   4.124   3.505
  560SOL    HW1 2579   6.322   4.224   3.495
  560SOL    HW2 2580   6.424   4.097   3.507
  561SOL     OW 2581   0.109   2.284   0.665
  561SOL    HW1 2582   0.159   2.323   0.588
  561SOL    HW2 2583   0.035   2.226   0.632
  562SOL     OW 2584   3.804   0.577   6.270
  562SOL    HW1 2585   3.900   0.603   6.280
  562SOL    HW2 2586   3.755   0.596   6.354
  563SOL     OW 2587   2.462   1.259   3.895
  563SOL    HW1 2588   2.408   1.188   3.850
  563SOL    HW2 2589   2.425   1.276   3.986
  564SOL     OW 2590   0.677   3.358   0.273
  564SOL    HW1 2591   0.647   3.331   0.364
  564SOL    HW2 2592   0.653   3.287   0.207
  565SOL     OW 2593   3.231   3.503   4.127
  565SOL    HW1 2594   3.177   3.561   4.066
  565SOL    HW2 2595   3.327   3.530   4.121
  566SOL     OW 2596   0.823   3.560   3.771
  566SOL    HW1 2597   0.770   3.635   3.731
  566SOL    HW2 2598   0.919   3.586   3.777
  567SOL     OW 2599   3.377   2.706   1.477
  567SOL    HW1 2600   3.325   2.790   1.466
  567SOL    HW2 2601   3.352   2.661   1.563
  568SOL     OW 2602   4.365   0.206   0.365
  568SOL    HW1 2603   4.274   0.204   0.324
  568SOL    HW2 2604   4.357   0.212   0.464
  569SOL     OW 2605   0.981   3.283   0.809
  569SOL    HW1 2606   1.013   3.195   0.774
  569SOL    HW2 2607   0.919   3.325   0.743
  570SOL     OW 2608   3.422   0.646   6.670
  570SOL    HW1 2609   3.436   0.731   6.620
  570SOL    HW2 2610   3.330   0.612   6.655
  571SOL     OW 2611   3.161   5.131   3.699
  571SOL    HW1 2612   3.146   5.034   3.718
  571SOL    HW2 2613   3.149   5.148   3.601
  572SOL     OW 2614   2.535   5.147   5.395
  572SOL    HW1 2615   2.520   5.083   5.319
  572SOL    HW2 2616   2.616   5.120   5.446
  573SOL     OW 2617   6.006   1.275   6.255
  573SOL    HW1 2618   5.917   1.236   6.233
  573SOL    HW2 2619   6.039   1.236   6.341
  574SOL     OW 2620   3.222   0.929   4.324
  574SOL    HW1 2621   3.220   0.863   4.249
  574SOL    HW2 2622   3.275   0.891   4.401
  575SOL     OW 2623   4.429   3.106   1.747
  575SOL    HW1 2624   4.482   3.060   1.818
  575SOL    HW2 2625   4.485   3.117   1.665
  576SOL     OW 2626   1.249   3.042   3.140
  576SOL    HW1 2627   1.275   2.973   3.208
  576SOL    HW2 2628   1.170   3.010   3.089
  577SOL     OW 2629   1.582   1.009   2.299
  577SOL    HW1 2630   1.497   0.969   2.332
  577SOL    HW2 2631   1.562   1.093   2.248
  578SOL     OW 2632   0.316   5.268   4.143
  578SOL    HW1 2633   0.249   5.331   4.184
  578SOL    HW2 2634   0.337   5.196   4.209
  579SOL     OW 2635   1.279   3.617   3.927
  579SOL    HW1 2636   1.296   3.550   3.999
  579SOL    HW2 2637   1.353   3.684   3.927
  580SOL     OW 2638   4.263   5.079   5.710
  580SOL    HW1 2639   4.231   5.128   5.792
  580SOL    HW2 2640   4.184   5.044   5.660
  581SOL     OW 2641   1.812   2.964   1.874
  581SOL    HW1 2642   1.818   2.963   1.973
  581SOL    HW2 2643   1.879   2.900   1.836
  582SOL     OW 2644   4.832   5.235   2.531
  582SOL    HW1 2645   4.753   5.175   2.523
  582SOL    HW2 2646   4.805   5.330   2.513
  583SOL     OW 2647   2.440   6.240   5.073
  583SOL    HW1 2648   2.422   6.219   5.169
  583SOL    HW2 2649   2.538   6.234   5.055
  584SOL     OW 2650   2.931   6.497   6.432
  584SOL    HW1 2651   2.901   6.413   6.387
  584SOL    HW2 2652   2.877   6.574   6.398
  585SOL     OW 2653   4.612   1.073   0.064
  585SOL    HW1 2654   4.534   1.111   0.016
  585SOL    HW2 2655   4.622   1.117   0.153
  586SOL     OW 2656   3.135   0.592   6.673
  586SOL    HW1 2657   3.160   0.576   6.768
  586SOL    HW2 2658   3.123   0.690   6.658
  587SOL     OW 2659   4.942   2.424   3.699
  587SOL    HW1 2660   5.006   2.359   3.658
  587SOL    HW2 2661   4.938   2.506   3.642
  588SOL     OW 2662   2.366   4.752   1.584
  588SOL    HW1 2663   2.371   4.713   1.676
  588SOL    HW2 2664   2.343   4.680   1.518
  589SOL     OW 2665   3.621   5.341   1.645
  589SOL    HW1 2666   3.682   5.365   1.569
  589SOL    HW2 2667   3.672   5.291   1.715
  590SOL     OW 2668   5.555   1.893   1.977
  590SOL    HW1 2669   5.587   1.958   1.908
  590SOL    HW2 2670   5.606   1.908   2.062
  591SOL     OW 2671   3.708   6.114   3.567
  591SOL    HW1 2672   3.689   6.067   3.481
  591SOL    HW2 2673   3.684   6.210   3.559
  592SOL     OW 2674   4.739   0.421   1.604
  592SOL    HW1 2675   4.775   0.485   1.673
  592SOL    HW2 2676   4.726   0.470   1.518
  593SOL     OW 2677   4.740   2.686   4.265
  593SOL    HW1 2678   4.751   2.684   4.364
  593SOL    HW2 2679   4.699   2.599   4.234
  594SOL     OW 2680   5.532   0.353   0.717
  594SOL    HW1 2681   5.507   0.381   0.810
  594SOL    HW2 2682   5.631   0.343   0.711
  595SOL     OW 2683   5.469   6.950   3.577
  595SOL    HW1 2684   5.535   6.923   3.647
  595SOL    HW2 2685   5.400   6.879   3.567
  596SOL     OW 2686   0.034   5.028   3.192
  596SOL    HW1 2687   0.039   5.113   3.244
  596SOL    HW2 2688   0.047   4.950   3.254
  597SOL     OW 2689   2.272   0.205   6.615
  597SOL    HW1 2690   2.244   0.262   6.538
  597SOL    HW2 2691   2.199   0.204   6.684
  598SOL     OW 2692   3.723   4.043   4.620
  598SOL    HW1 2693   3.634   4.090   4.625
  598SOL    HW2 2694   3.751   4.016   4.712
  599SOL     OW 2695   2.678   5.650   2.897
  599SOL    HW1 2696   2.662   5.732   2.842
  599SOL    HW2 2697   2.617   5.652   2.976
  600SOL     OW 2698   5.970   1.965   6.816
  600SOL    HW1 2699   6.033   1.938   6.743
  600SOL    HW2 2700   5.960   2.065   6.817
  601SOL     OW 2701   1.535   0.649   4.001
  601SOL    HW1 2702   1.585   0.735   3.995
  601SOL    HW2 2703   1.478   0.637   3.920
  602SOL     OW 2704   1.569   0.841   6.438
  602SOL    HW1 2705   1.611   0.863   6.350
  602SOL    HW2 2706   1.612   0.895   6.511
  603SOL     OW 2707   2.807   2.777   5.421
  603SOL    HW1 2708   2.904   2.763   5.401
  603SOL    HW2 2709   2.776   2.863   5.381
  604SOL     OW 2710   0.597   1.497   1.446
  604SOL    HW1 2711   0.561   1.512   1.538
  604SOL    HW2 2712   0.528   1.452   1.390
  605SOL     OW 2713   6.671   5.024   0.161
  605SOL    HW1 2714   6.647   5.006   0.066
  605SOL    HW2 2715   6.610   5.093   0.199
  606SOL     OW 2716   5.077   6.435   5.780
  606SOL    HW1 2717   5.052   6.529   5.758
  606SOL    HW2 2718   5.102   6.429   5.877
  607SOL     OW 2719   6.472   4.485   5.248
  607SOL    HW1 2720   6.477   4.501   5.150
  607SOL    HW2 2721   6.381   4.450   5.272
  608SOL     OW 2722   4.319   6.126   6.663
  608SOL    HW1 2723   4.272   6.107   6.750
  608SOL    HW2 2724   4.254   6.165   6.598
  609SOL     OW 2725   3.692   2.967   2.784
  609SOL    HW1 2726   3.717   2.918   2.701
  609SOL    HW2 2727   3.768   2.963   2.849
  610SOL     OW 2728   5.981   3.144   0.628
  610SOL    HW1 2729   6.036   3.077   0.579
  610SOL    HW2 2730   5.936   3.205   0.562
  611SOL     OW 2731   4.734   0.082   1.943
  611SOL    HW1 2732   4.825   0.118   1.963
  611SOL    HW2 2733   4.699   0.033   2.023
  612SOL     OW 2734   4.056   5.487   4.378
  612SOL    HW1 2735   4.036   5.496   4.280
  612SOL    HW2 2736   3.990   5.424   4.420
  613SOL     OW 2737   4.265   5.460   5.088
  613SOL    HW1 2738   4.277   5.541   5.030
  613SOL    HW2 2739   4.293   5.379   5.037
  614SOL     OW 2740   5.210   5.162   6.176
  614SOL    HW1 2741   5.132   5.103   6.158
  614SOL    HW2 2742   5.192   5.217   6.258
  615SOL     OW 2743   6.665   2.126   1.309
  615SOL    HW1 2744   6.680   2.132   1.210
  615SOL    HW2 2745   6.702   2.207   1.354
  616SOL     OW 2746   0.031   3.039   2.349
  616SOL    HW1 2747   0.072   2.953   2.380
  616SOL    HW2 2748   6.967   3.020   2.303
  617SOL     OW 2749   6.999   4.510   5.981
  617SOL    HW1 2750   0.026   4.552   6.057
  617SOL    HW2 2751   7.003   4.570   5.902
  618SOL     OW 2752   0.518   2.450   0.713
  618SOL    HW1 2753   0.588   2.386   0.680
  618SOL    HW2 2754   0.442   2.453   0.648
  619SOL     OW 2755   3.758   1.581   0.539
  619SOL    HW1 2756   3.706   1.619   0.463
  619SOL    HW2 2757   3.700   1.517   0.590
  620SOL     OW 2758   4.553   2.388   1.532
  620SOL    HW1 2759   4.551   2.288   1.536
  620SOL    HW2 2760   4.483   2.425   1.593
  621SOL     OW 2761   2.579   6.400   6.688
  621SOL    HW1 2762   2.671   6.427   6.717
  621SOL    HW2 2763   2.585   6.316   6.635
  622SOL     OW 2764   1.130   1.022   6.337
  622SOL    HW1 2765   1.179   1.106   6.316
  622SOL    HW2 2766   1.195   0.954   6.371
  623SOL     OW 2767   0.795   5.437   5.759
  623SOL    HW1 2768   0.763   5.505   5.825
  623SOL    HW2 2769   0.782   5.472   5.666
  624SOL     OW 2770   0.020   2.456   0.870
  624SOL    HW1 2771   0.016   2.395   0.791
  624SOL    HW2 2772   0.115   2.466   0.900
  625SOL     OW 2773   2.588   1.409   1.069
  625SOL    HW1 2774   2.662   1.450   1.017
  625SOL    HW2 2775   2.501   1.452   1.043
  626SOL     OW 2776   2.641   5.385   3.810
  626SOL    HW1 2777   2.600   5.364   3.898
  626SOL    HW2 2778   2.736   5.354   3.809
  627SOL     OW 2779   5.029   0.217   0.433
  627SOL    HW1 2780   5.014   0.146   0.502
  627SOL    HW2 2781   5.091   0.285   0.469
  628SOL     OW 2782   5.819   5.670   5.713
  628SOL    HW1 2783   5.887   5.664   5.640
  628SOL    HW2 2784   5.758   5.590   5.707
  629SOL     OW 2785   0.224   6.864   0.251
  629SOL    HW1 2786   0.133   6.887   0.217
  629SOL    HW2 2787   0.269   6.802   0.187
  630SOL     OW 2788   6.518   1.329   1.861
  630SOL    HW1 2789   6.548   1.424   1.849
  630SOL    HW2 2790   6.459   1.324   1.942
  631SOL     OW 2791   3.033   6.177   4.932
  631SOL    HW1 2792   3.086   6.149   5.012
  631SOL    HW2 2793   3.074   6.138   4.850
  632SOL     OW 2794   2.928   1.586   0.381
  632SOL    HW1 2795   3.002   1.654   0.376
  632SOL    HW2 2796   2.940   1.518   0.309
  633SOL     OW 2797   5.259   4.443   0.339
  633SOL    HW1 2798   5.336   4.412   0.283
  633SOL    HW2 2799   5.234   4.370   0.403
  634SOL     OW 2800   4.658   4.244   1.719
  634SOL    HW1 2801   4.562   4.216   1.723
  634SOL    HW2 2802   4.694   4.249   1.812
  635SOL     OW 2803   4.446   4.932   0.937
  635SOL    HW1 2804   4.376   4.863   0.956
  635SOL    HW2 2805   4.403   5.016   0.906
  636SOL     OW 2806   4.077   5.850   6.610
  636SOL    HW1 2807   4.018   5.847   6.691
  636SOL    HW2 2808   4.160   5.796   6.626
  637SOL     OW 2809   6.611   3.545   1.985
  637SOL    HW1 2810   6.631   3.519   2.079
  637SOL    HW2 2811   6.516   3.521   1.963
  638SOL     OW 2812   5.455   2.572   2.515
  638SOL    HW1 2813   5.416   2.663   2.502
  638SOL    HW2 2814   5.486   2.537   2.427
  639SOL     OW 2815   5.276   4.123   2.563
  639SOL    HW1 2816   5.292   4.178   2.645
  639SOL    HW2 2817   5.364   4.098   2.522
  640SOL     OW 2818   0.720   5.028   4.074
  640SOL    HW1 2819   0.710   4.930   4.088
  640SOL    HW2 2820   0.645   5.062   4.017
  641SOL     OW 2821   0.317   5.576   4.466
  641SOL    HW1 2822   0.231   5.609   4.504
  641SOL    HW2 2823   0.394   5.628   4.504
  642SOL     OW 2824   0.211   3.707   4.604
  642SOL    HW1 2825   0.237   3.611   4.601
  642SOL    HW2 2826   0.199   3.741   4.510
  643SOL     OW 2827   5.181   5.421   4.922
  643SOL    HW1 2828   5.152   5.513   4.897
  643SOL    HW2 2829   5.194   5.366   4.839
  644SOL     OW 2830   1.109   6.595   4.275
  644SOL    HW1 2831   1.163   6.579   4.357
  644SOL    HW2 2832   1.030   6.652   4.298
  645SOL     OW 2833   5.210   2.036   4.228
  645SOL    HW1 2834   5.293   1.981   4.229
  645SOL    HW2 2835   5.224   2.117   4.170
  646SOL     OW 2836   2.723   1.217   3.898
  646SOL    HW1 2837   2.628   1.224   3.865
  646SOL    HW2 2838   2.764   1.132   3.863
  647SOL     OW 2839   5.557   2.119   5.697
  647SOL    HW1 2840   5.590   2.178   5.771
  647SOL    HW2 2841   5.460   2.135   5.682
  648SOL     OW 2842   6.679   4.036   3.187
  648SOL    HW1 2843   6.776   4.020   3.203
  648SOL    HW2 2844   6.639   4.083   3.266
  649SOL     OW 2845   3.889   4.121   0.312
  649SOL    HW1 2846   3.854   4.213   0.332
  649SOL    HW2 2847   3.834   4.053   0.360
  650SOL     OW 2848   5.805   4.305   1.127
  650SOL    HW1 2849   5.730   4.249   1.091
  650SOL    HW2 2850   5.877   4.313   1.059
  651SOL     OW 2851   6.783   6.514   6.407
  651SOL    HW1 2852   6.878   6.485   6.420
  651SOL    HW2 2853   6.738   6.453   6.342
  652SOL     OW 2854   5.830   6.215   3.625
  652SOL    HW1 2855   5.826   6.119   3.599
  652SOL    HW2 2856   5.739   6.245   3.654
  653SOL     OW 2857   3.395   0.046   4.982
  653SOL    HW1 2858   3.454   0.045   5.062
  653SOL    HW2 2859   3.445   0.013   4.903
  654SOL     OW 2860   0.197   3.958   5.543
  654SOL    HW1 2861   0.218   3.861   5.532
  654SOL    HW2 2862   0.163   3.974   5.636
  655SOL     OW 2863   0.824   6.972   2.269
  655SOL    HW1 2864   0.824   0.019   2.340
  655SOL    HW2 2865   0.778   7.006   2.187
  656SOL     OW 2866   1.883   5.502   1.781
  656SOL    HW1 2867   1.957   5.467   1.724
  656SOL    HW2 2868   1.920   5.566   1.849
  657SOL     OW 2869   1.563   2.151   1.608
  657SOL    HW1 2870   1.627   2.075   1.601
  657SOL    HW2 2871   1.613   2.237   1.612
  658SOL     OW 2872   2.999   4.039   6.792
  658SOL    HW1 2873   2.918   3.987   6.765
  658SOL    HW2 2874   3.019   4.107   6.721
  659SOL     OW 2875   2.184   6.074   5.670
  659SOL    HW1 2876   2.175   5.986   5.623
  659SOL    HW2 2877   2.232   6.060   5.757
  660SOL     OW 2878   5.015   4.428   2.084
  660SOL    HW1 2879   5.114   4.414   2.085
  660SOL    HW2 2880   4.980   4.424   2.177
  661SOL     OW 2881   3.959   6.380   3.748
  661SOL    HW1 2882   4.048   6.419   3.774
  661SOL    HW2 2883   3.947   6.292   3.795
  662SOL     OW 2884   4.187   0.592   5.330
  662SOL    HW1 2885   4.186   0.642   5.243
  662SOL    HW2 2886   4.279   0.595   5.368
  663SOL     OW 2887   2.574   3.996   6.159
  663SOL    HW1 2888   2.480   4.028   6.166
  663SOL    HW2 2889   2.620   4.005   6.247
  664SOL     OW 2890   0.528   5.807   5.954
  664SOL    HW1 2891   0.473   5.842   5.878
  664SOL    HW2 2892   0.483   5.830   6.040
  665SOL     OW 2893   4.799   5.253   1.910
  665SOL    HW1 2894   4.826   5.157   1.902
  665SOL    HW2 2895   4.812   5.299   1.822
  666SOL     OW 2896   5.355   2.058   2.079
  666SOL    HW1 2897   5.356   2.154   2.052
  666SOL    HW2 2898   5.414   2.046   2.159
  667SOL     OW 2899   1.161   4.436   3.157
  667SOL    HW1 2900   1.140   4.358   3.216
  667SOL    HW2 2901   1.199   4.511   3.212
  668SOL     OW 2902   4.873   6.215   5.805
  668SOL    HW1 2903   4.816   6.216   5.722
  668SOL    HW2 2904   4.943   6.286   5.798
  669SOL     OW 2905   4.771   0.343   2.743
  669SOL    HW1 2906   4.864   0.356   2.777
  669SOL    HW2 2907   4.706   0.368   2.814
  670SOL     OW 2908   3.134   2.998   1.818
  670SOL    HW1 2909   3.189   2.981   1.736
  670SOL    HW2 2910   3.180   2.959   1.897
  671SOL     OW 2911   2.852   6.656   0.934
  671SOL    HW1 2912   2.843   6.583   1.002
  671SOL    HW2 2913   2.933   6.639   0.878
  672SOL     OW 2914   0.255   5.346   1.764
  672SOL    HW1 2915   0.343   5.336   1.812
  672SOL    HW2 2916   0.271   5.339   1.665
  673SOL     OW 2917   6.726   0.355   1.983
  673SOL    HW1 2918   6.677   0.290   1.925
  673SOL    HW2 2919   6.688   0.353   2.075
  674SOL     OW 2920   0.623   1.303   5.216
  674SOL    HW1 2921   0.709   1.293   5.166
  674SOL    HW2 2922   0.598   1.216   5.259
  675SOL     OW 2923   0.212   1.189   2.259
  675SOL    HW1 2924   0.237   1.275   2.303
  675SOL    HW2 2925   0.259   1.113   2.304
  676SOL     OW 2926   3.440   5.282   2.789
  676SOL    HW1 2927   3.354   5.294   2.739
  676SOL    HW2 2928   3.467   5.369   2.830
  677SOL     OW 2929   5.575   1.529   0.808
  677SOL    HW1 2930   5.663   1.488   0.830
  677SOL    HW2 2931   5.586   1.592   0.730
  678SOL     OW 2932   2.570   6.991   5.215
  678SOL    HW1 2933   2.546   6.937   5.134
  678SOL    HW2 2934   2.665   6.971   5.240
  679SOL     OW 2935   4.399   2.409   3.566
  679SOL    HW1 2936   4.383   2.313   3.593
  679SOL    HW2 2937   4.389   2.418   3.467
  680SOL     OW 2938   5.234   5.382   5.182
  680SOL    HW1 2939   5.326   5.412   5.209
  680SOL    HW2 2940   5.212   5.422   5.093
  681SOL     OW 2941   4.814   4.973   1.869
  681SOL    HW1 2942   4.797   4.931   1.780
  681SOL    HW2 2943   4.747   4.940   1.935
  682SOL     OW 2944   6.544   0.653   1.174
  682SOL    HW1 2945   6.549   0.676   1.077
  682SOL    HW2 2946   6.631   0.678   1.218
  683SOL     OW 2947   5.256   2.959   0.641
  683SOL    HW1 2948   5.267   2.928   0.735
  683SOL    HW2 2949   5.341   2.941   0.590
  684SOL     OW 2950   6.529   1.125   0.297
  684SOL    HW1 2951   6.528   1.116   0.197
  684SOL    HW2 2952   6.621   1.109   0.331
  685SOL     OW 2953   3.918   1.790   3.985
  685SOL    HW1 2954   3.839   1.729   3.998
  685SOL    HW2 2955   3.918   1.859   4.058
  686SOL     OW 2956   4.908   2.753   4.057
  686SOL    HW1 2957   4.954   2.828   4.104
  686SOL    HW2 2958   4.822   2.732   4.103
  687SOL     OW 2959   0.315   2.934   4.424
  687SOL    HW1 2960   0.215   2.943   4.423
  687SOL    HW2 2961   0.339   2.837   4.437
  688SOL     OW 2962   0.378   1.870   0.068
  688SOL    HW1 2963   0.435   1.787   0.070
  688SOL    HW2 2964   0.304   1.860   0.135
  689SOL     OW 2965   1.079   4.941   6.516
  689SOL    HW1 2966   1.004   4.896   6.468
  689SOL    HW2 2967   1.044   5.015   6.573
  690SOL     OW 2968   0.197   2.822   2.911
  690SOL    HW1 2969   0.132   2.891   2.943
  690SOL    HW2 2970   0.256   2.861   2.840
  691SOL     OW 2971   2.603   0.806   0.395
  691SOL    HW1 2972   2.629   0.717   0.433
  691SOL    HW2 2973   2.621   0.807   0.297
  692SOL     OW 2974   3.681   0.628   3.832
  692SOL    HW1 2975   3.628   0.586   3.758
  692SOL    HW2 2976   3.776   0.640   3.802
  693SOL     OW 2977   5.648   0.079   4.275
  693SOL    HW1 2978   5.732   0.091   4.328
  693SOL    HW2 2979   5.666   0.019   4.198
  694SOL     OW 2980   4.443   0.107   4.357
  694SOL    HW1 2981   4.349   0.125   4.329
  694SOL    HW2 2982   4.495   0.074   4.279
  695SOL     OW 2983   4.830   6.629   3.876
  695SOL    HW1 2984   4.874   6.556   3.824
  695SOL    HW2 2985   4.885   6.713   3.868
  696SOL     OW 2986   4.693   4.818   3.511
  696SOL    HW1 2987   4.706   4.868   3.425
  696SOL    HW2 2988   4.640   4.735   3.494
  697SOL     OW 2989   1.504   4.039   2.949
  697SOL    HW1 2990   1.463   4.029   2.859
  697SOL    HW2 2991   1.486   3.956   3.003
  698SOL     OW 2992   4.540   6.131   0.785
  698SOL    HW1 2993   4.593   6.216   0.781
  698SOL    HW2 2994   4.567   6.071   0.710
  699SOL     OW 2995   1.948   4.034   6.976
  699SOL    HW1 2996   1.935   3.981   6.892
  699SOL    HW2 2997   1.911   4.126   6.964
  700SOL     OW 2998   2.929   0.736   2.121
  700SOL    HW1 2999   2.902   0.727   2.217
  700SOL    HW2 3000   3.021   0.699   2.109
  701SOL     OW 3001   6.270   4.138   6.855
  701SOL    HW1 3002   6.273   4.231   6.818
  701SOL    HW2 3003   6.282   4.141   6.954
  702SOL     OW 3004   1.556   6.473   5.187
  702SOL    HW1 3005   1.620   6.531   5.137
  702SOL    HW2 3006   1.464   6.484   5.149
  703SOL     OW 3007   3.480   3.045   6.579
  703SOL    HW1 3008   3.443   2.962   6.621
  703SOL    HW2 3009   3.446   3.053   6.485
  704SOL     OW 3010   1.599   2.874   6.848
  704SOL    HW1 3011   1.661   2.949   6.825
  704SOL    HW2 3012   1.505   2.900   6.826
  705SOL     OW 3013   6.158   4.973   3.000
  705SOL    HW1 3014   6.119   4.893   3.047
  705SOL    HW2 3015   6.211   4.942   2.921
  706SOL     OW 3016   4.171   1.880   5.416
  706SOL    HW1 3017   4.231   1.800   5.413
  706SOL    HW2 3018   4.212   1.951   5.473
  707SOL     OW 3019   4.268   4.648   3.294
  707SOL    HW1 3020   4.279   4.598   3.208
  707SOL    HW2 3021   4.180   4.696   3.293
  708SOL     OW 3022   2.983   0.697   2.509
  708SOL    HW1 3023   2.914   0.664   2.444
  708SOL    HW2 3024   3.031   0.775   2.468
  709SOL     OW 3025   0.314   5.942   0.697
  709SOL    HW1 3026   0.369   5.965   0.777
  709SOL    HW2 3027   0.367   5.956   0.613
  710SOL     OW 3028   3.608   2.324   1.217
  710SOL    HW1 3029   3.630   2.255   1.148
  710SOL    HW2 3030   3.658   2.304   1.301
  711SOL     OW 3031   6.887   3.310   5.975
  711SOL    HW1 3032   6.908   3.312   5.878
  711SOL    HW2 3033   6.967   3.277   6.026
  712SOL     OW 3034   4.051   1.901   1.081
  712SOL    HW1 3035   4.108   1.819   1.082
  712SOL    HW2 3036   4.105   1.979   1.049
  713SOL     OW 3037   3.959   3.133   6.377
  713SOL    HW1 3038   3.860   3.151   6.373
  713SOL    HW2 3039   4.008   3.219   6.382
  714SOL     OW 3040   0.569   4.650   3.461
  714SOL    HW1 3041   0.579   4.706   3.379
  714SOL    HW2 3042   0.530   4.705   3.535
  715SOL     OW 3043   5.075   6.382   6.855
  715SOL    HW1 3044   5.155   6.360   6.910
  715SOL    HW2 3045   5.093   6.359   6.759
  716SOL     OW 3046   0.565   1.056   1.906
  716SOL    HW1 3047   0.649   1.025   1.861
  716SOL    HW2 3048   0.540   1.147   1.870
  717SOL     OW 3049   6.204   4.714   3.496
  717SOL    HW1 3050   6.206   4.691   3.399
  717SOL    HW2 3051   6.172   4.808   3.507
  718SOL     OW 3052   4.547   3.504   5.882
  718SOL    HW1 3053   4.611   3.428   5.889
  718SOL    HW2 3054   4.570   3.560   5.802
  719SOL     OW 3055   6.879   0.664   2.830
  719SOL    HW1 3056   6.947   0.735   2.850
  719SOL    HW2 3057   6.868   0.605   2.910
  720SOL     OW 3058   2.530   6.996   6.062
  720SOL    HW1 3059   2.571   6.905   6.053
  720SOL    HW2 3060   2.488   7.022   5.975
  721SOL     OW 3061   2.880   1.406   2.318
  721SOL    HW1 3062   2.811   1.472   2.286
  721SOL    HW2 3063   2.904   1.426   2.413
  722SOL     OW 3064   2.590   0.838   5.179
  722SOL    HW1 3065   2.558   0.921   5.224
  722SOL    HW2 3066   2.516   0.799   5.124
  723SOL     OW 3067   1.516   4.421   3.454
  723SOL    HW1 3068   1.517   4.343   3.391
  723SOL    HW2 3069   1.598   4.477   3.438
  724SOL     OW 3070   0.796   1.461   3.938
  724SOL    HW1 3071   0.852   1.388   3.899
  724SOL    HW2 3072   0.777   1.530   3.868
  725SOL     OW 3073   1.576   5.501   2.140
  725SOL    HW1 3074   1.564   5.404   2.159
  725SOL    HW2 3075   1.492   5.551   2.165
  726SOL     OW 3076   3.454   4.515   1.355
  726SOL    HW1 3077   3.372   4.484   1.306
  726SOL    HW2 3078   3.535   4.478   1.310
  727SOL     OW 3079   5.993   4.656   5.170
  727SOL    HW1 3080   5.970   4.561   5.149
  727SOL    HW2 3081   6.079   4.659   5.221
  728SOL     OW 3082   6.203   2.874   3.529
  728SOL    HW1 3083   6.290   2.829   3.508
  728SOL    HW2 3084   6.181   2.938   3.456
  729SOL     OW 3085   0.465   1.683   1.269
  729SOL    HW1 3086   0.423   1.773   1.274
  729SOL    HW2 3087   0.553   1.684   1.316
  730SOL     OW 3088   6.596   0.034   4.320
  730SOL    HW1 3089   6.653   0.074   4.248
  730SOL    HW2 3090   6.507   0.079   4.320
  731SOL     OW 3091   4.393   5.370   6.672
  731SOL    HW1 3092   4.297   5.351   6.649
  731SOL    HW2 3093   4.439   5.285   6.697
  732SOL     OW 3094   5.952   2.678   1.624
  732SOL    HW1 3095   5.857   2.698   1.646
  732SOL    HW2 3096   6.011   2.707   1.700
  733SOL     OW 3097   5.258   0.399   4.215
  733SOL    HW1 3098   5.233   0.309   4.251
  733SOL    HW2 3099   5.357   0.405   4.207
  734SOL     OW 3100   5.946   4.643   3.018
  734SOL    HW1 3101   5.860   4.685   2.988
  734SOL    HW2 3102   5.936   4.544   3.020
  735SOL     OW 3103   4.407   1.611   0.689
  735SOL    HW1 3104   4.468   1.533   0.674
  735SOL    HW2 3105   4.355   1.630   0.606
  736SOL     OW 3106   0.626   1.843   3.268
  736SOL    HW1 3107   0.638   1.744   3.275
  736SOL    HW2 3108   0.533   1.868   3.297
  737SOL     OW 3109   5.663   2.275   5.897
  737SOL    HW1 3110   5.640   2.372   5.884
  737SOL    HW2 3111   5.762   2.264   5.894
  738SOL     OW 3112   2.701   3.388   1.282
  738SOL    HW1 3113   2.650   3.457   1.230
  738SOL    HW2 3114   2.780   3.432   1.326
  739SOL     OW 3115   4.979   1.064   4.260
  739SOL    HW1 3116   4.981   1.078   4.161
  739SOL    HW2 3117   5.030   1.137   4.305
  740SOL     OW 3118   5.580   1.291   2.220
  740SOL    HW1 3119   5.572   1.389   2.239
  740SOL    HW2 3120   5.674   1.262   2.235
  741SOL     OW 3121   1.903   0.274   3.052
  741SOL    HW1 3122   1.848   0.199   3.089
  741SOL    HW2 3123   1.993   0.273   3.095
  742SOL     OW 3124   2.284   6.589   2.153
  742SOL    HW1 3125   2.343   6.637   2.088
  742SOL    HW2 3126   2.218   6.534   2.104
  743SOL     OW 3127   1.161   5.377   3.610
  743SOL    HW1 3128   1.109   5.389   3.525
  743SOL    HW2 3129   1.184   5.467   3.648
  744SOL     OW 3130   5.653   0.599   0.938
  744SOL    HW1 3131   5.668   0.596   0.839
  744SOL    HW2 3132   5.621   0.510   0.970
  745SOL     OW 3133   1.604   5.359   5.274
  745SOL    HW1 3134   1.600   5.455   5.302
  745SOL    HW2 3135   1.524   5.337   5.219
  746SOL     OW 3136   6.044   4.058   6.003
  746SOL    HW1 3137   5.954   4.073   5.962
  746SOL    HW2 3138   6.103   4.136   5.981
  747SOL     OW 3139   3.782   6.154   5.036
  747SOL    HW1 3140   3.785   6.193   4.944
  747SOL    HW2 3141   3.860   6.187   5.089
  748SOL     OW 3142   4.046   5.400   2.696
  748SOL    HW1 3143   3.986   5.331   2.736
  748SOL    HW2 3144   4.141   5.372   2.708
  749SOL     OW 3145   6.255   4.082   4.221
  749SOL    HW1 3146   6.330   4.031   4.262
  749SOL    HW2 3147   6.168   4.037   4.242
  750SOL     OW 3148   2.714   1.206   1.377
  750SOL    HW1 3149   2.655   1.256   1.441
  750SOL    HW2 3150   2.807   1.241   1.384
  751SOL     OW 3151   4.357   1.566   6.666
  751SOL    HW1 3152   4.292   1.530   6.733
  751SOL    HW2 3153   4.324   1.654   6.631
  752SOL     OW 3154   2.810   2.310   1.092
  752SOL    HW1 3155   2.805   2.238   1.161
  752SOL    HW2 3156   2.821   2.399   1.137
  753SOL     OW 3157   0.751   3.728   6.424
  753SOL    HW1 3158   0.769   3.726   6.326
  753SOL    HW2 3159   0.808   3.660   6.470
  754SOL     OW 3160   4.747   1.726   5.980
  754SOL    HW1 3161   4.717   1.690   5.891
  754SOL    HW2 3162   4.790   1.653   6.033
  755SOL     OW 3163   1.654   4.226   5.069
  755SOL    HW1 3164   1.624   4.144   5.117
  755SOL    HW2 3165   1.738   4.260   5.110
  756SOL     OW 3166   2.475   5.915   6.670
  756SOL    HW1 3167   2.376   5.917   6.660
  756SOL    HW2 3168   2.499   5.872   6.757
  757SOL     OW 3169   0.215   6.818   4.157
  757SOL    HW1 3170   0.306   6.793   4.125
  757SOL    HW2 3171   0.221   6.851   4.251
  758SOL     OW 3172   3.827   0.628   3.334
  758SOL    HW1 3173   3.921   0.615   3.366
  758SOL    HW2 3174   3.772   0.550   3.363
  759SOL     OW 3175   0.699   2.688   2.019
  759SOL    HW1 3176   0.796   2.671   2.000
  759SOL    HW2 3177   0.646   2.676   1.935
  760SOL     OW 3178   6.257   0.217   3.598
  760SOL    HW1 3179   6.157   0.218   3.603
  760SOL    HW2 3180   6.287   0.125   3.571
  761SOL     OW 3181   5.557   3.658   6.523
  761SOL    HW1 3182   5.635   3.688   6.577
  761SOL    HW2 3183   5.509   3.584   6.570
  762SOL     OW 3184   3.041   0.357   5.318
  762SOL    HW1 3185   2.953   0.325   5.284
  762SOL    HW2 3186   3.113   0.296   5.286
  763SOL     OW 3187   3.998   5.680   6.226
  763SOL    HW1 3188   3.929   5.731   6.278
  763SOL    HW2 3189   4.069   5.647   6.289
  764SOL     OW 3190   5.247   1.249   5.759
  764SOL    HW1 3191   5.275   1.341   5.788
  764SOL    HW2 3192   5.233   1.192   5.840
  765SOL     OW 3193   1.768   5.411   0.959
  765SOL    HW1 3194   1.679   5.367   0.954
  765SOL    HW2 3195   1.830   5.369   0.893
  766SOL     OW 3196   2.514   2.126   5.847
  766SOL    HW1 3197   2.567   2.145   5.764
  766SOL    HW2 3198   2.424   2.090   5.821
  767SOL     OW 3199   6.418   6.208   3.364
  767SOL    HW1 3200   6.385   6.244   3.451
  767SOL    HW2 3201   6.517   6.196   3.369
  768SOL     OW 3202   1.959   5.177   2.780
  768SOL    HW1 3203   1.996   5.190   2.872
  768SOL    HW2 3204   1.872   5.225   2.773
  769SOL     OW 3205   2.394   1.436   5.340
  769SOL    HW1 3206   2.415   1.380   5.260
  769SOL    HW2 3207   2.396   1.380   5.422
  770SOL     OW 3208   1.465   5.475   3.765
  770SOL    HW1 3209   1.474   5.376   3.773
  770SOL    HW2 3210   1.444   5.499   3.670
  771SOL     OW 3211   1.349   5.446   3.083
  771SOL    HW1 3212   1.272   5.493   3.040
  771SOL    HW2 3213   1.322   5.353   3.108
  772SOL     OW 3214   5.612   4.871   6.361
  772SOL    HW1 3215   5.609   4.826   6.272
  772SOL    HW2 3216   5.538   4.837   6.418
  773SOL     OW 3217   0.260   4.204   3.417
  773SOL    HW1 3218   0.246   4.178   3.513
  773SOL    HW2 3219   0.334   4.271   3.411
  774SOL     OW 3220   1.856   1.008   1.370
  774SOL    HW1 3221   1.757   1.001   1.384
  774SOL    HW2 3222   1.888   1.096   1.403
  775SOL     OW 3223   2.242   2.357   4.066
  775SOL    HW1 3224   2.174   2.291   4.097
  775SOL    HW2 3225   2.197   2.428   4.012
  776SOL     OW 3226   0.307   0.446   5.906
  776SOL    HW1 3227   0.259   0.523   5.947
  776SOL    HW2 3228   0.241   0.386   5.861
  777SOL     OW 3229   1.348   4.497   0.895
  777SOL    HW1 3230   1.416   4.544   0.839
  777SOL    HW2 3231   1.394   4.447   0.968
  778SOL     OW 3232   2.201   0.721   1.749
  778SOL    HW1 3233   2.220   0.701   1.653
  778SOL    HW2 3234   2.157   0.642   1.792
  779SOL     OW 3235   0.042   2.363   2.377
  779SOL    HW1 3236   6.972   2.353   2.342
  779SOL    HW2 3237   0.046   2.441   2.440
  780SOL     OW 3238   0.823   2.845   4.538
  780SOL    HW1 3239   0.831   2.745   4.539
  780SOL    HW2 3240   0.756   2.872   4.469
  781SOL     OW 3241   5.814   6.187   0.886
  781SOL    HW1 3242   5.715   6.176   0.893
  781SOL    HW2 3243   5.841   6.192   0.790
  782SOL     OW 3244   1.295   3.276   6.447
  782SOL    HW1 3245   1.377   3.301   6.395
  782SOL    HW2 3246   1.231   3.353   6.447
  783SOL     OW 3247   5.010   4.742   2.012
  783SOL    HW1 3248   5.042   4.801   1.938
  783SOL    HW2 3249   5.087   4.689   2.048
  784SOL     OW 3250   4.235   4.737   0.742
  784SOL    HW1 3251   4.257   4.713   0.648
  784SOL    HW2 3252   4.304   4.697   0.803
  785SOL     OW 3253   0.376   1.807   3.419
  785SOL    HW1 3254   0.346   1.719   3.382
  785SOL    HW2 3255   0.332   1.882   3.368
  786SOL     OW 3256   0.491   0.373   2.361
  786SOL    HW1 3257   0.417   0.431   2.327
  786SOL    HW2 3258   0.455   0.311   2.432
  787SOL     OW 3259   1.232   1.335   6.599
  787SOL    HW1 3260   1.273   1.311   6.511
  787SOL    HW2 3261   1.303   1.372   6.660
  788SOL     OW 3262   4.025   1.514   0.923
  788SOL    HW1 3263   4.000   1.439   0.984
  788SOL    HW2 3264   4.119   1.541   0.940
  789SOL     OW 3265   4.371   4.414   1.671
  789SOL    HW1 3266   4.452   4.400   1.615
  789SOL    HW2 3267   4.368   4.344   1.743
  790SOL     OW 3268   2.467   1.676   2.990
  790SOL    HW1 3269   2.408   1.699   2.912
  790SOL    HW2 3270   2.561   1.704   2.971
  791SOL     OW 3271   1.459   6.320   4.889
  791SOL    HW1 3272   1.550   6.294   4.919
  791SOL    HW2 3273   1.411   6.239   4.855
  792SOL     OW 3274   0.815   1.208   2.011
  792SOL    HW1 3275   0.829   1.152   2.092
  792SOL    HW2 3276   0.856   1.298   2.025
  793SOL     OW 3277   4.929   5.198   4.262
  793SOL    HW1 3278   4.888   5.223   4.174
  793SOL    HW2 3279   4.859   5.203   4.334
  794SOL     OW 3280   3.057   4.097   5.977
  794SOL    HW1 3281   2.967   4.082   6.019
  794SOL    HW2 3282   3.051   4.172   5.912
  795SOL     OW 3283   4.189   0.485   4.971
  795SOL    HW1 3284   4.174   0.393   5.007
  795SOL    HW2 3285   4.266   0.527   5.019
  796SOL     OW 3286   1.095   2.670   6.436
  796SOL    HW1 3287   1.073   2.739   6.366
  796SOL    HW2 3288   1.084   2.579   6.396
  797SOL     OW 3289   4.956   0.398   1.045
  797SOL    HW1 3290   4.978   0.436   0.955
  797SOL    HW2 3291   4.862   0.421   1.068
  798SOL     OW 3292   3.653   6.290   1.974
  798SOL    HW1 3293   3.648   6.324   2.067
  798SOL    HW2 3294   3.565   6.304   1.928
  799SOL     OW 3295   0.213   6.628   6.344
  799SOL    HW1 3296   0.272   6.702   6.375
  799SOL    HW2 3297   0.210   6.626   6.244
  800SOL     OW 3298   5.949   0.941   2.496
  800SOL    HW1 3299   5.970   0.850   2.460
  800SOL    HW2 3300   5.991   0.951   2.587
  801SOL     OW 3301   2.223   4.599   4.380
  801SOL    HW1 3302   2.323   4.599   4.372
  801SOL    HW2 3303   2.182   4.576   4.291
  802SOL     OW 3304   2.862   2.184   0.849
  802SOL    HW1 3305   2.958   2.169   0.823
  802SOL    HW2 3306   2.858   2.247   0.927
  803SOL     OW 3307   1.753   0.332   5.696
  803SOL    HW1 3308   1.680   0.276   5.657
  803SOL    HW2 3309   1.839   0.309   5.650
  804SOL     OW 3310   5.798   6.492   0.942
  804SOL    HW1 3311   5.809   6.393   0.950
  804SOL    HW2 3312   5.883   6.533   0.909
  805SOL     OW 3313   2.159   1.060   4.458
  805SOL    HW1 3314   2.244   1.057   4.405
  805SOL    HW2 3315   2.163   1.136   4.523
  806SOL     OW 3316   5.357   1.059   4.650
  806SOL    HW1 3317   5.427   1.012   4.596
  806SOL    HW2 3318   5.371   1.158   4.646
  807SOL     OW 3319   0.340   0.623   4.920
  807SOL    HW1 3320   0.320   0.637   5.017
  807SOL    HW2 3321   0.263   0.657   4.866
  808SOL     OW 3322   4.353   4.190   6.794
  808SOL    HW1 3323   4.349   4.231   6.703
  808SOL    HW2 3324   4.270   4.137   6.810
  809SOL     OW 3325   0.629   4.914   0.815
  809SOL    HW1 3326   0.569   4.836   0.835
  809SOL    HW2 3327   0.576   4.985   0.768
  810SOL     OW 3328   3.379   4.434   0.578
  810SOL    HW1 3329   3.408   4.473   0.665
  810SOL    HW2 3330   3.280   4.443   0.568
  811SOL     OW 3331   5.449   5.768   4.826
  811SOL    HW1 3332   5.449   5.825   4.908
  811SOL    HW2 3333   5.489   5.819   4.750
  812SOL     OW 3334   6.788   0.902   3.063
  812SOL    HW1 3335   6.704   0.851   3.048
  812SOL    HW2 3336   6.849   0.850   3.123
  813SOL     OW 3337   3.677   6.711   4.056
  813SOL    HW1 3338   3.708   6.718   4.151
  813SOL    HW2 3339   3.756   6.720   3.995
  814SOL     OW 3340   6.225   5.806   2.611
  814SOL    HW1 3341   6.276   5.793   2.526
  814SOL    HW2 3342   6.144   5.862   2.593
  815SOL     OW 3343   6.464   2.982   3.266
  815SOL    HW1 3344   6.495   2.990   3.360
  815SOL    HW2 3345   6.501   3.058   3.212
  816SOL     OW 3346   5.578   5.681   0.952
  816SOL    HW1 3347   5.582   5.606   1.018
  816SOL    HW2 3348   5.550   5.645   0.863
  817SOL     OW 3349   1.125   5.152   1.250
  817SOL    HW1 3350   1.170   5.183   1.166
  817SOL    HW2 3351   1.026   5.163   1.240
  818SOL     OW 3352   6.213   2.945   3.792
  818SOL    HW1 3353   6.195   2.905   3.701
  818SOL    HW2 3354   6.177   2.883   3.862
  819SOL     OW 3355   6.122   3.346   1.455
  819SOL    HW1 3356   6.203   3.302   1.493
  819SOL    HW2 3357   6.146   3.393   1.371
  820SOL     OW 3358   2.830   2.313   4.898
  820SOL    HW1 3359   2.779   2.390   4.936
  820SOL    HW2 3360   2.870   2.259   4.972
  821SOL     OW 3361   6.442   4.698   6.366
  821SOL    HW1 3362   6.517   4.642   6.402
  821SOL    HW2 3363   6.463   4.726   6.273
  822SOL     OW 3364   0.328   3.072   3.153
  822SOL    HW1 3365   0.343   3.011   3.076
  822SOL    HW2 3366   0.344   3.023   3.239
  823SOL     OW 3367   6.172   4.305   5.902
  823SOL    HW1 3368   6.135   4.387   5.947
  823SOL    HW2 3369   6.165   4.316   5.803
  824SOL     OW 3370   3.841   0.818   6.105
  824SOL    HW1 3371   3.851   0.728   6.147
  824SOL    HW2 3372   3.906   0.881   6.148
  825SOL     OW 3373   6.622   5.545   1.353
  825SOL    HW1 3374   6.584   5.598   1.429
  825SOL    HW2 3375   6.549   5.524   1.288
  826SOL     OW 3376   4.259   2.008   5.971
  826SOL    HW1 3377   4.210   2.080   6.019
  826SOL    HW2 3378   4.305   1.949   6.037
  827SOL     OW 3379   2.317   4.396   5.125
  827SOL    HW1 3380   2.371   4.477   5.101
  827SOL    HW2 3381   2.237   4.390   5.066
  828SOL     OW 3382   5.637   6.513   6.574
  828SOL    HW1 3383   5.640   6.606   6.610
  828SOL    HW2 3384   5.544   6.476   6.583
  829SOL     OW 3385   4.199   3.432   2.193
  829SOL    HW1 3386   4.299   3.437   2.190
  829SOL    HW2 3387   4.162   3.518   2.229
  830SOL     OW 3388   5.450   5.024   6.568
  830SOL    HW1 3389   5.375   4.966   6.536
  830SOL    HW2 3390   5.538   4.981   6.548
  831SOL     OW 3391   6.120   6.614   0.188
  831SOL    HW1 3392   6.041   6.555   0.201
  831SOL    HW2 3393   6.154   6.605   0.095
  832SOL     OW 3394   4.013   1.820   3.399
  832SOL    HW1 3395   4.074   1.864   3.465
  832SOL    HW2 3396   3.982   1.888   3.332
  833SOL     OW 3397   1.799   3.650   6.534
  833SOL    HW1 3398   1.815   3.590   6.455
  833SOL    HW2 3399   1.710   3.694   6.525
  834SOL     OW 3400   5.171   3.627   0.954
  834SOL    HW1 3401   5.255   3.667   0.920
  834SOL    HW2 3402   5.190   3.577   1.039
  835SOL     OW 3403   3.622   0.217   5.560
  835SOL    HW1 3404   3.534   0.262   5.556
  835SOL    HW2 3405   3.694   0.285   5.573
  836SOL     OW 3406   4.082   6.880   4.658
  836SOL    HW1 3407   4.069   6.930   4.572
  836SOL    HW2 3408   4.180   6.873   4.678
  837SOL     OW 3409   7.016   0.855   1.278
  837SOL    HW1 3410   6.971   0.936   1.316
  837SOL    HW2 3411   0.047   0.810   1.349
  838SOL     OW 3412   2.262   6.807   4.600
  838SOL    HW1 3413   2.306   6.892   4.570
  838SOL    HW2 3414   2.178   6.829   4.650
  839SOL     OW 3415   2.019   1.213   1.568
  839SOL    HW1 3416   2.021   1.135   1.631
  839SOL    HW2 3417   2.103   1.214   1.513
  840SOL     OW 3418   6.428   6.032   6.988
  840SOL    HW1 3419   6.369   6.100   6.946
  840SOL    HW2 3420   6.392   5.940   6.971
  841SOL     OW 3421   3.653   5.479   6.193
  841SOL    HW1 3422   3.676   5.401   6.250
  841SOL    HW2 3423   3.697   5.470   6.104
  842SOL     OW 3424   3.975   0.195   5.302
  842SOL    HW1 3425   4.003   0.181   5.208
  842SOL    HW2 3426   3.943   0.109   5.341
  843SOL     OW 3427   1.057   1.736   1.478
  843SOL    HW1 3428   1.075   1.728   1.380
  843SOL    HW2 3429   0.967   1.698   1.499
  844SOL     OW 3430   6.625   0.098   0.311
  844SOL    HW1 3431   6.545   0.110   0.370
  844SOL    HW2 3432   6.681   0.181   0.313
  845SOL     OW 3433   4.984   3.870   3.925
  845SOL    HW1 3434   5.036   3.808   3.866
  845SOL    HW2 3435   5.045   3.942   3.959
  846SOL     OW 3436   2.314   0.924   5.902
  846SOL    HW1 3437   2.383   0.968   5.846
  846SOL    HW2 3438   2.241   0.990   5.923
  847SOL     OW 3439   1.471   3.721   1.173
  847SOL    HW1 3440   1.451   3.764   1.261
  847SOL    HW2 3441   1.560   3.752   1.140
  848SOL     OW 3442   0.091   0.073   6.057
  848SOL    HW1 3443   0.174   0.028   6.090
  848SOL    HW2 3444   0.017   0.060   6.124
  849SOL     OW 3445   6.071   4.389   6.491
  849SOL    HW1 3446   6.160   4.345   6.500
  849SOL    HW2 3447   6.058   4.418   6.396
  850SOL     OW 3448   5.748   1.392   4.737
  850SOL    HW1 3449   5.677   1.394   4.808
  850SOL    HW2 3450   5.761   1.298   4.705
  851SOL     OW 3451   0.129   2.760   0.974
  851SOL    HW1 3452   0.090   2.798   0.890
  851SOL    HW2 3453   0.190   2.685   0.951
  852SOL     OW 3454   0.708   4.204   0.692
  852SOL    HW1 3455   0.754   4.217   0.604
  852SOL    HW2 3456   0.755   4.132   0.743
  853SOL     OW 3457   0.811   4.560   0.556
  853SOL    HW1 3458   0.842   4.467   0.574
  853SOL    HW2 3459   0.822   4.615   0.639
  854SOL     OW 3460   4.904   5.797   0.801
  854SOL    HW1 3461   4.995   5.812   0.763
  854SOL    HW2 3462   4.898   5.704   0.838
  855SOL     OW 3463   6.521   7.000   1.468
  855SOL    HW1 3464   6.553   6.948   1.547
  855SOL    HW2 3465   6.561   0.069   1.470
  856SOL     OW 3466   1.440   2.003   6.707
  856SOL    HW1 3467   1.497   2.077   6.741
  856SOL    HW2 3468   1.374   1.976   6.778
  857SOL     OW 3469   6.105   5.055   2.138
  857SOL    HW1 3470   6.025   5.086   2.189
  857SOL    HW2 3471   6.075   5.011   2.053
  858SOL     OW 3472   3.129   3.790   1.337
  858SOL    HW1 3473   3.159   3.708   1.386
  858SOL    HW2 3474   3.047   3.827   1.380
  859SOL     OW 3475   5.707   7.019   5.004
  859SOL    HW1 3476   5.754   0.067   5.055
  859SOL    HW2 3477   5.631   0.035   4.953
  860SOL     OW 3478   6.529   3.000   6.955
  860SOL    HW1 3479   6.542   2.919   7.012
  860SOL    HW2 3480   6.491   2.973   6.867
  861SOL     OW 3481   2.908   5.288   3.823
  861SOL    HW1 3482   2.892   5.209   3.764
  861SOL    HW2 3483   2.940   5.258   3.912
  862SOL     OW 3484   1.369   4.003   3.283
  862SOL    HW1 3485   1.333   3.925   3.334
  862SOL    HW2 3486   1.379   3.978   3.187
  863SOL     OW 3487   6.106   0.738   6.597
  863SOL    HW1 3488   6.009   0.759   6.610
  863SOL    HW2 3489   6.146   0.802   6.531
  864SOL     OW 3490   3.872   5.712   3.979
  864SOL    HW1 3491   3.939   5.774   3.938
  864SOL    HW2 3492   3.784   5.722   3.931
  865SOL     OW 3493   1.513   0.036   5.843
  865SOL    HW1 3494   1.482   0.021   5.937
  865SOL    HW2 3495   1.608   0.004   5.834
  866SOL     OW 3496   2.331   1.220   0.424
  866SOL    HW1 3497   2.431   1.209   0.425
  866SOL    HW2 3498   2.290   1.155   0.488
  867SOL     OW 3499   5.037   4.116   0.230
  867SOL    HW1 3500   4.998   4.025   0.241
  867SOL    HW2 3501   5.053   4.135   0.133
  868SOL     OW 3502   6.212   0.924   1.411
  868SOL    HW1 3503   6.140   0.949   1.347
  868SOL    HW2 3504   6.183   0.845   1.466
  869SOL     OW 3505   0.269   4.327   2.749
  869SOL    HW1 3506   0.177   4.361   2.732
  869SOL    HW2 3507   0.306   4.369   2.831
  870SOL     OW 3508   3.757   3.959   0.494
  870SOL    HW1 3509   3.793   3.879   0.543
  870SOL    HW2 3510   3.741   4.033   0.560
  871SOL     OW 3511   5.378   2.420   2.944
  871SOL    HW1 3512   5.314   2.441   3.018
  871SOL    HW2 3513   5.435   2.501   2.925
  872SOL     OW 3514   6.004   3.263   4.058
  872SOL    HW1 3515   6.052   3.331   4.002
  872SOL    HW2 3516   5.971   3.189   4.000
  873SOL     OW 3517   5.416   6.304   5.232
  873SOL    HW1 3518   5.343   6.323   5.298
  873SOL    HW2 3519   5.489   6.254   5.277
  874SOL     OW 3520   6.836   3.820   6.427
  874SOL    HW1 3521   6.820   3.769   6.342
  874SOL    HW2 3522   6.814   3.762   6.505
  875SOL     OW 3523   5.339   4.803   0.729
  875SOL    HW1 3524   5.341   4.802   0.629
  875SOL    HW2 3525   5.391   4.726   0.764
  876SOL     OW 3526   0.884   4.986   2.799
  876SOL    HW1 3527   0.820   5.014   2.871
  876SOL    HW2 3528   0.953   5.057   2.785
  877SOL     OW 3529   3.603   5.007   5.541
  877SOL    HW1 3530   3.682   5.065   5.560
  877SOL    HW2 3531   3.632   4.929   5.484
  878SOL     OW 3532   4.385   6.470   5.140
  878SOL    HW1 3533   4.347   6.458   5.049
  878SOL    HW2 3534   4.455   6.401   5.157
  879SOL     OW 3535   4.676   1.446   1.342
  879SOL    HW1 3536   4.658   1.364   1.396
  879SOL    HW2 3537   4.596   1.469   1.286
  880SOL     OW 3538   3.340   4.028   4.423
  880SOL    HW1 3539   3.254   4.029   4.475
  880SOL    HW2 3540   3.337   3.953   4.357
  881SOL     OW 3541   5.512   3.672   5.469
  881SOL    HW1 3542   5.449   3.616   5.523
  881SOL    HW2 3543   5.559   3.737   5.530
  882SOL     OW 3544   1.129   2.359   3.872
  882SOL    HW1 3545   1.080   2.390   3.954
  882SOL    HW2 3546   1.089   2.272   3.841
  883SOL     OW 3547   3.711   0.598   0.626
  883SOL    HW1 3548   3.771   0.547   0.565
  883SOL    HW2 3549   3.734   0.576   0.721
  884SOL     OW 3550   0.092   4.920   0.116
  884SOL    HW1 3551   0.017   4.955   0.172
  884SOL    HW2 3552   0.116   4.828   0.146
  885SOL     OW 3553   4.678   6.852   5.120
  885SOL    HW1 3554   4.685   6.882   5.215
  885SOL    HW2 3555   4.603   6.787   5.111
  886SOL     OW 3556   4.068   0.666   0.687
  886SOL    HW1 3557   4.091   0.570   0.670
  886SOL    HW2 3558   4.062   0.714   0.599
  887SOL     OW 3559   3.631   6.132   4.021
  887SOL    HW1 3560   3.599   6.045   3.983
  887SOL    HW2 3561   3.730   6.130   4.033
  888SOL     OW 3562   6.888   6.384   3.848
  888SOL    HW1 3563   6.964   6.443   3.818
  888SOL    HW2 3564   6.854   6.417   3.936
  889SOL     OW 3565   6.833   1.075   6.576
  889SOL    HW1 3566   6.866   1.075   6.671
  889SOL    HW2 3567   6.906   1.046   6.515
  890SOL     OW 3568   2.680   4.993   2.817
  890SOL    HW1 3569   2.698   4.897   2.836
  890SOL    HW2 3570   2.616   5.030   2.884
  891SOL     OW 3571   6.641   3.515   0.682
  891SOL    HW1 3572   6.737   3.527   0.706
  891SOL    HW2 3573   6.617   3.577   0.607
  892SOL     OW 3574   3.321   3.667   4.800
  892SOL    HW1 3575   3.272   3.700   4.881
  892SOL    HW2 3576   3.419   3.668   4.818
  893SOL     OW 3577   1.923   6.713   2.696
  893SOL    HW1 3578   1.992   6.776   2.731
  893SOL    HW2 3579   1.959   6.666   2.615
  894SOL     OW 3580   1.222   2.781   2.685
  894SOL    HW1 3581   1.321   2.776   2.696
  894SOL    HW2 3582   1.192   2.709   2.622
  895SOL     OW 3583   1.309   5.307   4.097
  895SOL    HW1 3584   1.400   5.305   4.138
  895SOL    HW2 3585   1.254   5.233   4.135
  896SOL     OW 3586   5.877   5.330   1.419
  896SOL    HW1 3587   5.908   5.328   1.324
  896SOL    HW2 3588   5.936   5.271   1.475
  897SOL     OW 3589   4.246   0.807   6.902
  897SOL    HW1 3590   4.246   0.898   6.861
  897SOL    HW2 3591   4.157   0.763   6.887
  898SOL     OW 3592   4.151   6.586   2.443
  898SOL    HW1 3593   4.181   6.496   2.476
  898SOL    HW2 3594   4.074   6.617   2.498
  899SOL     OW 3595   0.160   6.015   0.169
  899SOL    HW1 3596   0.128   6.013   0.075
  899SOL    HW2 3597   0.242   6.072   0.176
  900SOL     OW 3598   5.090   0.053   6.539
  900SOL    HW1 3599   5.035   0.080   6.618
  900SOL    HW2 3600   5.076   6.979   6.521
  901SOL     OW 3601   1.131   1.021   3.864
  901SOL    HW1 3602   1.113   0.923   3.871
  901SOL    HW2 3603   1.156   1.044   3.769
  902SOL     OW 3604   1.506   2.979   1.342
  902SOL    HW1 3605   1.406   2.983   1.330
  902SOL    HW2 3606   1.530   2.893   1.386
  903SOL     OW 3607   0.614   3.528   0.055
  903SOL    HW1 3608   0.634   3.460   0.125
  903SOL    HW2 3609   0.601   3.617   0.099
  904SOL     OW 3610   1.884   2.718   2.329
  904SOL    HW1 3611   1.860   2.677   2.416
  904SOL    HW2 3612   1.926   2.649   2.270
  905SOL     OW 3613   4.848   3.578   6.583
  905SOL    HW1 3614   4.794   3.624   6.654
  905SOL    HW2 3615   4.786   3.543   6.512
  906SOL     OW 3616   0.837   2.091   6.498
  906SOL    HW1 3617   0.923   2.116   6.452
  906SOL    HW2 3618   0.857   2.028   6.573
  907SOL     OW 3619   4.851   2.713   1.370
  907SOL    HW1 3620   4.795   2.658   1.431
  907SOL    HW2 3621   4.897   2.654   1.304
  908SOL     OW 3622   2.366   4.962   3.261
  908SOL    HW1 3623   2.336   4.921   3.348
  908SOL    HW2 3624   2.310   5.043   3.241
  909SOL     OW 3625   3.859   6.093   1.913
  909SOL    HW1 3626   3.813   6.171   1.956
  909SOL    HW2 3627   3.942   6.071   1.964
  910SOL     OW 3628   3.237   1.512   1.376
  910SOL    HW1 3629   3.212   1.424   1.337
  910SOL    HW2 3630   3.167   1.540   1.442
  911SOL     OW 3631   1.322   6.175   6.588
  911SOL    HW1 3632   1.370   6.198   6.673
  911SOL    HW2 3633   1.339   6.246   6.520
  912SOL     OW 3634   5.647   1.028   3.244
  912SOL    HW1 3635   5.562   1.003   3.198
  912SOL    HW2 3636   5.673   0.955   3.307
  913SOL     OW 3637   2.755   0.732   4.342
  913SOL    HW1 3638   2.681   0.715   4.277
  913SOL    HW2 3639   2.795   0.645   4.371
  914SOL     OW 3640   2.532   6.562   5.140
  914SOL    HW1 3641   2.465   6.569   5.066
  914SOL    HW2 3642   2.495   6.507   5.214
  915SOL     OW 3643   6.977   3.177   0.662
  915SOL    HW1 3644   6.899   3.231   0.630
  915SOL    HW2 3645   6.996   3.198   0.758
  916SOL     OW 3646   2.068   2.966   2.580
  916SOL    HW1 3647   2.063   2.869   2.555
  916SOL    HW2 3648   2.095   3.020   2.500
  917SOL     OW 3649   0.294   6.497   2.296
  917SOL    HW1 3650   0.205   6.537   2.273
  917SOL    HW2 3651   0.279   6.409   2.341
  918SOL     OW 3652   3.572   0.492   0.901
  918SOL    HW1 3653   3.531   0.413   0.947
  918SOL    HW2 3654   3.524   0.575   0.928
  919SOL     OW 3655   0.018   6.621   3.062
  919SOL    HW1 3656   0.021   6.625   3.161
  919SOL    HW2 3657   6.948   6.598   3.032
  920SOL     OW 3658   2.573   4.594   2.368
  920SOL    HW1 3659   2.536   4.680   2.332
  920SOL    HW2 3660   2.665   4.581   2.334
  921SOL     OW 3661   3.472   5.258   3.564
  921SOL    HW1 3662   3.402   5.317   3.604
  921SOL    HW2 3663   3.474   5.270   3.465
  922SOL     OW 3664   3.128   3.972   4.617
  922SOL    HW1 3665   3.051   3.928   4.663
  922SOL    HW2 3666   3.184   4.021   4.684
  923SOL     OW 3667   2.545   3.888   5.923
  923SOL    HW1 3668   2.562   3.931   6.012
  923SOL    HW2 3669   2.501   3.799   5.937
  924SOL     OW 3670   6.366   3.266   2.442
  924SOL    HW1 3671   6.317   3.182   2.463
  924SOL    HW2 3672   6.444   3.275   2.504
  925SOL     OW 3673   6.977   2.370   0.154
  925SOL    HW1 3674   6.918   2.289   0.154
  925SOL    HW2 3675   0.046   2.344   0.127
  926SOL     OW 3676   5.992   0.682   0.787
  926SOL    HW1 3677   6.088   0.691   0.760
  926SOL    HW2 3678   5.984   0.696   0.886
  927SOL     OW 3679   5.516   4.314   3.225
  927SOL    HW1 3680   5.438   4.251   3.227
  927SOL    HW2 3681   5.593   4.269   3.180
  928SOL     OW 3682   1.613   6.437   0.178
  928SOL    HW1 3683   1.565   6.435   0.266
  928SOL    HW2 3684   1.664   6.352   0.166
  929SOL     OW 3685   1.123   0.178   6.782
  929SOL    HW1 3686   1.081   0.240   6.849
  929SOL    HW2 3687   1.115   0.084   6.815
  930SOL     OW 3688   5.147   6.178   5.145
  930SOL    HW1 3689   5.048   6.175   5.132
  930SOL    HW2 3690   5.169   6.236   5.223
  931SOL     OW 3691   5.988   1.702   4.991
  931SOL    HW1 3692   6.066   1.642   4.973
  931SOL    HW2 3693   6.022   1.795   5.010
  932SOL     OW 3694   3.080   0.362   3.364
  932SOL    HW1 3695   3.078   0.402   3.272
  932SOL    HW2 3696   3.077   0.263   3.357
  933SOL     OW 3697   2.141   6.161   3.357
  933SOL    HW1 3698   2.156   6.163   3.456
  933SOL    HW2 3699   2.071   6.228   3.332
  934SOL     OW 3700   2.305   6.554   6.942
  934SOL    HW1 3701   2.376   6.613   6.980
  934SOL    HW2 3702   2.322   6.539   6.845
  935SOL     OW 3703   5.246   4.238   4.192
  935SOL    HW1 3704   5.248   4.146   4.231
  935SOL    HW2 3705   5.161   4.284   4.219
  936SOL     OW 3706   0.221   0.219   6.335
  936SOL    HW1 3707   0.309   0.243   6.376
  936SOL    HW2 3708   0.180   0.300   6.293
  937SOL     OW 3709   5.227   1.682   5.649
  937SOL    HW1 3710   5.174   1.605   5.613
  937SOL    HW2 3711   5.286   1.649   5.723
  938SOL     OW 3712   5.759   4.939   5.728
  938SOL    HW1 3713   5.718   4.893   5.807
  938SOL    HW2 3714   5.760   4.876   5.650
  939SOL     OW 3715   0.073   6.957   4.468
  939SOL    HW1 3716   0.020   6.872   4.467
  939SOL    HW2 3717   0.017   0.008   4.506
  940SOL     OW 3718   1.170   3.734   1.934
  940SOL    HW1 3719   1.118   3.704   2.014
  940SOL    HW2 3720   1.108   3.771   1.865
  941SOL     OW 3721   5.699   1.197   6.593
  941SOL    HW1 3722   5.773   1.153   6.644
  941SOL    HW2 3723   5.615   1.191   6.647
  942SOL     OW 3724   5.633   0.231   2.600
  942SOL    HW1 3725   5.584   0.198   2.519
  942SOL    HW2 3726   5.603   0.325   2.620
  943SOL     OW 3727   1.739   3.598   3.025
  943SOL    HW1 3728   1.789   3.558   2.948
  943SOL    HW2 3729   1.688   3.527   3.072
  944SOL     OW 3730   0.291   4.928   5.815
  944SOL    HW1 3731   0.318   5.003   5.754
  944SOL    HW2 3732   0.221   4.960   5.879
  945SOL     OW 3733   6.728   3.500   6.074
  945SOL    HW1 3734   6.790   3.423   6.059
  945SOL    HW2 3735   6.768   3.562   6.142
  946SOL     OW 3736   5.063   4.229   5.341
  946SOL    HW1 3737   4.964   4.237   5.337
  946SOL    HW2 3738   5.090   4.134   5.322
  947SOL     OW 3739   3.952   3.050   3.527
  947SOL    HW1 3740   3.880   3.035   3.594
  947SOL    HW2 3741   4.007   3.129   3.554
  948SOL     OW 3742   4.817   0.896   2.993
  948SOL    HW1 3743   4.897   0.897   2.933
  948SOL    HW2 3744   4.761   0.816   2.972
  949SOL     OW 3745   1.912   6.235   0.612
  949SOL    HW1 3746   1.975   6.219   0.688
  949SOL    HW2 3747   1.928   6.168   0.540
  950SOL     OW 3748   4.892   5.702   2.325
  950SOL    HW1 3749   4.928   5.689   2.232
  950SOL    HW2 3750   4.815   5.766   2.321
  951SOL     OW 3751   1.645   0.587   4.255
  951SOL    HW1 3752   1.673   0.683   4.258
  951SOL    HW2 3753   1.606   0.567   4.165
  952SOL     OW 3754   4.365   2.066   3.055
  952SOL    HW1 3755   4.437   2.135   3.053
  952SOL    HW2 3756   4.276   2.111   3.046
  953SOL     OW 3757   5.252   5.280   4.679
  953SOL    HW1 3758   5.239   5.271   4.580
  953SOL    HW2 3759   5.273   5.191   4.718
  954SOL     OW 3760   4.173   5.691   1.717
  954SOL    HW1 3761   4.242   5.761   1.733
  954SOL    HW2 3762   4.087   5.735   1.690
  955SOL     OW 3763   0.275   3.754   1.812
  955SOL    HW1 3764   0.373   3.749   1.791
  955SOL    HW2 3765   0.260   3.725   1.907
  956SOL     OW 3766   6.058   0.001   1.865
  956SOL    HW1 3767   6.050   6.980   1.776
  956SOL    HW2 3768   6.021   6.964   1.935
  957SOL     OW 3769   5.886   2.965   3.551
  957SOL    HW1 3770   5.816   2.896   3.571
  957SOL    HW2 3771   5.965   2.920   3.509
  958SOL     OW 3772   3.968   1.275   1.471
  958SOL    HW1 3773   4.061   1.267   1.509
  958SOL    HW2 3774   3.960   1.217   1.390
  959SOL     OW 3775   3.775   6.441   4.550
  959SOL    HW1 3776   3.873   6.428   4.534
  959SOL    HW2 3777   3.737   6.359   4.592
  960SOL     OW 3778   0.172   0.875   2.237
  960SOL    HW1 3779   0.239   0.877   2.164
  960SOL    HW2 3780   0.213   0.911   2.321
  961SOL     OW 3781   4.072   6.600   3.462
  961SOL    HW1 3782   3.989   6.547   3.447
  961SOL    HW2 3783   4.069   6.642   3.553
  962SOL     OW 3784   0.595   1.415   5.453
  962SOL    HW1 3785   0.600   1.385   5.357
  962SOL    HW2 3786   0.502   1.448   5.472
  963SOL     OW 3787   5.244   1.213   6.151
  963SOL    HW1 3788   5.230   1.186   6.246
  963SOL    HW2 3789   5.210   1.306   6.137
  964SOL     OW 3790   5.628   5.136   0.124
  964SOL    HW1 3791   5.609   5.051   0.173
  964SOL    HW2 3792   5.542   5.170   0.084
  965SOL     OW 3793   5.442   1.677   2.025
  965SOL    HW1 3794   5.442   1.619   1.943
  965SOL    HW2 3795   5.496   1.759   2.007
  966SOL     OW 3796   5.729   3.274   1.862
  966SOL    HW1 3797   5.759   3.226   1.945
  966SOL    HW2 3798   5.809   3.295   1.806
  967SOL     OW 3799   2.858   3.915   1.100
  967SOL    HW1 3800   2.904   3.837   1.058
  967SOL    HW2 3801   2.862   3.905   1.200
  968SOL     OW 3802   3.539   0.607   2.209
  968SOL    HW1 3803   3.596   0.551   2.149
  968SOL    HW2 3804   3.569   0.702   2.204
  969SOL     OW 3805   2.776   4.781   5.569
  969SOL    HW1 3806   2.718   4.743   5.641
  969SOL    HW2 3807   2.757   4.735   5.483
  970SOL     OW 3808   5.823   0.775   6.633
  970SOL    HW1 3809   5.754   0.719   6.679
  970SOL    HW2 3810   5.779   0.829   6.560
  971SOL     OW 3811   0.074   2.901   1.873
  971SOL    HW1 3812   7.014   2.942   1.912
  971SOL    HW2 3813   0.141   2.973   1.855
  972SOL     OW 3814   5.769   1.931   1.261
  972SOL    HW1 3815   5.808   1.863   1.322
  972SOL    HW2 3816   5.833   1.951   1.187
  973SOL     OW 3817   0.806   5.193   6.303
  973SOL    HW1 3818   0.859   5.109   6.297
  973SOL    HW2 3819   0.852   5.266   6.253
  974SOL     OW 3820   5.170   6.689   2.591
  974SOL    HW1 3821   5.220   6.605   2.611
  974SOL    HW2 3822   5.173   6.707   2.492
  975SOL     OW 3823   1.859   0.715   0.065
  975SOL    HW1 3824   1.844   0.747   0.158
  975SOL    HW2 3825   1.955   0.686   0.055
  976SOL     OW 3826   0.228   4.029   1.736
  976SOL    HW1 3827   0.232   3.931   1.756
  976SOL    HW2 3828   0.133   4.060   1.739
  977SOL     OW 3829   0.762   0.177   2.002
  977SOL    HW1 3830   0.744   0.199   2.097
  977SOL    HW2 3831   0.850   0.216   1.974
  978SOL     OW 3832   5.721   2.872   6.025
  978SOL    HW1 3833   5.669   2.906   6.103
  978SOL    HW2 3834   5.746   2.949   5.966
  979SOL     OW 3835   0.621   2.705   6.905
  979SOL    HW1 3836   0.544   2.727   6.965
  979SOL    HW2 3837   0.687   2.780   6.907
  980SOL     OW 3838   5.392   1.832   3.714
  980SOL    HW1 3839   5.404   1.765   3.787
  980SOL    HW2 3840   5.365   1.785   3.630
  981SOL     OW 3841   0.152   1.624   4.828
  981SOL    HW1 3842   0.086   1.598   4.899
  981SOL    HW2 3843   0.102   1.648   4.745
  982SOL     OW 3844   1.102   1.441   4.934
  982SOL    HW1 3845   1.128   1.537   4.946
  982SOL    HW2 3846   1.033   1.435   4.862
  983SOL     OW 3847   6.237   2.852   3.167
  983SOL    HW1 3848   6.208   2.910   3.091
  983SOL    HW2 3849   6.326   2.882   3.201
  984SOL     OW 3850   2.720   2.385   4.496
  984SOL    HW1 3851   2.643   2.445   4.521
  984SOL    HW2 3852   2.741   2.398   4.399
  985SOL     OW 3853   6.581   3.205   5.074
  985SOL    HW1 3854   6.517   3.128   5.072
  985SOL    HW2 3855   6.533   3.289   5.049
  986SOL     OW 3856   4.930   4.373   0.997
  986SOL    HW1 3857   4.900   4.395   0.904
  986SOL    HW2 3858   4.850   4.350   1.053
  987SOL     OW 3859   4.687   6.684   2.755
  987SOL    HW1 3860   4.660   6.779   2.772
  987SOL    HW2 3861   4.660   6.628   2.833
  988SOL     OW 3862   3.575   3.600   2.174
  988SOL    HW1 3863   3.603   3.546   2.094
  988SOL    HW2 3864   3.487   3.643   2.156
  989SOL     OW 3865   6.606   2.034   6.511
  989SOL    HW1 3866   6.606   2.117   6.456
  989SOL    HW2 3867   6.640   1.957   6.456
  990SOL     OW 3868   3.540   1.241   2.060
  990SOL    HW1 3869   3.465   1.234   1.995
  990SOL    HW2 3870   3.575   1.335   2.061
  991SOL     OW 3871   1.117   3.621   4.351
  991SOL    HW1 3872   1.062   3.550   4.394
  991SOL    HW2 3873   1.097   3.623   4.253
  992SOL     OW 3874   0.469   3.365   1.128
  992SOL    HW1 3875   0.443   3.312   1.209
  992SOL    HW2 3876   0.475   3.462   1.152
  993SOL     OW 3877   6.851   4.529   0.405
  993SOL    HW1 3878   6.945   4.551   0.379
  993SOL    HW2 3879   6.792   4.537   0.325
  994SOL     OW 3880   3.765   5.215   1.863
  994SOL    HW1 3881   3.780   5.282   1.936
  994SOL    HW2 3882   3.695   5.150   1.892
  995SOL     OW 3883   4.405   2.878   5.725
  995SOL    HW1 3884   4.459   2.881   5.641
  995SOL    HW2 3885   4.453   2.928   5.797
  996SOL     OW 3886   2.982   5.353   4.348
  996SOL    HW1 3887   3.005   5.256   4.354
  996SOL    HW2 3888   2.968   5.378   4.252
  997SOL     OW 3889   0.938   0.092   3.435
  997SOL    HW1 3890   1.008   0.046   3.381
  997SOL    HW2 3891   0.879   0.145   3.375
  998SOL     OW 3892   5.660   0.778   5.033
  998SOL    HW1 3893   5.701   0.730   4.955
  998SOL    HW2 3894   5.563   0.796   5.013
  999SOL     OW 3895   5.449   4.387   2.431
  999SOL    HW1 3896   5.413   4.454   2.495
  999SOL    HW2 3897   5.512   4.326   2.479
 1000SOL     OW 3898   3.717   1.588   1.736
 1000SOL    HW1 3899   3.665   1.657   1.686
 1000SOL    HW2 3900   3.755   1.628   1.819
 1001SOL     OW 3901   4.763   5.658   1.422
 1001SOL    HW1 3902   4.669   5.625   1.417
 1001SOL    HW2 3903   4.799   5.671   1.330
 1002SOL     OW 3904   5.797   1.700   1.440
 1002SOL    HW1 3905   5.710   1.690   1.489
 1002SOL    HW2 3906   5.797   1.637   1.361
 1003SOL     OW 3907   1.877   6.097   2.585
 1003SOL    HW1 3908   1.798   6.128   2.637
 1003SOL    HW2 3909   1.894   6.161   2.509
 1004SOL     OW 3910   0.430   0.942   1.623
 1004SOL    HW1 3911   0.393   0.876   1.558
 1004SOL    HW2 3912   0.489   0.895   1.688
 1005SOL     OW 3913   2.086   2.519   3.891
 1005SOL    HW1 3914   2.115   2.502   3.796
 1005SOL    HW2 3915   2.072   2.617   3.904
 1006SOL     OW 3916   1.237   4.654   0.063
 1006SOL    HW1 3917   1.330   4.674   0.096
 1006SOL    HW2 3918   1.219   4.556   0.071
 1007SOL     OW 3919   4.639   0.745   5.561
 1007SOL    HW1 3920   4.589   0.760   5.475
 1007SOL    HW2 3921   4.681   0.831   5.589
 1008SOL     OW 3922   0.655   2.787   6.224
 1008SOL    HW1 3923   0.686   2.853   6.292
 1008SOL    HW2 3924   0.711   2.795   6.141
 1009SOL     OW 3925   0.603   5.306   4.988
 1009SOL    HW1 3926   0.579   5.401   5.006
 1009SOL    HW2 3927   0.545   5.271   4.914
 1010SOL     OW 3928   2.869   2.006   0.224
 1010SOL    HW1 3929   2.947   1.969   0.273
 1010SOL    HW2 3930   2.900   2.050   0.140
 1011SOL     OW 3931   1.181   5.717   3.506
 1011SOL    HW1 3932   1.272   5.753   3.487
 1011SOL    HW2 3933   1.129   5.710   3.421
 1012SOL     OW 3934   0.268   6.838   2.603
 1012SOL    HW1 3935   0.282   6.892   2.520
 1012SOL    HW2 3936   0.334   6.763   2.605
 1013SOL     OW 3937   1.049   1.616   6.786
 1013SOL    HW1 3938   1.052   1.543   6.853
 1013SOL    HW2 3939   1.021   1.579   6.697
 1014SOL     OW 3940   0.168   4.577   5.538
 1014SOL    HW1 3941   0.222   4.494   5.553
 1014SOL    HW2 3942   0.229   4.657   5.540
 1015SOL     OW 3943   2.944   6.906   5.796
 1015SOL    HW1 3944   3.018   6.889   5.861
 1015SOL    HW2 3945   2.921   7.003   5.797
 1016SOL     OW 3946   4.558   3.591   0.071
 1016SOL    HW1 3947   4.527   3.684   0.049
 1016SOL    HW2 3948   4.613   3.594   0.155
 1017SOL     OW 3949   4.583   2.425   1.273
 1017SOL    HW1 3950   4.565   2.411   1.371
 1017SOL    HW2 3951   4.677   2.457   1.261
 1018SOL     OW 3952   0.937   4.363   3.969
 1018SOL    HW1 3953   0.930   4.364   4.068
 1018SOL    HW2 3954   0.892   4.281   3.933
 1019SOL     OW 3955   6.769   6.765   1.224
 1019SOL    HW1 3956   6.730   6.701   1.290
 1019SOL    HW2 3957   6.831   6.828   1.272
 1020SOL     OW 3958   6.377   0.881   0.953
 1020SOL    HW1 3959   6.448   0.847   0.892
 1020SOL    HW2 3960   6.343   0.969   0.919
 1021SOL     OW 3961   5.565   6.595   1.613
 1021SOL    HW1 3962   5.569   6.528   1.538
 1021SOL    HW2 3963   5.524   6.679   1.579
 1022SOL     OW 3964   2.729   4.856   5.217
 1022SOL    HW1 3965   2.699   4.761   5.214
 1022SOL    HW2 3966   2.773   4.881   5.131
 1023SOL     OW 3967   0.140   1.159   2.546
 1023SOL    HW1 3968   0.170   1.248   2.582
 1023SOL    HW2 3969   0.221   1.103   2.526
 1024SOL     OW 3970   0.536   2.850   4.208
 1024SOL    HW1 3971   0.445   2.857   4.169
 1024SOL    HW2 3972   0.583   2.771   4.169
 1025SOL     OW 3973   3.684   3.403   1.628
 1025SOL    HW1 3974   3.601   3.409   1.682
 1025SOL    HW2 3975   3.750   3.344   1.675
 1026SOL     OW 3976   2.959   2.754   1.577
 1026SOL    HW1 3977   3.040   2.810   1.556
 1026SOL    HW2 3978   2.987   2.673   1.628
 1027SOL     OW 3979   3.667   6.679   1.896
 1027SOL    HW1 3980   3.612   6.662   1.814
 1027SOL    HW2 3981   3.624   6.752   1.950
 1028SOL     OW 3982   1.899   0.078   2.663
 1028SOL    HW1 3983   1.883   0.038   2.573
 1028SOL    HW2 3984   1.971   0.027   2.710
 1029SOL     OW 3985   1.310   1.217   6.239
 1029SOL    HW1 3986   1.242   1.257   6.177
 1029SOL    HW2 3987   1.398   1.262   6.226
 1030SOL     OW 3988   3.421   3.236   2.105
 1030SOL    HW1 3989   3.357   3.311   2.087
 1030SOL    HW2 3990   3.430   3.223   2.204
 1031SOL     OW 3991   4.780   4.042   1.194
 1031SOL    HW1 3992   4.707   4.028   1.262
 1031SOL    HW2 3993   4.857   3.983   1.215
 1032SOL     OW 3994   1.128   1.670   5.551
 1032SOL    HW1 3995   1.130   1.611   5.470
 1032SOL    HW2 3996   1.169   1.758   5.529
 1033SOL     OW 3997   0.818   5.443   1.136
 1033SOL    HW1 3998   0.803   5.475   1.043
 1033SOL    HW2 3999   0.890   5.497   1.179
 1034SOL     OW 4000   1.241   5.359   4.446
 1034SOL    HW1 4001   1.243   5.441   4.388
 1034SOL    HW2 4002   1.277   5.382   4.537
 1035SOL     OW 4003   0.211   0.963   5.535
 1035SOL    HW1 4004   0.197   0.983   5.438
 1035SOL    HW2 4005   0.308   0.977   5.558
 1036SOL     OW 4006   3.686   0.473   1.873
 1036SOL    HW1 4007   3.589   0.450   1.865
 1036SOL    HW2 4008   3.739   0.389   1.879
 1037SOL     OW 4009   1.442   1.525   3.033
 1037SOL    HW1 4010   1.449   1.616   3.073
 1037SOL    HW2 4011   1.346   1.498   3.028
 1038SOL     OW 4012   2.045   0.720   5.444
 1038SOL    HW1 4013   2.060   0.783   5.368
 1038SOL    HW2 4014   2.108   0.743   5.519
 1039SOL     OW 4015   3.574   3.742   4.533
 1039SOL    HW1 4016   3.488   3.782   4.563
 1039SOL    HW2 4017   3.642   3.815   4.521
 1040SOL     OW 4018   4.826   0.939   2.228
 1040SOL    HW1 4019   4.872   1.020   2.191
 1040SOL    HW2 4020   4.756   0.967   2.294
 1041SOL     OW 4021   7.020   6.620   3.334
 1041SOL    HW1 4022   0.061   6.667   3.396
 1041SOL    HW2 4023   6.952   6.571   3.388
 1042SOL     OW 4024   3.944   5.636   2.596
 1042SOL    HW1 4025   4.016   5.567   2.605
 1042SOL    HW2 4026   3.906   5.634   2.504
 1043SOL     OW 4027   3.580   2.119   3.399
 1043SOL    HW1 4028   3.630   2.049   3.348
 1043SOL    HW2 4029   3.639   2.158   3.469
 1044SOL     OW 4030   5.599   5.164   2.166
 1044SOL    HW1 4031   5.562   5.134   2.079
 1044SOL    HW2 4032   5.547   5.124   2.241
 1045SOL     OW 4033   3.636   0.358   2.347
 1045SOL    HW1 4034   3.703   0.330   2.415
 1045SOL    HW2 4035   3.620   0.456   2.354
 1046SOL     OW 4036   1.579   1.139   0.142
 1046SOL    HW1 4037   1.549   1.064   0.084
 1046SOL    HW2 4038   1.530   1.222   0.117
 1047SOL     OW 4039   2.444   6.942   3.819
 1047SOL    HW1 4040   2.479   6.991   3.740
 1047SOL    HW2 4041   2.416   7.008   3.890
 1048SOL     OW 4042   3.686   6.550   3.026
 1048SOL    HW1 4043   3.629   6.513   3.100
 1048SOL    HW2 4044   3.679   6.491   2.946
 1049SOL     OW 4045   6.608   6.734   3.942
 1049SOL    HW1 4046   6.546   6.812   3.951
 1049SOL    HW2 4047   6.569   6.667   3.879
 1050SOL     OW 4048   3.490   5.286   2.067
 1050SOL    HW1 4049   3.483   5.205   2.009
 1050SOL    HW2 4050   3.576   5.284   2.118
 1051SOL     OW 4051   0.522   5.128   0.666
 1051SOL    HW1 4052   0.588   5.137   0.591
 1051SOL    HW2 4053   0.525   5.209   0.724
 1052SOL     OW 4054   4.442   0.997   5.442
 1052SOL    HW1 4055   4.393   0.925   5.491
 1052SOL    HW2 4056   4.408   1.087   5.470
 1053SOL     OW 4057   5.891   4.100   3.518
 1053SOL    HW1 4058   5.823   4.161   3.558
 1053SOL    HW2 4059   5.950   4.064   3.591
 1054SOL     OW 4060   3.073   3.308   0.773
 1054SOL    HW1 4061   3.000   3.315   0.841
 1054SOL    HW2 4062   3.047   3.243   0.702
 1055SOL     OW 4063   4.234   6.720   5.261
 1055SOL    HW1 4064   4.213   6.671   5.176
 1055SOL    HW2 4065   4.195   6.812   5.257
 1056SOL     OW 4066   2.158   3.562   0.471
 1056SOL    HW1 4067   2.166   3.658   0.443
 1056SOL    HW2 4068   2.168   3.503   0.391
 1057SOL     OW 4069   3.405   3.340   1.700
 1057SOL    HW1 4070   3.476   3.272   1.686
 1057SOL    HW2 4071   3.319   3.295   1.724
 1058SOL     OW 4072   5.380   2.609   3.488
 1058SOL    HW1 4073   5.450   2.550   3.528
 1058SOL    HW2 4074   5.417   2.654   3.407
 1059SOL     OW 4075   2.389   1.000   1.995
 1059SOL    HW1 4076   2.403   1.093   2.030
 1059SOL    HW2 4077   2.320   1.003   1.922
 1060SOL     OW 4078   0.299   4.700   3.922
 1060SOL    HW1 4079   0.312   4.774   3.988
 1060SOL    HW2 4080   0.325   4.733   3.831
 1061SOL     OW 4081   6.342   3.442   0.017
 1061SOL    HW1 4082   6.286   3.518   7.008
 1061SOL    HW2 4083   6.343   3.369   6.970
 1062SOL     OW 4084   5.449   5.535   5.931
 1062SOL    HW1 4085   5.501   5.487   6.002
 1062SOL    HW2 4086   5.354   5.504   5.932
 1063SOL     OW 4087   1.021   5.659   0.967
 1063SOL    HW1 4088   1.088   5.722   0.927
 1063SOL    HW2 4089   1.031   5.659   1.067
 1064SOL     OW 4090   1.708   4.482   3.086
 1064SOL    HW1 4091   1.699   4.566   3.032
 1064SOL    HW2 4092   1.634   4.419   3.062
 1065SOL     OW 4093   5.062   0.472   3.600
 1065SOL    HW1 4094   5.016   0.540   3.543
 1065SOL    HW2 4095   4.995   0.405   3.633
 1066SOL     OW 4096   4.981   6.998   2.882
 1066SOL    HW1 4097   4.996   6.932   2.956
 1066SOL    HW2 4098   4.892   0.020   2.895
 1067SOL     OW 4099   0.790   2.761   0.476
 1067SOL    HW1 4100   0.775   2.742   0.573
 1067SOL    HW2 4101   0.888   2.774   0.459
 1068SOL     OW 4102   6.513   5.167   2.374
 1068SOL    HW1 4103   6.603   5.150   2.334
 1068SOL    HW2 4104   6.443   5.157   2.304
 1069SOL     OW 4105   4.777   5.597   0.571
 1069SOL    HW1 4106   4.824   5.596   0.659
 1069SOL    HW2 4107   4.679   5.582   0.585
 1070SOL     OW 4108   0.801   0.277   1.610
 1070SOL    HW1 4109   0.827   0.238   1.699
 1070SOL    HW2 4110   0.704   0.299   1.611
 1071SOL     OW 4111   1.391   1.055   3.928
 1071SOL    HW1 4112   1.391   1.040   3.829
 1071SOL    HW2 4113   1.305   1.022   3.967
 1072SOL     OW 4114   2.245   0.610   1.237
 1072SOL    HW1 4115   2.332   0.592   1.190
 1072SOL    HW2 4116   2.169   0.585   1.177
 1073SOL     OW 4117   4.913   0.338   3.366
 1073SOL    HW1 4118   4.926   0.428   3.408
 1073SOL    HW2 4119   4.819   0.331   3.332
 1074SOL     OW 4120   2.423   5.483   1.550
 1074SOL    HW1 4121   2.447   5.580   1.551
 1074SOL    HW2 4122   2.503   5.429   1.525
 1075SOL     OW 4123   5.420   6.806   3.292
 1075SOL    HW1 4124   5.327   6.769   3.294
 1075SOL    HW2 4125   5.442   6.846   3.380
 1076SOL     OW 4126   0.708   2.719   5.507
 1076SOL    HW1 4127   0.799   2.760   5.512
 1076SOL    HW2 4128   0.653   2.747   5.586
 1077SOL     OW 4129   6.419   0.133   0.490
 1077SOL    HW1 4130   6.339   0.080   0.463
 1077SOL    HW2 4131   6.427   0.132   0.590
 1078SOL     OW 4132   6.950   0.813   2.543
 1078SOL    HW1 4133   6.871   0.840   2.599
 1078SOL    HW2 4134   6.936   0.843   2.449
 1079SOL     OW 4135   1.422   6.242   1.955
 1079SOL    HW1 4136   1.499   6.220   1.895
 1079SOL    HW2 4137   1.405   6.165   2.017
 1080SOL     OW 4138   2.080   5.460   3.511
 1080SOL    HW1 4139   2.012   5.442   3.582
 1080SOL    HW2 4140   2.153   5.517   3.547
 1081SOL     OW 4141   6.567   5.086   5.254
 1081SOL    HW1 4142   6.522   5.173   5.276
 1081SOL    HW2 4143   6.593   5.040   5.338
 1082SOL     OW 4144   5.400   2.352   5.365
 1082SOL    HW1 4145   5.427   2.320   5.456
 1082SOL    HW2 4146   5.454   2.304   5.296
 1083SOL     OW 4147   4.313   4.209   0.432
 1083SOL    HW1 4148   4.273   4.155   0.357
 1083SOL    HW2 4149   4.386   4.156   0.475
 1084SOL     OW 4150   6.248   5.984   6.526
 1084SOL    HW1 4151   6.272   6.006   6.431
 1084SOL    HW2 4152   6.322   5.930   6.567
 1085SOL     OW 4153   1.657   3.514   4.588
 1085SOL    HW1 4154   1.718   3.484   4.661
 1085SOL    HW2 4155   1.562   3.502   4.616
 1086SOL     OW 4156   0.149   4.683   0.219
 1086SOL    HW1 4157   0.151   4.719   0.312
 1086SOL    HW2 4158   0.241   4.655   0.192
 1087SOL     OW 4159   0.012   2.219   5.204
 1087SOL    HW1 4160   6.970   2.212   5.128
 1087SOL    HW2 4161   0.009   2.312   5.242
 1088SOL     OW 4162   0.435   3.505   2.538
 1088SOL    HW1 4163   0.361   3.572   2.543
 1088SOL    HW2 4164   0.468   3.499   2.444
 1089SOL     OW 4165   0.195   6.094   4.612
 1089SOL    HW1 4166   0.125   6.042   4.564
 1089SOL    HW2 4167   0.182   6.192   4.594
 1090SOL     OW 4168   3.067   1.641   3.464
 1090SOL    HW1 4169   3.121   1.724   3.469
 1090SOL    HW2 4170   3.108   1.570   3.521
 1091SOL     OW 4171   2.791   2.072   4.525
 1091SOL    HW1 4172   2.752   2.036   4.610
 1091SOL    HW2 4173   2.842   2.156   4.544
 1092SOL     OW 4174   0.842   4.228   0.443
 1092SOL    HW1 4175   0.838   4.244   0.344
 1092SOL    HW2 4176   0.918   4.281   0.481
 1093SOL     OW 4177   2.361   0.179   1.446
 1093SOL    HW1 4178   2.425   0.164   1.520
 1093SOL    HW2 4179   2.391   0.257   1.391
 1094SOL     OW 4180   1.272   0.108   3.028
 1094SOL    HW1 4181   1.330   0.182   3.064
 1094SOL    HW2 4182   1.302   0.086   2.935
 1095SOL     OW 4183   1.210   3.015   6.211
 1095SOL    HW1 4184   1.298   3.002   6.258
 1095SOL    HW2 4185   1.173   2.926   6.185
 1096SOL     OW 4186   3.397   4.186   1.820
 1096SOL    HW1 4187   3.404   4.137   1.907
 1096SOL    HW2 4188   3.485   4.228   1.798
 1097SOL     OW 4189   2.573   4.736   3.818
 1097SOL    HW1 4190   2.560   4.649   3.770
 1097SOL    HW2 4191   2.486   4.786   3.819
 1098SOL     OW 4192   4.532   3.294   6.661
 1098SOL    HW1 4193   4.567   3.357   6.732
 1098SOL    HW2 4194   4.548   3.200   6.690
 1099SOL     OW 4195   3.372   0.695   5.857
 1099SOL    HW1 4196   3.341   0.737   5.771
 1099SOL    HW2 4197   3.364   0.762   5.931
 1100SOL     OW 4198   4.019   1.556   4.864
 1100SOL    HW1 4199   3.920   1.568   4.858
 1100SOL    HW2 4200   4.040   1.463   4.894
 1101SOL     OW 4201   5.580   3.023   5.818
 1101SOL    HW1 4202   5.513   2.951   5.833
 1101SOL    HW2 4203   5.649   2.992   5.753
 1102SOL     OW 4204   0.923   0.455   4.697
 1102SOL    HW1 4205   0.853   0.387   4.722
 1102SOL    HW2 4206   1.001   0.408   4.656
 1103SOL     OW 4207   4.106   1.100   0.234
 1103SOL    HW1 4208   4.110   1.110   0.334
 1103SOL    HW2 4209   4.153   1.016   0.207
 1104SOL     OW 4210   2.031   3.217   5.218
 1104SOL    HW1 4211   2.012   3.198   5.314
 1104SOL    HW2 4212   1.951   3.261   5.176
 1105SOL     OW 4213   5.737   3.078   4.644
 1105SOL    HW1 4214   5.808   3.103   4.709
 1105SOL    HW2 4215   5.653   3.128   4.666
 1106SOL     OW 4216   0.334   2.573   0.895
 1106SOL    HW1 4217   0.397   2.600   0.822
 1106SOL    HW2 4218   0.377   2.501   0.950
 1107SOL     OW 4219   0.975   0.310   7.018
 1107SOL    HW1 4220   1.024   0.301   0.082
 1107SOL    HW2 4221   1.015   0.384   6.965
 1108SOL     OW 4222   3.427   6.716   5.354
 1108SOL    HW1 4223   3.462   6.738   5.263
 1108SOL    HW2 4224   3.446   6.620   5.375
 1109SOL     OW 4225   5.250   0.468   3.406
 1109SOL    HW1 4226   5.199   0.450   3.491
 1109SOL    HW2 4227   5.237   0.564   3.380
 1110SOL     OW 4228   4.172   1.843   3.132
 1110SOL    HW1 4229   4.245   1.859   3.066
 1110SOL    HW2 4230   4.181   1.751   3.171
 1111SOL     OW 4231   4.614   5.717   6.990
 1111SOL    HW1 4232   4.636   5.620   6.983
 1111SOL    HW2 4233   4.602   5.742   0.063
 1112SOL     OW 4234   5.567   0.785   2.154
 1112SOL    HW1 4235   5.633   0.852   2.188
 1112SOL    HW2 4236   5.617   0.708   2.115
 1113SOL     OW 4237   6.051   4.372   1.587
 1113SOL    HW1 4238   6.135   4.386   1.639
 1113SOL    HW2 4239   5.972   4.384   1.647
 1114SOL     OW 4240   2.963   1.426   5.718
 1114SOL    HW1 4241   2.986   1.484   5.796
 1114SOL    HW2 4242   2.999   1.468   5.634
 1115SOL     OW 4243   3.619   3.404   6.066
 1115SOL    HW1 4244   3.574   3.330   6.015
 1115SOL    HW2 4245   3.700   3.434   6.016
 1116SOL     OW 4246   4.670   6.274   5.622
 1116SOL    HW1 4247   4.599   6.204   5.623
 1116SOL    HW2 4248   4.638   6.354   5.571
 1117SOL     OW 4249   1.843   2.216   1.753
 1117SOL    HW1 4250   1.803   2.160   1.681
 1117SOL    HW2 4251   1.852   2.310   1.721
 1118SOL     OW 4252   2.536   4.859   0.618
 1118SOL    HW1 4253   2.539   4.763   0.645
 1118SOL    HW2 4254   2.440   4.888   0.610
 1119SOL     OW 4255   4.073   4.381   1.659
 1119SOL    HW1 4256   4.160   4.428   1.646
 1119SOL    HW2 4257   4.067   4.303   1.596
 1120SOL     OW 4258   5.413   5.877   0.856
 1120SOL    HW1 4259   5.492   5.838   0.903
 1120SOL    HW2 4260   5.440   5.962   0.810
 1121SOL     OW 4261   6.526   4.650   4.764
 1121SOL    HW1 4262   6.447   4.687   4.714
 1121SOL    HW2 4263   6.582   4.725   4.798
 1122SOL     OW 4264   5.204   2.590   1.661
 1122SOL    HW1 4265   5.196   2.567   1.564
 1122SOL    HW2 4266   5.120   2.637   1.691
 1123SOL     OW 4267   4.763   2.142   3.114
 1123SOL    HW1 4268   4.792   2.207   3.184
 1123SOL    HW2 4269   4.774   2.049   3.149
 1124SOL     OW 4270   0.096   3.471   5.543
 1124SOL    HW1 4271   0.115   3.395   5.481
 1124SOL    HW2 4272   0.129   3.556   5.502
 1125SOL     OW 4273   2.880   1.822   3.737
 1125SOL    HW1 4274   2.805   1.763   3.766
 1125SOL    HW2 4275   2.846   1.915   3.725
 1126SOL     OW 4276   5.530   5.835   6.946
 1126SOL    HW1 4277   5.489   5.765   6.887
 1126SOL    HW2 4278   5.468   5.853   0.000
 1127SOL     OW 4279   5.235   5.967   4.187
 1127SOL    HW1 4280   5.327   5.960   4.226
 1127SOL    HW2 4281   5.200   5.875   4.169
 1128SOL     OW 4282   6.195   1.365   4.237
 1128SOL    HW1 4283   6.100   1.368   4.205
 1128SOL    HW2 4284   6.255   1.344   4.160
 1129SOL     OW 4285   1.702   0.040   0.613
 1129SOL    HW1 4286   1.621   0.015   0.561
 1129SOL    HW2 4287   1.763   0.096   0.557
 1130SOL     OW 4288   2.110   5.240   0.486
 1130SOL    HW1 4289   2.166   5.322   0.475
 1130SOL    HW2 4290   2.169   5.164   0.516
 1131SOL     OW 4291   1.251   6.385   5.885
 1131SOL    HW1 4292   1.333   6.332   5.863
 1131SOL    HW2 4293   1.170   6.328   5.869
 1132SOL     OW 4294   5.230   0.466   2.716
 1132SOL    HW1 4295   5.265   0.446   2.625
 1132SOL    HW2 4296   5.168   0.393   2.745
 1133SOL     OW 4297   0.950   0.866   0.282
 1133SOL    HW1 4298   0.921   0.771   0.280
 1133SOL    HW2 4299   0.906   0.913   0.358
 1134SOL     OW 4300   5.224   6.945   2.315
 1134SOL    HW1 4301   5.310   6.895   2.306
 1134SOL    HW2 4302   5.148   6.880   2.315
 1135SOL     OW 4303   2.822   6.509   3.661
 1135SOL    HW1 4304   2.817   6.607   3.640
 1135SOL    HW2 4305   2.752   6.460   3.608
 1136SOL     OW 4306   4.477   4.627   3.481
 1136SOL    HW1 4307   4.528   4.543   3.462
 1136SOL    HW2 4308   4.392   4.626   3.429
 1137SOL     OW 4309   1.695   6.780   0.286
 1137SOL    HW1 4310   1.598   6.760   0.289
 1137SOL    HW2 4311   1.743   6.726   0.355
 1138SOL     OW 4312   0.282   0.717   5.727
 1138SOL    HW1 4313   0.201   0.776   5.733
 1138SOL    HW2 4314   0.336   0.742   5.647
 1139SOL     OW 4315   3.212   4.903   2.630
 1139SOL    HW1 4316   3.128   4.849   2.629
 1139SOL    HW2 4317   3.260   4.890   2.543
 1140SOL     OW 4318   2.751   0.675   2.332
 1140SOL    HW1 4319   2.697   0.593   2.310
 1140SOL    HW2 4320   2.693   0.742   2.378
 1141SOL     OW 4321   1.049   6.174   6.912
 1141SOL    HW1 4322   1.120   6.235   6.945
 1141SOL    HW2 4323   1.011   6.121   6.988
 1142SOL     OW 4324   3.288   0.098   3.853
 1142SOL    HW1 4325   3.251   0.022   3.905
 1142SOL    HW2 4326   3.228   0.118   3.776
 1143SOL     OW 4327   2.535   2.503   3.269
 1143SOL    HW1 4328   2.606   2.563   3.307
 1143SOL    HW2 4329   2.564   2.468   3.181
 1144SOL     OW 4330   6.130   4.536   3.663
 1144SOL    HW1 4331   6.158   4.603   3.594
 1144SOL    HW2 4332   6.178   4.554   3.748
 1145SOL     OW 4333   6.357   3.621   1.054
 1145SOL    HW1 4334   6.304   3.544   1.022
 1145SOL    HW2 4335   6.329   3.645   1.147
 1146SOL     OW 4336   6.789   0.573   2.228
 1146SOL    HW1 4337   6.777   0.618   2.139
 1146SOL    HW2 4338   6.875   0.602   2.268
 1147SOL     OW 4339   3.272   5.879   2.010
 1147SOL    HW1 4340   3.175   5.905   2.006
 1147SOL    HW2 4341   3.329   5.956   1.982
 1148SOL     OW 4342   4.372   6.062   0.365
 1148SOL    HW1 4343   4.278   6.038   0.388
 1148SOL    HW2 4344   4.378   6.081   0.267
 1149SOL     OW 4345   6.259   3.030   2.511
 1149SOL    HW1 4346   6.186   2.967   2.535
 1149SOL    HW2 4347   6.330   3.027   2.582
 1150SOL     OW 4348   0.552   3.906   6.939
 1150SOL    HW1 4349   0.575   3.926   0.011
 1150SOL    HW2 4350   0.455   3.926   6.923
 1151SOL     OW 4351   5.593   4.246   5.575
 1151SOL    HW1 4352   5.566   4.212   5.485
 1151SOL    HW2 4353   5.524   4.311   5.609
 1152SOL     OW 4354   4.633   5.491   6.816
 1152SOL    HW1 4355   4.720   5.442   6.802
 1152SOL    HW2 4356   4.562   5.450   6.759
 1153SOL     OW 4357   0.343   0.116   2.202
 1153SOL    HW1 4358   0.419   0.161   2.155
 1153SOL    HW2 4359   0.310   0.173   2.277
 1154SOL     OW 4360   0.046   4.388   1.216
 1154SOL    HW1 4361   0.131   4.345   1.186
 1154SOL    HW2 4362   0.062   4.437   1.302
 1155SOL     OW 4363   2.573   5.042   6.212
 1155SOL    HW1 4364   2.480   5.034   6.248
 1155SOL    HW2 4365   2.631   4.973   6.256
 1156SOL     OW 4366   4.662   1.996   4.942
 1156SOL    HW1 4367   4.608   1.913   4.931
 1156SOL    HW2 4368   4.607   2.065   4.989
 1157SOL     OW 4369   5.342   0.922   6.214
 1157SOL    HW1 4370   5.353   1.020   6.197
 1157SOL    HW2 4371   5.259   0.889   6.169
 1158SOL     OW 4372   6.826   5.179   4.787
 1158SOL    HW1 4373   6.778   5.250   4.839
 1158SOL    HW2 4374   6.892   5.133   4.846
 1159SOL     OW 4375   6.629   0.233   3.674
 1159SOL    HW1 4376   6.663   0.184   3.754
 1159SOL    HW2 4377   6.529   0.242   3.680
 1160SOL     OW 4378   5.215   4.630   0.942
 1160SOL    HW1 4379   5.195   4.566   0.868
 1160SOL    HW2 4380   5.174   4.719   0.921
 1161SOL     OW 4381   6.724   5.344   5.689
 1161SOL    HW1 4382   6.791   5.322   5.619
 1161SOL    HW2 4383   6.749   5.299   5.775
 1162SOL     OW 4384   2.453   2.201   6.664
 1162SOL    HW1 4385   2.411   2.110   6.674
 1162SOL    HW2 4386   2.446   2.231   6.569
 1163SOL     OW 4387   6.619   3.803   1.566
 1163SOL    HW1 4388   6.553   3.728   1.558
 1163SOL    HW2 4389   6.675   3.790   1.648
 1164SOL     OW 4390   5.256   2.755   3.702
 1164SOL    HW1 4391   5.299   2.701   3.629
 1164SOL    HW2 4392   5.288   2.721   3.791
 1165SOL     OW 4393   3.794   5.613   3.650
 1165SOL    HW1 4394   3.802   5.711   3.635
 1165SOL    HW2 4395   3.820   5.564   3.567
 1166SOL     OW 4396   3.549   6.616   0.527
 1166SOL    HW1 4397   3.559   6.644   0.622
 1166SOL    HW2 4398   3.497   6.685   0.476
 1167SOL     OW 4399   3.891   6.663   0.590
 1167SOL    HW1 4400   3.916   6.566   0.591
 1167SOL    HW2 4401   3.970   6.717   0.563
 1168SOL     OW 4402   5.268   2.582   2.011
 1168SOL    HW1 4403   5.347   2.626   2.053
 1168SOL    HW2 4404   5.297   2.535   1.928
 1169SOL     OW 4405   4.443   2.449   5.768
 1169SOL    HW1 4406   4.534   2.489   5.770
 1169SOL    HW2 4407   4.448   2.352   5.793
 1170SOL     OW 4408   5.450   6.813   2.901
 1170SOL    HW1 4409   5.360   6.824   2.859
 1170SOL    HW2 4410   5.477   6.717   2.899
 1171SOL     OW 4411   3.120   6.570   6.988
 1171SOL    HW1 4412   3.091   6.547   0.058
 1171SOL    HW2 4413   3.116   6.489   6.930
 1172SOL     OW 4414   3.445   3.612   1.543
 1172SOL    HW1 4415   3.437   3.588   1.639
 1172SOL    HW2 4416   3.538   3.592   1.511
 1173SOL     OW 4417   3.481   1.237   1.141
 1173SOL    HW1 4418   3.556   1.292   1.178
 1173SOL    HW2 4419   3.483   1.241   1.041
 1174SOL     OW 4420   2.404   4.770   1.908
 1174SOL    HW1 4421   2.347   4.729   1.979
 1174SOL    HW2 4422   2.477   4.707   1.883
 1175SOL     OW 4423   3.981   4.902   6.610
 1175SOL    HW1 4424   4.064   4.953   6.631
 1175SOL    HW2 4425   3.994   4.849   6.527
 1176SOL     OW 4426   5.819   3.404   6.556
 1176SOL    HW1 4427   5.846   3.420   6.651
 1176SOL    HW2 4428   5.869   3.466   6.496
 1177SOL     OW 4429   0.247   3.805   4.879
 1177SOL    HW1 4430   0.179   3.865   4.919
 1177SOL    HW2 4431   0.214   3.771   4.791
 1178SOL     OW 4432   3.551   4.315   0.951
 1178SOL    HW1 4433   3.478   4.248   0.939
 1178SOL    HW2 4434   3.550   4.379   0.874
 1179SOL     OW 4435   2.516   5.937   1.121
 1179SOL    HW1 4436   2.555   5.936   1.213
 1179SOL    HW2 4437   2.444   5.869   1.114
 1180SOL     OW 4438   2.626   5.503   4.270
 1180SOL    HW1 4439   2.613   5.568   4.194
 1180SOL    HW2 4440   2.655   5.554   4.351
 1181SOL     OW 4441   0.413   5.182   4.818
 1181SOL    HW1 4442   0.437   5.250   4.748
 1181SOL    HW2 4443   0.423   5.090   4.780
 1182SOL     OW 4444   4.294   5.529   3.600
 1182SOL    HW1 4445   4.261   5.596   3.534
 1182SOL    HW2 4446   4.283   5.565   3.692
 1183SOL     OW 4447   3.121   4.134   1.189
 1183SOL    HW1 4448   3.175   4.052   1.210
 1183SOL    HW2 4449   3.045   4.141   1.253
 1184SOL     OW 4450   0.255   1.267   5.254
 1184SOL    HW1 4451   0.253   1.305   5.161
 1184SOL    HW2 4452   0.165   1.230   5.276
 1185SOL     OW 4453   1.374   0.918   0.750
 1185SOL    HW1 4454   1.386   0.829   0.706
 1185SOL    HW2 4455   1.448   0.933   0.815
 1186SOL     OW 4456   4.772   6.075   5.435
 1186SOL    HW1 4457   4.722   6.149   5.479
 1186SOL    HW2 4458   4.856   6.056   5.486
 1187SOL     OW 4459   5.017   0.675   5.539
 1187SOL    HW1 4460   5.005   0.762   5.587
 1187SOL    HW2 4461   5.025   0.601   5.607
 1188SOL     OW 4462   3.270   5.933   6.191
 1188SOL    HW1 4463   3.188   5.888   6.154
 1188SOL    HW2 4464   3.333   5.952   6.117
 1189SOL     OW 4465   6.325   1.665   1.598
 1189SOL    HW1 4466   6.281   1.579   1.574
 1189SOL    HW2 4467   6.317   1.681   1.697
 1190SOL     OW 4468   3.443   5.960   3.219
 1190SOL    HW1 4469   3.462   5.912   3.134
 1190SOL    HW2 4470   3.528   5.976   3.269
 1191SOL     OW 4471   4.546   5.258   4.834
 1191SOL    HW1 4472   4.625   5.210   4.796
 1191SOL    HW2 4473   4.508   5.205   4.910
 1192SOL     OW 4474   5.142   4.675   3.116
 1192SOL    HW1 4475   5.170   4.696   3.022
 1192SOL    HW2 4476   5.213   4.622   3.161
 1193SOL     OW 4477   0.242   2.580   5.495
 1193SOL    HW1 4478   0.173   2.532   5.547
 1193SOL    HW2 4479   0.293   2.515   5.438
 1194SOL     OW 4480   6.001   0.300   1.179
 1194SOL    HW1 4481   5.955   0.341   1.258
 1194SOL    HW2 4482   6.062   0.227   1.211
 1195SOL     OW 4483   0.165   4.168   0.860
 1195SOL    HW1 4484   0.070   4.148   0.884
 1195SOL    HW2 4485   0.178   4.161   0.761
 1196SOL     OW 4486   6.389   4.991   3.658
 1196SOL    HW1 4487   6.427   5.022   3.571
 1196SOL    HW2 4488   6.433   4.906   3.687
 1197SOL     OW 4489   4.668   6.813   4.674
 1197SOL    HW1 4490   4.622   6.850   4.593
 1197SOL    HW2 4491   4.766   6.809   4.658
 1198SOL     OW 4492   1.718   3.387   2.798
 1198SOL    HW1 4493   1.683   3.313   2.741
 1198SOL    HW2 4494   1.818   3.389   2.793
 1199SOL     OW 4495   3.898   3.600   2.260
 1199SOL    HW1 4496   3.849   3.513   2.265
 1199SOL    HW2 4497   3.836   3.675   2.284
 1200SOL     OW 4498   3.247   4.160   4.798
 1200SOL    HW1 4499   3.189   4.241   4.807
 1200SOL    HW2 4500   3.239   4.104   4.880
 1201SOL     OW 4501   1.301   1.430   3.824
 1201SOL    HW1 4502   1.388   1.451   3.869
 1201SOL    HW2 4503   1.317   1.393   3.733
 1202SOL     OW 4504   0.544   5.744   5.338
 1202SOL    HW1 4505   0.502   5.682   5.272
 1202SOL    HW2 4506   0.539   5.838   5.303
 1203SOL     OW 4507   0.366   5.752   0.207
 1203SOL    HW1 4508   0.461   5.770   0.181
 1203SOL    HW2 4509   0.318   5.839   0.220
 1204SOL     OW 4510   4.787   1.241   1.607
 1204SOL    HW1 4511   4.731   1.192   1.541
 1204SOL    HW2 4512   4.876   1.263   1.566
 1205SOL     OW 4513   3.878   3.518   1.094
 1205SOL    HW1 4514   3.790   3.525   1.047
 1205SOL    HW2 4515   3.947   3.483   1.032
 1206SOL     OW 4516   2.591   2.507   5.123
 1206SOL    HW1 4517   2.541   2.437   5.174
 1206SOL    HW2 4518   2.554   2.597   5.144
 1207SOL     OW 4519   1.763   6.542   1.141
 1207SOL    HW1 4520   1.717   6.455   1.124
 1207SOL    HW2 4521   1.762   6.561   1.239
 1208SOL     OW 4522   3.721   3.393   1.356
 1208SOL    HW1 4523   3.722   3.386   1.456
 1208SOL    HW2 4524   3.778   3.470   1.327
 1209SOL     OW 4525   4.864   0.347   3.826
 1209SOL    HW1 4526   4.914   0.322   3.909
 1209SOL    HW2 4527   4.780   0.395   3.851
 1210SOL     OW 4528   4.201   6.810   3.343
 1210SOL    HW1 4529   4.234   6.794   3.250
 1210SOL    HW2 4530   4.156   6.728   3.377
 1211SOL     OW 4531   1.151   3.341   2.767
 1211SOL    HW1 4532   1.070   3.284   2.754
 1211SOL    HW2 4533   1.141   3.425   2.713
 1212SOL     OW 4534   6.531   0.511   6.587
 1212SOL    HW1 4535   6.603   0.501   6.519
 1212SOL    HW2 4536   6.469   0.432   6.582
 1213SOL     OW 4537   5.761   2.865   1.187
 1213SOL    HW1 4538   5.709   2.882   1.271
 1213SOL    HW2 4539   5.707   2.892   1.108
 1214SOL     OW 4540   0.779   3.977   6.840
 1214SOL    HW1 4541   0.680   3.982   6.845
 1214SOL    HW2 4542   0.807   3.962   6.745
 1215SOL     OW 4543   0.801   4.496   3.458
 1215SOL    HW1 4544   0.738   4.573   3.469
 1215SOL    HW2 4545   0.889   4.517   3.500
 1216SOL     OW 4546   5.024   0.136   0.698
 1216SOL    HW1 4547   4.938   0.140   0.750
 1216SOL    HW2 4548   5.058   0.042   0.699
 1217SOL     OW 4549   2.519   4.331   0.977
 1217SOL    HW1 4550   2.434   4.312   0.928
 1217SOL    HW2 4551   2.587   4.368   0.913
 1218SOL     OW 4552   0.996   3.234   4.797
 1218SOL    HW1 4553   0.996   3.213   4.699
 1218SOL    HW2 4554   1.076   3.192   4.840
 1219SOL     OW 4555   5.137   5.926   1.943
 1219SOL    HW1 4556   5.145   6.022   1.969
 1219SOL    HW2 4557   5.222   5.895   1.902
 1220SOL     OW 4558   1.300   4.907   3.088
 1220SOL    HW1 4559   1.326   4.905   3.184
 1220SOL    HW2 4560   1.347   4.833   3.039
 1221SOL     OW 4561   4.148   4.218   6.018
 1221SOL    HW1 4562   4.171   4.121   6.025
 1221SOL    HW2 4563   4.069   4.238   6.075
 1222SOL     OW 4564   6.781   1.110   0.153
 1222SOL    HW1 4565   6.801   1.062   0.239
 1222SOL    HW2 4566   6.744   1.200   0.173
 1223SOL     OW 4567   4.087   2.258   0.028
 1223SOL    HW1 4568   4.106   2.278   0.124
 1223SOL    HW2 4569   3.988   2.257   0.012
 1224SOL     OW 4570   3.624   5.472   0.559
 1224SOL    HW1 4571   3.710   5.436   0.593
 1224SOL    HW2 4572   3.581   5.529   0.630
 1225SOL     OW 4573   3.218   3.514   6.603
 1225SOL    HW1 4574   3.294   3.521   6.538
 1225SOL    HW2 4575   3.153   3.588   6.587
 1226SOL     OW 4576   2.222   6.145   1.875
 1226SOL    HW1 4577   2.202   6.138   1.973
 1226SOL    HW2 4578   2.253   6.057   1.840
 1227SOL     OW 4579   5.947   4.553   5.654
 1227SOL    HW1 4580   5.936   4.461   5.616
 1227SOL    HW2 4581   6.027   4.596   5.612
 1228SOL     OW 4582   3.221   2.144   6.110
 1228SOL    HW1 4583   3.246   2.176   6.202
 1228SOL    HW2 4584   3.122   2.133   6.105
 1229SOL     OW 4585   3.948   5.045   6.304
 1229SOL    HW1 4586   4.000   4.962   6.321
 1229SOL    HW2 4587   3.928   5.053   6.206
 1230SOL     OW 4588   4.588   6.953   2.782
 1230SOL    HW1 4589   4.644   6.983   2.859
 1230SOL    HW2 4590   4.565   0.009   2.725
 1231SOL     OW 4591   1.980   2.518   4.571
 1231SOL    HW1 4592   1.989   2.463   4.488
 1231SOL    HW2 4593   1.902   2.486   4.625
 1232SOL     OW 4594   0.394   1.952   5.794
 1232SOL    HW1 4595   0.391   1.898   5.710
 1232SOL    HW2 4596   0.339   2.035   5.782
 1233SOL     OW 4597   1.042   5.216   4.937
 1233SOL    HW1 4598   1.071   5.134   4.986
 1233SOL    HW2 4599   0.974   5.265   4.993
 1234SOL     OW 4600   6.253   2.891   6.094
 1234SOL    HW1 4601   6.249   2.937   6.006
 1234SOL    HW2 4602   6.345   2.899   6.132
 1235SOL     OW 4603   6.811   5.692   3.084
 1235SOL    HW1 4604   6.750   5.677   3.006
 1235SOL    HW2 4605   6.792   5.782   3.124
 1236SOL     OW 4606   5.026   1.529   0.027
 1236SOL    HW1 4607   4.974   1.586   6.987
 1236SOL    HW2 4608   5.111   1.575   0.052
 1237SOL     OW 4609   2.289   4.765   6.837
 1237SOL    HW1 4610   2.213   4.702   6.824
 1237SOL    HW2 4611   2.295   4.827   6.759
 1238SOL     OW 4612   1.582   1.203   0.451
 1238SOL    HW1 4613   1.522   1.240   0.523
 1238SOL    HW2 4614   1.677   1.217   0.477
 1239SOL     OW 4615   6.937   6.706   6.176
 1239SOL    HW1 4616   6.967   6.730   6.268
 1239SOL    HW2 4617   6.870   6.631   6.181
 1240SOL     OW 4618   5.183   6.189   1.418
 1240SOL    HW1 4619   5.276   6.164   1.392
 1240SOL    HW2 4620   5.170   6.174   1.517
 1241SOL     OW 4621   5.344   3.295   4.227
 1241SOL    HW1 4622   5.328   3.204   4.265
 1241SOL    HW2 4623   5.435   3.327   4.252
 1242SOL     OW 4624   0.421   3.321   1.519
 1242SOL    HW1 4625   0.341   3.303   1.576
 1242SOL    HW2 4626   0.436   3.244   1.457
 1243SOL     OW 4627   6.997   6.339   4.537
 1243SOL    HW1 4628   6.973   6.292   4.622
 1243SOL    HW2 4629   0.011   6.430   4.558
 1244SOL     OW 4630   5.946   6.665   4.948
 1244SOL    HW1 4631   5.981   6.607   4.875
 1244SOL    HW2 4632   5.895   6.741   4.909
 1245SOL     OW 4633   5.256   5.179   0.689
 1245SOL    HW1 4634   5.260   5.093   0.740
 1245SOL    HW2 4635   5.291   5.165   0.596
 1246SOL     OW 4636   2.712   6.890   1.137
 1246SOL    HW1 4637   2.639   6.879   1.070
 1246SOL    HW2 4638   2.755   6.979   1.125
 1247SOL     OW 4639   1.491   6.747   6.581
 1247SOL    HW1 4640   1.560   6.679   6.606
 1247SOL    HW2 4641   1.408   6.731   6.633
 1248SOL     OW 4642   2.268   6.877   5.223
 1248SOL    HW1 4643   2.257   6.906   5.318
 1248SOL    HW2 4644   2.340   6.931   5.180
 1249SOL     OW 4645   6.332   1.632   2.584
 1249SOL    HW1 4646   6.318   1.709   2.647
 1249SOL    HW2 4647   6.374   1.556   2.633
 1250SOL     OW 4648   5.601   5.593   4.253
 1250SOL    HW1 4649   5.509   5.604   4.216
 1250SOL    HW2 4650   5.620   5.495   4.264
 1251SOL     OW 4651   2.954   0.562   3.942
 1251SOL    HW1 4652   2.993   0.473   3.963
 1251SOL    HW2 4653   2.946   0.616   4.026
 1252SOL     OW 4654   4.326   3.531   6.041
 1252SOL    HW1 4655   4.279   3.606   5.995
 1252SOL    HW2 4656   4.410   3.509   5.992
 1253SOL     OW 4657   2.939   5.600   2.794
 1253SOL    HW1 4658   2.853   5.577   2.840
 1253SOL    HW2 4659   2.985   5.673   2.845
 1254SOL     OW 4660   0.944   2.576   2.001
 1254SOL    HW1 4661   0.960   2.500   1.938
 1254SOL    HW2 4662   0.942   2.542   2.095
 1255SOL     OW 4663   6.417   2.218   5.322
 1255SOL    HW1 4664   6.340   2.279   5.343
 1255SOL    HW2 4665   6.390   2.123   5.337
 1256SOL     OW 4666   6.815   6.485   3.461
 1256SOL    HW1 4667   6.752   6.489   3.383
 1256SOL    HW2 4668   6.774   6.427   3.533
 1257SOL     OW 4669   0.191   6.374   5.402
 1257SOL    HW1 4670   0.202   6.341   5.308
 1257SOL    HW2 4671   0.094   6.387   5.421
 1258SOL     OW 4672   1.792   5.242   3.217
 1258SOL    HW1 4673   1.772   5.200   3.305
 1258SOL    HW2 4674   1.727   5.210   3.149
 1259SOL     OW 4675   4.418   0.744   4.129
 1259SOL    HW1 4676   4.343   0.779   4.185
 1259SOL    HW2 4677   4.396   0.757   4.032
 1260SOL     OW 4678   1.988   1.290   0.126
 1260SOL    HW1 4679   2.059   1.220   0.117
 1260SOL    HW2 4680   1.987   1.346   0.043
 1261SOL     OW 4681   0.394   5.615   6.639
 1261SOL    HW1 4682   0.362   5.709   6.630
 1261SOL    HW2 4683   0.434   5.585   6.552
 1262SOL     OW 4684   5.460   4.531   1.005
 1262SOL    HW1 4685   5.367   4.567   1.008
 1262SOL    HW2 4686   5.457   4.431   1.008
 1263SOL     OW 4687   0.413   2.255   1.889
 1263SOL    HW1 4688   0.477   2.328   1.913
 1263SOL    HW2 4689   0.446   2.208   1.807
 1264SOL     OW 4690   6.100   4.581   0.477
 1264SOL    HW1 4691   6.145   4.667   0.498
 1264SOL    HW2 4692   6.112   4.518   0.554
 1265SOL     OW 4693   5.439   5.508   4.973
 1265SOL    HW1 4694   5.352   5.459   4.967
 1265SOL    HW2 4695   5.431   5.598   4.931
 1266SOL     OW 4696   0.598   1.338   4.313
 1266SOL    HW1 4697   0.516   1.345   4.370
 1266SOL    HW2 4698   0.619   1.427   4.274
 1267SOL     OW 4699   5.194   0.722   1.006
 1267SOL    HW1 4700   5.261   0.766   0.946
 1267SOL    HW2 4701   5.220   0.626   1.019
 1268SOL     OW 4702   3.284   2.642   6.922
 1268SOL    HW1 4703   3.262   2.546   6.938
 1268SOL    HW2 4704   3.216   2.682   6.860
 1269SOL     OW 4705   6.012   3.835   4.105
 1269SOL    HW1 4706   6.037   3.822   4.010
 1269SOL    HW2 4707   5.981   3.747   4.143
 1270SOL     OW 4708   1.357   3.817   3.066
 1270SOL    HW1 4709   1.376   3.764   3.149
 1270SOL    HW2 4710   1.372   3.759   2.986
 1271SOL     OW 4711   3.228   1.719   2.502
 1271SOL    HW1 4712   3.208   1.697   2.407
 1271SOL    HW2 4713   3.238   1.818   2.512
 1272SOL     OW 4714   5.483   4.365   6.865
 1272SOL    HW1 4715   5.418   4.395   6.795
 1272SOL    HW2 4716   5.439   4.302   6.928
 1273SOL     OW 4717   0.472   3.504   6.839
 1273SOL    HW1 4718   0.536   3.557   6.783
 1273SOL    HW2 4719   0.518   3.476   6.923
 1274SOL     OW 4720   6.841   4.475   1.062
 1274SOL    HW1 4721   6.767   4.510   1.120
 1274SOL    HW2 4722   6.911   4.433   1.120
 1275SOL     OW 4723   4.008   1.384   4.264
 1275SOL    HW1 4724   4.069   1.398   4.186
 1275SOL    HW2 4725   3.918   1.421   4.242
 1276SOL     OW 4726   6.323   5.177   5.097
 1276SOL    HW1 4727   6.277   5.130   5.022
 1276SOL    HW2 4728   6.398   5.232   5.060
 1277SOL     OW 4729   1.513   5.853   5.926
 1277SOL    HW1 4730   1.581   5.916   5.963
 1277SOL    HW2 4731   1.430   5.903   5.903
 1278SOL     OW 4732   1.377   0.202   5.079
 1278SOL    HW1 4733   1.307   0.272   5.066
 1278SOL    HW2 4734   1.467   0.241   5.059
 1279SOL     OW 4735   1.958   4.759   0.026
 1279SOL    HW1 4736   1.988   4.848   7.013
 1279SOL    HW2 4737   1.935   4.699   6.972
 1280SOL     OW 4738   4.593   6.965   4.192
 1280SOL    HW1 4739   4.683   6.993   4.158
 1280SOL    HW2 4740   4.576   6.870   4.164
 1281SOL     OW 4741   2.744   6.238   3.021
 1281SOL    HW1 4742   2.815   6.254   3.089
 1281SOL    HW2 4743   2.717   6.142   3.024
 1282SOL     OW 4744   6.487   2.649   6.874
 1282SOL    HW1 4745   6.503   2.689   6.964
 1282SOL    HW2 4746   6.458   2.720   6.810
 1283SOL     OW 4747   6.617   3.564   4.924
 1283SOL    HW1 4748   6.594   3.580   4.828
 1283SOL    HW2 4749   6.690   3.497   4.930
 1284SOL     OW 4750   4.602   2.255   2.029
 1284SOL    HW1 4751   4.674   2.290   1.969
 1284SOL    HW2 4752   4.641   2.184   2.089
 1285SOL     OW 4753   4.402   1.892   6.219
 1285SOL    HW1 4754   4.469   1.960   6.249
 1285SOL    HW2 4755   4.311   1.917   6.254
 1286SOL     OW 4756   4.193   3.530   1.151
 1286SOL    HW1 4757   4.232   3.583   1.226
 1286SOL    HW2 4758   4.117   3.474   1.186
 1287SOL     OW 4759   5.306   4.546   5.138
 1287SOL    HW1 4760   5.226   4.514   5.087
 1287SOL    HW2 4761   5.374   4.580   5.073
 1288SOL     OW 4762   3.598   3.493   6.538
 1288SOL    HW1 4763   3.602   3.538   6.627
 1288SOL    HW2 4764   3.515   3.521   6.490
 1289SOL     OW 4765   0.162   6.958   1.054
 1289SOL    HW1 4766   0.262   6.956   1.048
 1289SOL    HW2 4767   0.123   6.910   0.976
 1290SOL     OW 4768   1.066   6.515   0.084
 1290SOL    HW1 4769   1.053   6.607   0.121
 1290SOL    HW2 4770   1.160   6.485   0.101
 1291SOL     OW 4771   0.820   4.148   3.823
 1291SOL    HW1 4772   0.798   4.192   3.736
 1291SOL    HW2 4773   0.775   4.060   3.829
 1292SOL     OW 4774   0.589   5.836   2.520
 1292SOL    HW1 4775   0.536   5.915   2.490
 1292SOL    HW2 4776   0.563   5.756   2.465
 1293SOL     OW 4777   2.177   2.347   6.662
 1293SOL    HW1 4778   2.144   2.274   6.723
 1293SOL    HW2 4779   2.255   2.393   6.705
 1294SOL     OW 4780   0.122   3.904   5.820
 1294SOL    HW1 4781   0.129   3.809   5.852
 1294SOL    HW2 4782   0.063   3.955   5.882
 1295SOL     OW 4783   6.915   3.571   1.307
 1295SOL    HW1 4784   6.825   3.530   1.292
 1295SOL    HW2 4785   6.912   3.668   1.282
 1296SOL     OW 4786   4.026   6.364   5.262
 1296SOL    HW1 4787   4.070   6.329   5.180
 1296SOL    HW2 4788   4.096   6.397   5.326
 1297SOL     OW 4789   0.669   0.039   1.234
 1297SOL    HW1 4790   0.725   0.122   1.236
 1297SOL    HW2 4791   0.707   6.995   1.297
 1298SOL     OW 4792   4.911   5.424   3.726
 1298SOL    HW1 4793   4.955   5.339   3.754
 1298SOL    HW2 4794   4.815   5.407   3.705
 1299SOL     OW 4795   2.358   2.672   3.601
 1299SOL    HW1 4796   2.291   2.696   3.531
 1299SOL    HW2 4797   2.345   2.729   3.682
 1300SOL     OW 4798   1.846   3.270   0.538
 1300SOL    HW1 4799   1.779   3.200   0.562
 1300SOL    HW2 4800   1.820   3.313   0.452
 1301SOL     OW 4801   0.311   6.382   1.779
 1301SOL    HW1 4802   0.234   6.362   1.840
 1301SOL    HW2 4803   0.345   6.474   1.798
 1302SOL     OW 4804   4.888   6.671   5.240
 1302SOL    HW1 4805   4.857   6.701   5.150
 1302SOL    HW2 4806   4.863   6.575   5.254
 1303SOL     OW 4807   4.139   1.561   1.697
 1303SOL    HW1 4808   4.085   1.496   1.749
 1303SOL    HW2 4809   4.079   1.614   1.636
 1304SOL     OW 4810   1.756   0.440   0.390
 1304SOL    HW1 4811   1.791   0.370   0.452
 1304SOL    HW2 4812   1.831   0.474   0.333
 1305SOL     OW 4813   5.443   3.722   0.492
 1305SOL    HW1 4814   5.363   3.678   0.533
 1305SOL    HW2 4815   5.526   3.688   0.537
 1306SOL     OW 4816   1.186   5.972   3.957
 1306SOL    HW1 4817   1.236   5.921   3.886
 1306SOL    HW2 4818   1.220   6.066   3.960
 1307SOL     OW 4819   2.179   4.102   3.584
 1307SOL    HW1 4820   2.115   4.143   3.519
 1307SOL    HW2 4821   2.237   4.036   3.537
 1308SOL     OW 4822   6.297   0.292   5.673
 1308SOL    HW1 4823   6.259   0.324   5.586
 1308SOL    HW2 4824   6.225   0.291   5.742
 1309SOL     OW 4825   5.670   5.265   5.285
 1309SOL    HW1 4826   5.743   5.266   5.354
 1309SOL    HW2 4827   5.648   5.171   5.260
 1310SOL     OW 4828   6.838   3.576   3.896
 1310SOL    HW1 4829   6.842   3.482   3.927
 1310SOL    HW2 4830   6.787   3.581   3.810
 1311SOL     OW 4831   6.482   5.565   6.018
 1311SOL    HW1 4832   6.577   5.533   6.022
 1311SOL    HW2 4833   6.442   5.539   5.930
 1312SOL     OW 4834   1.800   6.610   0.089
 1312SOL    HW1 4835   1.787   6.696   0.137
 1312SOL    HW2 4836   1.718   6.553   0.099
 1313SOL     OW 4837   0.167   4.704   2.564
 1313SOL    HW1 4838   0.238   4.670   2.625
 1313SOL    HW2 4839   0.121   4.781   2.606
 1314SOL     OW 4840   4.061   1.819   4.743
 1314SOL    HW1 4841   4.070   1.722   4.764
 1314SOL    HW2 4842   4.016   1.831   4.654
 1315SOL     OW 4843   0.271   2.061   2.410
 1315SOL    HW1 4844   0.249   2.022   2.320
 1315SOL    HW2 4845   0.343   2.007   2.453
 1316SOL     OW 4846   3.271   6.676   5.760
 1316SOL    HW1 4847   3.227   6.710   5.843
 1316SOL    HW2 4848   3.243   6.732   5.682
 1317SOL     OW 4849   2.060   4.191   6.130
 1317SOL    HW1 4850   2.081   4.206   6.226
 1317SOL    HW2 4851   1.961   4.185   6.118
 1318SOL     OW 4852   0.856   2.625   1.062
 1318SOL    HW1 4853   0.860   2.652   1.158
 1318SOL    HW2 4854   0.764   2.593   1.040
 1319SOL     OW 4855   6.764   6.260   1.347
 1319SOL    HW1 4856   6.847   6.232   1.396
 1319SOL    HW2 4857   6.700   6.183   1.344
 1320SOL     OW 4858   3.923   4.459   6.504
 1320SOL    HW1 4859   3.953   4.527   6.571
 1320SOL    HW2 4860   3.824   4.467   6.491
 1321SOL     OW 4861   5.276   2.908   6.339
 1321SOL    HW1 4862   5.294   2.987   6.398
 1321SOL    HW2 4863   5.290   2.824   6.391
 1322SOL     OW 4864   4.163   1.721   4.095
 1322SOL    HW1 4865   4.150   1.636   4.145
 1322SOL    HW2 4866   4.075   1.766   4.080
 1323SOL     OW 4867   3.915   6.661   6.241
 1323SOL    HW1 4868   3.856   6.740   6.224
 1323SOL    HW2 4869   3.961   6.673   6.329
 1324SOL     OW 4870   0.303   3.471   0.222
 1324SOL    HW1 4871   0.361   3.501   0.299
 1324SOL    HW2 4872   0.299   3.544   0.154
 1325SOL     OW 4873   2.675   6.280   4.620
 1325SOL    HW1 4874   2.743   6.348   4.644
 1325SOL    HW2 4875   2.711   6.188   4.639
 1326SOL     OW 4876   5.143   3.195   5.226
 1326SOL    HW1 4877   5.043   3.201   5.221
 1326SOL    HW2 4878   5.180   3.281   5.261
 1327SOL     OW 4879   1.227   6.122   1.152
 1327SOL    HW1 4880   1.246   6.024   1.146
 1327SOL    HW2 4881   1.184   6.152   1.067
 1328SOL     OW 4882   2.720   2.930   0.895
 1328SOL    HW1 4883   2.726   3.005   0.962
 1328SOL    HW2 4884   2.680   2.849   0.939
 1329SOL     OW 4885   0.877   1.913   1.962
 1329SOL    HW1 4886   0.860   1.817   1.937
 1329SOL    HW2 4887   0.790   1.960   1.974
 1330SOL     OW 4888   1.385   1.555   1.419
 1330SOL    HW1 4889   1.352   1.640   1.459
 1330SOL    HW2 4890   1.333   1.478   1.456
 1331SOL     OW 4891   5.091   3.032   3.026
 1331SOL    HW1 4892   5.061   3.023   2.931
 1331SOL    HW2 4893   5.018   3.003   3.087
 1332SOL     OW 4894   2.816   6.970   6.971
 1332SOL    HW1 4895   2.824   6.892   6.909
 1332SOL    HW2 4896   2.721   6.978   7.002
 1333SOL     OW 4897   2.930   3.408   3.718
 1333SOL    HW1 4898   2.980   3.338   3.666
 1333SOL    HW2 4899   2.929   3.382   3.815
 1334SOL     OW 4900   6.317   1.541   3.738
 1334SOL    HW1 4901   6.331   1.611   3.808
 1334SOL    HW2 4902   6.393   1.543   3.673
 1335SOL     OW 4903   2.572   1.914   1.787
 1335SOL    HW1 4904   2.474   1.906   1.767
 1335SOL    HW2 4905   2.608   1.997   1.744
 1336SOL     OW 4906   2.656   2.075   5.105
 1336SOL    HW1 4907   2.739   2.111   5.147
 1336SOL    HW2 4908   2.579   2.135   5.126
 1337SOL     OW 4909   1.227   1.348   3.132
 1337SOL    HW1 4910   1.311   1.306   3.166
 1337SOL    HW2 4911   1.170   1.278   3.088
 1338SOL     OW 4912   6.956   2.711   4.524
 1338SOL    HW1 4913   6.966   2.642   4.453
 1338SOL    HW2 4914   6.859   2.728   4.540
 1339SOL     OW 4915   6.237   1.960   0.067
 1339SOL    HW1 4916   6.294   1.893   0.114
 1339SOL    HW2 4917   6.151   1.971   0.116
 1340SOL     OW 4918   5.717   2.190   2.578
 1340SOL    HW1 4919   5.664   2.257   2.631
 1340SOL    HW2 4920   5.722   2.104   2.629
 1341SOL     OW 4921   4.070   6.514   6.699
 1341SOL    HW1 4922   4.144   6.538   6.636
 1341SOL    HW2 4923   4.089   6.552   6.789
 1342SOL     OW 4924   3.091   5.971   5.947
 1342SOL    HW1 4925   3.053   6.063   5.946
 1342SOL    HW2 4926   3.020   5.905   5.969
 1343SOL     OW 4927   5.211   5.121   2.673
 1343SOL    HW1 4928   5.156   5.110   2.591
 1343SOL    HW2 4929   5.238   5.217   2.683
 1344SOL     OW 4930   0.422   6.137   4.734
 1344SOL    HW1 4931   0.480   6.175   4.661
 1344SOL    HW2 4932   0.334   6.108   4.694
 1345SOL     OW 4933   0.759   6.037   2.745
 1345SOL    HW1 4934   0.685   6.010   2.683
 1345SOL    HW2 4935   0.745   5.993   2.834
 1346SOL     OW 4936   1.308   5.857   4.501
 1346SOL    HW1 4937   1.286   5.951   4.474
 1346SOL    HW2 4938   1.337   5.805   4.421
 1347SOL     OW 4939   0.265   6.881   5.840
 1347SOL    HW1 4940   0.332   6.950   5.868
 1347SOL    HW2 4941   0.202   6.922   5.773
 1348SOL     OW 4942   5.863   6.598   4.048
 1348SOL    HW1 4943   5.926   6.651   4.104
 1348SOL    HW2 4944   5.909   6.571   3.963
 1349SOL     OW 4945   5.243   3.058   5.511
 1349SOL    HW1 4946   5.210   2.966   5.489
 1349SOL    HW2 4947   5.335   3.052   5.550
 1350SOL     OW 4948   5.085   5.418   5.433
 1350SOL    HW1 4949   5.137   5.396   5.350
 1350SOL    HW2 4950   5.139   5.393   5.513
 1351SOL     OW 4951   5.979   1.665   2.501
 1351SOL    HW1 4952   6.000   1.619   2.587
 1351SOL    HW2 4953   5.910   1.612   2.452
 1352SOL     OW 4954   6.455   5.904   4.091
 1352SOL    HW1 4955   6.537   5.960   4.102
 1352SOL    HW2 4956   6.447   5.841   4.168
 1353SOL     OW 4957   0.690   2.855   0.246
 1353SOL    HW1 4958   0.619   2.908   0.291
 1353SOL    HW2 4959   0.734   2.795   0.312
 1354SOL     OW 4960   0.488   3.972   1.640
 1354SOL    HW1 4961   0.432   4.015   1.711
 1354SOL    HW2 4962   0.435   3.964   1.556
 1355SOL     OW 4963   5.770   2.879   4.315
 1355SOL    HW1 4964   5.722   2.834   4.390
 1355SOL    HW2 4965   5.816   2.961   4.350
 1356SOL     OW 4966   3.206   3.392   2.435
 1356SOL    HW1 4967   3.114   3.361   2.459
 1356SOL    HW2 4968   3.266   3.313   2.426
 1357SOL     OW 4969   0.404   4.353   6.713
 1357SOL    HW1 4970   0.459   4.433   6.737
 1357SOL    HW2 4971   0.336   4.337   6.783
 1358SOL     OW 4972   4.828   6.803   6.538
 1358SOL    HW1 4973   4.767   6.830   6.464
 1358SOL    HW2 4974   4.895   6.736   6.504
 1359SOL     OW 4975   5.837   4.990   2.859
 1359SOL    HW1 4976   5.922   5.028   2.894
 1359SOL    HW2 4977   5.838   4.993   2.759
 1360SOL     OW 4978   2.632   3.640   0.119
 1360SOL    HW1 4979   2.566   3.565   0.132
 1360SOL    HW2 4980   2.696   3.641   0.197
 1361SOL     OW 4981   6.247   4.478   5.087
 1361SOL    HW1 4982   6.194   4.416   5.145
 1361SOL    HW2 4983   6.293   4.426   5.015
 1362SOL     OW 4984   3.622   3.572   3.666
 1362SOL    HW1 4985   3.535   3.591   3.712
 1362SOL    HW2 4986   3.692   3.553   3.734
 1363SOL     OW 4987   6.403   5.389   3.386
 1363SOL    HW1 4988   6.361   5.331   3.316
 1363SOL    HW2 4989   6.370   5.362   3.477
 1364SOL     OW 4990   5.403   4.339   1.367
 1364SOL    HW1 4991   5.482   4.400   1.367
 1364SOL    HW2 4992   5.321   4.391   1.344
 1365SOL     OW 4993   0.288   4.160   6.392
 1365SOL    HW1 4994   0.260   4.102   6.315
 1365SOL    HW2 4995   0.260   4.254   6.375
 1366SOL     OW 4996   1.448   5.935   0.405
 1366SOL    HW1 4997   1.479   6.005   0.341
 1366SOL    HW2 4998   1.526   5.885   0.441
 1367SOL     OW 4999   2.599   0.308   3.459
 1367SOL    HW1 5000   2.674   0.253   3.494
 1367SOL    HW2 5001   2.519   0.250   3.444
 1368SOL     OW 5002   6.001   0.195   4.402
 1368SOL    HW1 5003   5.999   0.256   4.323
 1368SOL    HW2 5004   6.075   0.221   4.463
 1369SOL     OW 5005   2.179   6.043   2.111
 1369SOL    HW1 5006   2.080   6.041   2.102
 1369SOL    HW2 5007   2.210   5.965   2.165
 1370SOL     OW 5008   3.691   0.922   0.941
 1370SOL    HW1 5009   3.706   0.832   0.983
 1370SOL    HW2 5010   3.594   0.943   0.940
 1371SOL     OW 5011   5.559   1.769   4.005
 1371SOL    HW1 5012   5.489   1.832   4.039
 1371SOL    HW2 5013   5.641   1.776   4.063
 1372SOL     OW 5014   1.324   2.899   0.569
 1372SOL    HW1 5015   1.330   2.873   0.473
 1372SOL    HW2 5016   1.413   2.887   0.613
 1373SOL     OW 5017   5.761   3.704   0.005
 1373SOL    HW1 5018   5.799   3.729   0.094
 1373SOL    HW2 5019   5.715   3.616   0.012
 1374SOL     OW 5020   4.558   2.289   0.490
 1374SOL    HW1 5021   4.651   2.324   0.490
 1374SOL    HW2 5022   4.528   2.273   0.396
 1375SOL     OW 5023   6.700   4.082   6.413
 1375SOL    HW1 5024   6.772   4.016   6.432
 1375SOL    HW2 5025   6.633   4.080   6.487
 1376SOL     OW 5026   5.085   3.467   3.972
 1376SOL    HW1 5027   5.002   3.479   4.025
 1376SOL    HW2 5028   5.070   3.399   3.900
 1377SOL     OW 5029   6.729   3.848   5.116
 1377SOL    HW1 5030   6.715   3.861   5.017
 1377SOL    HW2 5031   6.780   3.764   5.131
 1378SOL     OW 5032   6.491   1.344   4.899
 1378SOL    HW1 5033   6.583   1.338   4.936
 1378SOL    HW2 5034   6.437   1.266   4.930
 1379SOL     OW 5035   3.588   6.843   2.113
 1379SOL    HW1 5036   3.615   6.927   2.065
 1379SOL    HW2 5037   3.490   6.845   2.130
 1380SOL     OW 5038   0.713   0.266   2.255
 1380SOL    HW1 5039   0.748   0.230   2.342
 1380SOL    HW2 5040   0.629   0.317   2.271
 1381SOL     OW 5041   5.299   2.795   6.660
 1381SOL    HW1 5042   5.283   2.880   6.710
 1381SOL    HW2 5043   5.250   2.720   6.705
 1382SOL     OW 5044   4.637   4.658   0.519
 1382SOL    HW1 5045   4.632   4.559   0.503
 1382SOL    HW2 5046   4.680   4.702   0.441
 1383SOL     OW 5047   0.700   0.545   0.508
 1383SOL    HW1 5048   0.651   0.632   0.500
 1383SOL    HW2 5049   0.690   0.493   0.423
 1384SOL     OW 5050   3.677   1.008   2.566
 1384SOL    HW1 5051   3.597   0.987   2.623
 1384SOL    HW2 5052   3.739   1.067   2.616
 1385SOL     OW 5053   0.909   3.085   2.570
 1385SOL    HW1 5054   0.953   3.136   2.496
 1385SOL    HW2 5055   0.879   3.149   2.641
 1386SOL     OW 5056   2.192   1.249   4.675
 1386SOL    HW1 5057   2.161   1.173   4.733
 1386SOL    HW2 5058   2.143   1.332   4.701
 1387SOL     OW 5059   3.914   6.893   3.133
 1387SOL    HW1 5060   3.820   6.927   3.137
 1387SOL    HW2 5061   3.913   6.793   3.136
 1388SOL     OW 5062   0.485   6.332   3.697
 1388SOL    HW1 5063   0.431   6.258   3.737
 1388SOL    HW2 5064   0.424   6.402   3.660
 1389SOL     OW 5065   0.310   1.183   3.767
 1389SOL    HW1 5066   0.212   1.199   3.755
 1389SOL    HW2 5067   0.337   1.209   3.859
 1390SOL     OW 5068   4.608   2.103   6.270
 1390SOL    HW1 5069   4.648   2.109   6.362
 1390SOL    HW2 5070   4.578   2.193   6.241
 1391SOL     OW 5071   6.279   0.732   5.712
 1391SOL    HW1 5072   6.300   0.666   5.783
 1391SOL    HW2 5073   6.309   0.823   5.741
 1392SOL     OW 5074   5.221   5.372   5.666
 1392SOL    HW1 5075   5.319   5.359   5.682
 1392SOL    HW2 5076   5.187   5.442   5.729
 1393SOL     OW 5077   6.029   3.057   6.754
 1393SOL    HW1 5078   6.031   3.067   6.655
 1393SOL    HW2 5079   5.952   3.108   6.792
 1394SOL     OW 5080   3.776   0.442   3.601
 1394SOL    HW1 5081   3.770   0.343   3.591
 1394SOL    HW2 5082   3.848   0.465   3.666
 1395SOL     OW 5083   0.974   3.718   3.097
 1395SOL    HW1 5084   1.026   3.640   3.061
 1395SOL    HW2 5085   0.960   3.706   3.195
 1396SOL     OW 5086   1.777   0.076   3.205
 1396SOL    HW1 5087   1.766   0.126   3.291
 1396SOL    HW2 5088   1.696   0.020   3.188
 1397SOL     OW 5089   0.508   6.524   4.877
 1397SOL    HW1 5090   0.536   6.541   4.971
 1397SOL    HW2 5091   0.569   6.572   4.814
 1398SOL     OW 5092   0.956   1.853   0.441
 1398SOL    HW1 5093   0.913   1.941   0.418
 1398SOL    HW2 5094   1.046   1.848   0.398
 1399SOL     OW 5095   4.512   0.601   0.472
 1399SOL    HW1 5096   4.447   0.677   0.472
 1399SOL    HW2 5097   4.515   0.560   0.381
 1400SOL     OW 5098   6.206   1.018   4.444
 1400SOL    HW1 5099   6.248   1.006   4.534
 1400SOL    HW2 5100   6.277   1.032   4.376
 1401SOL     OW 5101   6.040   6.724   4.495
 1401SOL    HW1 5102   6.020   6.696   4.589
 1401SOL    HW2 5103   5.996   6.812   4.476
 1402SOL     OW 5104   5.756   4.395   6.779
 1402SOL    HW1 5105   5.657   4.376   6.777
 1402SOL    HW2 5106   5.782   4.427   6.870
 1403SOL     OW 5107   2.258   3.032   0.293
 1403SOL    HW1 5108   2.197   3.000   0.221
 1403SOL    HW2 5109   2.332   3.086   0.253
 1404SOL     OW 5110   4.332   6.894   1.032
 1404SOL    HW1 5111   4.267   6.864   1.102
 1404SOL    HW2 5112   4.307   6.853   0.944
 1405SOL     OW 5113   2.112   3.458   0.933
 1405SOL    HW1 5114   2.098   3.373   0.984
 1405SOL    HW2 5115   2.060   3.455   0.847
 1406SOL     OW 5116   2.193   4.308   1.136
 1406SOL    HW1 5117   2.218   4.281   1.044
 1406SOL    HW2 5118   2.177   4.407   1.139
 1407SOL     OW 5119   1.109   3.496   3.038
 1407SOL    HW1 5120   1.175   3.455   3.101
 1407SOL    HW2 5121   1.116   3.451   2.949
 1408SOL     OW 5122   5.737   6.125   0.093
 1408SOL    HW1 5123   5.834   6.143   0.110
 1408SOL    HW2 5124   5.724   6.103   7.019
 1409SOL     OW 5125   6.938   0.339   5.737
 1409SOL    HW1 5126   6.971   0.432   5.724
 1409SOL    HW2 5127   7.015   0.279   5.760
 1410SOL     OW 5128   2.780   3.701   6.897
 1410SOL    HW1 5129   2.714   3.681   6.969
 1410SOL    HW2 5130   2.864   3.651   6.915
 1411SOL     OW 5131   3.518   6.133   6.369
 1411SOL    HW1 5132   3.492   6.050   6.320
 1411SOL    HW2 5133   3.441   6.197   6.369
 1412SOL     OW 5134   0.423   3.906   1.149
 1412SOL    HW1 5135   0.363   3.922   1.071
 1412SOL    HW2 5136   0.508   3.865   1.118
 1413SOL     OW 5137   1.551   1.870   4.529
 1413SOL    HW1 5138   1.525   1.966   4.525
 1413SOL    HW2 5139   1.471   1.814   4.551
 1414SOL     OW 5140   1.621   2.769   1.487
 1414SOL    HW1 5141   1.713   2.752   1.451
 1414SOL    HW2 5142   1.569   2.683   1.487
 1415SOL     OW 5143   2.944   2.286   4.652
 1415SOL    HW1 5144   2.902   2.292   4.743
 1415SOL    HW2 5145   2.894   2.345   4.589
 1416SOL     OW 5146   4.513   0.547   4.782
 1416SOL    HW1 5147   4.450   0.511   4.713
 1416SOL    HW2 5148   4.522   0.481   4.856
 1417SOL     OW 5149   3.729   3.038   5.924
 1417SOL    HW1 5150   3.727   2.970   5.998
 1417SOL    HW2 5151   3.641   3.085   5.920
 1418SOL     OW 5152   3.044   3.720   0.858
 1418SOL    HW1 5153   3.049   3.798   0.795
 1418SOL    HW2 5154   3.122   3.659   0.842
 1419SOL     OW 5155   1.766   5.404   4.048
 1419SOL    HW1 5156   1.768   5.496   4.008
 1419SOL    HW2 5157   1.738   5.411   4.144
 1420SOL     OW 5158   4.274   5.423   3.058
 1420SOL    HW1 5159   4.184   5.453   3.027
 1420SOL    HW2 5160   4.270   5.398   3.155
 1421SOL     OW 5161   1.108   4.167   4.301
 1421SOL    HW1 5162   1.120   4.072   4.331
 1421SOL    HW2 5163   1.119   4.172   4.202
 1422SOL     OW 5164   2.338   4.838   6.065
 1422SOL    HW1 5165   2.319   4.872   6.157
 1422SOL    HW2 5166   2.389   4.907   6.014
 1423SOL     OW 5167   4.234   1.969   4.890
 1423SOL    HW1 5168   4.156   1.915   4.858
 1423SOL    HW2 5169   4.308   1.963   4.823
 1424SOL     OW 5170   6.039   3.657   6.730
 1424SOL    HW1 5171   6.042   3.755   6.712
 1424SOL    HW2 5172   6.073   3.608   6.650
 1425SOL     OW 5173   2.727   6.033   4.758
 1425SOL    HW1 5174   2.649   5.994   4.806
 1425SOL    HW2 5175   2.742   5.982   4.673
 1426SOL     OW 5176   1.915   2.135   6.113
 1426SOL    HW1 5177   1.996   2.186   6.084
 1426SOL    HW2 5178   1.928   2.038   6.095
 1427SOL     OW 5179   0.510   0.700   3.800
 1427SOL    HW1 5180   0.598   0.730   3.835
 1427SOL    HW2 5181   0.477   0.765   3.732
 1428SOL     OW 5182   0.276   2.232   1.107
 1428SOL    HW1 5183   0.237   2.177   1.180
 1428SOL    HW2 5184   0.276   2.328   1.133
 1429SOL     OW 5185   5.868   1.536   6.731
 1429SOL    HW1 5186   5.874   1.485   6.645
 1429SOL    HW2 5187   5.881   1.473   6.808
 1430SOL     OW 5188   2.143   3.950   4.658
 1430SOL    HW1 5189   2.165   3.895   4.738
 1430SOL    HW2 5190   2.077   3.902   4.600
 1431SOL     OW 5191   2.726   2.624   6.000
 1431SOL    HW1 5192   2.811   2.578   6.028
 1431SOL    HW2 5193   2.737   2.723   6.012
 1432SOL     OW 5194   2.301   1.314   0.901
 1432SOL    HW1 5195   2.227   1.308   0.834
 1432SOL    HW2 5196   2.343   1.404   0.896
 1433SOL     OW 5197   3.465   0.153   3.640
 1433SOL    HW1 5198   3.398   0.195   3.579
 1433SOL    HW2 5199   3.420   0.124   3.725
 1434SOL     OW 5200   6.664   1.536   6.360
 1434SOL    HW1 5201   6.680   1.461   6.424
 1434SOL    HW2 5202   6.641   1.499   6.270
 1435SOL     OW 5203   0.117   0.606   3.893
 1435SOL    HW1 5204   0.060   0.573   3.969
 1435SOL    HW2 5205   0.214   0.593   3.917
 1436SOL     OW 5206   5.780   3.539   0.287
 1436SOL    HW1 5207   5.842   3.468   0.321
 1436SOL    HW2 5208   5.811   3.629   0.317
 1437SOL     OW 5209   3.594   1.049   5.258
 1437SOL    HW1 5210   3.614   0.995   5.176
 1437SOL    HW2 5211   3.522   1.114   5.238
 1438SOL     OW 5212   2.921   1.287   1.689
 1438SOL    HW1 5213   2.930   1.381   1.655
 1438SOL    HW2 5214   2.928   1.288   1.789
 1439SOL     OW 5215   0.769   5.635   0.570
 1439SOL    HW1 5216   0.832   5.559   0.556
 1439SOL    HW2 5217   0.720   5.655   0.485
 1440SOL     OW 5218   3.386   3.129   4.734
 1440SOL    HW1 5219   3.482   3.101   4.740
 1440SOL    HW2 5220   3.335   3.063   4.679
 1441SOL     OW 5221   6.569   3.440   3.448
 1441SOL    HW1 5222   6.495   3.394   3.497
 1441SOL    HW2 5223   6.647   3.378   3.440
 1442SOL     OW 5224   5.811   4.895   0.367
 1442SOL    HW1 5225   5.722   4.876   0.326
 1442SOL    HW2 5226   5.801   4.961   0.441
 1443SOL     OW 5227   0.834   0.995   3.917
 1443SOL    HW1 5228   0.888   0.993   4.001
 1443SOL    HW2 5229   0.830   1.088   3.882
 1444SOL     OW 5230   4.366   5.776   2.556
 1444SOL    HW1 5231   4.300   5.820   2.617
 1444SOL    HW2 5232   4.332   5.685   2.531
 1445SOL     OW 5233   0.675   2.966   1.683
 1445SOL    HW1 5234   0.712   3.059   1.677
 1445SOL    HW2 5235   0.575   2.970   1.685
 1446SOL     OW 5236   5.319   2.797   0.031
 1446SOL    HW1 5237   5.233   2.782   7.005
 1446SOL    HW2 5238   5.323   2.737   0.111
 1447SOL     OW 5239   6.613   0.249   5.089
 1447SOL    HW1 5240   6.514   0.239   5.098
 1447SOL    HW2 5241   6.652   0.277   5.176
 1448SOL     OW 5242   5.834   1.548   0.631
 1448SOL    HW1 5243   5.751   1.597   0.603
 1448SOL    HW2 5244   5.827   1.524   0.727
 1449SOL     OW 5245   5.907   6.452   0.228
 1449SOL    HW1 5246   5.863   6.404   0.303
 1449SOL    HW2 5247   5.875   6.415   0.141
 1450SOL     OW 5248   0.172   2.023   2.137
 1450SOL    HW1 5249   0.227   1.962   2.080
 1450SOL    HW2 5250   0.152   2.107   2.086
 1451SOL     OW 5251   3.107   0.933   2.850
 1451SOL    HW1 5252   3.068   0.944   2.941
 1451SOL    HW2 5253   3.034   0.938   2.782
 1452SOL     OW 5254   5.089   1.803   4.749
 1452SOL    HW1 5255   5.096   1.902   4.764
 1452SOL    HW2 5256   5.113   1.781   4.655
 1453SOL     OW 5257   5.987   3.811   4.916
 1453SOL    HW1 5258   5.933   3.841   4.837
 1453SOL    HW2 5259   5.981   3.880   4.988
 1454SOL     OW 5260   6.112   3.427   2.176
 1454SOL    HW1 5261   6.020   3.401   2.205
 1454SOL    HW2 5262   6.108   3.513   2.125
 1455SOL     OW 5263   0.985   0.407   1.939
 1455SOL    HW1 5264   0.974   0.325   1.882
 1455SOL    HW2 5265   1.079   0.440   1.933
 1456SOL     OW 5266   6.607   6.490   5.318
 1456SOL    HW1 5267   6.600   6.561   5.248
 1456SOL    HW2 5268   6.641   6.406   5.276
 1457SOL     OW 5269   1.608   0.671   2.037
 1457SOL    HW1 5270   1.645   0.764   2.029
 1457SOL    HW2 5271   1.563   0.645   1.952
 1458SOL     OW 5272   5.467   6.611   4.556
 1458SOL    HW1 5273   5.528   6.673   4.506
 1458SOL    HW2 5274   5.520   6.558   4.622
 1459SOL     OW 5275   2.790   4.255   6.596
 1459SOL    HW1 5276   2.781   4.352   6.574
 1459SOL    HW2 5277   2.724   4.230   6.667
 1460SOL     OW 5278   6.701   5.645   5.624
 1460SOL    HW1 5279   6.684   5.553   5.660
 1460SOL    HW2 5280   6.798   5.668   5.637
 1461SOL     OW 5281   6.673   4.712   3.527
 1461SOL    HW1 5282   6.699   4.754   3.440
 1461SOL    HW2 5283   6.755   4.699   3.583
 1462SOL     OW 5284   6.219   1.760   6.842
 1462SOL    HW1 5285   6.179   1.837   6.890
 1462SOL    HW2 5286   6.305   1.787   6.799
 1463SOL     OW 5287   0.119   6.404   6.046
 1463SOL    HW1 5288   0.031   6.398   6.093
 1463SOL    HW2 5289   0.129   6.496   6.006
 1464SOL     OW 5290   6.949   0.505   0.969
 1464SOL    HW1 5291   0.026   0.509   0.962
 1464SOL    HW2 5292   6.924   0.472   1.060
 1465SOL     OW 5293   1.444   1.279   3.288
 1465SOL    HW1 5294   1.522   1.302   3.230
 1465SOL    HW2 5295   1.445   1.337   3.369
 1466SOL     OW 5296   0.436   7.021   3.213
 1466SOL    HW1 5297   0.481   6.985   3.131
 1466SOL    HW2 5298   0.437   6.951   3.284
 1467SOL     OW 5299   1.980   7.015   1.980
 1467SOL    HW1 5300   2.055   0.050   1.948
 1467SOL    HW2 5301   2.009   6.919   1.977
 1468SOL     OW 5302   5.626   6.000   2.888
 1468SOL    HW1 5303   5.712   5.965   2.925
 1468SOL    HW2 5304   5.634   6.099   2.874
 1469SOL     OW 5305   0.437   1.041   3.345
 1469SOL    HW1 5306   0.341   1.057   3.325
 1469SOL    HW2 5307   0.487   1.025   3.259
 1470SOL     OW 5308   0.979   0.907   2.459
 1470SOL    HW1 5309   1.009   0.822   2.416
 1470SOL    HW2 5310   1.046   0.935   2.528
 1471SOL     OW 5311   0.899   0.671   6.874
 1471SOL    HW1 5312   0.968   0.603   6.850
 1471SOL    HW2 5313   0.858   0.708   6.791
 1472SOL     OW 5314   4.163   5.564   4.682
 1472SOL    HW1 5315   4.209   5.475   4.683
 1472SOL    HW2 5316   4.218   5.629   4.629
 1473SOL     OW 5317   5.870   6.121   3.893
 1473SOL    HW1 5318   5.945   6.187   3.898
 1473SOL    HW2 5319   5.856   6.093   3.798
 1474SOL     OW 5320   6.826   5.959   3.634
 1474SOL    HW1 5321   6.778   6.008   3.707
 1474SOL    HW2 5322   6.790   5.989   3.545
 1475SOL     OW 5323   0.454   0.120   1.447
 1475SOL    HW1 5324   0.379   0.137   1.382
 1475SOL    HW2 5325   0.536   0.093   1.397
 1476SOL     OW 5326   1.605   1.039   1.404
 1476SOL    HW1 5327   1.636   1.133   1.411
 1476SOL    HW2 5328   1.539   1.031   1.328
 1477SOL     OW 5329   2.538   0.358   6.497
 1477SOL    HW1 5330   2.501   0.379   6.588
 1477SOL    HW2 5331   2.513   0.265   6.471
 1478SOL     OW 5332   5.426   4.122   0.517
 1478SOL    HW1 5333   5.483   4.131   0.435
 1478SOL    HW2 5334   5.338   4.167   0.503
 1479SOL     OW 5335   1.335   4.209   0.279
 1479SOL    HW1 5336   1.367   4.280   0.342
 1479SOL    HW2 5337   1.318   4.125   0.330
 1480SOL     OW 5338   2.652   0.515   0.197
 1480SOL    HW1 5339   2.650   0.491   0.294
 1480SOL    HW2 5340   2.710   0.595   0.184
 1481SOL     OW 5341   6.205   1.779   4.549
 1481SOL    HW1 5342   6.299   1.768   4.584
 1481SOL    HW2 5343   6.145   1.807   4.624
 1482SOL     OW 5344   5.327   1.554   0.935
 1482SOL    HW1 5345   5.341   1.631   0.997
 1482SOL    HW2 5346   5.408   1.540   0.879
 1483SOL     OW 5347   0.363   2.835   6.315
 1483SOL    HW1 5348   0.451   2.846   6.269
 1483SOL    HW2 5349   0.359   2.896   6.394
 1484SOL     OW 5350   6.307   4.061   3.944
 1484SOL    HW1 5351   6.407   4.050   3.943
 1484SOL    HW2 5352   6.277   4.081   4.037
 1485SOL     OW 5353   4.437   2.276   2.791
 1485SOL    HW1 5354   4.458   2.275   2.889
 1485SOL    HW2 5355   4.519   2.299   2.740
 1486SOL     OW 5356   4.624   2.616   3.296
 1486SOL    HW1 5357   4.674   2.701   3.280
 1486SOL    HW2 5358   4.601   2.608   3.392
 1487SOL     OW 5359   5.985   1.756   6.581
 1487SOL    HW1 5360   5.902   1.803   6.552
 1487SOL    HW2 5361   5.961   1.680   6.642
 1488SOL     OW 5362   6.034   1.996   2.707
 1488SOL    HW1 5363   6.023   2.036   2.616
 1488SOL    HW2 5364   6.047   2.069   2.774
 1489SOL     OW 5365   4.036   4.911   4.512
 1489SOL    HW1 5366   4.039   4.974   4.434
 1489SOL    HW2 5367   3.945   4.912   4.553
 1490SOL     OW 5368   1.264   2.679   1.138
 1490SOL    HW1 5369   1.209   2.601   1.110
 1490SOL    HW2 5370   1.234   2.711   1.229
 1491SOL     OW 5371   6.866   3.548   3.361
 1491SOL    HW1 5372   6.807   3.590   3.292
 1491SOL    HW2 5373   6.935   3.491   3.317
 1492SOL     OW 5374   6.155   1.968   1.387
 1492SOL    HW1 5375   6.247   2.001   1.409
 1492SOL    HW2 5376   6.153   1.868   1.390
 1493SOL     OW 5377   4.970   0.811   4.689
 1493SOL    HW1 5378   5.051   0.753   4.685
 1493SOL    HW2 5379   4.994   0.905   4.666
 1494SOL     OW 5380   4.326   2.472   6.003
 1494SOL    HW1 5381   4.268   2.554   5.999
 1494SOL    HW2 5382   4.364   2.454   5.912
 1495SOL     OW 5383   1.100   3.172   3.531
 1495SOL    HW1 5384   1.068   3.079   3.512
 1495SOL    HW2 5385   1.035   3.218   3.592
 1496SOL     OW 5386   0.834   0.838   1.975
 1496SOL    HW1 5387   0.888   0.882   1.903
 1496SOL    HW2 5388   0.821   0.902   2.051
 1497SOL     OW 5389   0.127   4.150   3.117
 1497SOL    HW1 5390   0.184   4.137   3.198
 1497SOL    HW2 5391   0.038   4.107   3.131
 1498SOL     OW 5392   1.715   5.035   6.540
 1498SOL    HW1 5393   1.702   4.950   6.591
 1498SOL    HW2 5394   1.634   5.092   6.550
 1499SOL     OW 5395   1.272   3.731   5.344
 1499SOL    HW1 5396   1.340   3.777   5.401
 1499SOL    HW2 5397   1.294   3.633   5.338
 1500SOL     OW 5398   5.808   6.854   7.020
 1500SOL    HW1 5399   5.872   6.858   0.074
 1500SOL    HW2 5400   5.774   6.760   7.011
 1501SOL     OW 5401   4.200   0.902   6.475
 1501SOL    HW1 5402   4.156   0.852   6.550
 1501SOL    HW2 5403   4.289   0.935   6.504
 1502SOL     OW 5404   6.072   6.581   0.928
 1502SOL    HW1 5405   6.099   6.630   0.845
 1502SOL    HW2 5406   6.080   6.642   1.007
 1503SOL     OW 5407   2.736   2.548   1.234
 1503SOL    HW1 5408   2.684   2.536   1.319
 1503SOL    HW2 5409   2.821   2.596   1.254
 1504SOL     OW 5410   2.375   0.203   4.741
 1504SOL    HW1 5411   2.338   0.294   4.721
 1504SOL    HW2 5412   2.469   0.197   4.708
 1505SOL     OW 5413   5.402   0.424   6.480
 1505SOL    HW1 5414   5.326   0.395   6.539
 1505SOL    HW2 5415   5.443   0.507   6.518
 1506SOL     OW 5416   1.275   5.225   2.739
 1506SOL    HW1 5417   1.368   5.222   2.775
 1506SOL    HW2 5418   1.242   5.131   2.725
 1507SOL     OW 5419   1.529   1.909   5.028
 1507SOL    HW1 5420   1.524   1.809   5.016
 1507SOL    HW2 5421   1.618   1.942   4.996
 1508SOL     OW 5422   5.141   6.914   0.720
 1508SOL    HW1 5423   5.120   6.822   0.753
 1508SOL    HW2 5424   5.173   6.909   0.625
 1509SOL     OW 5425   4.153   2.710   5.976
 1509SOL    HW1 5426   4.055   2.692   5.977
 1509SOL    HW2 5427   4.181   2.738   5.885
 1510SOL     OW 5428   6.007   1.793   3.966
 1510SOL    HW1 5429   5.933   1.791   4.033
 1510SOL    HW2 5430   6.083   1.737   3.999
 1511SOL     OW 5431   2.572   2.535   0.074
 1511SOL    HW1 5432   2.574   2.632   0.095
 1511SOL    HW2 5433   2.639   2.515   0.002
 1512SOL     OW 5434   6.813   6.584   1.851
 1512SOL    HW1 5435   6.764   6.505   1.888
 1512SOL    HW2 5436   6.845   6.563   1.759
 1513SOL     OW 5437   4.555   0.392   3.579
 1513SOL    HW1 5438   4.559   0.414   3.676
 1513SOL    HW2 5439   4.599   0.303   3.563
 1514SOL     OW 5440   5.321   2.118   4.512
 1514SOL    HW1 5441   5.267   2.097   4.430
 1514SOL    HW2 5442   5.288   2.204   4.551
 1515SOL     OW 5443   6.720   3.131   6.379
 1515SOL    HW1 5444   6.809   3.109   6.421
 1515SOL    HW2 5445   6.702   3.229   6.390
 1516SOL     OW 5446   0.782   0.561   0.775
 1516SOL    HW1 5447   0.780   0.530   0.680
 1516SOL    HW2 5448   0.698   0.533   0.821
 1517SOL     OW 5449   4.700   5.932   3.552
 1517SOL    HW1 5450   4.718   5.849   3.604
 1517SOL    HW2 5451   4.769   5.942   3.480
 1518SOL     OW 5452   6.747   2.967   0.199
 1518SOL    HW1 5453   6.771   2.989   0.104
 1518SOL    HW2 5454   6.815   2.903   0.236
 1519SOL     OW 5455   0.190   4.740   2.047
 1519SOL    HW1 5456   0.208   4.742   2.146
 1519SOL    HW2 5457   0.186   4.834   2.012
 1520SOL     OW 5458   1.746   3.292   2.354
 1520SOL    HW1 5459   1.839   3.323   2.375
 1520SOL    HW2 5460   1.741   3.267   2.257
 1521SOL     OW 5461   2.136   3.320   6.587
 1521SOL    HW1 5462   2.059   3.318   6.651
 1521SOL    HW2 5463   2.177   3.411   6.587
 1522SOL     OW 5464   6.901   1.444   5.487
 1522SOL    HW1 5465   6.958   1.504   5.544
 1522SOL    HW2 5466   6.832   1.401   5.545
 1523SOL     OW 5467   5.140   3.652   6.851
 1523SOL    HW1 5468   5.151   3.589   6.774
 1523SOL    HW2 5469   5.043   3.657   6.876
 1524SOL     OW 5470   0.845   1.768   1.674
 1524SOL    HW1 5471   0.941   1.790   1.656
 1524SOL    HW2 5472   0.788   1.847   1.650
 1525SOL     OW 5473   5.164   2.759   6.018
 1525SOL    HW1 5474   5.130   2.762   5.925
 1525SOL    HW2 5475   5.103   2.811   6.078
 1526SOL     OW 5476   1.004   1.162   0.842
 1526SOL    HW1 5477   0.961   1.072   0.837
 1526SOL    HW2 5478   1.063   1.175   0.762
 1527SOL     OW 5479   3.877   1.096   4.802
 1527SOL    HW1 5480   3.951   1.057   4.748
 1527SOL    HW2 5481   3.790   1.053   4.776
 1528SOL     OW 5482   5.217   6.079   2.840
 1528SOL    HW1 5483   5.251   6.125   2.923
 1528SOL    HW2 5484   5.121   6.054   2.852
 1529SOL     OW 5485   4.123   1.328   6.549
 1529SOL    HW1 5486   4.074   1.242   6.536
 1529SOL    HW2 5487   4.083   1.378   6.626
 1530SOL     OW 5488   3.532   0.460   1.248
 1530SOL    HW1 5489   3.572   0.372   1.221
 1530SOL    HW2 5490   3.605   0.523   1.275
 1531SOL     OW 5491   6.029   1.410   4.900
 1531SOL    HW1 5492   6.121   1.429   4.934
 1531SOL    HW2 5493   6.027   1.426   4.801
 1532SOL     OW 5494   2.558   2.266   4.699
 1532SOL    HW1 5495   2.629   2.282   4.631
 1532SOL    HW2 5496   2.548   2.347   4.757
 1533SOL     OW 5497   6.861   3.564   6.588
 1533SOL    HW1 5498   6.889   3.538   6.496
 1533SOL    HW2 5499   6.888   3.492   6.652
 1534SOL     OW 5500   1.467   5.152   0.116
 1534SOL    HW1 5501   1.391   5.111   0.065
 1534SOL    HW2 5502   1.487   5.243   0.079
 1535SOL     OW 5503   5.692   6.238   4.412
 1535SOL    HW1 5504   5.703   6.245   4.511
 1535SOL    HW2 5505   5.707   6.328   4.370
 1536SOL     OW 5506   3.627   5.141   5.039
 1536SOL    HW1 5507   3.680   5.163   4.957
 1536SOL    HW2 5508   3.554   5.077   5.016
 1537SOL     OW 5509   3.774   5.767   3.200
 1537SOL    HW1 5510   3.855   5.712   3.219
 1537SOL    HW2 5511   3.766   5.783   3.102
 1538SOL     OW 5512   3.512   5.425   5.360
 1538SOL    HW1 5513   3.446   5.394   5.292
 1538SOL    HW2 5514   3.464   5.448   5.445
 1539SOL     OW 5515   3.944   4.214   1.462
 1539SOL    HW1 5516   3.889   4.294   1.486
 1539SOL    HW2 5517   3.902   4.166   1.385
 1540SOL     OW 5518   0.815   6.882   5.343
 1540SOL    HW1 5519   0.819   6.818   5.419
 1540SOL    HW2 5520   0.749   6.955   5.364
 1541SOL     OW 5521   4.005   2.320   1.240
 1541SOL    HW1 5522   4.089   2.370   1.263
 1541SOL    HW2 5523   4.000   2.236   1.295
 1542SOL     OW 5524   6.185   5.742   1.776
 1542SOL    HW1 5525   6.149   5.833   1.798
 1542SOL    HW2 5526   6.112   5.674   1.782
 1543SOL     OW 5527   3.094   3.167   4.150
 1543SOL    HW1 5528   3.053   3.223   4.223
 1543SOL    HW2 5529   3.107   3.074   4.184
 1544SOL     OW 5530   3.114   3.973   2.322
 1544SOL    HW1 5531   3.101   4.003   2.228
 1544SOL    HW2 5532   3.164   4.044   2.373
 1545SOL     OW 5533   6.006   1.130   5.652
 1545SOL    HW1 5534   5.988   1.228   5.646
 1545SOL    HW2 5535   5.920   1.079   5.640
 1546SOL     OW 5536   4.587   0.378   6.160
 1546SOL    HW1 5537   4.675   0.409   6.124
 1546SOL    HW2 5538   4.589   0.381   6.260
 1547SOL     OW 5539   2.009   3.690   2.602
 1547SOL    HW1 5540   1.913   3.702   2.627
 1547SOL    HW2 5541   2.021   3.600   2.561
 1548SOL     OW 5542   4.668   3.832   5.506
 1548SOL    HW1 5543   4.707   3.871   5.422
 1548SOL    HW2 5544   4.568   3.834   5.500
 1549SOL     OW 5545   6.002   0.692   2.275
 1549SOL    HW1 5546   6.084   0.743   2.304
 1549SOL    HW2 5547   6.001   0.683   2.176
 1550SOL     OW 5548   2.872   6.699   5.617
 1550SOL    HW1 5549   2.887   6.781   5.672
 1550SOL    HW2 5550   2.870   6.724   5.520
 1551SOL     OW 5551   1.757   3.314   0.989
 1551SOL    HW1 5552   1.748   3.374   1.068
 1551SOL    HW2 5553   1.819   3.238   1.011
 1552SOL     OW 5554   1.054   0.130   1.544
 1552SOL    HW1 5555   1.126   0.169   1.487
 1552SOL    HW2 5556   1.048   0.032   1.528
 1553SOL     OW 5557   6.514   2.298   6.952
 1553SOL    HW1 5558   6.420   2.265   6.941
 1553SOL    HW2 5559   6.547   2.337   6.866
 1554SOL     OW 5560   3.615   2.139   2.900
 1554SOL    HW1 5561   3.712   2.147   2.921
 1554SOL    HW2 5562   3.603   2.113   2.804
 1555SOL     OW 5563   4.867   2.811   5.641
 1555SOL    HW1 5564   4.893   2.824   5.546
 1555SOL    HW2 5565   4.770   2.835   5.653
 1556SOL     OW 5566   4.072   0.836   0.466
 1556SOL    HW1 5567   4.104   0.928   0.487
 1556SOL    HW2 5568   4.122   0.800   0.388
 1557SOL     OW 5569   3.028   2.092   0.522
 1557SOL    HW1 5570   3.065   2.095   0.615
 1557SOL    HW2 5571   3.042   2.181   0.478
 1558SOL     OW 5572   5.871   1.971   4.424
 1558SOL    HW1 5573   5.873   2.071   4.418
 1558SOL    HW2 5574   5.939   1.932   4.363
 1559SOL     OW 5575   0.476   2.725   1.285
 1559SOL    HW1 5576   0.554   2.760   1.336
 1559SOL    HW2 5577   0.393   2.773   1.314
 1560SOL     OW 5578   3.317   1.285   6.903
 1560SOL    HW1 5579   3.263   1.227   6.965
 1560SOL    HW2 5580   3.298   1.381   6.924
 1561SOL     OW 5581   4.814   5.151   3.489
 1561SOL    HW1 5582   4.721   5.148   3.526
 1561SOL    HW2 5583   4.810   5.168   3.390
 1562SOL     OW 5584   3.584   6.306   2.305
 1562SOL    HW1 5585   3.592   6.211   2.334
 1562SOL    HW2 5586   3.487   6.332   2.303
 1563SOL     OW 5587   2.377   2.278   5.569
 1563SOL    HW1 5588   2.386   2.349   5.500
 1563SOL    HW2 5589   2.458   2.219   5.567
 1564SOL     OW 5590   1.724   1.780   2.113
 1564SOL    HW1 5591   1.738   1.842   2.190
 1564SOL    HW2 5592   1.783   1.700   2.124
 1565SOL     OW 5593   4.332   5.347   4.704
 1565SOL    HW1 5594   4.293   5.257   4.685
 1565SOL    HW2 5595   4.423   5.337   4.745
 1566SOL     OW 5596   6.208   5.285   4.308
 1566SOL    HW1 5597   6.247   5.234   4.231
 1566SOL    HW2 5598   6.176   5.374   4.276
 1567SOL     OW 5599   6.110   5.439   6.871
 1567SOL    HW1 5600   6.203   5.476   6.882
 1567SOL    HW2 5601   6.050   5.478   6.941
 1568SOL     OW 5602   2.600   6.358   2.831
 1568SOL    HW1 5603   2.506   6.348   2.865
 1568SOL    HW2 5604   2.662   6.307   2.891
 1569SOL     OW 5605   3.595   6.829   3.240
 1569SOL    HW1 5606   3.634   6.892   3.173
 1569SOL    HW2 5607   3.496   6.844   3.245
 1570SOL     OW 5608   2.191   6.479   6.665
 1570SOL    HW1 5609   2.160   6.568   6.698
 1570SOL    HW2 5610   2.246   6.492   6.583
 1571SOL     OW 5611   0.946   2.763   2.789
 1571SOL    HW1 5612   1.046   2.762   2.790
 1571SOL    HW2 5613   0.913   2.792   2.699
 1572SOL     OW 5614   1.853   5.411   2.384
 1572SOL    HW1 5615   1.848   5.324   2.336
 1572SOL    HW2 5616   1.761   5.443   2.405
 1573SOL     OW 5617   5.415   5.106   2.402
 1573SOL    HW1 5618   5.397   5.203   2.388
 1573SOL    HW2 5619   5.343   5.066   2.459
 1574SOL     OW 5620   6.416   3.028   2.281
 1574SOL    HW1 5621   6.372   3.109   2.243
 1574SOL    HW2 5622   6.355   2.984   2.347
 1575SOL     OW 5623   2.469   0.406   1.332
 1575SOL    HW1 5624   2.505   0.401   1.239
 1575SOL    HW2 5625   2.509   0.483   1.380
 1576SOL     OW 5626   0.934   6.370   3.154
 1576SOL    HW1 5627   0.966   6.390   3.062
 1576SOL    HW2 5628   0.960   6.444   3.215
 1577SOL     OW 5629   2.252   0.480   6.216
 1577SOL    HW1 5630   2.345   0.515   6.214
 1577SOL    HW2 5631   2.190   0.549   6.177
 1578SOL     OW 5632   4.845   1.424   6.407
 1578SOL    HW1 5633   4.747   1.403   6.411
 1578SOL    HW2 5634   4.895   1.345   6.372
 1579SOL     OW 5635   6.808   2.365   1.031
 1579SOL    HW1 5636   6.819   2.403   1.122
 1579SOL    HW2 5637   6.877   2.403   0.970
 1580SOL     OW 5638   3.400   4.089   3.217
 1580SOL    HW1 5639   3.391   3.995   3.250
 1580SOL    HW2 5640   3.476   4.134   3.265
 1581SOL     OW 5641   6.837   4.028   5.716
 1581SOL    HW1 5642   6.889   3.993   5.638
 1581SOL    HW2 5643   6.900   4.068   5.782
 1582SOL     OW 5644   3.186   6.217   4.604
 1582SOL    HW1 5645   3.128   6.298   4.602
 1582SOL    HW2 5646   3.263   6.229   4.541
 1583SOL     OW 5647   0.904   5.884   4.197
 1583SOL    HW1 5648   0.993   5.837   4.190
 1583SOL    HW2 5649   0.831   5.816   4.200
 1584SOL     OW 5650   1.566   4.737   6.652
 1584SOL    HW1 5651   1.579   4.801   6.727
 1584SOL    HW2 5652   1.650   4.730   6.599
 1585SOL     OW 5653   4.235   1.341   2.878
 1585SOL    HW1 5654   4.213   1.276   2.805
 1585SOL    HW2 5655   4.186   1.427   2.863
 1586SOL     OW 5656   2.978   4.794   3.098
 1586SOL    HW1 5657   3.017   4.743   3.174
 1586SOL    HW2 5658   3.051   4.833   3.042
 1587SOL     OW 5659   2.002   4.849   5.167
 1587SOL    HW1 5660   1.995   4.853   5.068
 1587SOL    HW2 5661   2.055   4.927   5.200
 1588SOL     OW 5662   4.751   1.129   2.584
 1588SOL    HW1 5663   4.763   1.044   2.532
 1588SOL    HW2 5664   4.794   1.119   2.674
 1589SOL     OW 5665   0.265   3.316   2.489
 1589SOL    HW1 5666   0.247   3.255   2.566
 1589SOL    HW2 5667   0.338   3.380   2.514
 1590SOL     OW 5668   4.774   0.636   3.844
 1590SOL    HW1 5669   4.804   0.646   3.939
 1590SOL    HW2 5670   4.710   0.560   3.837
 1591SOL     OW 5671   0.012   6.237   1.424
 1591SOL    HW1 5672   0.041   6.146   1.393
 1591SOL    HW2 5673   0.076   6.306   1.390
 1592SOL     OW 5674   1.901   3.528   0.094
 1592SOL    HW1 5675   1.853   3.444   0.070
 1592SOL    HW2 5676   1.953   3.560   0.014
 1593SOL     OW 5677   0.939   0.177   5.928
 1593SOL    HW1 5678   0.855   0.166   5.874
 1593SOL    HW2 5679   1.015   0.132   5.881
 1594SOL     OW 5680   6.930   6.105   2.293
 1594SOL    HW1 5681   6.896   6.197   2.310
 1594SOL    HW2 5682   6.987   6.105   2.210
 1595SOL     OW 5683   0.966   4.534   0.272
 1595SOL    HW1 5684   0.916   4.587   0.340
 1595SOL    HW2 5685   0.919   4.448   0.255
 1596SOL     OW 5686   6.587   3.321   2.615
 1596SOL    HW1 5687   6.680   3.309   2.580
 1596SOL    HW2 5688   6.582   3.406   2.667
 1597SOL     OW 5689   2.008   6.203   1.225
 1597SOL    HW1 5690   1.979   6.226   1.318
 1597SOL    HW2 5691   1.927   6.190   1.168
 1598SOL     OW 5692   1.387   5.012   6.278
 1598SOL    HW1 5693   1.330   4.957   6.340
 1598SOL    HW2 5694   1.353   5.106   6.276
 1599SOL     OW 5695   5.208   4.890   5.107
 1599SOL    HW1 5696   5.144   4.964   5.127
 1599SOL    HW2 5697   5.257   4.864   5.190
 1600SOL     OW 5698   3.128   1.248   2.323
 1600SOL    HW1 5699   3.204   1.274   2.382
 1600SOL    HW2 5700   3.043   1.286   2.359
 1601SOL     OW 5701   0.690   6.926   4.520
 1601SOL    HW1 5702   0.691   6.915   4.420
 1601SOL    HW2 5703   0.627   6.999   4.545
 1602SOL     OW 5704   4.230   5.127   4.324
 1602SOL    HW1 5705   4.307   5.190   4.335
 1602SOL    HW2 5706   4.247   5.066   4.246
 1603SOL     OW 5707   2.869   5.294   3.318
 1603SOL    HW1 5708   2.788   5.244   3.348
 1603SOL    HW2 5709   2.924   5.237   3.257
 1604SOL     OW 5710   3.834   5.037   1.593
 1604SOL    HW1 5711   3.847   5.012   1.689
 1604SOL    HW2 5712   3.816   4.955   1.539
 1605SOL     OW 5713   6.821   5.445   1.689
 1605SOL    HW1 5714   6.904   5.476   1.643
 1605SOL    HW2 5715   6.776   5.375   1.632
 1606SOL     OW 5716   4.129   5.757   5.548
 1606SOL    HW1 5717   4.033   5.784   5.546
 1606SOL    HW2 5718   4.155   5.720   5.458
 1607SOL     OW 5719   4.403   0.460   0.676
 1607SOL    HW1 5720   4.308   0.436   0.656
 1607SOL    HW2 5721   4.441   0.512   0.600
 1608SOL     OW 5722   6.618   0.749   2.787
 1608SOL    HW1 5723   6.646   0.832   2.738
 1608SOL    HW2 5724   6.696   0.687   2.793
 1609SOL     OW 5725   3.426   6.673   0.774
 1609SOL    HW1 5726   3.476   6.593   0.807
 1609SOL    HW2 5727   3.337   6.677   0.819
 1610SOL     OW 5728   4.764   5.968   0.645
 1610SOL    HW1 5729   4.688   5.921   0.600
 1610SOL    HW2 5730   4.815   5.903   0.701
 1611SOL     OW 5731   1.807   3.671   1.159
 1611SOL    HW1 5732   1.747   3.597   1.191
 1611SOL    HW2 5733   1.793   3.752   1.215
 1612SOL     OW 5734   3.610   6.937   1.672
 1612SOL    HW1 5735   3.535   6.999   1.690
 1612SOL    HW2 5736   3.695   6.989   1.660
 1613SOL     OW 5737   0.954   5.500   1.682
 1613SOL    HW1 5738   1.050   5.489   1.709
 1613SOL    HW2 5739   0.950   5.521   1.584
 1614SOL     OW 5740   5.917   1.626   6.258
 1614SOL    HW1 5741   5.961   1.675   6.333
 1614SOL    HW2 5742   5.960   1.652   6.172
 1615SOL     OW 5743   6.703   6.053   6.867
 1615SOL    HW1 5744   6.622   6.060   6.924
 1615SOL    HW2 5745   6.683   6.090   6.776
 1616SOL     OW 5746   4.197   0.194   3.389
 1616SOL    HW1 5747   4.176   0.282   3.432
 1616SOL    HW2 5748   4.130   0.176   3.317
 1617SOL     OW 5749   5.301   6.207   3.077
 1617SOL    HW1 5750   5.333   6.301   3.085
 1617SOL    HW2 5751   5.347   6.150   3.146
 1618SOL     OW 5752   1.406   6.451   3.100
 1618SOL    HW1 5753   1.345   6.412   3.032
 1618SOL    HW2 5754   1.467   6.517   3.056
 1619SOL     OW 5755   0.186   4.931   6.871
 1619SOL    HW1 5756   0.161   4.932   6.968
 1619SOL    HW2 5757   0.111   4.891   6.818
 1620SOL     OW 5758   3.422   4.459   1.619
 1620SOL    HW1 5759   3.473   4.526   1.673
 1620SOL    HW2 5760   3.447   4.469   1.522
 1621SOL     OW 5761   5.946   0.236   0.922
 1621SOL    HW1 5762   5.954   0.251   1.021
 1621SOL    HW2 5763   5.948   0.138   0.903
 1622SOL     OW 5764   0.757   3.673   5.693
 1622SOL    HW1 5765   0.710   3.703   5.611
 1622SOL    HW2 5766   0.789   3.752   5.745
 1623SOL     OW 5767   0.317   2.444   4.619
 1623SOL    HW1 5768   0.260   2.370   4.653
 1623SOL    HW2 5769   0.263   2.527   4.610
 1624SOL     OW 5770   4.146   1.495   5.768
 1624SOL    HW1 5771   4.166   1.508   5.865
 1624SOL    HW2 5772   4.232   1.489   5.717
 1625SOL     OW 5773   1.628   5.213   6.790
 1625SOL    HW1 5774   1.682   5.141   6.833
 1625SOL    HW2 5775   1.532   5.185   6.785
 1626SOL     OW 5776   3.211   1.248   1.294
 1626SOL    HW1 5777   3.218   1.217   1.389
 1626SOL    HW2 5778   3.302   1.246   1.252
 1627SOL     OW 5779   5.672   2.792   3.651
 1627SOL    HW1 5780   5.620   2.741   3.719
 1627SOL    HW2 5781   5.627   2.880   3.634
 1628SOL     OW 5782   4.206   5.232   7.017
 1628SOL    HW1 5783   4.265   5.164   6.974
 1628SOL    HW2 5784   4.113   5.225   6.981
 1629SOL     OW 5785   2.674   1.169   4.171
 1629SOL    HW1 5786   2.692   1.247   4.231
 1629SOL    HW2 5787   2.695   1.195   4.076
 1630SOL     OW 5788   6.774   4.384   5.558
 1630SOL    HW1 5789   6.692   4.340   5.594
 1630SOL    HW2 5790   6.763   4.398   5.459
 1631SOL     OW 5791   0.689   3.024   0.571
 1631SOL    HW1 5792   0.672   2.961   0.496
 1631SOL    HW2 5793   0.676   2.977   0.658
 1632SOL     OW 5794   4.886   3.384   2.705
 1632SOL    HW1 5795   4.871   3.335   2.620
 1632SOL    HW2 5796   4.911   3.479   2.686
 1633SOL     OW 5797   5.143   4.059   4.590
 1633SOL    HW1 5798   5.212   4.052   4.518
 1633SOL    HW2 5799   5.052   4.065   4.549
 1634SOL     OW 5800   4.799   0.225   4.176
 1634SOL    HW1 5801   4.838   0.303   4.226
 1634SOL    HW2 5802   4.857   0.203   4.098
 1635SOL     OW 5803   0.964   5.134   6.669
 1635SOL    HW1 5804   0.991   5.166   6.760
 1635SOL    HW2 5805   0.870   5.102   6.671
 1636SOL     OW 5806   3.327   5.044   1.703
 1636SOL    HW1 5807   3.228   5.056   1.709
 1636SOL    HW2 5808   3.348   4.946   1.693
 1637SOL     OW 5809   6.976   6.845   4.057
 1637SOL    HW1 5810   0.042   6.811   4.087
 1637SOL    HW2 5811   6.904   6.787   4.094
 1638SOL     OW 5812   0.776   3.066   2.182
 1638SOL    HW1 5813   0.772   3.121   2.099
 1638SOL    HW2 5814   0.871   3.044   2.203
 1639SOL     OW 5815   5.366   5.219   1.824
 1639SOL    HW1 5816   5.426   5.282   1.774
 1639SOL    HW2 5817   5.417   5.138   1.851
 1640SOL     OW 5818   6.240   0.322   6.869
 1640SOL    HW1 5819   6.203   0.340   6.777
 1640SOL    HW2 5820   6.222   0.227   6.894
 1641SOL     OW 5821   6.448   2.067   2.861
 1641SOL    HW1 5822   6.448   2.145   2.923
 1641SOL    HW2 5823   6.490   1.989   2.906
 1642SOL     OW 5824   6.665   3.234   6.879
 1642SOL    HW1 5825   6.647   3.140   6.910
 1642SOL    HW2 5826   6.621   3.249   6.790
 1643SOL     OW 5827   2.739   4.784   3.261
 1643SOL    HW1 5828   2.807   4.818   3.326
 1643SOL    HW2 5829   2.773   4.798   3.168
 1644SOL     OW 5830   5.537   3.405   6.691
 1644SOL    HW1 5831   5.499   3.331   6.746
 1644SOL    HW2 5832   5.509   3.394   6.595
 1645SOL     OW 5833   2.938   6.204   5.867
 1645SOL    HW1 5834   2.853   6.151   5.877
 1645SOL    HW2 5835   2.925   6.276   5.799
 1646SOL     OW 5836   2.481   0.105   0.331
 1646SOL    HW1 5837   2.410   0.092   0.262
 1646SOL    HW2 5838   2.461   0.046   0.410
 1647SOL     OW 5839   6.610   2.415   4.108
 1647SOL    HW1 5840   6.554   2.477   4.163
 1647SOL    HW2 5841   6.550   2.354   4.055
 1648SOL     OW 5842   5.776   6.369   0.460
 1648SOL    HW1 5843   5.794   6.465   0.484
 1648SOL    HW2 5844   5.677   6.354   0.455
 1649SOL     OW 5845   3.444   1.735   4.756
 1649SOL    HW1 5846   3.376   1.662   4.749
 1649SOL    HW2 5847   3.449   1.784   4.669
 1650SOL     OW 5848   0.844   5.474   4.926
 1650SOL    HW1 5849   0.794   5.391   4.901
 1650SOL    HW2 5850   0.923   5.485   4.866
 1651SOL     OW 5851   0.821   2.261   2.036
 1651SOL    HW1 5852   0.788   2.167   2.027
 1651SOL    HW2 5853   0.745   2.322   2.057
 1652SOL     OW 5854   1.334   3.567   2.643
 1652SOL    HW1 5855   1.288   3.622   2.573
 1652SOL    HW2 5856   1.417   3.527   2.605
 1653SOL     OW 5857   0.452   6.526   0.927
 1653SOL    HW1 5858   0.550   6.537   0.945
 1653SOL    HW2 5859   0.438   6.473   0.844
 1654SOL     OW 5860   6.949   3.470   1.026
 1654SOL    HW1 5861   6.876   3.537   1.017
 1654SOL    HW2 5862   6.996   3.483   1.113
 1655SOL     OW 5863   6.966   1.768   4.315
 1655SOL    HW1 5864   6.880   1.801   4.354
 1655SOL    HW2 5865   6.948   1.723   4.228
 1656SOL     OW 5866   1.780   5.525   3.229
 1656SOL    HW1 5867   1.867   5.568   3.252
 1656SOL    HW2 5868   1.791   5.426   3.229
 1657SOL     OW 5869   5.857   0.457   4.303
 1657SOL    HW1 5870   5.926   0.467   4.375
 1657SOL    HW2 5871   5.772   0.503   4.333
 1658SOL     OW 5872   5.917   0.585   1.084
 1658SOL    HW1 5873   5.941   0.489   1.091
 1658SOL    HW2 5874   5.822   0.593   1.053
 1659SOL     OW 5875   3.535   0.420   0.128
 1659SOL    HW1 5876   3.611   0.358   0.106
 1659SOL    HW2 5877   3.505   0.405   0.222
 1660SOL     OW 5878   1.935   6.304   2.339
 1660SOL    HW1 5879   1.923   6.362   2.420
 1660SOL    HW2 5880   2.033   6.287   2.326
 1661SOL     OW 5881   1.874   5.777   1.628
 1661SOL    HW1 5882   1.832   5.725   1.703
 1661SOL    HW2 5883   1.814   5.853   1.604
 1662SOL     OW 5884   0.172   0.732   4.328
 1662SOL    HW1 5885   0.144   0.637   4.344
 1662SOL    HW2 5886   0.250   0.733   4.266
 1663SOL     OW 5887   4.639   5.465   3.633
 1663SOL    HW1 5888   4.544   5.494   3.647
 1663SOL    HW2 5889   4.700   5.538   3.664
 1664SOL     OW 5890   2.017   5.838   5.262
 1664SOL    HW1 5891   1.967   5.769   5.211
 1664SOL    HW2 5892   2.036   5.916   5.204
 1665SOL     OW 5893   6.489   3.555   1.647
 1665SOL    HW1 5894   6.431   3.613   1.706
 1665SOL    HW2 5895   6.573   3.531   1.697
 1666SOL     OW 5896   5.801   0.353   7.023
 1666SOL    HW1 5897   5.743   0.407   0.061
 1666SOL    HW2 5898   5.812   0.402   6.936
 1667SOL     OW 5899   6.625   5.707   1.610
 1667SOL    HW1 5900   6.680   5.789   1.593
 1667SOL    HW2 5901   6.681   5.636   1.650
 1668SOL     OW 5902   4.876   4.862   3.691
 1668SOL    HW1 5903   4.797   4.866   3.630
 1668SOL    HW2 5904   4.930   4.946   3.681
 1669SOL     OW 5905   6.734   4.885   5.805
 1669SOL    HW1 5906   6.827   4.900   5.774
 1669SOL    HW2 5907   6.730   4.802   5.861
 1670SOL     OW 5908   0.380   4.916   5.072
 1670SOL    HW1 5909   0.375   4.855   4.993
 1670SOL    HW2 5910   0.475   4.942   5.089
 1671SOL     OW 5911   5.773   1.274   3.530
 1671SOL    HW1 5912   5.807   1.288   3.623
 1671SOL    HW2 5913   5.838   1.313   3.465
 1672SOL     OW 5914   2.672   3.266   0.512
 1672SOL    HW1 5915   2.589   3.290   0.462
 1672SOL    HW2 5916   2.648   3.229   0.601
 1673SOL     OW 5917   1.100   1.830   4.789
 1673SOL    HW1 5918   1.089   1.795   4.696
 1673SOL    HW2 5919   1.170   1.901   4.791
 1674SOL     OW 5920   0.053   3.302   1.910
 1674SOL    HW1 5921   0.122   3.329   1.977
 1674SOL    HW2 5922   6.985   3.330   1.943
 1675SOL     OW 5923   4.499   0.176   7.013
 1675SOL    HW1 5924   4.484   0.241   6.939
 1675SOL    HW2 5925   4.598   0.162   0.003
 1676SOL     OW 5926   2.308   2.783   1.863
 1676SOL    HW1 5927   2.290   2.695   1.906
 1676SOL    HW2 5928   2.256   2.854   1.911
 1677SOL     OW 5929   3.822   3.987   3.697
 1677SOL    HW1 5930   3.757   3.923   3.656
 1677SOL    HW2 5931   3.774   4.049   3.758
 1678SOL     OW 5932   0.005   5.280   2.153
 1678SOL    HW1 5933   0.063   5.210   2.194
 1678SOL    HW2 5934   0.013   5.276   2.053
 1679SOL     OW 5935   1.770   1.479   4.851
 1679SOL    HW1 5936   1.705   1.483   4.774
 1679SOL    HW2 5937   1.863   1.476   4.815
 1680SOL     OW 5938   6.055   4.300   5.581
 1680SOL    HW1 5939   6.132   4.327   5.522
 1680SOL    HW2 5940   6.070   4.207   5.614
 1681SOL     OW 5941   1.257   5.862   6.073
 1681SOL    HW1 5942   1.319   5.786   6.054
 1681SOL    HW2 5943   1.279   5.939   6.013
 1682SOL     OW 5944   1.788   0.624   5.507
 1682SOL    HW1 5945   1.878   0.662   5.486
 1682SOL    HW2 5946   1.749   0.581   5.425
 1683SOL     OW 5947   5.659   5.369   2.617
 1683SOL    HW1 5948   5.643   5.270   2.622
 1683SOL    HW2 5949   5.730   5.394   2.683
 1684SOL     OW 5950   0.284   5.856   2.219
 1684SOL    HW1 5951   0.279   5.870   2.120
 1684SOL    HW2 5952   0.327   5.767   2.237
 1685SOL     OW 5953   2.036   1.162   5.795
 1685SOL    HW1 5954   1.964   1.229   5.775
 1685SOL    HW2 5955   2.009   1.107   5.874
 1686SOL     OW 5956   2.628   6.071   4.356
 1686SOL    HW1 5957   2.607   6.144   4.291
 1686SOL    HW2 5958   2.569   6.079   4.436
 1687SOL     OW 5959   1.266   2.440   1.852
 1687SOL    HW1 5960   1.217   2.383   1.917
 1687SOL    HW2 5961   1.308   2.518   1.900
 1688SOL     OW 5962   1.897   1.453   3.842
 1688SOL    HW1 5963   1.976   1.394   3.824
 1688SOL    HW2 5964   1.899   1.530   3.778
 1689SOL     OW 5965   6.561   0.699   3.057
 1689SOL    HW1 5966   6.555   0.721   2.960
 1689SOL    HW2 5967   6.482   0.644   3.084
 1690SOL     OW 5968   1.492   2.648   4.540
 1690SOL    HW1 5969   1.460   2.556   4.518
 1690SOL    HW2 5970   1.483   2.707   4.460
 1691SOL     OW 5971   5.904   3.215   3.786
 1691SOL    HW1 5972   5.876   3.301   3.743
 1691SOL    HW2 5973   5.860   3.139   3.740
 1692SOL     OW 5974   4.454   6.111   1.565
 1692SOL    HW1 5975   4.544   6.076   1.537
 1692SOL    HW2 5976   4.420   6.175   1.496
 1693SOL     OW 5977   6.488   2.249   3.289
 1693SOL    HW1 5978   6.459   2.240   3.194
 1693SOL    HW2 5979   6.553   2.324   3.298
 1694SOL     OW 5980   6.392   1.758   3.929
 1694SOL    HW1 5981   6.373   1.842   3.877
 1694SOL    HW2 5982   6.491   1.743   3.934
 1695SOL     OW 5983   3.330   0.675   6.241
 1695SOL    HW1 5984   3.330   0.735   6.160
 1695SOL    HW2 5985   3.253   0.699   6.301
 1696SOL     OW 5986   3.211   6.024   1.065
 1696SOL    HW1 5987   3.307   6.010   1.042
 1696SOL    HW2 5988   3.194   5.992   1.158
 1697SOL     OW 5989   6.700   1.361   0.738
 1697SOL    HW1 5990   6.723   1.307   0.818
 1697SOL    HW2 5991   6.653   1.303   0.671
 1698SOL     OW 5992   3.973   0.387   1.438
 1698SOL    HW1 5993   4.057   0.350   1.477
 1698SOL    HW2 5994   3.955   0.344   1.349
 1699SOL     OW 5995   1.772   1.553   5.958
 1699SOL    HW1 5996   1.807   1.645   5.976
 1699SOL    HW2 5997   1.850   1.492   5.942
 1700SOL     OW 5998   6.572   4.299   2.894
 1700SOL    HW1 5999   6.508   4.284   2.818
 1700SOL    HW2 6000   6.542   4.246   2.973
 1701SOL     OW 6001   5.616   5.832   5.575
 1701SOL    HW1 6002   5.560   5.811   5.654
 1701SOL    HW2 6003   5.705   5.787   5.584
 1702SOL     OW 6004   6.971   1.366   1.298
 1702SOL    HW1 6005   0.037   1.330   1.269
 1702SOL    HW2 6006   6.902   1.294   1.292
 1703SOL     OW 6007   3.750   1.347   6.651
 1703SOL    HW1 6008   3.713   1.438   6.630
 1703SOL    HW2 6009   3.743   1.330   6.749
 1704SOL     OW 6010   1.218   2.546   0.255
 1704SOL    HW1 6011   1.185   2.536   0.349
 1704SOL    HW2 6012   1.309   2.588   0.256
 1705SOL     OW 6013   3.483   2.333   1.689
 1705SOL    HW1 6014   3.437   2.244   1.684
 1705SOL    HW2 6015   3.561   2.327   1.752
 1706SOL     OW 6016   4.142   1.900   2.401
 1706SOL    HW1 6017   4.083   1.964   2.451
 1706SOL    HW2 6018   4.205   1.951   2.343
 1707SOL     OW 6019   4.548   2.531   2.893
 1707SOL    HW1 6020   4.594   2.502   2.809
 1707SOL    HW2 6021   4.576   2.625   2.915
 1708SOL     OW 6022   4.474   5.178   1.694
 1708SOL    HW1 6023   4.426   5.174   1.782
 1708SOL    HW2 6024   4.408   5.167   1.620
 1709SOL     OW 6025   3.500   6.499   2.729
 1709SOL    HW1 6026   3.406   6.476   2.705
 1709SOL    HW2 6027   3.554   6.508   2.645
 1710SOL     OW 6028   4.370   4.901   3.435
 1710SOL    HW1 6029   4.460   4.902   3.479
 1710SOL    HW2 6030   4.354   4.811   3.394
 1711SOL     OW 6031   2.126   5.107   4.526
 1711SOL    HW1 6032   2.077   5.079   4.443
 1711SOL    HW2 6033   2.096   5.198   4.553
 1712SOL     OW 6034   6.939   2.241   4.928
 1712SOL    HW1 6035   6.972   2.322   4.976
 1712SOL    HW2 6036   6.841   2.230   4.947
 1713SOL     OW 6037   4.020   1.394   2.503
 1713SOL    HW1 6038   4.108   1.350   2.488
 1713SOL    HW2 6039   4.035   1.482   2.550
 1714SOL     OW 6040   4.007   1.759   5.786
 1714SOL    HW1 6041   4.065   1.679   5.803
 1714SOL    HW2 6042   3.923   1.751   5.839
 1715SOL     OW 6043   1.936   6.451   3.285
 1715SOL    HW1 6044   1.935   6.462   3.384
 1715SOL    HW2 6045   1.905   6.359   3.262
 1716SOL     OW 6046   4.258   0.085   4.012
 1716SOL    HW1 6047   4.206   0.017   3.961
 1716SOL    HW2 6048   4.354   0.057   4.017
 1717SOL     OW 6049   3.083   6.015   4.371
 1717SOL    HW1 6050   3.077   6.062   4.459
 1717SOL    HW2 6051   3.083   5.916   4.387
 1718SOL     OW 6052   2.876   1.148   2.174
 1718SOL    HW1 6053   2.942   1.222   2.185
 1718SOL    HW2 6054   2.806   1.154   2.245
 1719SOL     OW 6055   2.104   3.188   0.988
 1719SOL    HW1 6056   2.060   3.178   0.899
 1719SOL    HW2 6057   2.195   3.146   0.985
 1720SOL     OW 6058   0.129   2.929   6.195
 1720SOL    HW1 6059   0.040   2.915   6.237
 1720SOL    HW2 6060   0.197   2.871   6.241
 1721SOL     OW 6061   1.669   6.567   1.669
 1721SOL    HW1 6062   1.673   6.582   1.570
 1721SOL    HW2 6063   1.738   6.623   1.714
 1722SOL     OW 6064   4.048   1.446   3.768
 1722SOL    HW1 6065   3.959   1.451   3.815
 1722SOL    HW2 6066   4.043   1.499   3.684
 1723SOL     OW 6067   5.173   2.452   0.055
 1723SOL    HW1 6068   5.232   2.438   0.135
 1723SOL    HW2 6069   5.106   2.378   0.050
 1724SOL     OW 6070   6.859   2.864   2.229
 1724SOL    HW1 6071   6.893   2.901   2.142
 1724SOL    HW2 6072   6.776   2.811   2.212
 1725SOL     OW 6073   2.009   4.940   6.823
 1725SOL    HW1 6074   1.989   4.989   6.739
 1725SOL    HW2 6075   2.107   4.948   6.844
 1726SOL     OW 6076   5.322   3.734   4.612
 1726SOL    HW1 6077   5.295   3.805   4.677
 1726SOL    HW2 6078   5.356   3.655   4.662
 1727SOL     OW 6079   4.061   3.552   3.565
 1727SOL    HW1 6080   4.110   3.560   3.479
 1727SOL    HW2 6081   4.037   3.643   3.599
 1728SOL     OW 6082   5.673   4.654   5.648
 1728SOL    HW1 6083   5.761   4.607   5.641
 1728SOL    HW2 6084   5.628   4.628   5.734
 1729SOL     OW 6085   2.031   3.523   3.043
 1729SOL    HW1 6086   2.096   3.448   3.059
 1729SOL    HW2 6087   2.054   3.569   2.958
 1730SOL     OW 6088   2.776   6.869   4.837
 1730SOL    HW1 6089   2.846   6.798   4.829
 1730SOL    HW2 6090   2.784   6.932   4.759
 1731SOL     OW 6091   6.817   4.297   3.352
 1731SOL    HW1 6092   6.798   4.329   3.259
 1731SOL    HW2 6093   6.734   4.302   3.407
 1732SOL     OW 6094   2.112   4.588   6.475
 1732SOL    HW1 6095   2.073   4.582   6.383
 1732SOL    HW2 6096   2.108   4.498   6.519
 1733SOL     OW 6097   1.919   4.338   1.510
 1733SOL    HW1 6098   1.963   4.409   1.564
 1733SOL    HW2 6099   1.988   4.274   1.475
 1734SOL     OW 6100   5.438   2.947   1.810
 1734SOL    HW1 6101   5.423   2.917   1.715
 1734SOL    HW2 6102   5.424   2.870   1.872
 1735SOL     OW 6103   4.925   5.740   6.220
 1735SOL    HW1 6104   5.023   5.756   6.234
 1735SOL    HW2 6105   4.912   5.672   6.149
 1736SOL     OW 6106   4.052   3.590   0.763
 1736SOL    HW1 6107   4.088   3.658   0.827
 1736SOL    HW2 6108   4.029   3.506   0.812
 1737SOL     OW 6109   4.921   6.820   5.012
 1737SOL    HW1 6110   4.990   6.876   5.057
 1737SOL    HW2 6111   4.833   6.867   5.015
 1738SOL     OW 6112   2.230   2.842   3.802
 1738SOL    HW1 6113   2.267   2.813   3.890
 1738SOL    HW2 6114   2.214   2.940   3.803
 1739SOL     OW 6115   6.688   1.837   4.352
 1739SOL    HW1 6116   6.674   1.911   4.418
 1739SOL    HW2 6117   6.602   1.821   4.302
 1740SOL     OW 6118   7.020   1.956   5.020
 1740SOL    HW1 6119   0.082   1.903   5.019
 1740SOL    HW2 6120   0.006   2.035   4.960
 1741SOL     OW 6121   2.438   0.988   4.842
 1741SOL    HW1 6122   2.472   1.008   4.750
 1741SOL    HW2 6123   2.515   0.983   4.906
 1742SOL     OW 6124   5.422   0.835   5.531
 1742SOL    HW1 6125   5.326   0.809   5.546
 1742SOL    HW2 6126   5.442   0.918   5.583
 1743SOL     OW 6127   0.354   1.000   2.442
 1743SOL    HW1 6128   0.386   0.950   2.522
 1743SOL    HW2 6129   0.433   1.035   2.391
 1744SOL     OW 6130   5.737   3.335   3.099
 1744SOL    HW1 6131   5.715   3.430   3.078
 1744SOL    HW2 6132   5.836   3.323   3.105
 1745SOL     OW 6133   5.280   6.454   2.688
 1745SOL    HW1 6134   5.220   6.473   2.765
 1745SOL    HW2 6135   5.251   6.371   2.642
 1746SOL     OW 6136   1.526   4.533   4.314
 1746SOL    HW1 6137   1.609   4.508   4.364
 1746SOL    HW2 6138   1.451   4.475   4.344
 1747SOL     OW 6139   3.337   1.301   2.482
 1747SOL    HW1 6140   3.345   1.344   2.572
 1747SOL    HW2 6141   3.424   1.310   2.433
 1748SOL     OW 6142   6.711   2.107   4.110
 1748SOL    HW1 6143   6.673   2.170   4.042
 1748SOL    HW2 6144   6.642   2.038   4.133
 1749SOL     OW 6145   2.103   0.048   6.422
 1749SOL    HW1 6146   2.112   0.071   6.325
 1749SOL    HW2 6147   2.189   0.068   6.469
 1750SOL     OW 6148   5.671   0.268   3.879
 1750SOL    HW1 6149   5.651   0.314   3.792
 1750SOL    HW2 6150   5.730   0.326   3.935
 1751SOL     OW 6151   5.474   1.696   5.117
 1751SOL    HW1 6152   5.460   1.757   5.194
 1751SOL    HW2 6153   5.524   1.743   5.045
 1752SOL     OW 6154   5.828   0.707   1.477
 1752SOL    HW1 6155   5.809   0.624   1.530
 1752SOL    HW2 6156   5.743   0.759   1.466
 1753SOL     OW 6157   6.890   0.450   1.777
 1753SOL    HW1 6158   6.814   0.440   1.841
 1753SOL    HW2 6159   6.865   0.515   1.705
 1754SOL     OW 6160   1.920   5.349   6.453
 1754SOL    HW1 6161   1.993   5.374   6.389
 1754SOL    HW2 6162   1.925   5.252   6.474
 1755SOL     OW 6163   0.127   6.203   6.749
 1755SOL    HW1 6164   0.093   6.133   6.687
 1755SOL    HW2 6165   0.086   6.291   6.725
 1756SOL     OW 6166   4.170   5.620   6.423
 1756SOL    HW1 6167   4.265   5.593   6.436
 1756SOL    HW2 6168   4.113   5.575   6.493
 1757SOL     OW 6169   3.603   5.530   5.072
 1757SOL    HW1 6170   3.513   5.567   5.049
 1757SOL    HW2 6171   3.602   5.491   5.164
 1758SOL     OW 6172   1.560   1.214   4.580
 1758SOL    HW1 6173   1.547   1.282   4.507
 1758SOL    HW2 6174   1.526   1.251   4.667
 1759SOL     OW 6175   2.486   6.443   5.366
 1759SOL    HW1 6176   2.395   6.409   5.389
 1759SOL    HW2 6177   2.548   6.430   5.444
 1760SOL     OW 6178   6.209   1.063   4.102
 1760SOL    HW1 6179   6.228   1.063   4.200
 1760SOL    HW2 6180   6.260   1.137   4.059
 1761SOL     OW 6181   6.867   0.618   1.538
 1761SOL    HW1 6182   6.839   0.678   1.613
 1761SOL    HW2 6183   6.791   0.606   1.474
 1762SOL     OW 6184   0.046   1.630   4.527
 1762SOL    HW1 6185   0.010   1.664   4.441
 1762SOL    HW2 6186   0.038   1.530   4.530
 1763SOL     OW 6187   1.235   4.810   4.485
 1763SOL    HW1 6188   1.243   4.796   4.387
 1763SOL    HW2 6189   1.320   4.849   4.520
 1764SOL     OW 6190   1.137   3.429   2.163
 1764SOL    HW1 6191   1.176   3.452   2.253
 1764SOL    HW2 6192   1.208   3.386   2.107
 1765SOL     OW 6193   3.435   1.421   1.567
 1765SOL    HW1 6194   3.381   1.471   1.500
 1765SOL    HW2 6195   3.530   1.415   1.536
 1766SOL     OW 6196   5.549   4.601   3.880
 1766SOL    HW1 6197   5.563   4.557   3.791
 1766SOL    HW2 6198   5.618   4.568   3.945
 1767SOL     OW 6199   0.713   4.895   3.400
 1767SOL    HW1 6200   0.797   4.876   3.349
 1767SOL    HW2 6201   0.736   4.908   3.497
 1768SOL     OW 6202   3.928   1.025   6.889
 1768SOL    HW1 6203   3.992   1.036   6.813
 1768SOL    HW2 6204   3.913   0.928   6.905
 1769SOL     OW 6205   6.079   1.041   6.956
 1769SOL    HW1 6206   5.987   1.016   6.986
 1769SOL    HW2 6207   6.130   1.081   0.009
 1770SOL     OW 6208   0.612   4.655   4.943
 1770SOL    HW1 6209   0.633   4.599   5.023
 1770SOL    HW2 6210   0.665   4.740   4.946
 1771SOL     OW 6211   1.592   5.124   0.647
 1771SOL    HW1 6212   1.588   5.186   0.568
 1771SOL    HW2 6213   1.500   5.107   0.680
 1772SOL     OW 6214   3.558   5.898   3.922
 1772SOL    HW1 6215   3.514   5.933   3.840
 1772SOL    HW2 6216   3.582   5.802   3.909
 1773SOL     OW 6217   2.175   2.214   6.007
 1773SOL    HW1 6218   2.171   2.247   5.913
 1773SOL    HW2 6219   2.259   2.245   6.050
 1774SOL     OW 6220   5.210   6.234   1.858
 1774SOL    HW1 6221   5.239   6.328   1.839
 1774SOL    HW2 6222   5.177   6.191   1.774
 1775SOL     OW 6223   2.026   5.594   6.159
 1775SOL    HW1 6224   1.990   5.598   6.066
 1775SOL    HW2 6225   2.109   5.537   6.160
 1776SOL     OW 6226   4.928   0.933   6.229
 1776SOL    HW1 6227   4.848   0.873   6.225
 1776SOL    HW2 6228   4.958   0.943   6.324
 1777SOL     OW 6229   3.245   6.891   6.655
 1777SOL    HW1 6230   3.272   6.987   6.661
 1777SOL    HW2 6231   3.145   6.885   6.651
 1778SOL     OW 6232   4.754   2.008   4.529
 1778SOL    HW1 6233   4.666   2.056   4.520
 1778SOL    HW2 6234   4.742   1.928   4.588
 1779SOL     OW 6235   4.657   0.579   5.756
 1779SOL    HW1 6236   4.699   0.489   5.742
 1779SOL    HW2 6237   4.662   0.632   5.671
 1780SOL     OW 6238   1.876   3.606   5.003
 1780SOL    HW1 6239   1.953   3.646   5.053
 1780SOL    HW2 6240   1.794   3.659   5.021
 1781SOL     OW 6241   5.151   6.863   5.502
 1781SOL    HW1 6242   5.224   6.905   5.449
 1781SOL    HW2 6243   5.062   6.896   5.468
 1782SOL     OW 6244   2.351   1.145   2.907
 1782SOL    HW1 6245   2.398   1.058   2.893
 1782SOL    HW2 6246   2.380   1.210   2.837
 1783SOL     OW 6247   2.542   3.563   6.230
 1783SOL    HW1 6248   2.574   3.559   6.136
 1783SOL    HW2 6249   2.599   3.627   6.282
 1784SOL     OW 6250   2.043   1.528   1.282
 1784SOL    HW1 6251   2.081   1.458   1.222
 1784SOL    HW2 6252   2.073   1.511   1.376
 1785SOL     OW 6253   6.724   6.588   4.453
 1785SOL    HW1 6254   6.728   6.545   4.363
 1785SOL    HW2 6255   6.661   6.665   4.451
 1786SOL     OW 6256   1.932   5.473   0.256
 1786SOL    HW1 6257   2.014   5.525   0.280
 1786SOL    HW2 6258   1.943   5.378   0.283
 1787SOL     OW 6259   1.887   2.261   5.645
 1787SOL    HW1 6260   1.874   2.163   5.630
 1787SOL    HW2 6261   1.977   2.277   5.686
 1788SOL     OW 6262   4.728   3.972   6.514
 1788SOL    HW1 6263   4.749   3.901   6.582
 1788SOL    HW2 6264   4.630   3.991   6.517
 1789SOL     OW 6265   6.122   3.010   1.545
 1789SOL    HW1 6266   6.168   3.091   1.583
 1789SOL    HW2 6267   6.048   2.983   1.606
 1790SOL     OW 6268   2.950   1.373   4.236
 1790SOL    HW1 6269   2.982   1.281   4.257
 1790SOL    HW2 6270   2.860   1.388   4.277
 1791SOL     OW 6271   0.063   1.337   3.455
 1791SOL    HW1 6272   0.068   1.242   3.484
 1791SOL    HW2 6273   0.046   1.395   3.535
 1792SOL     OW 6274   0.244   2.027   4.558
 1792SOL    HW1 6275   0.315   2.064   4.619
 1792SOL    HW2 6276   0.285   1.960   4.496
 1793SOL     OW 6277   6.447   1.657   4.313
 1793SOL    HW1 6278   6.469   1.573   4.362
 1793SOL    HW2 6279   6.352   1.654   4.282
 1794SOL     OW 6280   5.688   0.204   5.406
 1794SOL    HW1 6281   5.635   0.236   5.485
 1794SOL    HW2 6282   5.764   0.148   5.438
 1795SOL     OW 6283   6.252   4.876   1.295
 1795SOL    HW1 6284   6.327   4.823   1.255
 1795SOL    HW2 6285   6.270   4.893   1.392
 1796SOL     OW 6286   2.128   1.402   5.818
 1796SOL    HW1 6287   2.108   1.307   5.793
 1796SOL    HW2 6288   2.042   1.452   5.831
 1797SOL     OW 6289   1.327   6.923   5.632
 1797SOL    HW1 6290   1.387   6.935   5.552
 1797SOL    HW2 6291   1.376   6.951   5.715
 1798SOL     OW 6292   3.578   2.960   4.837
 1798SOL    HW1 6293   3.493   2.927   4.877
 1798SOL    HW2 6294   3.644   2.980   4.910
 1799SOL     OW 6295   4.198   2.817   6.625
 1799SOL    HW1 6296   4.206   2.756   6.703
 1799SOL    HW2 6297   4.113   2.868   6.631
 1800SOL     OW 6298   5.282   4.833   3.776
 1800SOL    HW1 6299   5.304   4.910   3.717
 1800SOL    HW2 6300   5.185   4.810   3.767
 1801SOL     OW 6301   0.874   1.604   1.963
 1801SOL    HW1 6302   0.973   1.608   1.977
 1801SOL    HW2 6303   0.853   1.609   1.865
 1802SOL     OW 6304   6.376   5.915   3.398
 1802SOL    HW1 6305   6.391   6.005   3.440
 1802SOL    HW2 6306   6.335   5.927   3.308
 1803SOL     OW 6307   0.052   6.688   2.481
 1803SOL    HW1 6308   0.087   6.739   2.560
 1803SOL    HW2 6309   0.118   6.693   2.406
 1804SOL     OW 6310   3.688   3.477   5.164
 1804SOL    HW1 6311   3.628   3.406   5.125
 1804SOL    HW2 6312   3.677   3.562   5.112
 1805SOL     OW 6313   1.031   5.481   6.155
 1805SOL    HW1 6314   1.074   5.390   6.161
 1805SOL    HW2 6315   1.101   5.550   6.137
 1806SOL     OW 6316   0.390   2.614   1.909
 1806SOL    HW1 6317   0.300   2.622   1.952
 1806SOL    HW2 6318   0.451   2.563   1.970
 1807SOL     OW 6319   5.854   3.463   6.826
 1807SOL    HW1 6320   5.930   3.525   6.843
 1807SOL    HW2 6321   5.781   3.480   6.893
 1808SOL     OW 6322   5.947   3.609   4.314
 1808SOL    HW1 6323   6.044   3.627   4.328
 1808SOL    HW2 6324   5.903   3.592   4.403
 1809SOL     OW 6325   3.147   1.145   5.000
 1809SOL    HW1 6326   3.059   1.116   4.963
 1809SOL    HW2 6327   3.178   1.227   4.953
 1810SOL     OW 6328   0.280   0.687   5.183
 1810SOL    HW1 6329   0.271   0.597   5.225
 1810SOL    HW2 6330   0.215   0.750   5.226
 1811SOL     OW 6331   5.208   4.527   1.625
 1811SOL    HW1 6332   5.139   4.497   1.691
 1811SOL    HW2 6333   5.171   4.601   1.569
 1812SOL     OW 6334   4.186   6.742   6.409
 1812SOL    HW1 6335   4.224   6.656   6.444
 1812SOL    HW2 6336   4.133   6.786   6.482
 1813SOL     OW 6337   4.791   4.069   2.160
 1813SOL    HW1 6338   4.700   4.032   2.181
 1813SOL    HW2 6339   4.857   4.036   2.228
 1814SOL     OW 6340   6.141   6.737   0.707
 1814SOL    HW1 6341   6.103   6.821   0.669
 1814SOL    HW2 6342   6.238   6.731   0.682
 1815SOL     OW 6343   5.904   6.925   2.691
 1815SOL    HW1 6344   5.805   6.935   2.688
 1815SOL    HW2 6345   5.928   6.852   2.756
 1816SOL     OW 6346   3.934   5.445   6.424
 1816SOL    HW1 6347   3.983   5.439   6.337
 1816SOL    HW2 6348   3.853   5.386   6.421
 1817SOL     OW 6349   3.410   1.188   3.616
 1817SOL    HW1 6350   3.432   1.215   3.523
 1817SOL    HW2 6351   3.463   1.107   3.641
 1818SOL     OW 6352   2.104   6.676   0.415
 1818SOL    HW1 6353   2.143   6.710   0.501
 1818SOL    HW2 6354   2.054   6.591   0.432
 1819SOL     OW 6355   1.318   5.142   2.320
 1819SOL    HW1 6356   1.300   5.222   2.377
 1819SOL    HW2 6357   1.270   5.151   2.233
 1820SOL     OW 6358   3.954   0.470   2.714
 1820SOL    HW1 6359   3.938   0.474   2.812
 1820SOL    HW2 6360   4.030   0.529   2.689
 1821SOL     OW 6361   3.411   1.247   1.759
 1821SOL    HW1 6362   3.422   1.303   1.676
 1821SOL    HW2 6363   3.385   1.154   1.734
 1822SOL     OW 6364   1.389   3.487   1.642
 1822SOL    HW1 6365   1.456   3.558   1.659
 1822SOL    HW2 6366   1.434   3.398   1.637
 1823SOL     OW 6367   3.207   6.120   3.269
 1823SOL    HW1 6368   3.263   6.063   3.209
 1823SOL    HW2 6369   3.264   6.155   3.344
 1824SOL     OW 6370   3.824   3.746   0.311
 1824SOL    HW1 6371   3.809   3.818   0.380
 1824SOL    HW2 6372   3.827   3.788   0.220
 1825SOL     OW 6373   0.372   3.037   4.901
 1825SOL    HW1 6374   0.383   3.137   4.905
 1825SOL    HW2 6375   0.455   2.993   4.936
 1826SOL     OW 6376   3.946   1.388   0.463
 1826SOL    HW1 6377   3.915   1.470   0.511
 1826SOL    HW2 6378   3.866   1.338   0.429
 1827SOL     OW 6379   5.005   5.523   1.086
 1827SOL    HW1 6380   4.950   5.606   1.078
 1827SOL    HW2 6381   4.946   5.448   1.117
 1828SOL     OW 6382   1.902   3.445   6.737
 1828SOL    HW1 6383   1.851   3.501   6.672
 1828SOL    HW2 6384   1.838   3.387   6.788
 1829SOL     OW 6385   3.655   0.196   3.324
 1829SOL    HW1 6386   3.706   0.194   3.410
 1829SOL    HW2 6387   3.562   0.162   3.340
 1830SOL     OW 6388   5.830   6.852   5.166
 1830SOL    HW1 6389   5.859   6.764   5.128
 1830SOL    HW2 6390   5.792   6.909   5.093
 1831SOL     OW 6391   4.816   6.135   2.656
 1831SOL    HW1 6392   4.759   6.074   2.602
 1831SOL    HW2 6393   4.819   6.225   2.613
 1832SOL     OW 6394   2.980   3.348   0.144
 1832SOL    HW1 6395   2.883   3.326   0.160
 1832SOL    HW2 6396   3.031   3.263   0.130
 1833SOL     OW 6397   4.971   0.138   1.145
 1833SOL    HW1 6398   4.951   0.229   1.109
 1833SOL    HW2 6399   4.997   0.144   1.241
 1834SOL     OW 6400   2.569   2.869   1.190
 1834SOL    HW1 6401   2.578   2.785   1.137
 1834SOL    HW2 6402   2.635   2.869   1.265
 1835SOL     OW 6403   0.721   4.786   1.769
 1835SOL    HW1 6404   0.734   4.877   1.810
 1835SOL    HW2 6405   0.668   4.729   1.832
 1836SOL     OW 6406   5.728   2.204   2.303
 1836SOL    HW1 6407   5.723   2.198   2.403
 1836SOL    HW2 6408   5.804   2.263   2.277
 1837SOL     OW 6409   2.346   0.501   5.537
 1837SOL    HW1 6410   2.427   0.556   5.554
 1837SOL    HW2 6411   2.324   0.503   5.439
 1838SOL     OW 6412   6.694   0.583   6.933
 1838SOL    HW1 6413   6.600   0.550   6.924
 1838SOL    HW2 6414   6.694   0.683   6.925
 1839SOL     OW 6415   6.525   1.688   6.828
 1839SOL    HW1 6416   6.494   1.751   6.899
 1839SOL    HW2 6417   6.606   1.725   6.783
 1840SOL     OW 6418   4.101   0.731   2.583
 1840SOL    HW1 6419   4.158   0.787   2.644
 1840SOL    HW2 6420   4.015   0.779   2.565
 1841SOL     OW 6421   2.352   0.498   2.743
 1841SOL    HW1 6422   2.336   0.452   2.830
 1841SOL    HW2 6423   2.268   0.496   2.688
 1842SOL     OW 6424   1.299   5.146   0.663
 1842SOL    HW1 6425   1.353   5.183   0.587
 1842SOL    HW2 6426   1.208   5.187   0.663
 1843SOL     OW 6427   4.906   0.432   4.280
 1843SOL    HW1 6428   4.820   0.453   4.327
 1843SOL    HW2 6429   4.947   0.517   4.247
 1844SOL     OW 6430   5.185   1.811   5.152
 1844SOL    HW1 6431   5.206   1.721   5.113
 1844SOL    HW2 6432   5.096   1.842   5.119
 1845SOL     OW 6433   3.116   0.149   3.636
 1845SOL    HW1 6434   3.058   0.086   3.687
 1845SOL    HW2 6435   3.096   0.141   3.538
 1846SOL     OW 6436   5.317   1.180   3.373
 1846SOL    HW1 6437   5.335   1.275   3.396
 1846SOL    HW2 6438   5.299   1.172   3.275
 1847SOL     OW 6439   1.651   0.287   4.965
 1847SOL    HW1 6440   1.607   0.372   4.938
 1847SOL    HW2 6441   1.727   0.306   5.027
 1848SOL     OW 6442   1.739   6.393   4.083
 1848SOL    HW1 6443   1.750   6.349   4.173
 1848SOL    HW2 6444   1.642   6.409   4.065
 1849SOL     OW 6445   4.978   3.097   1.861
 1849SOL    HW1 6446   4.935   3.130   1.777
 1849SOL    HW2 6447   4.908   3.073   1.928
 1850SOL     OW 6448   5.503   1.595   2.307
 1850SOL    HW1 6449   5.455   1.622   2.223
 1850SOL    HW2 6450   5.569   1.666   2.332
 1851SOL     OW 6451   0.746   3.176   6.898
 1851SOL    HW1 6452   0.676   3.196   6.967
 1851SOL    HW2 6453   0.707   3.187   6.807
 1852SOL     OW 6454   6.959   4.852   1.261
 1852SOL    HW1 6455   0.013   4.907   1.225
 1852SOL    HW2 6456   6.912   4.808   1.185
 1853SOL     OW 6457   0.289   2.180   3.575
 1853SOL    HW1 6458   0.265   2.151   3.482
 1853SOL    HW2 6459   0.387   2.167   3.590
 1854SOL     OW 6460   1.503   5.490   3.312
 1854SOL    HW1 6461   1.592   5.525   3.282
 1854SOL    HW2 6462   1.442   5.482   3.232
 1855SOL     OW 6463   5.250   3.177   4.941
 1855SOL    HW1 6464   5.199   3.186   5.027
 1855SOL    HW2 6465   5.343   3.146   4.960
 1856SOL     OW 6466   4.140   3.721   6.377
 1856SOL    HW1 6467   4.120   3.631   6.416
 1856SOL    HW2 6468   4.061   3.752   6.324
 1857SOL     OW 6469   5.327   1.075   0.446
 1857SOL    HW1 6470   5.368   0.985   0.432
 1857SOL    HW2 6471   5.299   1.084   0.542
 1858SOL     OW 6472   5.243   2.882   3.280
 1858SOL    HW1 6473   5.329   2.927   3.255
 1858SOL    HW2 6474   5.210   2.829   3.202
 1859SOL     OW 6475   5.031   2.086   3.891
 1859SOL    HW1 6476   4.961   2.123   3.830
 1859SOL    HW2 6477   4.989   2.024   3.957
 1860SOL     OW 6478   0.556   2.213   5.199
 1860SOL    HW1 6479   0.460   2.190   5.187
 1860SOL    HW2 6480   0.601   2.215   5.110
 1861SOL     OW 6481   4.993   0.681   3.101
 1861SOL    HW1 6482   4.949   0.767   3.127
 1861SOL    HW2 6483   5.070   0.700   3.040
 1862SOL     OW 6484   1.150   0.219   0.236
 1862SOL    HW1 6485   1.106   0.236   0.325
 1862SOL    HW2 6486   1.237   0.268   0.232
 1863SOL     OW 6487   6.919   2.999   1.524
 1863SOL    HW1 6488   6.922   2.901   1.542
 1863SOL    HW2 6489   6.930   3.015   1.425
 1864SOL     OW 6490   3.130   5.881   4.092
 1864SOL    HW1 6491   3.047   5.899   4.145
 1864SOL    HW2 6492   3.202   5.945   4.120
 1865SOL     OW 6493   3.665   1.417   1.260
 1865SOL    HW1 6494   3.712   1.428   1.347
 1865SOL    HW2 6495   3.613   1.499   1.239
 1866SOL     OW 6496   6.436   4.563   3.972
 1866SOL    HW1 6497   6.497   4.547   3.895
 1866SOL    HW2 6498   6.462   4.648   4.018
 1867SOL     OW 6499   2.290   3.147   1.352
 1867SOL    HW1 6500   2.367   3.211   1.344
 1867SOL    HW2 6501   2.322   3.054   1.338
 1868SOL     OW 6502   4.823   3.442   5.350
 1868SOL    HW1 6503   4.920   3.467   5.355
 1868SOL    HW2 6504   4.771   3.518   5.311
 1869SOL     OW 6505   5.444   2.763   4.227
 1869SOL    HW1 6506   5.526   2.707   4.217
 1869SOL    HW2 6507   5.448   2.812   4.314
 1870SOL     OW 6508   0.698   3.265   4.633
 1870SOL    HW1 6509   0.628   3.313   4.685
 1870SOL    HW2 6510   0.783   3.260   4.687
 1871SOL     OW 6511   0.111   6.707   0.485
 1871SOL    HW1 6512   0.195   6.656   0.504
 1871SOL    HW2 6513   0.134   6.794   0.442
 1872SOL     OW 6514   3.528   2.687   0.671
 1872SOL    HW1 6515   3.453   2.646   0.619
 1872SOL    HW2 6516   3.500   2.777   0.704
 1873SOL     OW 6517   6.445   1.010   5.863
 1873SOL    HW1 6518   6.379   1.052   5.800
 1873SOL    HW2 6519   6.411   1.019   5.956
 1874SOL     OW 6520   1.152   1.005   6.820
 1874SOL    HW1 6521   1.116   0.958   6.901
 1874SOL    HW2 6522   1.093   0.984   6.742
 1875SOL     OW 6523   6.479   6.464   0.696
 1875SOL    HW1 6524   6.575   6.447   0.720
 1875SOL    HW2 6525   6.456   6.413   0.613
 1876SOL     OW 6526   5.144   6.923   6.047
 1876SOL    HW1 6527   5.160   6.909   5.950
 1876SOL    HW2 6528   5.231   6.935   6.095
 1877SOL     OW 6529   6.798   1.734   2.988
 1877SOL    HW1 6530   6.776   1.701   2.896
 1877SOL    HW2 6531   6.820   1.656   3.047
 1878SOL     OW 6532   6.880   4.440   3.128
 1878SOL    HW1 6533   6.833   4.517   3.172
 1878SOL    HW2 6534   6.969   4.426   3.171
 1879SOL     OW 6535   2.845   5.152   4.103
 1879SOL    HW1 6536   2.775   5.222   4.086
 1879SOL    HW2 6537   2.837   5.119   4.197
 1880SOL     OW 6538   1.014   2.312   2.803
 1880SOL    HW1 6539   0.918   2.325   2.828
 1880SOL    HW2 6540   1.036   2.214   2.805
 1881SOL     OW 6541   0.913   2.422   3.460
 1881SOL    HW1 6542   0.984   2.423   3.390
 1881SOL    HW2 6543   0.951   2.386   3.546
 1882SOL     OW 6544   1.046   6.145   6.650
 1882SOL    HW1 6545   1.041   6.157   6.749
 1882SOL    HW2 6546   1.141   6.159   6.620
 1883SOL     OW 6547   1.707   3.635   3.411
 1883SOL    HW1 6548   1.644   3.558   3.416
 1883SOL    HW2 6549   1.791   3.606   3.364
 1884SOL     OW 6550   5.069   1.085   1.897
 1884SOL    HW1 6551   5.074   1.182   1.875
 1884SOL    HW2 6552   4.975   1.053   1.889
 1885SOL     OW 6553   6.539   2.055   0.829
 1885SOL    HW1 6554   6.447   2.084   0.807
 1885SOL    HW2 6555   6.605   2.107   0.775
 1886SOL     OW 6556   2.124   2.180   6.906
 1886SOL    HW1 6557   2.217   2.143   6.917
 1886SOL    HW2 6558   2.064   2.108   6.870
 1887SOL     OW 6559   6.933   4.038   5.981
 1887SOL    HW1 6560   6.883   4.028   6.067
 1887SOL    HW2 6561   6.949   4.135   5.963
 1888SOL     OW 6562   2.336   1.596   6.194
 1888SOL    HW1 6563   2.310   1.577   6.099
 1888SOL    HW2 6564   2.432   1.573   6.209
 1889SOL     OW 6565   4.177   3.965   6.479
 1889SOL    HW1 6566   4.168   3.878   6.431
 1889SOL    HW2 6567   4.094   4.019   6.467
 1890SOL     OW 6568   1.759   5.535   6.288
 1890SOL    HW1 6569   1.835   5.578   6.238
 1890SOL    HW2 6570   1.795   5.461   6.344
 1891SOL     OW 6571   5.286   2.387   4.965
 1891SOL    HW1 6572   5.273   2.373   5.063
 1891SOL    HW2 6573   5.210   2.346   4.914
 1892SOL     OW 6574   3.795   5.870   1.173
 1892SOL    HW1 6575   3.734   5.901   1.246
 1892SOL    HW2 6576   3.873   5.822   1.212
 1893SOL     OW 6577   3.526   2.038   4.844
 1893SOL    HW1 6578   3.625   2.047   4.856
 1893SOL    HW2 6579   3.479   2.064   4.928
 1894SOL     OW 6580   4.218   3.582   1.679
 1894SOL    HW1 6581   4.213   3.567   1.778
 1894SOL    HW2 6582   4.133   3.553   1.637
 1895SOL     OW 6583   6.096   0.568   2.627
 1895SOL    HW1 6584   6.128   0.584   2.534
 1895SOL    HW2 6585   6.008   0.614   2.641
 1896SOL     OW 6586   6.682   0.713   3.298
 1896SOL    HW1 6587   6.632   0.755   3.374
 1896SOL    HW2 6588   6.628   0.720   3.215
 1897SOL     OW 6589   6.687   5.499   3.347
 1897SOL    HW1 6590   6.610   5.442   3.375
 1897SOL    HW2 6591   6.657   5.594   3.337
 1898SOL     OW 6592   3.754   6.411   1.475
 1898SOL    HW1 6593   3.792   6.443   1.561
 1898SOL    HW2 6594   3.823   6.360   1.424
 1899SOL     OW 6595   1.371   3.331   2.914
 1899SOL    HW1 6596   1.289   3.346   2.859
 1899SOL    HW2 6597   1.410   3.242   2.892
 1900SOL     OW 6598   0.885   6.859   6.097
 1900SOL    HW1 6599   0.886   6.958   6.112
 1900SOL    HW2 6600   0.979   6.827   6.081
 1901SOL     OW 6601   2.098   1.292   0.743
 1901SOL    HW1 6602   2.115   1.315   0.647
 1901SOL    HW2 6603   2.056   1.202   0.749
 1902SOL     OW 6604   1.613   2.695   4.786
 1902SOL    HW1 6605   1.682   2.622   4.791
 1902SOL    HW2 6606   1.574   2.697   4.695
 1903SOL     OW 6607   6.983   3.796   3.452
 1903SOL    HW1 6608   7.018   3.773   3.543
 1903SOL    HW2 6609   6.944   3.715   3.409
 1904SOL     OW 6610   6.950   0.132   4.570
 1904SOL    HW1 6611   6.850   0.125   4.567
 1904SOL    HW2 6612   6.979   0.221   4.534
 1905SOL     OW 6613   0.543   2.485   3.766
 1905SOL    HW1 6614   0.515   2.578   3.786
 1905SOL    HW2 6615   0.520   2.463   3.671
 1906SOL     OW 6616   2.792   0.381   5.650
 1906SOL    HW1 6617   2.870   0.332   5.688
 1906SOL    HW2 6618   2.714   0.374   5.712
 1907SOL     OW 6619   3.353   6.974   3.448
 1907SOL    HW1 6620   3.276   6.946   3.506
 1907SOL    HW2 6621   3.416   0.008   3.501
 1908SOL     OW 6622   4.597   1.136   5.242
 1908SOL    HW1 6623   4.542   1.080   5.304
 1908SOL    HW2 6624   4.547   1.219   5.218
 1909SOL     OW 6625   2.123   4.122   3.872
 1909SOL    HW1 6626   2.034   4.168   3.875
 1909SOL    HW2 6627   2.154   4.116   3.777
 1910SOL     OW 6628   5.719   2.701   6.318
 1910SOL    HW1 6629   5.707   2.794   6.282
 1910SOL    HW2 6630   5.631   2.667   6.351
 1911SOL     OW 6631   6.690   2.086   5.555
 1911SOL    HW1 6632   6.733   2.065   5.643
 1911SOL    HW2 6633   6.591   2.069   5.561
 1912SOL     OW 6634   3.671   6.463   2.536
 1912SOL    HW1 6635   3.662   6.404   2.455
 1912SOL    HW2 6636   3.723   6.545   2.511
 1913SOL     OW 6637   1.505   6.246   5.312
 1913SOL    HW1 6638   1.532   6.339   5.285
 1913SOL    HW2 6639   1.582   6.184   5.299
 1914SOL     OW 6640   2.876   2.558   6.620
 1914SOL    HW1 6641   2.804   2.488   6.628
 1914SOL    HW2 6642   2.835   2.649   6.627
 1915SOL     OW 6643   3.565   1.293   5.441
 1915SOL    HW1 6644   3.495   1.352   5.480
 1915SOL    HW2 6645   3.615   1.343   5.370
 1916SOL     OW 6646   3.563   5.602   0.793
 1916SOL    HW1 6647   3.489   5.541   0.821
 1916SOL    HW2 6648   3.624   5.617   0.870
 1917SOL     OW 6649   3.677   3.323   4.603
 1917SOL    HW1 6650   3.729   3.300   4.521
 1917SOL    HW2 6651   3.583   3.347   4.578
 1918SOL     OW 6652   6.410   6.457   6.153
 1918SOL    HW1 6653   6.324   6.410   6.139
 1918SOL    HW2 6654   6.400   6.554   6.128
 1919SOL     OW 6655   1.085   6.865   2.334
 1919SOL    HW1 6656   1.058   6.800   2.406
 1919SOL    HW2 6657   1.003   6.904   2.292
 1920SOL     OW 6658   0.501   4.661   3.144
 1920SOL    HW1 6659   0.491   4.725   3.068
 1920SOL    HW2 6660   0.414   4.653   3.193
 1921SOL     OW 6661   0.564   4.934   0.095
 1921SOL    HW1 6662   0.556   4.838   0.068
 1921SOL    HW2 6663   0.488   4.958   0.155
 1922SOL     OW 6664   3.878   3.152   1.103
 1922SOL    HW1 6665   3.868   3.114   1.195
 1922SOL    HW2 6666   3.904   3.249   1.110
 1923SOL     OW 6667   2.935   1.105   6.928
 1923SOL    HW1 6668   2.888   1.190   6.953
 1923SOL    HW2 6669   2.918   1.086   6.831
 1924SOL     OW 6670   5.526   5.609   2.661
 1924SOL    HW1 6671   5.435   5.576   2.685
 1924SOL    HW2 6672   5.591   5.533   2.661
 1925SOL     OW 6673   2.969   3.761   2.128
 1925SOL    HW1 6674   2.965   3.663   2.106
 1925SOL    HW2 6675   2.893   3.808   2.082
 1926SOL     OW 6676   1.172   6.894   3.705
 1926SOL    HW1 6677   1.231   6.951   3.648
 1926SOL    HW2 6678   1.158   6.938   3.794
 1927SOL     OW 6679   3.591   5.231   6.541
 1927SOL    HW1 6680   3.503   5.256   6.502
 1927SOL    HW2 6681   3.597   5.131   6.548
 1928SOL     OW 6682   6.445   3.543   6.117
 1928SOL    HW1 6683   6.399   3.454   6.128
 1928SOL    HW2 6684   6.536   3.529   6.080
 1929SOL     OW 6685   0.405   5.845   1.391
 1929SOL    HW1 6686   0.498   5.845   1.354
 1929SOL    HW2 6687   0.369   5.752   1.390
 1930SOL     OW 6688   5.098   4.392   0.107
 1930SOL    HW1 6689   5.126   4.450   0.183
 1930SOL    HW2 6690   5.130   4.432   0.021
 1931SOL     OW 6691   6.791   3.256   3.337
 1931SOL    HW1 6692   6.870   3.307   3.303
 1931SOL    HW2 6693   6.822   3.178   3.391
 1932SOL     OW 6694   5.084   3.851   2.995
 1932SOL    HW1 6695   5.071   3.882   3.090
 1932SOL    HW2 6696   5.019   3.778   2.975
 1933SOL     OW 6697   2.612   4.657   0.938
 1933SOL    HW1 6698   2.686   4.589   0.934
 1933SOL    HW2 6699   2.576   4.662   1.031
 1934SOL     OW 6700   0.551   0.351   5.777
 1934SOL    HW1 6701   0.608   0.299   5.840
 1934SOL    HW2 6702   0.467   0.380   5.823
 1935SOL     OW 6703   3.211   0.690   4.916
 1935SOL    HW1 6704   3.262   0.617   4.871
 1935SOL    HW2 6705   3.115   0.685   4.890
 1936SOL     OW 6706   5.926   4.551   3.947
 1936SOL    HW1 6707   5.963   4.492   3.875
 1936SOL    HW2 6708   6.000   4.577   4.009
 1937SOL     OW 6709   3.955   6.241   1.698
 1937SOL    HW1 6710   3.913   6.318   1.746
 1937SOL    HW2 6711   3.983   6.171   1.764
 1938SOL     OW 6712   4.549   1.551   2.926
 1938SOL    HW1 6713   4.612   1.614   2.971
 1938SOL    HW2 6714   4.569   1.458   2.955
 1939SOL     OW 6715   0.522   6.620   4.368
 1939SOL    HW1 6716   0.474   6.540   4.331
 1939SOL    HW2 6717   0.462   6.700   4.362
 1940SOL     OW 6718   4.829   5.311   5.412
 1940SOL    HW1 6719   4.776   5.361   5.343
 1940SOL    HW2 6720   4.919   5.352   5.420
 1941SOL     OW 6721   6.928   4.031   3.287
 1941SOL    HW1 6722   6.898   4.114   3.334
 1941SOL    HW2 6723   6.962   3.966   3.355
 1942SOL     OW 6724   6.713   0.280   2.863
 1942SOL    HW1 6725   6.671   0.270   2.773
 1942SOL    HW2 6726   6.670   0.357   2.911
 1943SOL     OW 6727   3.032   6.177   2.262
 1943SOL    HW1 6728   3.119   6.183   2.213
 1943SOL    HW2 6729   3.010   6.080   2.279
 1944SOL     OW 6730   4.492   2.365   6.197
 1944SOL    HW1 6731   4.571   2.422   6.174
 1944SOL    HW2 6732   4.411   2.397   6.148
 1945SOL     OW 6733   4.057   5.891   2.604
 1945SOL    HW1 6734   4.093   5.885   2.511
 1945SOL    HW2 6735   4.000   5.811   2.622
 1946SOL     OW 6736   6.984   0.693   0.106
 1946SOL    HW1 6737   6.897   0.742   0.099
 1946SOL    HW2 6738   6.968   0.594   0.100
 1947SOL     OW 6739   5.061   6.606   3.587
 1947SOL    HW1 6740   4.972   6.642   3.560
 1947SOL    HW2 6741   5.049   6.524   3.642
 1948SOL     OW 6742   6.305   5.779   3.650
 1948SOL    HW1 6743   6.350   5.775   3.560
 1948SOL    HW2 6744   6.374   5.777   3.722
 1949SOL     OW 6745   4.586   4.844   5.985
 1949SOL    HW1 6746   4.580   4.944   5.996
 1949SOL    HW2 6747   4.535   4.800   6.059
 1950SOL     OW 6748   3.900   4.012   1.006
 1950SOL    HW1 6749   3.878   4.104   0.973
 1950SOL    HW2 6750   3.844   3.945   0.957
 1951SOL     OW 6751   6.428   3.882   0.225
 1951SOL    HW1 6752   6.433   3.782   0.229
 1951SOL    HW2 6753   6.513   3.920   0.261
 1952SOL     OW 6754   3.576   2.209   6.750
 1952SOL    HW1 6755   3.488   2.252   6.731
 1952SOL    HW2 6756   3.641   2.279   6.780
 1953SOL     OW 6757   5.933   2.395   0.104
 1953SOL    HW1 6758   6.027   2.365   0.121
 1953SOL    HW2 6759   5.929   2.445   0.017
 1954SOL     OW 6760   5.739   1.358   3.924
 1954SOL    HW1 6761   5.673   1.294   3.886
 1954SOL    HW2 6762   5.748   1.343   4.022
 1955SOL     OW 6763   1.405   0.475   2.185
 1955SOL    HW1 6764   1.333   0.449   2.249
 1955SOL    HW2 6765   1.476   0.404   2.183
 1956SOL     OW 6766   6.242   7.008   2.429
 1956SOL    HW1 6767   6.254   0.042   2.510
 1956SOL    HW2 6768   6.332   6.981   2.394
 1957SOL     OW 6769   6.543   5.261   4.725
 1957SOL    HW1 6770   6.474   5.292   4.659
 1957SOL    HW2 6771   6.543   5.322   4.804
 1958SOL     OW 6772   6.106   2.509   4.161
 1958SOL    HW1 6773   6.055   2.586   4.199
 1958SOL    HW2 6774   6.051   2.426   4.167
 1959SOL     OW 6775   6.980   2.178   6.001
 1959SOL    HW1 6776   6.919   2.174   6.080
 1959SOL    HW2 6777   6.992   2.086   5.964
 1960SOL     OW 6778   6.491   4.977   0.525
 1960SOL    HW1 6779   6.539   4.988   0.612
 1960SOL    HW2 6780   6.459   4.883   0.516
 1961SOL     OW 6781   5.770   4.724   4.682
 1961SOL    HW1 6782   5.841   4.727   4.752
 1961SOL    HW2 6783   5.684   4.758   4.720
 1962SOL     OW 6784   3.262   6.277   2.902
 1962SOL    HW1 6785   3.175   6.230   2.890
 1962SOL    HW2 6786   3.259   6.334   2.984
 1963SOL     OW 6787   0.979   1.032   1.138
 1963SOL    HW1 6788   1.005   1.127   1.156
 1963SOL    HW2 6789   0.986   0.979   1.222
 1964SOL     OW 6790   4.242   2.613   1.307
 1964SOL    HW1 6791   4.291   2.535   1.268
 1964SOL    HW2 6792   4.302   2.693   1.306
 1965SOL     OW 6793   1.091   3.377   3.380
 1965SOL    HW1 6794   1.102   3.288   3.424
 1965SOL    HW2 6795   1.166   3.392   3.316
 1966SOL     OW 6796   0.064   5.576   4.963
 1966SOL    HW1 6797   0.110   5.490   4.943
 1966SOL    HW2 6798   0.111   5.623   5.037
 1967SOL     OW 6799   5.192   2.086   5.104
 1967SOL    HW1 6800   5.207   1.999   5.151
 1967SOL    HW2 6801   5.133   2.071   5.025
 1968SOL     OW 6802   2.735   5.953   0.757
 1968SOL    HW1 6803   2.809   5.922   0.697
 1968SOL    HW2 6804   2.754   5.925   0.851
 1969SOL     OW 6805   0.417   1.320   1.321
 1969SOL    HW1 6806   0.433   1.308   1.224
 1969SOL    HW2 6807   0.326   1.284   1.345
 1970SOL     OW 6808   2.159   0.362   6.429
 1970SOL    HW1 6809   2.192   0.408   6.347
 1970SOL    HW2 6810   2.108   0.280   6.402
 1971SOL     OW 6811   6.325   6.890   6.254
 1971SOL    HW1 6812   6.364   6.826   6.187
 1971SOL    HW2 6813   6.288   6.969   6.206
 1972SOL     OW 6814   6.588   2.855   2.837
 1972SOL    HW1 6815   6.664   2.820   2.782
 1972SOL    HW2 6816   6.623   2.899   2.919
 1973SOL     OW 6817   2.414   3.382   1.130
 1973SOL    HW1 6818   2.346   3.312   1.153
 1973SOL    HW2 6819   2.460   3.357   1.046
 1974SOL     OW 6820   6.206   5.969   3.991
 1974SOL    HW1 6821   6.296   5.934   4.017
 1974SOL    HW2 6822   6.135   5.906   4.021
 1975SOL     OW 6823   2.367   1.208   3.156
 1975SOL    HW1 6824   2.366   1.182   3.059
 1975SOL    HW2 6825   2.371   1.307   3.163
 1976SOL     OW 6826   0.785   5.625   6.749
 1976SOL    HW1 6827   0.819   5.708   6.705
 1976SOL    HW2 6828   0.858   5.584   6.804
 1977SOL     OW 6829   1.513   2.770   3.503
 1977SOL    HW1 6830   1.534   2.695   3.440
 1977SOL    HW2 6831   1.586   2.838   3.499
 1978SOL     OW 6832   0.807   1.088   3.588
 1978SOL    HW1 6833   0.712   1.072   3.615
 1978SOL    HW2 6834   0.817   1.180   3.552
 1979SOL     OW 6835   6.860   4.215   4.846
 1979SOL    HW1 6836   6.794   4.277   4.806
 1979SOL    HW2 6837   6.931   4.267   4.893
 1980SOL     OW 6838   2.683   0.822   6.246
 1980SOL    HW1 6839   2.665   0.724   6.256
 1980SOL    HW2 6840   2.775   0.835   6.208
 1981SOL     OW 6841   6.231   1.647   2.333
 1981SOL    HW1 6842   6.299   1.631   2.405
 1981SOL    HW2 6843   6.139   1.631   2.369
 1982SOL     OW 6844   0.013   4.102   5.432
 1982SOL    HW1 6845   0.064   4.027   5.474
 1982SOL    HW2 6846   0.019   4.183   5.489
 1983SOL     OW 6847   0.939   1.960   2.926
 1983SOL    HW1 6848   0.916   2.006   2.840
 1983SOL    HW2 6849   1.005   1.887   2.909
 1984SOL     OW 6850   5.665   1.147   4.554
 1984SOL    HW1 6851   5.628   1.208   4.485
 1984SOL    HW2 6852   5.762   1.130   4.536
 1985SOL     OW 6853   1.023   0.720   2.802
 1985SOL    HW1 6854   1.077   0.661   2.741
 1985SOL    HW2 6855   1.079   0.745   2.881
 1986SOL     OW 6856   1.535   0.507   0.514
 1986SOL    HW1 6857   1.517   0.436   0.582
 1986SOL    HW2 6858   1.621   0.487   0.467
 1987SOL     OW 6859   1.816   2.692   1.263
 1987SOL    HW1 6860   1.880   2.669   1.190
 1987SOL    HW2 6861   1.723   2.671   1.233
 1988SOL     OW 6862   4.732   4.624   1.084
 1988SOL    HW1 6863   4.719   4.631   0.985
 1988SOL    HW2 6864   4.733   4.527   1.111
 1989SOL     OW 6865   2.191   6.372   5.107
 1989SOL    HW1 6866   2.265   6.324   5.060
 1989SOL    HW2 6867   2.229   6.439   5.171
 1990SOL     OW 6868   3.195   6.556   0.939
 1990SOL    HW1 6869   3.118   6.576   0.880
 1990SOL    HW2 6870   3.213   6.458   0.939
 1991SOL     OW 6871   4.492   4.771   6.234
 1991SOL    HW1 6872   4.425   4.702   6.204
 1991SOL    HW2 6873   4.450   4.828   6.305
 1992SOL     OW 6874   1.145   6.852   7.001
 1992SOL    HW1 6875   1.093   6.801   6.932
 1992SOL    HW2 6876   1.104   6.942   7.014
 1993SOL     OW 6877   4.080   3.696   5.197
 1993SOL    HW1 6878   4.115   3.604   5.179
 1993SOL    HW2 6879   3.995   3.690   5.249
 1994SOL     OW 6880   1.177   1.746   0.728
 1994SOL    HW1 6881   1.135   1.836   0.731
 1994SOL    HW2 6882   1.108   1.676   0.751
 1995SOL     OW 6883   6.053   2.311   1.633
 1995SOL    HW1 6884   6.124   2.245   1.655
 1995SOL    HW2 6885   6.044   2.319   1.534
 1996SOL     OW 6886   2.927   3.565   1.091
 1996SOL    HW1 6887   2.911   3.478   1.045
 1996SOL    HW2 6888   2.982   3.624   1.032
 1997SOL     OW 6889   4.874   0.533   5.337
 1997SOL    HW1 6890   4.916   0.590   5.408
 1997SOL    HW2 6891   4.824   0.591   5.273
 1998SOL     OW 6892   3.044   3.671   6.458
 1998SOL    HW1 6893   2.987   3.753   6.469
 1998SOL    HW2 6894   3.105   3.684   6.379
 1999SOL     OW 6895   2.983   6.636   1.699
 1999SOL    HW1 6896   3.076   6.600   1.692
 1999SOL    HW2 6897   2.932   6.585   1.768
 2000SOL     OW 6898   3.838   2.226   5.355
 2000SOL    HW1 6899   3.901   2.304   5.359
 2000SOL    HW2 6900   3.886   2.147   5.317
 2001SOL     OW 6901   3.227   2.136   1.672
 2001SOL    HW1 6902   3.255   2.138   1.767
 2001SOL    HW2 6903   3.240   2.044   1.635
 2002SOL     OW 6904   1.375   5.259   6.000
 2002SOL    HW1 6905   1.440   5.333   6.020
 2002SOL    HW2 6906   1.305   5.256   6.071
 2003SOL     OW 6907   6.124   6.919   3.478
 2003SOL    HW1 6908   6.134   6.926   3.379
 2003SOL    HW2 6909   6.035   6.878   3.500
 2004SOL     OW 6910   5.341   1.432   5.431
 2004SOL    HW1 6911   5.284   1.448   5.511
 2004SOL    HW2 6912   5.409   1.505   5.423
 2005SOL     OW 6913   1.055   5.236   6.431
 2005SOL    HW1 6914   1.023   5.192   6.515
 2005SOL    HW2 6915   1.018   5.329   6.427
 2006SOL     OW 6916   5.217   4.562   4.348
 2006SOL    HW1 6917   5.144   4.494   4.336
 2006SOL    HW2 6918   5.295   4.537   4.291
 2007SOL     OW 6919   3.753   5.330   0.774
 2007SOL    HW1 6920   3.839   5.281   0.755
 2007SOL    HW2 6921   3.766   5.390   0.853
 2008SOL     OW 6922   0.910   6.096   3.156
 2008SOL    HW1 6923   0.950   6.083   3.246
 2008SOL    HW2 6924   0.906   6.194   3.134
 2009SOL     OW 6925   6.257   6.982   1.375
 2009SOL    HW1 6926   6.224   6.947   1.463
 2009SOL    HW2 6927   6.357   6.988   1.377
 2010SOL     OW 6928   1.706   1.308   1.335
 2010SOL    HW1 6929   1.707   1.346   1.427
 2010SOL    HW2 6930   1.731   1.379   1.269
 2011SOL     OW 6931   6.992   1.909   5.313
 2011SOL    HW1 6932   0.004   1.954   5.231
 2011SOL    HW2 6933   6.896   1.930   5.325
 2012SOL     OW 6934   0.933   3.205   1.575
 2012SOL    HW1 6935   0.935   3.296   1.616
 2012SOL    HW2 6936   0.923   3.213   1.476
 2013SOL     OW 6937   5.643   0.603   3.465
 2013SOL    HW1 6938   5.739   0.629   3.475
 2013SOL    HW2 6939   5.597   0.668   3.405
 2014SOL     OW 6940   1.773   5.365   2.785
 2014SOL    HW1 6941   1.688   5.393   2.830
 2014SOL    HW2 6942   1.819   5.447   2.749
 2015SOL     OW 6943   2.480   1.767   6.599
 2015SOL    HW1 6944   2.470   1.777   6.698
 2015SOL    HW2 6945   2.531   1.845   6.563
 2016SOL     OW 6946   1.187   5.313   5.239
 2016SOL    HW1 6947   1.188   5.231   5.182
 2016SOL    HW2 6948   1.157   5.289   5.331
 2017SOL     OW 6949   2.670   6.769   4.535
 2017SOL    HW1 6950   2.685   6.704   4.460
 2017SOL    HW2 6951   2.708   6.858   4.509
 2018SOL     OW 6952   5.678   6.822   6.133
 2018SOL    HW1 6953   5.697   6.741   6.190
 2018SOL    HW2 6954   5.755   6.836   6.070
 2019SOL     OW 6955   4.695   2.301   2.369
 2019SOL    HW1 6956   4.709   2.207   2.337
 2019SOL    HW2 6957   4.782   2.339   2.402
 2020SOL     OW 6958   1.125   5.241   5.493
 2020SOL    HW1 6959   1.131   5.142   5.491
 2020SOL    HW2 6960   1.120   5.273   5.587
 2021SOL     OW 6961   2.079   5.695   3.849
 2021SOL    HW1 6962   2.051   5.605   3.881
 2021SOL    HW2 6963   2.086   5.757   3.927
 2022SOL     OW 6964   2.172   3.288   2.572
 2022SOL    HW1 6965   2.204   3.245   2.656
 2022SOL    HW2 6966   2.195   3.230   2.494
 2023SOL     OW 6967   6.216   1.483   6.814
 2023SOL    HW1 6968   6.202   1.583   6.813
 2023SOL    HW2 6969   6.203   1.448   6.721
 2024SOL     OW 6970   0.161   0.425   2.704
 2024SOL    HW1 6971   0.080   0.400   2.756
 2024SOL    HW2 6972   0.159   0.378   2.616
 2025SOL     OW 6973   2.154   2.966   1.979
 2025SOL    HW1 6974   2.148   3.042   1.915
 2025SOL    HW2 6975   2.064   2.948   2.018
 2026SOL     OW 6976   1.131   2.413   6.306
 2026SOL    HW1 6977   1.139   2.432   6.208
 2026SOL    HW2 6978   1.053   2.352   6.321
 2027SOL     OW 6979   0.913   1.301   1.065
 2027SOL    HW1 6980   0.963   1.244   1.000
 2027SOL    HW2 6981   0.969   1.380   1.090
 2028SOL     OW 6982   3.180   1.077   6.207
 2028SOL    HW1 6983   3.238   1.156   6.187
 2028SOL    HW2 6984   3.084   1.104   6.203
 2029SOL     OW 6985   0.003   0.755   0.606
 2029SOL    HW1 6986   0.082   0.701   0.633
 2029SOL    HW2 6987   6.943   0.712   0.642
 2030SOL     OW 6988   2.677   0.530   3.879
 2030SOL    HW1 6989   2.777   0.530   3.873
 2030SOL    HW2 6990   2.639   0.574   3.798
 2031SOL     OW 6991   5.154   6.256   2.542
 2031SOL    HW1 6992   5.231   6.193   2.530
 2031SOL    HW2 6993   5.071   6.213   2.507
 2032SOL     OW 6994   3.875   6.531   2.269
 2032SOL    HW1 6995   3.894   6.593   2.193
 2032SOL    HW2 6996   3.859   6.585   2.352
 2033SOL     OW 6997   3.709   4.280   6.731
 2033SOL    HW1 6998   3.747   4.196   6.692
 2033SOL    HW2 6999   3.744   4.292   6.824
 2034SOL     OW 7000   3.689   0.085   4.578
 2034SOL    HW1 7001   3.600   0.086   4.532
 2034SOL    HW2 7002   3.732   7.019   4.564
 2035SOL     OW 7003   6.976   0.694   1.971
 2035SOL    HW1 7004   0.013   0.772   1.948
 2035SOL    HW2 7005   6.905   0.686   1.901
 2036SOL     OW 7006   0.931   5.488   3.102
 2036SOL    HW1 7007   1.010   5.523   3.052
 2036SOL    HW2 7008   0.847   5.522   3.060
 2037SOL     OW 7009   0.784   2.845   5.988
 2037SOL    HW1 7010   0.835   2.777   5.936
 2037SOL    HW2 7011   0.736   2.907   5.925
 2038SOL     OW 7012   1.597   2.184   6.391
 2038SOL    HW1 7013   1.693   2.195   6.414
 2038SOL    HW2 7014   1.579   2.224   6.301
 2039SOL     OW 7015   0.311   5.434   2.404
 2039SOL    HW1 7016   0.224   5.481   2.387
 2039SOL    HW2 7017   0.293   5.339   2.429
 2040SOL     OW 7018   3.329   3.368   5.309
 2040SOL    HW1 7019   3.382   3.424   5.373
 2040SOL    HW2 7020   3.376   3.282   5.292
 2041SOL     OW 7021   6.931   5.966   5.572
 2041SOL    HW1 7022   6.837   5.991   5.548
 2041SOL    HW2 7023   6.988   6.048   5.571
 2042SOL     OW 7024   5.420   5.034   6.853
 2042SOL    HW1 7025   5.418   5.122   6.901
 2042SOL    HW2 7026   5.405   5.050   6.755
 2043SOL     OW 7027   6.541   4.345   2.477
 2043SOL    HW1 7028   6.508   4.259   2.437
 2043SOL    HW2 7029   6.620   4.377   2.426
 2044SOL     OW 7030   4.988   0.562   1.905
 2044SOL    HW1 7031   5.075   0.556   1.856
 2044SOL    HW2 7032   4.988   0.644   1.963
 2045SOL     OW 7033   2.101   4.745   4.581
 2045SOL    HW1 7034   2.096   4.687   4.661
 2045SOL    HW2 7035   2.143   4.695   4.505
 2046SOL     OW 7036   0.407   1.062   4.329
 2046SOL    HW1 7037   0.495   1.058   4.376
 2046SOL    HW2 7038   0.407   0.997   4.253
 2047SOL     OW 7039   4.788   2.050   0.140
 2047SOL    HW1 7040   4.695   2.034   0.170
 2047SOL    HW2 7041   4.835   2.110   0.205
 2048SOL     OW 7042   2.098   5.833   0.680
 2048SOL    HW1 7043   2.090   5.855   0.777
 2048SOL    HW2 7044   2.014   5.790   0.648
 2049SOL     OW 7045   4.571   1.547   6.357
 2049SOL    HW1 7046   4.635   1.623   6.367
 2049SOL    HW2 7047   4.485   1.582   6.319
 2050SOL     OW 7048   0.000   2.607   2.525
 2050SOL    HW1 7049   0.085   2.654   2.502
 2050SOL    HW2 7050   0.019   2.536   2.593
 2051SOL     OW 7051   0.519   5.967   0.891
 2051SOL    HW1 7052   0.446   5.998   0.953
 2051SOL    HW2 7053   0.583   6.042   0.875
 2052SOL     OW 7054   0.357   4.497   0.525
 2052SOL    HW1 7055   0.434   4.503   0.461
 2052SOL    HW2 7056   0.280   4.453   0.479
 2053SOL     OW 7057   5.845   0.621   5.612
 2053SOL    HW1 7058   5.791   0.675   5.548
 2053SOL    HW2 7059   5.907   0.561   5.562
 2054SOL     OW 7060   4.131   2.665   1.689
 2054SOL    HW1 7061   4.098   2.686   1.597
 2054SOL    HW2 7062   4.089   2.580   1.721
 2055SOL     OW 7063   6.244   3.515   3.071
 2055SOL    HW1 7064   6.270   3.450   3.000
 2055SOL    HW2 7065   6.302   3.502   3.151
 2056SOL     OW 7066   2.547   0.449   3.223
 2056SOL    HW1 7067   2.463   0.494   3.254
 2056SOL    HW2 7068   2.604   0.426   3.302
 2057SOL     OW 7069   5.546   3.036   3.564
 2057SOL    HW1 7070   5.609   3.065   3.492
 2057SOL    HW2 7071   5.466   3.095   3.565
 2058SOL     OW 7072   1.550   1.921   3.042
 2058SOL    HW1 7073   1.479   1.908   2.972
 2058SOL    HW2 7074   1.629   1.865   3.021
 2059SOL     OW 7075   2.351   5.892   6.238
 2059SOL    HW1 7076   2.325   5.989   6.231
 2059SOL    HW2 7077   2.286   5.837   6.186
 2060SOL     OW 7078   5.746   4.448   0.240
 2060SOL    HW1 7079   5.767   4.486   0.150
 2060SOL    HW2 7080   5.769   4.514   0.311
 2061SOL     OW 7081   0.790   1.479   2.930
 2061SOL    HW1 7082   0.813   1.568   2.970
 2061SOL    HW2 7083   0.835   1.407   2.982
 2062SOL     OW 7084   5.992   0.216   3.540
 2062SOL    HW1 7085   5.900   0.179   3.524
 2062SOL    HW2 7086   6.030   0.251   3.455
 2063SOL     OW 7087   1.791   0.676   6.127
 2063SOL    HW1 7088   1.800   0.649   6.223
 2063SOL    HW2 7089   1.779   0.594   6.070
 2064SOL     OW 7090   0.867   2.229   5.927
 2064SOL    HW1 7091   0.822   2.190   5.846
 2064SOL    HW2 7092   0.962   2.199   5.930
 2065SOL     OW 7093   6.919   3.169   3.584
 2065SOL    HW1 7094   6.977   3.129   3.655
 2065SOL    HW2 7095   6.873   3.250   3.621
 2066SOL     OW 7096   0.378   5.611   3.440
 2066SOL    HW1 7097   0.448   5.669   3.400
 2066SOL    HW2 7098   0.309   5.668   3.485
 2067SOL     OW 7099   6.900   5.840   0.868
 2067SOL    HW1 7100   6.920   5.876   0.777
 2067SOL    HW2 7101   6.914   5.741   0.870
 2068SOL     OW 7102   1.259   1.935   5.507
 2068SOL    HW1 7103   1.259   2.029   5.472
 2068SOL    HW2 7104   1.325   1.881   5.457
 2069SOL     OW 7105   1.289   2.847   3.361
 2069SOL    HW1 7106   1.217   2.857   3.429
 2069SOL    HW2 7107   1.374   2.816   3.406
 2070SOL     OW 7108   1.423   0.851   2.516
 2070SOL    HW1 7109   1.398   0.804   2.431
 2070SOL    HW2 7110   1.492   0.797   2.564
 2071SOL     OW 7111   6.125   6.000   5.274
 2071SOL    HW1 7112   6.086   5.928   5.216
 2071SOL    HW2 7113   6.222   6.011   5.253
 2072SOL     OW 7114   4.453   6.936   2.469
 2072SOL    HW1 7115   4.492   6.943   2.377
 2072SOL    HW2 7116   4.481   7.016   2.522
 2073SOL     OW 7117   4.057   0.011   4.450
 2073SOL    HW1 7118   4.129   0.053   4.394
 2073SOL    HW2 7119   3.969   0.026   4.405
 2074SOL     OW 7120   1.221   3.259   6.975
 2074SOL    HW1 7121   1.240   3.357   6.971
 2074SOL    HW2 7122   1.207   3.232   0.048
 2075SOL     OW 7123   5.453   2.767   1.612
 2075SOL    HW1 7124   5.458   2.741   1.516
 2075SOL    HW2 7125   5.376   2.720   1.656
 2076SOL     OW 7126   5.286   6.786   6.439
 2076SOL    HW1 7127   5.207   6.841   6.410
 2076SOL    HW2 7128   5.277   6.694   6.401
 2077SOL     OW 7129   5.664   2.695   2.672
 2077SOL    HW1 7130   5.597   2.642   2.620
 2077SOL    HW2 7131   5.747   2.640   2.686
 2078SOL     OW 7132   1.773   6.203   6.390
 2078SOL    HW1 7133   1.846   6.181   6.455
 2078SOL    HW2 7134   1.742   6.120   6.344
 2079SOL     OW 7135   6.020   1.360   3.353
 2079SOL    HW1 7136   6.075   1.364   3.437
 2079SOL    HW2 7137   6.006   1.265   3.327
 2080SOL     OW 7138   1.378   0.817   4.471
 2080SOL    HW1 7139   1.472   0.834   4.502
 2080SOL    HW2 7140   1.316   0.879   4.520
 2081SOL     OW 7141   1.742   5.623   4.276
 2081SOL    HW1 7142   1.830   5.662   4.302
 2081SOL    HW2 7143   1.709   5.668   4.193
 2082SOL     OW 7144   6.874   6.965   3.166
 2082SOL    HW1 7145   6.823   6.929   3.244
 2082SOL    HW2 7146   6.971   6.944   3.176
 2083SOL     OW 7147   5.460   5.106   6.084
 2083SOL    HW1 7148   5.371   5.126   6.124
 2083SOL    HW2 7149   5.531   5.160   6.129
 2084SOL     OW 7150   0.630   3.761   4.093
 2084SOL    HW1 7151   0.542   3.714   4.082
 2084SOL    HW2 7152   0.680   3.721   4.169
 2085SOL     OW 7153   4.665   0.385   6.780
 2085SOL    HW1 7154   4.611   0.304   6.756
 2085SOL    HW2 7155   4.604   0.465   6.786
 2086SOL     OW 7156   4.091   6.697   6.027
 2086SOL    HW1 7157   4.183   6.704   6.065
 2086SOL    HW2 7158   4.029   6.664   6.099
 2087SOL     OW 7159   5.089   0.357   1.651
 2087SOL    HW1 7160   5.143   0.409   1.718
 2087SOL    HW2 7161   5.045   0.280   1.696
 2088SOL     OW 7162   2.863   6.265   0.917
 2088SOL    HW1 7163   2.881   6.322   0.997
 2088SOL    HW2 7164   2.891   6.171   0.937
 2089SOL     OW 7165   5.653   2.277   6.331
 2089SOL    HW1 7166   5.600   2.193   6.328
 2089SOL    HW2 7167   5.628   2.336   6.254
 2090SOL     OW 7168   3.575   3.090   5.630
 2090SOL    HW1 7169   3.643   3.092   5.703
 2090SOL    HW2 7170   3.598   3.159   5.561
 2091SOL     OW 7171   0.051   5.382   0.573
 2091SOL    HW1 7172   0.052   5.385   0.673
 2091SOL    HW2 7173   0.023   5.471   0.538
 2092SOL     OW 7174   4.989   4.294   6.711
 2092SOL    HW1 7175   5.084   4.325   6.713
 2092SOL    HW2 7176   4.950   4.302   6.802
 2093SOL     OW 7177   2.360   2.333   1.134
 2093SOL    HW1 7178   2.442   2.280   1.154
 2093SOL    HW2 7179   2.307   2.348   1.218
 2094SOL     OW 7180   5.526   1.469   1.179
 2094SOL    HW1 7181   5.473   1.539   1.226
 2094SOL    HW2 7182   5.482   1.447   1.092
 2095SOL     OW 7183   5.407   0.543   4.902
 2095SOL    HW1 7184   5.493   0.568   4.859
 2095SOL    HW2 7185   5.356   0.626   4.926
 2096SOL     OW 7186   5.171   4.023   3.452
 2096SOL    HW1 7187   5.115   4.014   3.370
 2096SOL    HW2 7188   5.127   3.973   3.528
 2097SOL     OW 7189   2.373   3.247   6.471
 2097SOL    HW1 7190   2.286   3.287   6.500
 2097SOL    HW2 7191   2.411   3.194   6.547
 2098SOL     OW 7192   4.438   5.876   2.980
 2098SOL    HW1 7193   4.359   5.900   2.924
 2098SOL    HW2 7194   4.499   5.815   2.929
 2099SOL     OW 7195   2.646   3.582   5.692
 2099SOL    HW1 7196   2.706   3.509   5.662
 2099SOL    HW2 7197   2.693   3.670   5.683
 2100SOL     OW 7198   4.760   3.251   5.586
 2100SOL    HW1 7199   4.783   3.341   5.548
 2100SOL    HW2 7200   4.828   3.227   5.656
 2101SOL     OW 7201   1.452   6.247   2.440
 2101SOL    HW1 7202   1.505   6.268   2.358
 2101SOL    HW2 7203   1.515   6.239   2.518
 2102SOL     OW 7204   6.254   4.967   1.755
 2102SOL    HW1 7205   6.245   5.067   1.760
 2102SOL    HW2 7206   6.166   4.925   1.777
 2103SOL     OW 7207   3.656   4.461   5.819
 2103SOL    HW1 7208   3.606   4.410   5.749
 2103SOL    HW2 7209   3.747   4.421   5.832
 2104SOL     OW 7210   1.280   3.112   0.934
 2104SOL    HW1 7211   1.308   3.137   0.841
 2104SOL    HW2 7212   1.314   3.020   0.955
 2105SOL     OW 7213   5.490   6.180   5.003
 2105SOL    HW1 7214   5.440   6.231   5.074
 2105SOL    HW2 7215   5.433   6.174   4.921
 2106SOL     OW 7216   4.692   4.345   1.144
 2106SOL    HW1 7217   4.595   4.360   1.126
 2106SOL    HW2 7218   4.711   4.247   1.148
 2107SOL     OW 7219   5.435   2.611   5.327
 2107SOL    HW1 7220   5.364   2.648   5.266
 2107SOL    HW2 7221   5.412   2.517   5.351
 2108SOL     OW 7222   6.664   6.242   5.184
 2108SOL    HW1 7223   6.632   6.177   5.253
 2108SOL    HW2 7224   6.741   6.203   5.134
 2109SOL     OW 7225   4.284   6.349   2.516
 2109SOL    HW1 7226   4.211   6.282   2.501
 2109SOL    HW2 7227   4.371   6.310   2.487
 2110SOL     OW 7228   3.128   1.754   6.813
 2110SOL    HW1 7229   3.140   1.762   6.714
 2110SOL    HW2 7230   3.045   1.703   6.833
 2111SOL     OW 7231   1.055   2.469   0.028
 2111SOL    HW1 7232   1.097   2.501   0.113
 2111SOL    HW2 7233   0.977   2.527   0.006
 2112SOL     OW 7234   5.071   2.851   6.953
 2112SOL    HW1 7235   5.018   2.831   0.013
 2112SOL    HW2 7236   5.009   2.859   6.875
 2113SOL     OW 7237   1.350   1.414   5.156
 2113SOL    HW1 7238   1.280   1.375   5.096
 2113SOL    HW2 7239   1.338   1.513   5.162
 2114SOL     OW 7240   1.048   2.693   0.699
 2114SOL    HW1 7241   1.091   2.630   0.635
 2114SOL    HW2 7242   1.117   2.730   0.761
 2115SOL     OW 7243   1.985   3.387   2.752
 2115SOL    HW1 7244   2.060   3.451   2.767
 2115SOL    HW2 7245   2.002   3.334   2.669
 2116SOL     OW 7246   6.589   4.821   2.906
 2116SOL    HW1 7247   6.639   4.873   2.837
 2116SOL    HW2 7248   6.565   4.881   2.982
 2117SOL     OW 7249   6.468   4.771   1.782
 2117SOL    HW1 7250   6.459   4.722   1.695
 2117SOL    HW2 7251   6.391   4.833   1.793
 2118SOL     OW 7252   6.086   3.672   1.638
 2118SOL    HW1 7253   6.109   3.635   1.548
 2118SOL    HW2 7254   6.170   3.703   1.683
 2119SOL     OW 7255   2.145   5.899   1.196
 2119SOL    HW1 7256   2.079   5.855   1.257
 2119SOL    HW2 7257   2.165   5.991   1.229
 2120SOL     OW 7258   0.086   5.124   3.744
 2120SOL    HW1 7259   0.020   5.136   3.670
 2120SOL    HW2 7260   0.093   5.027   3.767
 2121SOL     OW 7261   0.930   3.615   6.092
 2121SOL    HW1 7262   0.878   3.699   6.108
 2121SOL    HW2 7263   0.997   3.630   6.019
 2122SOL     OW 7264   5.874   4.361   5.990
 2122SOL    HW1 7265   5.861   4.295   5.916
 2122SOL    HW2 7266   5.786   4.401   6.015
 2123SOL     OW 7267   6.318   6.082   2.095
 2123SOL    HW1 7268   6.249   6.146   2.062
 2123SOL    HW2 7269   6.401   6.132   2.119
 2124SOL     OW 7270   2.408   1.626   1.827
 2124SOL    HW1 7271   2.465   1.562   1.878
 2124SOL    HW2 7272   2.431   1.621   1.730
 2125SOL     OW 7273   2.055   0.865   1.982
 2125SOL    HW1 7274   2.116   0.805   1.929
 2125SOL    HW2 7275   2.074   0.854   2.079
 2126SOL     OW 7276   3.819   1.280   6.403
 2126SOL    HW1 7277   3.884   1.205   6.401
 2126SOL    HW2 7278   3.786   1.294   6.496
 2127SOL     OW 7279   6.769   3.236   4.139
 2127SOL    HW1 7280   6.748   3.330   4.167
 2127SOL    HW2 7281   6.781   3.180   4.221
 2128SOL     OW 7282   6.813   2.852   3.532
 2128SOL    HW1 7283   6.913   2.855   3.527
 2128SOL    HW2 7284   6.778   2.943   3.556
 2129SOL     OW 7285   4.241   3.816   5.616
 2129SOL    HW1 7286   4.238   3.766   5.529
 2129SOL    HW2 7287   4.300   3.896   5.606
 2130SOL     OW 7288   3.609   0.863   1.854
 2130SOL    HW1 7289   3.516   0.892   1.834
 2130SOL    HW2 7290   3.638   0.900   1.942
 2131SOL     OW 7291   6.494   0.400   0.399
 2131SOL    HW1 7292   6.587   0.411   0.365
 2131SOL    HW2 7293   6.486   0.311   0.446
 2132SOL     OW 7294   3.378   1.562   1.817
 2132SOL    HW1 7295   3.404   1.498   1.745
 2132SOL    HW2 7296   3.458   1.614   1.847
 2133SOL     OW 7297   3.355   3.126   0.244
 2133SOL    HW1 7298   3.318   3.201   0.189
 2133SOL    HW2 7299   3.279   3.078   0.290
 2134SOL     OW 7300   0.035   2.131   6.879
 2134SOL    HW1 7301   6.993   2.064   6.913
 2134SOL    HW2 7302   7.012   2.219   6.868
 2135SOL     OW 7303   0.609   3.520   4.463
 2135SOL    HW1 7304   0.541   3.585   4.498
 2135SOL    HW2 7305   0.562   3.442   4.421
 2136SOL     OW 7306   1.483   3.879   2.704
 2136SOL    HW1 7307   1.513   3.843   2.616
 2136SOL    HW2 7308   1.455   3.804   2.764
 2137SOL     OW 7309   2.272   5.639   5.065
 2137SOL    HW1 7310   2.353   5.584   5.087
 2137SOL    HW2 7311   2.297   5.736   5.064
 2138SOL     OW 7312   6.558   6.835   2.997
 2138SOL    HW1 7313   6.559   6.752   2.942
 2138SOL    HW2 7314   6.614   6.905   2.952
 2139SOL     OW 7315   4.698   1.066   3.616
 2139SOL    HW1 7316   4.637   1.089   3.692
 2139SOL    HW2 7317   4.744   0.979   3.635
 2140SOL     OW 7318   3.542   6.954   4.085
 2140SOL    HW1 7319   3.447   6.930   4.105
 2140SOL    HW2 7320   3.597   6.871   4.075
 2141SOL     OW 7321   6.536   3.174   1.660
 2141SOL    HW1 7322   6.614   3.203   1.605
 2141SOL    HW2 7323   6.566   3.159   1.754
 2142SOL     OW 7324   2.157   1.477   2.959
 2142SOL    HW1 7325   2.214   1.485   3.041
 2142SOL    HW2 7326   2.191   1.540   2.889
 2143SOL     OW 7327   3.126   4.407   1.491
 2143SOL    HW1 7328   3.179   4.487   1.463
 2143SOL    HW2 7329   3.033   4.414   1.455
 2144SOL     OW 7330   0.887   5.516   4.189
 2144SOL    HW1 7331   0.877   5.417   4.181
 2144SOL    HW2 7332   0.982   5.542   4.171
 2145SOL     OW 7333   4.243   6.565   4.333
 2145SOL    HW1 7334   4.218   6.654   4.295
 2145SOL    HW2 7335   4.328   6.534   4.291
 2146SOL     OW 7336   2.299   3.734   1.426
 2146SOL    HW1 7337   2.330   3.675   1.500
 2146SOL    HW2 7338   2.363   3.729   1.350
 2147SOL     OW 7339   6.525   1.390   5.631
 2147SOL    HW1 7340   6.472   1.351   5.556
 2147SOL    HW2 7341   6.464   1.431   5.699
 2148SOL     OW 7342   6.206   3.364   5.967
 2148SOL    HW1 7343   6.209   3.278   5.915
 2148SOL    HW2 7344   6.184   3.439   5.905
 2149SOL     OW 7345   3.120   1.594   1.091
 2149SOL    HW1 7346   3.208   1.559   1.059
 2149SOL    HW2 7347   3.107   1.687   1.058
 2150SOL     OW 7348   2.295   2.487   1.964
 2150SOL    HW1 7349   2.353   2.419   1.918
 2150SOL    HW2 7350   2.293   2.468   2.062
 2151SOL     OW 7351   1.803   6.920   5.633
 2151SOL    HW1 7352   1.810   6.978   5.714
 2151SOL    HW2 7353   1.765   6.972   5.557
 2152SOL     OW 7354   3.041   5.238   1.978
 2152SOL    HW1 7355   3.122   5.289   2.007
 2152SOL    HW2 7356   2.960   5.296   1.986
 2153SOL     OW 7357   4.531   1.774   3.258
 2153SOL    HW1 7358   4.464   1.827   3.205
 2153SOL    HW2 7359   4.618   1.774   3.209
 2154SOL     OW 7360   5.296   1.369   4.981
 2154SOL    HW1 7361   5.276   1.331   5.072
 2154SOL    HW2 7362   5.278   1.467   4.982
 2155SOL     OW 7363   3.518   6.399   0.874
 2155SOL    HW1 7364   3.557   6.393   0.966
 2155SOL    HW2 7365   3.419   6.382   0.879
 2156SOL     OW 7366   1.137   2.256   4.956
 2156SOL    HW1 7367   1.099   2.192   5.023
 2156SOL    HW2 7368   1.062   2.307   4.913
 2157SOL     OW 7369   6.073   0.247   3.257
 2157SOL    HW1 7370   6.074   0.147   3.248
 2157SOL    HW2 7371   6.119   0.288   3.179
 2158SOL     OW 7372   3.539   5.886   0.748
 2158SOL    HW1 7373   3.595   5.932   0.678
 2158SOL    HW2 7374   3.541   5.788   0.733
 2159SOL     OW 7375   1.685   6.859   4.851
 2159SOL    HW1 7376   1.667   6.922   4.926
 2159SOL    HW2 7377   1.714   6.770   4.887
 2160SOL     OW 7378   4.663   3.736   6.769
 2160SOL    HW1 7379   4.707   3.770   6.852
 2160SOL    HW2 7380   4.574   3.780   6.758
 2161SOL     OW 7381   5.679   4.745   2.402
 2161SOL    HW1 7382   5.685   4.703   2.493
 2161SOL    HW2 7383   5.593   4.719   2.358
 2162SOL     OW 7384   3.718   6.974   2.346
 2162SOL    HW1 7385   3.669   6.921   2.278
 2162SOL    HW2 7386   3.747   0.039   2.306
 2163SOL     OW 7387   1.676   4.487   6.752
 2163SOL    HW1 7388   1.719   4.457   6.667
 2163SOL    HW2 7389   1.690   4.586   6.764
 2164SOL     OW 7390   1.928   2.596   6.317
 2164SOL    HW1 7391   1.895   2.542   6.240
 2164SOL    HW2 7392   1.989   2.668   6.284
 2165SOL     OW 7393   6.864   2.453   3.111
 2165SOL    HW1 7394   6.819   2.439   3.199
 2165SOL    HW2 7395   6.844   2.377   3.051
 2166SOL     OW 7396   1.413   2.552   4.912
 2166SOL    HW1 7397   1.466   2.612   4.852
 2166SOL    HW2 7398   1.380   2.605   4.990
 2167SOL     OW 7399   1.437   2.350   3.265
 2167SOL    HW1 7400   1.460   2.275   3.202
 2167SOL    HW2 7401   1.488   2.431   3.238
 2168SOL     OW 7402   0.690   2.267   3.460
 2168SOL    HW1 7403   0.605   2.319   3.457
 2168SOL    HW2 7404   0.768   2.327   3.441
 2169SOL     OW 7405   5.584   1.868   0.001
 2169SOL    HW1 7406   5.658   1.848   0.064
 2169SOL    HW2 7407   5.581   1.799   6.952
 2170SOL     OW 7408   6.666   3.875   4.844
 2170SOL    HW1 7409   6.622   3.789   4.868
 2170SOL    HW2 7410   6.744   3.857   4.784
 2171SOL     OW 7411   0.027   5.241   1.416
 2171SOL    HW1 7412   0.073   5.325   1.446
 2171SOL    HW2 7413   0.007   5.248   1.318
 2172SOL     OW 7414   1.886   1.847   6.174
 2172SOL    HW1 7415   1.945   1.801   6.241
 2172SOL    HW2 7416   1.795   1.860   6.213
 2173SOL     OW 7417   4.018   0.751   5.043
 2173SOL    HW1 7418   4.079   0.675   5.025
 2173SOL    HW2 7419   4.038   0.826   4.980
 2174SOL     OW 7420   6.013   6.072   4.867
 2174SOL    HW1 7421   5.962   6.006   4.923
 2174SOL    HW2 7422   6.030   6.155   4.920
 2175SOL     OW 7423   1.761   2.453   4.734
 2175SOL    HW1 7424   1.828   2.449   4.808
 2175SOL    HW2 7425   1.699   2.374   4.741
 2176SOL     OW 7426   5.760   1.874   0.418
 2176SOL    HW1 7427   5.760   1.794   0.358
 2176SOL    HW2 7428   5.695   1.942   0.384
 2177SOL     OW 7429   6.915   2.015   3.540
 2177SOL    HW1 7430   6.989   1.961   3.581
 2177SOL    HW2 7431   6.942   2.111   3.538
 2178SOL     OW 7432   2.324   1.913   1.692
 2178SOL    HW1 7433   2.231   1.950   1.694
 2178SOL    HW2 7434   2.355   1.906   1.597
 2179SOL     OW 7435   2.202   5.008   5.319
 2179SOL    HW1 7436   2.267   4.932   5.318
 2179SOL    HW2 7437   2.236   5.081   5.259
 2180SOL     OW 7438   2.220   2.213   2.107
 2180SOL    HW1 7439   2.301   2.154   2.106
 2180SOL    HW2 7440   2.168   2.196   2.190
 2181SOL     OW 7441   4.945   4.636   4.804
 2181SOL    HW1 7442   4.852   4.597   4.802
 2181SOL    HW2 7443   4.967   4.674   4.714
 2182SOL     OW 7444   1.510   4.086   3.714
 2182SOL    HW1 7445   1.422   4.117   3.678
 2182SOL    HW2 7446   1.573   4.070   3.638
 2183SOL     OW 7447   1.917   4.692   6.230
 2183SOL    HW1 7448   1.969   4.646   6.158
 2183SOL    HW2 7449   1.842   4.743   6.190
 2184SOL     OW 7450   4.076   1.016   6.205
 2184SOL    HW1 7451   4.104   1.083   6.135
 2184SOL    HW2 7452   4.158   0.976   6.246
 2185SOL     OW 7453   0.839   0.370   1.072
 2185SOL    HW1 7454   0.858   0.454   1.021
 2185SOL    HW2 7455   0.779   0.311   1.017
 2186SOL     OW 7456   6.834   5.853   1.163
 2186SOL    HW1 7457   6.873   5.762   1.154
 2186SOL    HW2 7458   6.777   5.873   1.083
 2187SOL     OW 7459   6.408   6.184   2.885
 2187SOL    HW1 7460   6.478   6.125   2.924
 2187SOL    HW2 7461   6.449   6.243   2.815
 2188SOL     OW 7462   6.904   5.580   4.444
 2188SOL    HW1 7463   6.903   5.517   4.521
 2188SOL    HW2 7464   6.987   5.635   4.446
 2189SOL     OW 7465   2.220   6.740   0.650
 2189SOL    HW1 7466   2.190   6.833   0.673
 2189SOL    HW2 7467   2.290   6.711   0.715
 2190SOL     OW 7468   0.516   3.156   1.886
 2190SOL    HW1 7469   0.421   3.126   1.880
 2190SOL    HW2 7470   0.544   3.195   1.798
 2191SOL     OW 7471   2.866   1.400   6.289
 2191SOL    HW1 7472   2.802   1.343   6.237
 2191SOL    HW2 7473   2.824   1.426   6.376
 2192SOL     OW 7474   5.144   0.986   2.551
 2192SOL    HW1 7475   5.175   1.075   2.584
 2192SOL    HW2 7476   5.166   0.978   2.454
 2193SOL     OW 7477   5.376   5.895   0.141
 2193SOL    HW1 7478   5.302   5.919   0.078
 2193SOL    HW2 7479   5.359   5.804   0.179
 2194SOL     OW 7480   2.209   4.653   5.915
 2194SOL    HW1 7481   2.252   4.714   5.981
 2194SOL    HW2 7482   2.180   4.707   5.835
 2195SOL     OW 7483   0.223   0.097   5.051
 2195SOL    HW1 7484   0.220   0.114   4.952
 2195SOL    HW2 7485   0.160   0.158   5.097
 2196SOL     OW 7486   3.931   0.321   4.783
 2196SOL    HW1 7487   3.837   0.313   4.748
 2196SOL    HW2 7488   3.956   0.418   4.787
 2197SOL     OW 7489   2.525   3.596   0.405
 2197SOL    HW1 7490   2.559   3.629   0.492
 2197SOL    HW2 7491   2.498   3.500   0.414
 2198SOL     OW 7492   5.527   0.182   0.493
 2198SOL    HW1 7493   5.534   0.246   0.569
 2198SOL    HW2 7494   5.598   0.201   0.425
 2199SOL     OW 7495   5.153   0.346   3.077
 2199SOL    HW1 7496   5.239   0.302   3.050
 2199SOL    HW2 7497   5.169   0.403   3.158
 2200SOL     OW 7498   2.348   2.083   4.450
 2200SOL    HW1 7499   2.336   2.142   4.530
 2200SOL    HW2 7500   2.284   2.006   4.456
 2201SOL     OW 7501   6.591   2.758   3.199
 2201SOL    HW1 7502   6.685   2.788   3.210
 2201SOL    HW2 7503   6.532   2.837   3.183
 2202SOL     OW 7504   3.069   5.459   2.325
 2202SOL    HW1 7505   3.145   5.442   2.261
 2202SOL    HW2 7506   3.042   5.373   2.368
 2203SOL     OW 7507   1.787   2.804   0.670
 2203SOL    HW1 7508   1.825   2.760   0.588
 2203SOL    HW2 7509   1.836   2.771   0.751
 2204SOL     OW 7510   4.652   1.876   1.442
 2204SOL    HW1 7511   4.713   1.802   1.413
 2204SOL    HW2 7512   4.646   1.877   1.542
 2205SOL     OW 7513   0.615   6.867   6.175
 2205SOL    HW1 7514   0.706   6.854   6.136
 2205SOL    HW2 7515   0.551   6.801   6.135
 2206SOL     OW 7516   3.750   5.263   6.348
 2206SOL    HW1 7517   3.697   5.265   6.433
 2206SOL    HW2 7518   3.798   5.175   6.341
 2207SOL     OW 7519   2.961   4.826   6.437
 2207SOL    HW1 7520   3.018   4.908   6.430
 2207SOL    HW2 7521   2.972   4.784   6.527
 2208SOL     OW 7522   1.406   5.775   3.166
 2208SOL    HW1 7523   1.399   5.868   3.129
 2208SOL    HW2 7524   1.315   5.741   3.186
 2209SOL     OW 7525   1.468   6.603   5.590
 2209SOL    HW1 7526   1.486   6.676   5.525
 2209SOL    HW2 7527   1.373   6.572   5.580
 2210SOL     OW 7528   0.113   5.099   4.603
 2210SOL    HW1 7529   0.101   5.047   4.688
 2210SOL    HW2 7530   0.177   5.051   4.543
 2211SOL     OW 7531   6.470   0.169   0.754
 2211SOL    HW1 7532   6.464   0.231   0.832
 2211SOL    HW2 7533   6.525   0.089   0.780
 2212SOL     OW 7534   2.544   5.940   0.116
 2212SOL    HW1 7535   2.506   6.032   0.114
 2212SOL    HW2 7536   2.477   5.876   0.079
 2213SOL     OW 7537   2.942   1.767   5.295
 2213SOL    HW1 7538   3.012   1.767   5.223
 2213SOL    HW2 7539   2.871   1.700   5.271
 2214SOL     OW 7540   3.559   3.750   5.400
 2214SOL    HW1 7541   3.659   3.748   5.393
 2214SOL    HW2 7542   3.533   3.791   5.488
 2215SOL     OW 7543   6.232   1.125   0.143
 2215SOL    HW1 7544   6.320   1.160   0.112
 2215SOL    HW2 7545   6.244   1.079   0.231
 2216SOL     OW 7546   1.893   1.173   6.384
 2216SOL    HW1 7547   1.950   1.210   6.310
 2216SOL    HW2 7548   1.846   1.247   6.430
 2217SOL     OW 7549   4.210   6.763   2.206
 2217SOL    HW1 7550   4.174   6.712   2.284
 2217SOL    HW2 7551   4.142   6.763   2.133
 2218SOL     OW 7552   6.681   5.624   6.766
 2218SOL    HW1 7553   6.780   5.628   6.754
 2218SOL    HW2 7554   6.636   5.663   6.686
 2219SOL     OW 7555   5.321   1.751   1.112
 2219SOL    HW1 7556   5.397   1.793   1.162
 2219SOL    HW2 7557   5.250   1.820   1.097
 2220SOL     OW 7558   2.164   6.837   4.896
 2220SOL    HW1 7559   2.135   6.742   4.879
 2220SOL    HW2 7560   2.226   6.839   4.974
 2221SOL     OW 7561   6.427   1.282   5.397
 2221SOL    HW1 7562   6.502   1.297   5.333
 2221SOL    HW2 7563   6.341   1.277   5.347
 2222SOL     OW 7564   5.152   1.025   0.127
 2222SOL    HW1 7565   5.231   1.007   0.185
 2222SOL    HW2 7566   5.071   1.038   0.184
 2223SOL     OW 7567   5.803   1.356   5.076
 2223SOL    HW1 7568   5.857   1.405   5.008
 2223SOL    HW2 7569   5.709   1.346   5.043
 2224SOL     OW 7570   0.238   3.375   0.950
 2224SOL    HW1 7571   0.215   3.466   0.985
 2224SOL    HW2 7572   0.322   3.343   0.995
 2225SOL     OW 7573   6.577   6.964   3.750
 2225SOL    HW1 7574   6.622   6.885   3.792
 2225SOL    HW2 7575   6.625   6.988   3.665
 2226SOL     OW 7576   3.106   5.292   1.125
 2226SOL    HW1 7577   3.192   5.270   1.171
 2226SOL    HW2 7578   3.035   5.310   1.193
 2227SOL     OW 7579   5.235   3.285   6.812
 2227SOL    HW1 7580   5.158   3.318   6.867
 2227SOL    HW2 7581   5.230   3.325   6.720
 2228SOL     OW 7582   3.639   4.860   0.974
 2228SOL    HW1 7583   3.679   4.822   1.058
 2228SOL    HW2 7584   3.540   4.845   0.975
 2229SOL     OW 7585   4.632   2.700   5.427
 2229SOL    HW1 7586   4.624   2.735   5.334
 2229SOL    HW2 7587   4.583   2.759   5.490
 2230SOL     OW 7588   5.609   6.626   0.259
 2230SOL    HW1 7589   5.653   6.613   0.170
 2230SOL    HW2 7590   5.564   6.541   0.286
 2231SOL     OW 7591   0.583   0.558   1.557
 2231SOL    HW1 7592   0.558   0.471   1.600
 2231SOL    HW2 7593   0.623   0.540   1.467
 2232SOL     OW 7594   0.773   2.674   4.901
 2232SOL    HW1 7595   0.819   2.763   4.908
 2232SOL    HW2 7596   0.713   2.661   4.979
 2233SOL     OW 7597   1.724   3.360   0.293
 2233SOL    HW1 7598   1.693   3.455   0.302
 2233SOL    HW2 7599   1.645   3.299   0.303
 2234SOL     OW 7600   4.383   1.572   1.623
 2234SOL    HW1 7601   4.283   1.567   1.623
 2234SOL    HW2 7602   4.415   1.598   1.714
 2235SOL     OW 7603   2.594   6.837   1.621
 2235SOL    HW1 7604   2.669   6.772   1.620
 2235SOL    HW2 7605   2.552   6.841   1.530
 2236SOL     OW 7606   1.812   4.160   6.632
 2236SOL    HW1 7607   1.824   4.070   6.590
 2236SOL    HW2 7608   1.776   4.149   6.725
 2237SOL     OW 7609   5.875   5.031   4.441
 2237SOL    HW1 7610   5.831   4.948   4.406
 2237SOL    HW2 7611   5.834   5.057   4.528
 2238SOL     OW 7612   4.543   4.536   1.901
 2238SOL    HW1 7613   4.643   4.533   1.901
 2238SOL    HW2 7614   4.507   4.444   1.914
 2239SOL     OW 7615   3.568   5.271   4.240
 2239SOL    HW1 7616   3.476   5.303   4.216
 2239SOL    HW2 7617   3.563   5.175   4.268
 2240SOL     OW 7618   4.083   5.965   3.348
 2240SOL    HW1 7619   4.173   6.005   3.365
 2240SOL    HW2 7620   4.028   6.029   3.294
 2241SOL     OW 7621   0.560   5.310   3.254
 2241SOL    HW1 7622   0.592   5.389   3.308
 2241SOL    HW2 7623   0.586   5.323   3.159
 2242SOL     OW 7624   5.561   3.128   2.760
 2242SOL    HW1 7625   5.603   3.219   2.762
 2242SOL    HW2 7626   5.475   3.131   2.811
 2243SOL     OW 7627   1.619   6.926   6.391
 2243SOL    HW1 7628   1.589   6.859   6.460
 2243SOL    HW2 7629   1.691   6.983   6.428
 2244SOL     OW 7630   1.473   6.307   1.640
 2244SOL    HW1 7631   1.477   6.403   1.612
 2244SOL    HW2 7632   1.557   6.283   1.689
 2245SOL     OW 7633   0.622   2.465   0.979
 2245SOL    HW1 7634   0.578   2.454   0.890
 2245SOL    HW2 7635   0.691   2.394   0.991
 2246SOL     OW 7636   1.030   1.222   4.696
 2246SOL    HW1 7637   1.051   1.166   4.776
 2246SOL    HW2 7638   0.935   1.205   4.668
 2247SOL     OW 7639   3.550   2.891   3.930
 2247SOL    HW1 7640   3.580   2.960   3.996
 2247SOL    HW2 7641   3.625   2.868   3.869
 2248SOL     OW 7642   6.231   3.835   5.467
 2248SOL    HW1 7643   6.177   3.751   5.459
 2248SOL    HW2 7644   6.247   3.873   5.376
 2249SOL     OW 7645   5.567   6.494   3.363
 2249SOL    HW1 7646   5.488   6.435   3.381
 2249SOL    HW2 7647   5.630   6.489   3.441
 2250SOL     OW 7648   3.884   3.698   5.947
 2250SOL    HW1 7649   3.834   3.731   6.027
 2250SOL    HW2 7650   3.982   3.700   5.967
 2251SOL     OW 7651   5.280   0.231   6.156
 2251SOL    HW1 7652   5.212   0.253   6.227
 2251SOL    HW2 7653   5.354   0.177   6.196
 2252SOL     OW 7654   4.596   2.551   2.312
 2252SOL    HW1 7655   4.643   2.468   2.341
 2252SOL    HW2 7656   4.637   2.584   2.227
 2253SOL     OW 7657   0.304   3.968   6.865
 2253SOL    HW1 7658   0.336   4.062   6.858
 2253SOL    HW2 7659   0.270   3.937   6.776
 2254SOL     OW 7660   3.806   2.731   5.295
 2254SOL    HW1 7661   3.730   2.735   5.359
 2254SOL    HW2 7662   3.811   2.640   5.254
 2255SOL     OW 7663   4.670   3.217   5.914
 2255SOL    HW1 7664   4.707   3.156   5.843
 2255SOL    HW2 7665   4.640   3.162   5.992
 2256SOL     OW 7666   4.959   6.122   2.365
 2256SOL    HW1 7667   4.925   6.120   2.271
 2256SOL    HW2 7668   4.902   6.063   2.423
 2257SOL     OW 7669   0.096   2.288   4.709
 2257SOL    HW1 7670   0.031   2.284   4.785
 2257SOL    HW2 7671   0.047   2.309   4.624
 2258SOL     OW 7672   1.377   5.596   4.938
 2258SOL    HW1 7673   1.294   5.624   4.987
 2258SOL    HW2 7674   1.400   5.502   4.962
 2259SOL     OW 7675   5.252   3.656   6.420
 2259SOL    HW1 7676   5.332   3.691   6.470
 2259SOL    HW2 7677   5.192   3.607   6.483
 2260SOL     OW 7678   6.611   4.258   1.876
 2260SOL    HW1 7679   6.693   4.307   1.847
 2260SOL    HW2 7680   6.554   4.318   1.931
 2261SOL     OW 7681   6.390   5.528   6.900
 2261SOL    HW1 7682   6.416   5.550   6.806
 2261SOL    HW2 7683   6.428   5.440   6.926
 2262SOL     OW 7684   6.145   0.984   3.128
 2262SOL    HW1 7685   6.078   1.003   3.200
 2262SOL    HW2 7686   6.124   1.042   3.048
 2263SOL     OW 7687   3.058   6.222   6.227
 2263SOL    HW1 7688   2.990   6.181   6.287
 2263SOL    HW2 7689   3.096   6.151   6.167
 2264SOL     OW 7690   2.505   4.311   0.479
 2264SOL    HW1 7691   2.484   4.233   0.538
 2264SOL    HW2 7692   2.515   4.280   0.385
 2265SOL     OW 7693   1.022   0.482   4.318
 2265SOL    HW1 7694   0.985   0.398   4.356
 2265SOL    HW2 7695   1.110   0.503   4.362
 2266SOL     OW 7696   5.335   2.022   0.102
 2266SOL    HW1 7697   5.422   2.056   0.067
 2266SOL    HW2 7698   5.261   2.051   0.041
 2267SOL     OW 7699   4.794   2.198   4.794
 2267SOL    HW1 7700   4.754   2.138   4.863
 2267SOL    HW2 7701   4.790   2.154   4.705
 2268SOL     OW 7702   6.047   3.601   0.169
 2268SOL    HW1 7703   6.103   3.666   0.117
 2268SOL    HW2 7704   6.031   3.519   0.114
 2269SOL     OW 7705   6.244   4.943   5.264
 2269SOL    HW1 7706   6.271   4.975   5.355
 2269SOL    HW2 7707   6.274   5.010   5.196
 2270SOL     OW 7708   3.213   2.693   6.317
 2270SOL    HW1 7709   3.249   2.635   6.244
 2270SOL    HW2 7710   3.115   2.674   6.329
 2271SOL     OW 7711   4.846   3.703   0.695
 2271SOL    HW1 7712   4.922   3.763   0.672
 2271SOL    HW2 7713   4.882   3.615   0.728
 2272SOL     OW 7714   5.988   2.720   6.686
 2272SOL    HW1 7715   6.029   2.809   6.669
 2272SOL    HW2 7716   5.967   2.675   6.599
 2273SOL     OW 7717   1.695   1.094   2.613
 2273SOL    HW1 7718   1.790   1.105   2.643
 2273SOL    HW2 7719   1.659   1.007   2.647
 2274SOL     OW 7720   6.955   2.397   6.774
 2274SOL    HW1 7721   6.896   2.366   6.699
 2274SOL    HW2 7722   6.924   2.487   6.804
 2275SOL     OW 7723   6.539   6.814   4.472
 2275SOL    HW1 7724   6.447   6.776   4.465
 2275SOL    HW2 7725   6.551   6.886   4.404
 2276SOL     OW 7726   2.113   5.498   0.910
 2276SOL    HW1 7727   2.073   5.460   0.826
 2276SOL    HW2 7728   2.212   5.491   0.906
 2277SOL     OW 7729   3.679   3.594   4.330
 2277SOL    HW1 7730   3.628   3.631   4.407
 2277SOL    HW2 7731   3.733   3.666   4.287
 2278SOL     OW 7732   6.296   4.816   4.534
 2278SOL    HW1 7733   6.204   4.826   4.570
 2278SOL    HW2 7734   6.336   4.906   4.520
 2279SOL     OW 7735   5.473   6.808   5.795
 2279SOL    HW1 7736   5.560   6.855   5.786
 2279SOL    HW2 7737   5.465   6.739   5.723
 2280SOL     OW 7738   6.342   6.825   5.043
 2280SOL    HW1 7739   6.423   6.832   4.985
 2280SOL    HW2 7740   6.369   6.801   5.136
 2281SOL     OW 7741   3.562   1.289   2.329
 2281SOL    HW1 7742   3.633   1.355   2.353
 2281SOL    HW2 7743   3.542   1.296   2.231
 2282SOL     OW 7744   5.328   1.103   4.352
 2282SOL    HW1 7745   5.360   1.094   4.446
 2282SOL    HW2 7746   5.307   1.012   4.315
 2283SOL     OW 7747   0.401   4.953   1.227
 2283SOL    HW1 7748   0.475   4.889   1.205
 2283SOL    HW2 7749   0.350   4.919   1.306
 2284SOL     OW 7750   0.864   2.786   6.650
 2284SOL    HW1 7751   0.919   2.755   6.727
 2284SOL    HW2 7752   0.891   2.736   6.568
 2285SOL     OW 7753   2.122   2.260   0.983
 2285SOL    HW1 7754   2.108   2.164   1.007
 2285SOL    HW2 7755   2.198   2.297   1.036
 2286SOL     OW 7756   6.928   0.081   3.978
 2286SOL    HW1 7757   6.923   7.010   4.012
 2286SOL    HW2 7758   6.850   0.133   4.013
 2287SOL     OW 7759   1.850   0.678   3.217
 2287SOL    HW1 7760   1.824   0.730   3.298
 2287SOL    HW2 7761   1.897   0.594   3.244
 2288SOL     OW 7762   6.079   5.221   4.565
 2288SOL    HW1 7763   5.999   5.169   4.537
 2288SOL    HW2 7764   6.126   5.256   4.483
 2289SOL     OW 7765   0.555   4.938   2.225
 2289SOL    HW1 7766   0.509   4.856   2.258
 2289SOL    HW2 7767   0.566   4.933   2.126
 2290SOL     OW 7768   0.831   4.025   0.831
 2290SOL    HW1 7769   0.908   3.972   0.797
 2290SOL    HW2 7770   0.845   4.047   0.927
 2291SOL     OW 7771   2.870   2.719   5.679
 2291SOL    HW1 7772   2.798   2.665   5.724
 2291SOL    HW2 7773   2.843   2.736   5.584
 2292SOL     OW 7774   6.679   2.371   5.227
 2292SOL    HW1 7775   6.631   2.435   5.167
 2292SOL    HW2 7776   6.612   2.314   5.274
 2293SOL     OW 7777   4.544   6.399   1.229
 2293SOL    HW1 7778   4.506   6.329   1.168
 2293SOL    HW2 7779   4.576   6.476   1.174
 2294SOL     OW 7780   3.290   0.860   6.886
 2294SOL    HW1 7781   3.281   0.918   6.967
 2294SOL    HW2 7782   3.208   0.870   6.828
 2295SOL     OW 7783   0.625   2.109   2.818
 2295SOL    HW1 7784   0.624   2.169   2.737
 2295SOL    HW2 7785   0.619   2.014   2.789
 2296SOL     OW 7786   4.192   5.084   1.103
 2296SOL    HW1 7787   4.118   5.151   1.099
 2296SOL    HW2 7788   4.264   5.109   1.039
 2297SOL     OW 7789   4.342   4.581   5.807
 2297SOL    HW1 7790   4.251   4.609   5.774
 2297SOL    HW2 7791   4.411   4.645   5.772
 2298SOL     OW 7792   3.944   2.886   1.778
 2298SOL    HW1 7793   4.037   2.854   1.793
 2298SOL    HW2 7794   3.922   2.956   1.846
 2299SOL     OW 7795   4.033   5.856   5.144
 2299SOL    HW1 7796   3.934   5.870   5.149
 2299SOL    HW2 7797   4.057   5.769   5.187
 2300SOL     OW 7798   2.436   5.608   1.865
 2300SOL    HW1 7799   2.526   5.650   1.880
 2300SOL    HW2 7800   2.447   5.509   1.851
 2301SOL     OW 7801   3.207   2.937   3.261
 2301SOL    HW1 7802   3.182   3.018   3.207
 2301SOL    HW2 7803   3.226   2.964   3.355
 2302SOL     OW 7804   4.120   0.442   0.922
 2302SOL    HW1 7805   4.089   0.534   0.944
 2302SOL    HW2 7806   4.041   0.386   0.897
 2303SOL     OW 7807   2.685   3.058   6.179
 2303SOL    HW1 7808   2.624   3.137   6.179
 2303SOL    HW2 7809   2.715   3.039   6.273
 2304SOL     OW 7810   4.456   6.706   3.739
 2304SOL    HW1 7811   4.515   6.754   3.804
 2304SOL    HW2 7812   4.416   6.772   3.676
 2305SOL     OW 7813   2.437   6.428   2.436
 2305SOL    HW1 7814   2.346   6.468   2.440
 2305SOL    HW2 7815   2.439   6.343   2.488
 2306SOL     OW 7816   2.933   4.810   2.350
 2306SOL    HW1 7817   2.925   4.822   2.449
 2306SOL    HW2 7818   3.024   4.838   2.320
 2307SOL     OW 7819   6.441   3.659   2.619
 2307SOL    HW1 7820   6.463   3.609   2.703
 2307SOL    HW2 7821   6.497   3.741   2.613
 2308SOL     OW 7822   0.631   5.582   1.300
 2308SOL    HW1 7823   0.695   5.525   1.248
 2308SOL    HW2 7824   0.630   5.674   1.263
 2309SOL     OW 7825   1.938   0.913   6.494
 2309SOL    HW1 7826   1.941   1.013   6.487
 2309SOL    HW2 7827   2.004   0.873   6.431
 2310SOL     OW 7828   5.007   6.253   0.879
 2310SOL    HW1 7829   5.075   6.291   0.941
 2310SOL    HW2 7830   4.964   6.327   0.828
 2311SOL     OW 7831   1.675   6.267   1.801
 2311SOL    HW1 7832   1.685   6.363   1.829
 2311SOL    HW2 7833   1.765   6.224   1.794
 2312SOL     OW 7834   3.793   6.734   3.420
 2312SOL    HW1 7835   3.857   6.683   3.363
 2312SOL    HW2 7836   3.716   6.765   3.365
 2313SOL     OW 7837   5.587   5.830   1.654
 2313SOL    HW1 7838   5.631   5.907   1.609
 2313SOL    HW2 7839   5.543   5.771   1.586
 2314SOL     OW 7840   5.692   6.836   4.462
 2314SOL    HW1 7841   5.630   6.807   4.390
 2314SOL    HW2 7842   5.769   6.886   4.423
 2315SOL     OW 7843   5.143   3.314   5.572
 2315SOL    HW1 7844   5.119   3.376   5.497
 2315SOL    HW2 7845   5.164   3.223   5.535
 2316SOL     OW 7846   3.551   0.806   4.285
 2316SOL    HW1 7847   3.575   0.709   4.274
 2316SOL    HW2 7848   3.538   0.847   4.195
 2317SOL     OW 7849   0.319   5.914   3.793
 2317SOL    HW1 7850   0.262   5.833   3.808
 2317SOL    HW2 7851   0.337   5.923   3.695
 2318SOL     OW 7852   2.178   2.944   4.705
 2318SOL    HW1 7853   2.155   2.971   4.611
 2318SOL    HW2 7854   2.186   3.026   4.762
 2319SOL     OW 7855   1.716   4.812   4.370
 2319SOL    HW1 7856   1.685   4.837   4.462
 2319SOL    HW2 7857   1.814   4.826   4.362
 2320SOL     OW 7858   0.626   2.970   5.006
 2320SOL    HW1 7859   0.661   2.984   4.914
 2320SOL    HW2 7860   0.702   2.970   5.071
 2321SOL     OW 7861   2.349   6.159   6.766
 2321SOL    HW1 7862   2.285   6.222   6.722
 2321SOL    HW2 7863   2.430   6.150   6.709
 2322SOL     OW 7864   2.257   2.287   3.713
 2322SOL    HW1 7865   2.322   2.340   3.767
 2322SOL    HW2 7866   2.306   2.225   3.652
 2323SOL     OW 7867   3.051   5.010   2.126
 2323SOL    HW1 7868   3.029   5.075   2.054
 2323SOL    HW2 7869   3.143   4.974   2.113
 2324SOL     OW 7870   6.462   6.725   0.967
 2324SOL    HW1 7871   6.492   6.797   1.029
 2324SOL    HW2 7872   6.426   6.648   1.021
 2325SOL     OW 7873   0.808   4.761   1.492
 2325SOL    HW1 7874   0.787   4.738   1.587
 2325SOL    HW2 7875   0.860   4.847   1.489
 2326SOL     OW 7876   4.138   5.164   6.473
 2326SOL    HW1 7877   4.212   5.162   6.405
 2326SOL    HW2 7878   4.055   5.125   6.432
 2327SOL     OW 7879   6.760   2.274   3.591
 2327SOL    HW1 7880   6.808   2.285   3.503
 2327SOL    HW2 7881   6.664   2.299   3.579
 2328SOL     OW 7882   2.920   1.824   2.483
 2328SOL    HW1 7883   2.968   1.838   2.397
 2328SOL    HW2 7884   2.928   1.907   2.539
 2329SOL     OW 7885   1.875   3.924   4.830
 2329SOL    HW1 7886   1.902   3.844   4.776
 2329SOL    HW2 7887   1.912   4.007   4.788
 2330SOL     OW 7888   0.764   4.195   1.468
 2330SOL    HW1 7889   0.753   4.096   1.469
 2330SOL    HW2 7890   0.736   4.231   1.379
 2331SOL     OW 7891   4.748   5.453   0.152
 2331SOL    HW1 7892   4.731   5.529   0.214
 2331SOL    HW2 7893   4.661   5.414   0.123
 2332SOL     OW 7894   4.932   1.961   5.008
 2332SOL    HW1 7895   4.846   1.999   4.976
 2332SOL    HW2 7896   4.992   1.943   4.930
 2333SOL     OW 7897   0.633   4.848   2.955
 2333SOL    HW1 7898   0.619   4.922   3.021
 2333SOL    HW2 7899   0.702   4.784   2.990
 2334SOL     OW 7900   2.099   0.574   0.011
 2334SOL    HW1 7901   2.118   0.590   6.937
 2334SOL    HW2 7902   2.185   0.579   0.063
 2335SOL     OW 7903   6.288   0.744   2.722
 2335SOL    HW1 7904   6.329   0.708   2.806
 2335SOL    HW2 7905   6.212   0.685   2.695
 2336SOL     OW 7906   4.383   2.389   4.792
 2336SOL    HW1 7907   4.430   2.302   4.807
 2336SOL    HW2 7908   4.338   2.417   4.878
 2337SOL     OW 7909   4.664   1.344   2.443
 2337SOL    HW1 7910   4.686   1.431   2.488
 2337SOL    HW2 7911   4.703   1.269   2.496
 2338SOL     OW 7912   1.518   2.057   5.439
 2338SOL    HW1 7913   1.458   2.138   5.441
 2338SOL    HW2 7914   1.503   2.007   5.355
 2339SOL     OW 7915   3.991   3.912   4.977
 2339SOL    HW1 7916   4.042   3.982   5.026
 2339SOL    HW2 7917   3.898   3.944   4.960
 2340SOL     OW 7918   5.546   4.865   0.236
 2340SOL    HW1 7919   5.460   4.892   0.194
 2340SOL    HW2 7920   5.529   4.793   0.304
 2341SOL     OW 7921   4.607   4.937   1.637
 2341SOL    HW1 7922   4.646   4.959   1.548
 2341SOL    HW2 7923   4.554   5.015   1.671
 2342SOL     OW 7924   0.485   0.016   5.105
 2342SOL    HW1 7925   0.534   0.068   5.175
 2342SOL    HW2 7926   0.395   0.057   5.089
 2343SOL     OW 7927   2.606   5.974   2.546
 2343SOL    HW1 7928   2.663   6.037   2.494
 2343SOL    HW2 7929   2.631   5.880   2.523
 2344SOL     OW 7930   1.520   6.966   1.059
 2344SOL    HW1 7931   1.609   7.012   1.065
 2344SOL    HW2 7932   1.533   6.871   1.031
 2345SOL     OW 7933   3.356   5.423   4.785
 2345SOL    HW1 7934   3.304   5.431   4.870
 2345SOL    HW2 7935   3.300   5.376   4.716
 2346SOL     OW 7936   5.038   2.340   4.831
 2346SOL    HW1 7937   4.958   2.284   4.851
 2346SOL    HW2 7938   5.012   2.436   4.832
 2347SOL     OW 7939   2.602   3.392   1.748
 2347SOL    HW1 7940   2.506   3.392   1.776
 2347SOL    HW2 7941   2.659   3.366   1.826
 2348SOL     OW 7942   3.599   6.374   3.491
 2348SOL    HW1 7943   3.693   6.401   3.513
 2348SOL    HW2 7944   3.541   6.456   3.487
 2349SOL     OW 7945   0.888   4.547   6.109
 2349SOL    HW1 7946   0.793   4.518   6.117
 2349SOL    HW2 7947   0.905   4.621   6.174
 2350SOL     OW 7948   4.805   6.773   6.260
 2350SOL    HW1 7949   4.807   6.740   6.166
 2350SOL    HW2 7950   4.720   6.824   6.276
 2351SOL     OW 7951   3.391   5.139   3.048
 2351SOL    HW1 7952   3.423   5.172   2.959
 2351SOL    HW2 7953   3.354   5.047   3.037
 2352SOL     OW 7954   0.542   4.770   1.987
 2352SOL    HW1 7955   0.523   4.688   2.040
 2352SOL    HW2 7956   0.474   4.779   1.914
 2353SOL     OW 7957   3.067   4.673   5.341
 2353SOL    HW1 7958   3.012   4.606   5.290
 2353SOL    HW2 7959   3.059   4.762   5.296
 2354SOL     OW 7960   2.272   1.605   5.917
 2354SOL    HW1 7961   2.229   1.535   5.861
 2354SOL    HW2 7962   2.332   1.662   5.861
 2355SOL     OW 7963   1.495   6.117   0.213
 2355SOL    HW1 7964   1.447   6.099   0.127
 2355SOL    HW2 7965   1.579   6.169   0.195
 2356SOL     OW 7966   2.019   4.018   0.403
 2356SOL    HW1 7967   1.930   4.009   0.449
 2356SOL    HW2 7968   2.039   4.114   0.387
 2357SOL     OW 7969   4.531   6.077   4.132
 2357SOL    HW1 7970   4.463   6.020   4.179
 2357SOL    HW2 7971   4.570   6.143   4.196
 2358SOL     OW 7972   3.387   5.291   5.155
 2358SOL    HW1 7973   3.481   5.277   5.123
 2358SOL    HW2 7974   3.365   5.220   5.222
 2359SOL     OW 7975   0.249   0.780   6.191
 2359SOL    HW1 7976   0.286   0.774   6.098
 2359SOL    HW2 7977   0.149   0.788   6.186
 2360SOL     OW 7978   5.622   5.810   6.352
 2360SOL    HW1 7979   5.549   5.817   6.420
 2360SOL    HW2 7980   5.708   5.844   6.391
 2361SOL     OW 7981   2.537   1.078   5.314
 2361SOL    HW1 7982   2.550   1.132   5.231
 2361SOL    HW2 7983   2.564   1.132   5.393
 2362SOL     OW 7984   2.728   0.607   5.093
 2362SOL    HW1 7985   2.688   0.520   5.121
 2362SOL    HW2 7986   2.687   0.681   5.146
 2363SOL     OW 7987   4.488   2.477   5.376
 2363SOL    HW1 7988   4.406   2.513   5.421
 2363SOL    HW2 7989   4.567   2.533   5.399
 2364SOL     OW 7990   0.967   2.053   2.636
 2364SOL    HW1 7991   0.958   1.969   2.584
 2364SOL    HW2 7992   1.064   2.075   2.648
 2365SOL     OW 7993   5.881   2.621   6.948
 2365SOL    HW1 7994   5.803   2.568   6.915
 2365SOL    HW2 7995   5.924   2.669   6.871
 2366SOL     OW 7996   1.480   4.369   6.170
 2366SOL    HW1 7997   1.492   4.467   6.183
 2366SOL    HW2 7998   1.508   4.344   6.077
 2367SOL     OW 7999   3.476   3.949   0.434
 2367SOL    HW1 8000   3.575   3.957   0.447
 2367SOL    HW2 8001   3.454   3.958   0.337
 2368SOL     OW 8002   4.723   0.063   2.975
 2368SOL    HW1 8003   4.764   0.154   2.981
 2368SOL    HW2 8004   4.657   0.051   3.049
 2369SOL     OW 8005   1.549   2.807   5.323
 2369SOL    HW1 8006   1.574   2.742   5.395
 2369SOL    HW2 8007   1.611   2.795   5.245
 2370SOL     OW 8008   4.797   4.171   6.261
 2370SOL    HW1 8009   4.780   4.073   6.270
 2370SOL    HW2 8010   4.826   4.208   6.349
 2371SOL     OW 8011   0.105   6.343   1.948
 2371SOL    HW1 8012   0.018   6.306   1.915
 2371SOL    HW2 8013   0.092   6.439   1.973
 2372SOL     OW 8014   6.884   1.968   1.335
 2372SOL    HW1 8015   6.900   1.870   1.343
 2372SOL    HW2 8016   6.787   1.987   1.345
 2373SOL     OW 8017   0.387   0.225   6.927
 2373SOL    HW1 8018   0.418   0.218   7.022
 2373SOL    HW2 8019   0.342   0.313   6.913
 2374SOL     OW 8020   6.119   0.683   4.118
 2374SOL    HW1 8021   6.093   0.725   4.205
 2374SOL    HW2 8022   6.209   0.716   4.091
 2375SOL     OW 8023   2.129   6.962   3.546
 2375SOL    HW1 8024   2.119   6.873   3.589
 2375SOL    HW2 8025   2.172   6.950   3.456
 2376SOL     OW 8026   6.048   2.352   4.581
 2376SOL    HW1 8027   6.010   2.444   4.587
 2376SOL    HW2 8028   5.986   2.293   4.529
 2377SOL     OW 8029   3.215   4.081   3.001
 2377SOL    HW1 8030   3.244   3.987   3.017
 2377SOL    HW2 8031   3.270   4.143   3.057
 2378SOL     OW 8032   4.841   2.341   0.471
 2378SOL    HW1 8033   4.856   2.332   0.570
 2378SOL    HW2 8034   4.831   2.250   0.431
 2379SOL     OW 8035   6.029   2.163   6.417
 2379SOL    HW1 8036   5.933   2.166   6.444
 2379SOL    HW2 8037   6.071   2.079   6.453
 2380SOL     OW 8038   0.143   0.230   5.847
 2380SOL    HW1 8039   0.194   0.160   5.796
 2380SOL    HW2 8040   0.132   0.202   5.942
 2381SOL     OW 8041   2.199   3.754   4.144
 2381SOL    HW1 8042   2.196   3.833   4.204
 2381SOL    HW2 8043   2.188   3.670   4.198
 2382SOL     OW 8044   2.253   5.115   3.600
 2382SOL    HW1 8045   2.180   5.093   3.535
 2382SOL    HW2 8046   2.272   5.213   3.597
 2383SOL     OW 8047   5.773   6.786   0.441
 2383SOL    HW1 8048   5.738   6.738   0.522
 2383SOL    HW2 8049   5.721   6.758   0.360
 2384SOL     OW 8050   6.546   6.249   2.161
 2384SOL    HW1 8051   6.601   6.168   2.179
 2384SOL    HW2 8052   6.528   6.298   2.247
 2385SOL     OW 8053   6.350   6.545   1.129
 2385SOL    HW1 8054   6.391   6.512   1.214
 2385SOL    HW2 8055   6.270   6.602   1.152
 2386SOL     OW 8056   5.203   5.761   4.501
 2386SOL    HW1 8057   5.158   5.674   4.522
 2386SOL    HW2 8058   5.291   5.743   4.457
 2387SOL     OW 8059   1.010   1.661   3.752
 2387SOL    HW1 8060   1.049   1.690   3.665
 2387SOL    HW2 8061   1.083   1.636   3.815
 2388SOL     OW 8062   1.415   2.079   3.510
 2388SOL    HW1 8063   1.396   2.175   3.528
 2388SOL    HW2 8064   1.338   2.038   3.462
 2389SOL     OW 8065   5.340   3.211   3.406
 2389SOL    HW1 8066   5.364   3.294   3.457
 2389SOL    HW2 8067   5.292   3.147   3.466
 2390SOL     OW 8068   3.664   3.787   3.931
 2390SOL    HW1 8069   3.623   3.737   4.007
 2390SOL    HW2 8070   3.731   3.729   3.885
 2391SOL     OW 8071   4.734   5.154   5.620
 2391SOL    HW1 8072   4.652   5.121   5.572
 2391SOL    HW2 8073   4.778   5.225   5.565
 2392SOL     OW 8074   4.078   0.232   5.031
 2392SOL    HW1 8075   4.008   0.257   4.963
 2392SOL    HW2 8076   4.138   0.161   4.993
 2393SOL     OW 8077   4.356   5.126   6.271
 2393SOL    HW1 8078   4.334   5.152   6.178
 2393SOL    HW2 8079   4.455   5.110   6.279
 2394SOL     OW 8080   2.166   3.284   4.244
 2394SOL    HW1 8081   2.245   3.342   4.260
 2394SOL    HW2 8082   2.083   3.340   4.239
 2395SOL     OW 8083   6.210   2.372   0.164
 2395SOL    HW1 8084   6.238   2.324   0.081
 2395SOL    HW2 8085   6.276   2.444   0.185
 2396SOL     OW 8086   3.822   5.423   1.195
 2396SOL    HW1 8087   3.853   5.425   1.291
 2396SOL    HW2 8088   3.745   5.359   1.186
 2397SOL     OW 8089   6.960   4.239   7.014
 2397SOL    HW1 8090   6.990   4.287   0.074
 2397SOL    HW2 8091   6.933   4.146   0.015
 2398SOL     OW 8092   3.017   3.949   6.396
 2398SOL    HW1 8093   2.921   3.951   6.368
 2398SOL    HW2 8094   3.042   4.035   6.441
 2399SOL     OW 8095   4.927   1.337   2.820
 2399SOL    HW1 8096   4.990   1.328   2.896
 2399SOL    HW2 8097   4.851   1.273   2.832
 2400SOL     OW 8098   3.713   5.471   0.304
 2400SOL    HW1 8099   3.664   5.472   0.392
 2400SOL    HW2 8100   3.778   5.395   0.303
 2401SOL     OW 8101   4.341   6.900   6.237
 2401SOL    HW1 8102   4.285   6.852   6.304
 2401SOL    HW2 8103   4.415   6.840   6.207
 2402SOL     OW 8104   0.788   1.168   4.605
 2402SOL    HW1 8105   0.701   1.198   4.643
 2402SOL    HW2 8106   0.773   1.126   4.515
 2403SOL     OW 8107   2.464   2.312   0.235
 2403SOL    HW1 8108   2.491   2.382   0.169
 2403SOL    HW2 8109   2.501   2.335   0.325
 2404SOL     OW 8110   5.529   0.523   1.512
 2404SOL    HW1 8111   5.530   0.603   1.573
 2404SOL    HW2 8112   5.533   0.553   1.417
 2405SOL     OW 8113   3.646   3.472   3.217
 2405SOL    HW1 8114   3.716   3.473   3.146
 2405SOL    HW2 8115   3.669   3.403   3.286
 2406SOL     OW 8116   2.315   0.518   3.386
 2406SOL    HW1 8117   2.232   0.572   3.377
 2406SOL    HW2 8118   2.343   0.515   3.482
 2407SOL     OW 8119   5.526   2.651   2.936
 2407SOL    HW1 8120   5.594   2.679   3.004
 2407SOL    HW2 8121   5.561   2.670   2.844
 2408SOL     OW 8122   4.105   4.808   3.940
 2408SOL    HW1 8123   4.039   4.880   3.963
 2408SOL    HW2 8124   4.099   4.789   3.842
 2409SOL     OW 8125   1.548   2.625   1.164
 2409SOL    HW1 8126   1.461   2.655   1.125
 2409SOL    HW2 8127   1.605   2.584   1.092
 2410SOL     OW 8128   4.780   2.439   6.297
 2410SOL    HW1 8129   4.795   2.516   6.359
 2410SOL    HW2 8130   4.866   2.413   6.254
 2411SOL     OW 8131   4.476   5.541   5.722
 2411SOL    HW1 8132   4.454   5.549   5.819
 2411SOL    HW2 8133   4.411   5.478   5.678
 2412SOL     OW 8134   3.684   4.688   0.469
 2412SOL    HW1 8135   3.732   4.760   0.419
 2412SOL    HW2 8136   3.731   4.601   0.455
 2413SOL     OW 8137   6.421   1.889   0.458
 2413SOL    HW1 8138   6.322   1.889   0.463
 2413SOL    HW2 8139   6.457   1.804   0.499
 2414SOL     OW 8140   4.937   3.864   1.904
 2414SOL    HW1 8141   4.978   3.777   1.933
 2414SOL    HW2 8142   5.008   3.934   1.899
 2415SOL     OW 8143   0.679   6.682   1.984
 2415SOL    HW1 8144   0.676   6.763   1.926
 2415SOL    HW2 8145   0.602   6.684   2.048
 2416SOL     OW 8146   3.381   2.112   5.099
 2416SOL    HW1 8147   3.415   2.110   5.193
 2416SOL    HW2 8148   3.326   2.195   5.085
 2417SOL     OW 8149   4.350   3.172   5.828
 2417SOL    HW1 8150   4.422   3.236   5.855
 2417SOL    HW2 8151   4.370   3.082   5.864
 2418SOL     OW 8152   3.022   3.866   3.960
 2418SOL    HW1 8153   3.019   3.908   3.869
 2418SOL    HW2 8154   3.060   3.931   4.026
 2419SOL     OW 8155   0.780   6.364   3.808
 2419SOL    HW1 8156   0.754   6.387   3.901
 2419SOL    HW2 8157   0.698   6.358   3.751
 2420SOL     OW 8158   3.922   1.668   1.504
 2420SOL    HW1 8159   4.002   1.720   1.472
 2420SOL    HW2 8160   3.839   1.722   1.492
 2421SOL     OW 8161   2.779   1.483   5.438
 2421SOL    HW1 8162   2.781   1.406   5.375
 2421SOL    HW2 8163   2.696   1.537   5.422
 2422SOL     OW 8164   6.308   0.173   1.709
 2422SOL    HW1 8165   6.300   0.272   1.720
 2422SOL    HW2 8166   6.238   0.142   1.644
 2423SOL     OW 8167   1.314   6.289   3.948
 2423SOL    HW1 8168   1.392   6.303   3.887
 2423SOL    HW2 8169   1.234   6.336   3.912
 2424SOL     OW 8170   6.200   6.207   5.832
 2424SOL    HW1 8171   6.145   6.125   5.843
 2424SOL    HW2 8172   6.142   6.282   5.798
 2425SOL     OW 8173   6.442   0.468   4.170
 2425SOL    HW1 8174   6.385   0.548   4.150
 2425SOL    HW2 8175   6.385   0.393   4.201
 2426SOL     OW 8176   1.061   5.559   4.780
 2426SOL    HW1 8177   1.032   5.639   4.728
 2426SOL    HW2 8178   1.147   5.523   4.743
 2427SOL     OW 8179   5.332   5.376   6.771
 2427SOL    HW1 8180   5.362   5.309   6.839
 2427SOL    HW2 8181   5.384   5.364   6.687
 2428SOL     OW 8182   6.720   6.903   3.382
 2428SOL    HW1 8183   6.705   6.998   3.406
 2428SOL    HW2 8184   6.731   6.848   3.466
 2429SOL     OW 8185   6.391   5.950   4.745
 2429SOL    HW1 8186   6.426   6.000   4.824
 2429SOL    HW2 8187   6.302   5.911   4.768
 2430SOL     OW 8188   6.474   1.323   1.117
 2430SOL    HW1 8189   6.442   1.242   1.168
 2430SOL    HW2 8190   6.567   1.345   1.145
 2431SOL     OW 8191   3.828   0.162   2.213
 2431SOL    HW1 8192   3.923   0.187   2.194
 2431SOL    HW2 8193   3.785   0.233   2.268
 2432SOL     OW 8194   3.513   6.760   2.816
 2432SOL    HW1 8195   3.590   6.808   2.859
 2432SOL    HW2 8196   3.533   6.663   2.813
 2433SOL     OW 8197   3.142   6.737   1.142
 2433SOL    HW1 8198   3.183   6.665   1.086
 2433SOL    HW2 8199   3.133   6.821   1.089
 2434SOL     OW 8200   4.685   1.453   3.763
 2434SOL    HW1 8201   4.692   1.437   3.664
 2434SOL    HW2 8202   4.659   1.548   3.780
 2435SOL     OW 8203   4.719   5.474   6.118
 2435SOL    HW1 8204   4.706   5.475   6.019
 2435SOL    HW2 8205   4.638   5.435   6.162
 2436SOL     OW 8206   1.979   6.068   1.606
 2436SOL    HW1 8207   1.908   6.103   1.545
 2436SOL    HW2 8208   2.067   6.067   1.559
 2437SOL     OW 8209   4.033   5.730   0.889
 2437SOL    HW1 8210   4.108   5.773   0.839
 2437SOL    HW2 8211   3.949   5.783   0.876
 2438SOL     OW 8212   3.600   1.660   5.647
 2438SOL    HW1 8213   3.588   1.618   5.557
 2438SOL    HW2 8214   3.555   1.749   5.649
 2439SOL     OW 8215   1.004   4.312   6.671
 2439SOL    HW1 8216   1.045   4.238   6.617
 2439SOL    HW2 8217   1.067   4.336   6.746
 2440SOL     OW 8218   4.890   6.309   4.884
 2440SOL    HW1 8219   4.798   6.347   4.871
 2440SOL    HW2 8220   4.931   6.290   4.795
 2441SOL     OW 8221   6.577   0.633   0.179
 2441SOL    HW1 8222   6.642   0.699   0.142
 2441SOL    HW2 8223   6.548   0.570   0.106
 2442SOL     OW 8224   6.414   5.649   4.308
 2442SOL    HW1 8225   6.469   5.590   4.366
 2442SOL    HW2 8226   6.343   5.693   4.364
 2443SOL     OW 8227   3.461   6.448   5.376
 2443SOL    HW1 8228   3.531   6.462   5.306
 2443SOL    HW2 8229   3.385   6.396   5.337
 2444SOL     OW 8230   3.588   4.778   5.762
 2444SOL    HW1 8231   3.566   4.809   5.670
 2444SOL    HW2 8232   3.505   4.780   5.818
 2445SOL     OW 8233   0.488   0.333   1.636
 2445SOL    HW1 8234   0.469   0.246   1.591
 2445SOL    HW2 8235   0.404   0.371   1.674
 2446SOL     OW 8236   0.029   3.679   3.746
 2446SOL    HW1 8237   6.968   3.637   3.781
 2446SOL    HW2 8238   0.099   3.677   3.818
 2447SOL     OW 8239   3.165   1.694   0.607
 2447SOL    HW1 8240   3.158   1.756   0.529
 2447SOL    HW2 8241   3.259   1.693   0.641
 2448SOL     OW 8242   1.241   0.681   5.429
 2448SOL    HW1 8243   1.322   0.733   5.400
 2448SOL    HW2 8244   1.247   0.588   5.394
 2449SOL     OW 8245   0.107   4.520   1.456
 2449SOL    HW1 8246   0.079   4.608   1.496
 2449SOL    HW2 8247   0.199   4.497   1.487
 2450SOL     OW 8248   2.877   4.853   4.494
 2450SOL    HW1 8249   2.956   4.831   4.437
 2450SOL    HW2 8250   2.876   4.792   4.574
 2451SOL     OW 8251   0.668   0.397   3.434
 2451SOL    HW1 8252   0.575   0.428   3.411
 2451SOL    HW2 8253   0.671   0.371   3.531
 2452SOL     OW 8254   2.068   2.303   2.842
 2452SOL    HW1 8255   2.083   2.389   2.792
 2452SOL    HW2 8256   2.155   2.267   2.874
 2453SOL     OW 8257   6.387   3.503   1.386
 2453SOL    HW1 8258   6.304   3.552   1.361
 2453SOL    HW2 8259   6.398   3.505   1.485
 2454SOL     OW 8260   3.498   1.437   0.517
 2454SOL    HW1 8261   3.560   1.360   0.501
 2454SOL    HW2 8262   3.503   1.501   0.441
 2455SOL     OW 8263   5.744   6.639   0.684
 2455SOL    HW1 8264   5.674   6.705   0.710
 2455SOL    HW2 8265   5.745   6.564   0.750
 2456SOL     OW 8266   6.172   0.096   0.352
 2456SOL    HW1 8267   6.102   0.036   0.312
 2456SOL    HW2 8268   6.168   0.185   0.308
 2457SOL     OW 8269   6.712   6.195   0.280
 2457SOL    HW1 8270   6.685   6.291   0.282
 2457SOL    HW2 8271   6.738   6.165   0.372
 2458SOL     OW 8272   2.525   5.647   4.057
 2458SOL    HW1 8273   2.520   5.747   4.050
 2458SOL    HW2 8274   2.465   5.606   3.988
 2459SOL     OW 8275   2.708   6.760   0.424
 2459SOL    HW1 8276   2.767   6.702   0.368
 2459SOL    HW2 8277   2.625   6.709   0.448
 2460SOL     OW 8278   2.121   0.513   0.996
 2460SOL    HW1 8279   2.189   0.466   0.939
 2460SOL    HW2 8280   2.039   0.531   0.943
 2461SOL     OW 8281   4.496   0.659   2.708
 2461SOL    HW1 8282   4.426   0.587   2.710
 2461SOL    HW2 8283   4.528   0.677   2.800
 2462SOL     OW 8284   2.221   5.544   0.075
 2462SOL    HW1 8285   2.265   5.609   0.012
 2462SOL    HW2 8286   2.123   5.545   0.061
 2463SOL     OW 8287   6.252   2.290   4.364
 2463SOL    HW1 8288   6.277   2.367   4.305
 2463SOL    HW2 8289   6.202   2.324   4.443
 2464SOL     OW 8290   1.682   4.312   1.718
 2464SOL    HW1 8291   1.759   4.280   1.662
 2464SOL    HW2 8292   1.671   4.410   1.705
 2465SOL     OW 8293   6.667   5.997   1.318
 2465SOL    HW1 8294   6.736   5.942   1.271
 2465SOL    HW2 8295   6.665   5.972   1.415
 2466SOL     OW 8296   3.390   0.928   1.500
 2466SOL    HW1 8297   3.400   0.945   1.598
 2466SOL    HW2 8298   3.293   0.919   1.478
 2467SOL     OW 8299   5.838   1.904   5.485
 2467SOL    HW1 8300   5.746   1.895   5.446
 2467SOL    HW2 8301   5.831   1.918   5.584
 2468SOL     OW 8302   5.745   6.484   2.320
 2468SOL    HW1 8303   5.766   6.414   2.251
 2468SOL    HW2 8304   5.647   6.499   2.323
 2469SOL     OW 8305   3.728   5.024   5.259
 2469SOL    HW1 8306   3.661   4.955   5.234
 2469SOL    HW2 8307   3.710   5.109   5.210
 2470SOL     OW 8308   2.893   4.498   6.032
 2470SOL    HW1 8309   2.840   4.474   5.950
 2470SOL    HW2 8310   2.990   4.496   6.011
 2471SOL     OW 8311   1.878   6.042   1.863
 2471SOL    HW1 8312   1.923   6.034   1.774
 2471SOL    HW2 8313   1.859   5.951   1.899
 2472SOL     OW 8314   4.861   1.464   4.112
 2472SOL    HW1 8315   4.884   1.426   4.202
 2472SOL    HW2 8316   4.799   1.542   4.123
 2473SOL     OW 8317   1.696   3.889   5.603
 2473SOL    HW1 8318   1.759   3.891   5.526
 2473SOL    HW2 8319   1.735   3.835   5.677
 2474SOL     OW 8320   0.489   5.577   0.451
 2474SOL    HW1 8321   0.551   5.570   0.373
 2474SOL    HW2 8322   0.422   5.503   0.448
 2475SOL     OW 8323   4.552   1.378   0.666
 2475SOL    HW1 8324   4.479   1.322   0.706
 2475SOL    HW2 8325   4.627   1.385   0.731
 2476SOL     OW 8326   0.400   2.903   3.439
 2476SOL    HW1 8327   0.468   2.946   3.500
 2476SOL    HW2 8328   0.418   2.805   3.434
 2477SOL     OW 8329   6.303   0.175   2.636
 2477SOL    HW1 8330   6.398   0.191   2.661
 2477SOL    HW2 8331   6.250   0.259   2.649
 2478SOL     OW 8332   5.492   6.877   2.259
 2478SOL    HW1 8333   5.578   6.843   2.298
 2478SOL    HW2 8334   5.499   6.881   2.160
 2479SOL     OW 8335   0.887   3.480   1.491
 2479SOL    HW1 8336   0.878   3.525   1.402
 2479SOL    HW2 8337   0.981   3.492   1.524
 2480SOL     OW 8338   5.914   3.902   0.686
 2480SOL    HW1 8339   5.834   3.896   0.625
 2480SOL    HW2 8340   5.997   3.900   0.631
 2481SOL     OW 8341   2.960   6.740   0.233
 2481SOL    HW1 8342   2.993   6.736   0.328
 2481SOL    HW2 8343   2.908   6.824   0.219
 2482SOL     OW 8344   5.541   3.059   5.478
 2482SOL    HW1 8345   5.536   3.138   5.540
 2482SOL    HW2 8346   5.506   3.085   5.388
 2483SOL     OW 8347   2.782   0.989   0.129
 2483SOL    HW1 8348   2.692   1.031   0.144
 2483SOL    HW2 8349   2.814   1.013   0.037
 2484SOL     OW 8350   2.215   0.579   0.686
 2484SOL    HW1 8351   2.259   0.639   0.619
 2484SOL    HW2 8352   2.163   0.634   0.751
 2485SOL     OW 8353   4.409   4.832   2.021
 2485SOL    HW1 8354   4.435   4.797   1.930
 2485SOL    HW2 8355   4.446   4.923   2.034
 2486SOL     OW 8356   3.069   5.802   2.921
 2486SOL    HW1 8357   3.069   5.890   2.873
 2486SOL    HW2 8358   3.018   5.809   3.006
 2487SOL     OW 8359   3.943   5.149   6.978
 2487SOL    HW1 8360   3.916   5.241   7.006
 2487SOL    HW2 8361   3.871   5.108   6.922
 2488SOL     OW 8362   2.325   4.077   1.625
 2488SOL    HW1 8363   2.315   4.023   1.708
 2488SOL    HW2 8364   2.273   4.035   1.551
 2489SOL     OW 8365   2.224   4.978   4.271
 2489SOL    HW1 8366   2.275   4.946   4.351
 2489SOL    HW2 8367   2.235   4.912   4.197
 2490SOL     OW 8368   6.528   5.222   0.803
 2490SOL    HW1 8369   6.559   5.186   0.715
 2490SOL    HW2 8370   6.441   5.270   0.791
 2491SOL     OW 8371   2.054   5.664   2.906
 2491SOL    HW1 8372   2.123   5.665   2.978
 2491SOL    HW2 8373   1.968   5.700   2.941
 2492SOL     OW 8374   3.917   3.048   6.805
 2492SOL    HW1 8375   3.817   3.049   6.810
 2492SOL    HW2 8376   3.945   3.012   6.716
 2493SOL     OW 8377   6.317   0.533   3.105
 2493SOL    HW1 8378   6.333   0.456   3.167
 2493SOL    HW2 8379   6.334   0.505   3.011
 2494SOL     OW 8380   5.736   3.702   2.493
 2494SOL    HW1 8381   5.775   3.785   2.454
 2494SOL    HW2 8382   5.688   3.651   2.421
 2495SOL     OW 8383   4.866   0.703   4.949
 2495SOL    HW1 8384   4.910   0.613   4.956
 2495SOL    HW2 8385   4.915   0.758   4.881
 2496SOL     OW 8386   0.989   5.252   6.928
 2496SOL    HW1 8387   1.037   5.228   7.013
 2496SOL    HW2 8388   0.895   5.218   6.933
 2497SOL     OW 8389   0.193   1.862   0.321
 2497SOL    HW1 8390   0.207   1.833   0.416
 2497SOL    HW2 8391   0.121   1.806   0.280
 2498SOL     OW 8392   3.054   2.164   3.494
 2498SOL    HW1 8393   3.096   2.121   3.574
 2498SOL    HW2 8394   3.126   2.190   3.429
 2499SOL     OW 8395   5.187   1.397   4.450
 2499SOL    HW1 8396   5.226   1.332   4.515
 2499SOL    HW2 8397   5.240   1.396   4.366
 2500SOL     OW 8398   4.594   3.593   5.640
 2500SOL    HW1 8399   4.625   3.671   5.586
 2500SOL    HW2 8400   4.541   3.531   5.581
 2501SOL     OW 8401   6.930   5.572   6.670
 2501SOL    HW1 8402   6.978   5.658   6.686
 2501SOL    HW2 8403   6.996   5.499   6.657
 2502SOL     OW 8404   2.663   6.314   3.446
 2502SOL    HW1 8405   2.588   6.249   3.448
 2502SOL    HW2 8406   2.749   6.268   3.471
 2503SOL     OW 8407   3.864   5.820   5.515
 2503SOL    HW1 8408   3.798   5.889   5.484
 2503SOL    HW2 8409   3.817   5.732   5.525
 2504SOL     OW 8410   2.910   5.443   5.032
 2504SOL    HW1 8411   2.837   5.380   5.004
 2504SOL    HW2 8412   2.875   5.537   5.034
 2505SOL     OW 8413   2.634   6.442   4.400
 2505SOL    HW1 8414   2.674   6.376   4.464
 2505SOL    HW2 8415   2.584   6.393   4.328
 2506SOL     OW 8416   0.076   3.184   6.113
 2506SOL    HW1 8417   0.129   3.210   6.033
 2506SOL    HW2 8418   0.094   3.089   6.136
 2507SOL     OW 8419   6.220   5.009   6.782
 2507SOL    HW1 8420   6.158   5.087   6.774
 2507SOL    HW2 8421   6.220   4.957   6.697
 2508SOL     OW 8422   2.304   1.828   2.005
 2508SOL    HW1 8423   2.344   1.793   2.089
 2508SOL    HW2 8424   2.324   1.764   1.930
 2509SOL     OW 8425   6.035   2.711   2.567
 2509SOL    HW1 8426   6.076   2.702   2.476
 2509SOL    HW2 8427   6.046   2.805   2.599
 2510SOL     OW 8428   2.756   4.384   0.796
 2510SOL    HW1 8429   2.809   4.402   0.879
 2510SOL    HW2 8430   2.760   4.286   0.775
 2511SOL     OW 8431   1.525   1.656   4.906
 2511SOL    HW1 8432   1.465   1.658   4.826
 2511SOL    HW2 8433   1.620   1.668   4.876
 2512SOL     OW 8434   5.722   4.630   4.979
 2512SOL    HW1 8435   5.665   4.617   4.898
 2512SOL    HW2 8436   5.817   4.643   4.951
 2513SOL     OW 8437   1.459   2.543   6.214
 2513SOL    HW1 8438   1.548   2.588   6.205
 2513SOL    HW2 8439   1.432   2.542   6.310
 2514SOL     OW 8440   0.595   3.034   3.587
 2514SOL    HW1 8441   0.659   2.983   3.644
 2514SOL    HW2 8442   0.599   3.131   3.610
 2515SOL     OW 8443   1.135   6.227   0.887
 2515SOL    HW1 8444   1.202   6.301   0.896
 2515SOL    HW2 8445   1.148   6.182   0.798
 2516SOL     OW 8446   6.282   5.485   2.723
 2516SOL    HW1 8447   6.263   5.508   2.627
 2516SOL    HW2 8448   6.217   5.533   2.782
 2517SOL     OW 8449   2.186   5.481   5.953
 2517SOL    HW1 8450   2.204   5.384   5.942
 2517SOL    HW2 8451   2.098   5.503   5.910
 2518SOL     OW 8452   1.968   3.255   0.183
 2518SOL    HW1 8453   1.873   3.280   0.206
 2518SOL    HW2 8454   1.968   3.182   0.115
 2519SOL     OW 8455   5.023   4.913   4.541
 2519SOL    HW1 8456   5.117   4.898   4.573
 2519SOL    HW2 8457   5.021   4.991   4.478
 2520SOL     OW 8458   1.200   2.735   1.392
 2520SOL    HW1 8459   1.207   2.693   1.483
 2520SOL    HW2 8460   1.208   2.834   1.401
 2521SOL     OW 8461   1.258   6.850   5.919
 2521SOL    HW1 8462   1.181   6.888   5.970
 2521SOL    HW2 8463   1.231   6.834   5.824
 2522SOL     OW 8464   0.783   3.040   5.510
 2522SOL    HW1 8465   0.791   3.138   5.496
 2522SOL    HW2 8466   0.721   3.001   5.441
 2523SOL     OW 8467   6.862   2.859   1.032
 2523SOL    HW1 8468   6.861   2.759   1.033
 2523SOL    HW2 8469   6.794   2.893   0.968
 2524SOL     OW 8470   0.648   6.216   4.569
 2524SOL    HW1 8471   0.717   6.202   4.497
 2524SOL    HW2 8472   0.626   6.313   4.575
 2525SOL     OW 8473   1.817   2.823   4.039
 2525SOL    HW1 8474   1.821   2.751   3.971
 2525SOL    HW2 8475   1.742   2.804   4.103
 2526SOL     OW 8476   0.473   3.427   5.683
 2526SOL    HW1 8477   0.425   3.397   5.600
 2526SOL    HW2 8478   0.500   3.348   5.737
 2527SOL     OW 8479   5.365   0.164   5.212
 2527SOL    HW1 8480   5.315   0.251   5.220
 2527SOL    HW2 8481   5.453   0.173   5.258
 2528SOL     OW 8482   6.194   4.601   1.436
 2528SOL    HW1 8483   6.165   4.658   1.359
 2528SOL    HW2 8484   6.125   4.532   1.455
 2529SOL     OW 8485   5.673   4.808   5.987
 2529SOL    HW1 8486   5.619   4.764   6.059
 2529SOL    HW2 8487   5.769   4.811   6.015
 2530SOL     OW 8488   1.198   6.609   4.819
 2530SOL    HW1 8489   1.145   6.688   4.851
 2530SOL    HW2 8490   1.156   6.571   4.737
 2531SOL     OW 8491   5.724   6.227   4.712
 2531SOL    HW1 8492   5.690   6.134   4.697
 2531SOL    HW2 8493   5.720   6.248   4.810
 2532SOL     OW 8494   0.684   5.912   0.601
 2532SOL    HW1 8495   0.634   5.969   0.536
 2532SOL    HW2 8496   0.712   5.827   0.556
 2533SOL     OW 8497   5.352   6.391   4.836
 2533SOL    HW1 8498   5.432   6.408   4.778
 2533SOL    HW2 8499   5.354   6.453   4.914
 2534SOL     OW 8500   2.351   0.826   3.292
 2534SOL    HW1 8501   2.335   0.733   3.325
 2534SOL    HW2 8502   2.317   0.834   3.198
 2535SOL     OW 8503   2.241   2.313   6.350
 2535SOL    HW1 8504   2.222   2.225   6.392
 2535SOL    HW2 8505   2.194   2.385   6.402
 2536SOL     OW 8506   0.908   1.897   3.272
 2536SOL    HW1 8507   0.946   1.980   3.230
 2536SOL    HW2 8508   0.823   1.872   3.226
 2537SOL     OW 8509   4.861   6.242   0.583
 2537SOL    HW1 8510   4.831   6.148   0.599
 2537SOL    HW2 8511   4.827   6.301   0.656
 2538SOL     OW 8512   1.870   3.874   5.397
 2538SOL    HW1 8513   1.960   3.889   5.438
 2538SOL    HW2 8514   1.876   3.889   5.298
 2539SOL     OW 8515   4.267   6.996   5.407
 2539SOL    HW1 8516   4.312   6.907   5.412
 2539SOL    HW2 8517   4.204   7.006   5.484
 2540SOL     OW 8518   5.163   0.824   1.655
 2540SOL    HW1 8519   5.232   0.897   1.655
 2540SOL    HW2 8520   5.181   0.762   1.731
 2541SOL     OW 8521   1.503   0.682   5.817
 2541SOL    HW1 8522   1.412   0.686   5.777
 2541SOL    HW2 8523   1.500   0.719   5.910
 2542SOL     OW 8524   3.897   2.123   4.597
 2542SOL    HW1 8525   3.913   2.026   4.581
 2542SOL    HW2 8526   3.933   2.176   4.520
 2543SOL     OW 8527   2.290   0.296   2.918
 2543SOL    HW1 8528   2.378   0.261   2.949
 2543SOL    HW2 8529   2.275   0.272   2.822
 2544SOL     OW 8530   0.622   5.174   2.353
 2544SOL    HW1 8531   0.599   5.084   2.316
 2544SOL    HW2 8532   0.538   5.223   2.376
 2545SOL     OW 8533   1.588   0.966   1.852
 2545SOL    HW1 8534   1.654   0.958   1.927
 2545SOL    HW2 8535   1.610   1.045   1.795
 2546SOL     OW 8536   6.593   3.147   1.098
 2546SOL    HW1 8537   6.507   3.177   1.057
 2546SOL    HW2 8538   6.668   3.170   1.036
 2547SOL     OW 8539   5.290   5.939   0.516
 2547SOL    HW1 8540   5.387   5.960   0.502
 2547SOL    HW2 8541   5.246   6.012   0.567
 2548SOL     OW 8542   2.127   0.443   4.548
 2548SOL    HW1 8543   2.029   0.463   4.544
 2548SOL    HW2 8544   2.178   0.519   4.507
 2549SOL     OW 8545   2.257   2.196   1.823
 2549SOL    HW1 8546   2.226   2.237   1.909
 2549SOL    HW2 8547   2.337   2.138   1.841
 2550SOL     OW 8548   5.629   0.600   6.697
 2550SOL    HW1 8549   5.547   0.589   6.755
 2550SOL    HW2 8550   5.705   0.551   6.739
 2551SOL     OW 8551   3.327   5.305   0.222
 2551SOL    HW1 8552   3.276   5.228   0.259
 2551SOL    HW2 8553   3.376   5.351   0.295
 2552SOL     OW 8554   2.250   5.180   6.617
 2552SOL    HW1 8555   2.259   5.274   6.651
 2552SOL    HW2 8556   2.157   5.166   6.584
 2553SOL     OW 8557   3.031   3.081   5.961
 2553SOL    HW1 8558   3.128   3.067   5.944
 2553SOL    HW2 8559   2.978   3.043   5.885
 2554SOL     OW 8560   1.997   5.967   6.749
 2554SOL    HW1 8561   1.979   5.881   6.797
 2554SOL    HW2 8562   2.076   6.013   6.792
 2555SOL     OW 8563   6.105   6.308   6.639
 2555SOL    HW1 8564   6.081   6.225   6.690
 2555SOL    HW2 8565   6.027   6.339   6.586
 2556SOL     OW 8566   3.903   6.418   0.916
 2556SOL    HW1 8567   3.897   6.479   0.995
 2556SOL    HW2 8568   3.888   6.324   0.946
 2557SOL     OW 8569   2.902   0.655   6.901
 2557SOL    HW1 8570   2.901   0.559   6.876
 2557SOL    HW2 8571   2.902   0.664   7.001
 2558SOL     OW 8572   4.441   4.200   5.515
 2558SOL    HW1 8573   4.469   4.182   5.609
 2558SOL    HW2 8574   4.359   4.147   5.494
 2559SOL     OW 8575   6.176   3.197   3.809
 2559SOL    HW1 8576   6.185   3.098   3.819
 2559SOL    HW2 8577   6.080   3.221   3.794
 2560SOL     OW 8578   5.183   3.691   3.841
 2560SOL    HW1 8579   5.146   3.601   3.864
 2560SOL    HW2 8580   5.283   3.688   3.843
 2561SOL     OW 8581   3.908   1.326   3.376
 2561SOL    HW1 8582   3.833   1.265   3.399
 2561SOL    HW2 8583   3.966   1.340   3.456
 2562SOL     OW 8584   3.016   5.409   3.536
 2562SOL    HW1 8585   3.057   5.326   3.574
 2562SOL    HW2 8586   2.953   5.384   3.463
 2563SOL     OW 8587   3.358   1.438   5.887
 2563SOL    HW1 8588   3.384   1.378   5.811
 2563SOL    HW2 8589   3.381   1.533   5.864
 2564SOL     OW 8590   2.087   6.474   0.092
 2564SOL    HW1 8591   2.171   6.505   0.046
 2564SOL    HW2 8592   2.012   6.537   0.071
 2565SOL     OW 8593   0.257   0.404   0.496
 2565SOL    HW1 8594   0.167   0.438   0.526
 2565SOL    HW2 8595   0.244   0.338   0.422
 2566SOL     OW 8596   2.247   6.806   1.334
 2566SOL    HW1 8597   2.346   6.809   1.318
 2566SOL    HW2 8598   2.204   6.747   1.266
 2567SOL     OW 8599   1.811   1.403   1.593
 2567SOL    HW1 8600   1.879   1.330   1.597
 2567SOL    HW2 8601   1.840   1.480   1.650
 2568SOL     OW 8602   3.316   0.232   0.550
 2568SOL    HW1 8603   3.260   0.297   0.600
 2568SOL    HW2 8604   3.275   0.141   0.556
 2569SOL     OW 8605   2.121   1.862   2.302
 2569SOL    HW1 8606   2.218   1.837   2.293
 2569SOL    HW2 8607   2.080   1.870   2.212
 2570SOL     OW 8608   4.288   6.502   6.521
 2570SOL    HW1 8609   4.374   6.524   6.568
 2570SOL    HW2 8610   4.292   6.409   6.485
 2571SOL     OW 8611   3.661   2.871   4.597
 2571SOL    HW1 8612   3.631   2.937   4.665
 2571SOL    HW2 8613   3.743   2.825   4.629
 2572SOL     OW 8614   2.426   6.183   1.083
 2572SOL    HW1 8615   2.467   6.093   1.090
 2572SOL    HW2 8616   2.475   6.238   1.016
 2573SOL     OW 8617   6.251   1.207   2.708
 2573SOL    HW1 8618   6.276   1.273   2.778
 2573SOL    HW2 8619   6.196   1.252   2.637
 2574SOL     OW 8620   5.962   3.597   0.676
 2574SOL    HW1 8621   6.005   3.687   0.685
 2574SOL    HW2 8622   6.022   3.537   0.624
 2575SOL     OW 8623   5.475   3.409   1.603
 2575SOL    HW1 8624   5.548   3.442   1.662
 2575SOL    HW2 8625   5.407   3.361   1.658
 2576SOL     OW 8626   3.894   6.784   3.890
 2576SOL    HW1 8627   3.836   6.819   3.817
 2576SOL    HW2 8628   3.915   6.857   3.955
 2577SOL     OW 8629   5.157   0.217   3.507
 2577SOL    HW1 8630   5.143   0.272   3.425
 2577SOL    HW2 8631   5.254   0.193   3.515
 2578SOL     OW 8632   4.986   2.583   5.157
 2578SOL    HW1 8633   5.045   2.512   5.196
 2578SOL    HW2 8634   5.017   2.604   5.064
 2579SOL     OW 8635   1.278   1.036   5.147
 2579SOL    HW1 8636   1.293   1.113   5.085
 2579SOL    HW2 8637   1.181   1.027   5.167
 2580SOL     OW 8638   1.681   2.655   6.151
 2580SOL    HW1 8639   1.728   2.620   6.070
 2580SOL    HW2 8640   1.749   2.685   6.218
 2581SOL     OW 8641   6.028   4.872   1.894
 2581SOL    HW1 8642   5.955   4.875   1.826
 2581SOL    HW2 8643   5.993   4.831   1.979
 2582SOL     OW 8644   1.979   4.740   3.068
 2582SOL    HW1 8645   2.032   4.672   3.118
 2582SOL    HW2 8646   1.992   4.830   3.109
 2583SOL     OW 8647   1.582   0.891   0.941
 2583SOL    HW1 8648   1.622   0.811   0.985
 2583SOL    HW2 8649   1.607   0.973   0.993
 2584SOL     OW 8650   4.128   5.781   0.011
 2584SOL    HW1 8651   4.156   5.692   6.997
 2584SOL    HW2 8652   4.070   5.828   6.966
 2585SOL     OW 8653   3.560   0.222   0.698
 2585SOL    HW1 8654   3.525   0.209   0.791
 2585SOL    HW2 8655   3.505   0.291   0.651
 2586SOL     OW 8656   4.765   1.321   4.720
 2586SOL    HW1 8657   4.739   1.318   4.817
 2586SOL    HW2 8658   4.774   1.416   4.691
 2587SOL     OW 8659   6.782   0.615   4.683
 2587SOL    HW1 8660   6.821   0.551   4.616
 2587SOL    HW2 8661   6.692   0.645   4.653
 2588SOL     OW 8662   4.456   0.441   0.250
 2588SOL    HW1 8663   4.431   0.351   0.287
 2588SOL    HW2 8664   4.542   0.434   0.199
 2589SOL     OW 8665   0.517   6.555   5.855
 2589SOL    HW1 8666   0.576   6.480   5.885
 2589SOL    HW2 8667   0.429   6.518   5.824
 2590SOL     OW 8668   4.066   6.796   2.896
 2590SOL    HW1 8669   4.026   6.868   2.952
 2590SOL    HW2 8670   4.120   6.735   2.953
 2591SOL     OW 8671   5.338   6.061   2.590
 2591SOL    HW1 8672   5.382   5.973   2.610
 2591SOL    HW2 8673   5.285   6.090   2.669
 2592SOL     OW 8674   2.348   6.252   1.662
 2592SOL    HW1 8675   2.343   6.350   1.645
 2592SOL    HW2 8676   2.305   6.231   1.750
 2593SOL     OW 8677   3.382   6.440   2.114
 2593SOL    HW1 8678   3.289   6.478   2.105
 2593SOL    HW2 8679   3.437   6.500   2.172
 2594SOL     OW 8680   6.855   6.251   5.813
 2594SOL    HW1 8681   6.850   6.288   5.906
 2594SOL    HW2 8682   6.864   6.151   5.817
 2595SOL     OW 8683   6.696   1.743   5.981
 2595SOL    HW1 8684   6.772   1.751   5.916
 2595SOL    HW2 8685   6.706   1.659   6.035
 2596SOL     OW 8686   3.578   1.720   1.942
 2596SOL    HW1 8687   3.568   1.789   2.014
 2596SOL    HW2 8688   3.572   1.764   1.852
 2597SOL     OW 8689   1.847   3.751   0.705
 2597SOL    HW1 8690   1.790   3.769   0.625
 2597SOL    HW2 8691   1.879   3.656   0.702
 2598SOL     OW 8692   5.640   1.823   4.465
 2598SOL    HW1 8693   5.719   1.884   4.456
 2598SOL    HW2 8694   5.584   1.852   4.542
 2599SOL     OW 8695   3.724   5.753   0.288
 2599SOL    HW1 8696   3.779   5.779   0.367
 2599SOL    HW2 8697   3.727   5.654   0.277
 2600SOL     OW 8698   5.003   3.699   4.574
 2600SOL    HW1 8699   4.945   3.722   4.651
 2600SOL    HW2 8700   5.090   3.664   4.607
 2601SOL     OW 8701   3.806   1.826   6.437
 2601SOL    HW1 8702   3.873   1.855   6.505
 2601SOL    HW2 8703   3.853   1.777   6.363
 2602SOL     OW 8704   0.080   4.844   4.227
 2602SOL    HW1 8705   0.069   4.754   4.186
 2602SOL    HW2 8706   7.019   4.869   4.276
 2603SOL     OW 8707   2.603   2.151   1.633
 2603SOL    HW1 8708   2.536   2.125   1.564
 2603SOL    HW2 8709   2.671   2.213   1.593
 2604SOL     OW 8710   4.922   1.591   2.415
 2604SOL    HW1 8711   4.834   1.579   2.460
 2604SOL    HW2 8712   4.927   1.683   2.376
 2605SOL     OW 8713   3.702   5.153   3.689
 2605SOL    HW1 8714   3.612   5.171   3.650
 2605SOL    HW2 8715   3.702   5.178   3.786
 2606SOL     OW 8716   6.227   4.538   0.222
 2606SOL    HW1 8717   6.172   4.563   0.143
 2606SOL    HW2 8718   6.183   4.571   0.306
 2607SOL     OW 8719   0.367   1.946   6.177
 2607SOL    HW1 8720   0.381   2.033   6.224
 2607SOL    HW2 8721   0.435   1.937   6.104
 2608SOL     OW 8722   4.021   6.182   2.564
 2608SOL    HW1 8723   4.037   6.084   2.571
 2608SOL    HW2 8724   3.990   6.204   2.471
 2609SOL     OW 8725   0.523   2.455   1.338
 2609SOL    HW1 8726   0.499   2.543   1.297
 2609SOL    HW2 8727   0.471   2.442   1.423
 2610SOL     OW 8728   6.604   5.366   4.063
 2610SOL    HW1 8729   6.679   5.326   4.009
 2610SOL    HW2 8730   6.631   5.370   4.159
 2611SOL     OW 8731   5.629   6.650   1.110
 2611SOL    HW1 8732   5.641   6.749   1.099
 2611SOL    HW2 8733   5.687   6.603   1.043
 2612SOL     OW 8734   6.778   6.782   5.462
 2612SOL    HW1 8735   6.743   6.726   5.537
 2612SOL    HW2 8736   6.878   6.782   5.463
 2613SOL     OW 8737   2.754   5.934   1.722
 2613SOL    HW1 8738   2.817   5.880   1.667
 2613SOL    HW2 8739   2.668   5.947   1.673
 2614SOL     OW 8740   6.520   6.512   5.834
 2614SOL    HW1 8741   6.594   6.540   5.895
 2614SOL    HW2 8742   6.537   6.545   5.742
 2615SOL     OW 8743   5.608   4.357   2.925
 2615SOL    HW1 8744   5.642   4.307   2.845
 2615SOL    HW2 8745   5.636   4.309   3.008
 2616SOL     OW 8746   3.482   3.621   4.126
 2616SOL    HW1 8747   3.554   3.588   4.188
 2616SOL    HW2 8748   3.486   3.568   4.041
 2617SOL     OW 8749   3.098   6.419   1.339
 2617SOL    HW1 8750   3.177   6.365   1.312
 2617SOL    HW2 8751   3.125   6.514   1.354
 2618SOL     OW 8752   0.482   6.528   3.921
 2618SOL    HW1 8753   0.531   6.455   3.873
 2618SOL    HW2 8754   0.395   6.492   3.956
 2619SOL     OW 8755   3.223   1.486   3.610
 2619SOL    HW1 8756   3.315   1.492   3.572
 2619SOL    HW2 8757   3.212   1.398   3.657
 2620SOL     OW 8758   0.656   5.734   3.403
 2620SOL    HW1 8759   0.656   5.831   3.429
 2620SOL    HW2 8760   0.689   5.680   3.480
 2621SOL     OW 8761   2.024   6.240   2.931
 2621SOL    HW1 8762   2.062   6.275   2.845
 2621SOL    HW2 8763   2.068   6.287   3.008
 2622SOL     OW 8764   2.461   2.018   6.354
 2622SOL    HW1 8765   2.484   2.093   6.292
 2622SOL    HW2 8766   2.369   2.030   6.389
 2623SOL     OW 8767   3.338   1.847   4.990
 2623SOL    HW1 8768   3.338   1.947   4.986
 2623SOL    HW2 8769   3.370   1.811   4.903
 2624SOL     OW 8770   6.577   3.234   4.393
 2624SOL    HW1 8771   6.526   3.152   4.418
 2624SOL    HW2 8772   6.658   3.243   4.451
 2625SOL     OW 8773   2.404   2.853   5.399
 2625SOL    HW1 8774   2.421   2.931   5.339
 2625SOL    HW2 8775   2.359   2.884   5.483
 2626SOL     OW 8776   0.486   0.078   4.370
 2626SOL    HW1 8777   0.533   0.113   4.289
 2626SOL    HW2 8778   0.388   0.071   4.352
 2627SOL     OW 8779   0.184   0.810   4.719
 2627SOL    HW1 8780   0.178   0.872   4.641
 2627SOL    HW2 8781   0.102   0.819   4.776
 2628SOL     OW 8782   3.155   5.807   6.646
 2628SOL    HW1 8783   3.060   5.812   6.615
 2628SOL    HW2 8784   3.162   5.841   6.740
 2629SOL     OW 8785   3.313   4.131   2.427
 2629SOL    HW1 8786   3.340   4.199   2.359
 2629SOL    HW2 8787   3.334   4.165   2.519
 2630SOL     OW 8788   3.192   1.509   3.138
 2630SOL    HW1 8789   3.199   1.561   3.052
 2630SOL    HW2 8790   3.139   1.561   3.204
 2631SOL     OW 8791   4.862   0.115   4.513
 2631SOL    HW1 8792   4.900   0.025   4.534
 2631SOL    HW2 8793   4.936   0.183   4.513
 2632SOL     OW 8794   2.497   2.133   6.114
 2632SOL    HW1 8795   2.495   2.134   6.014
 2632SOL    HW2 8796   2.437   2.061   6.148
 2633SOL     OW 8797   6.537   2.264   6.380
 2633SOL    HW1 8798   6.477   2.309   6.447
 2633SOL    HW2 8799   6.552   2.326   6.303
 2634SOL     OW 8800   2.190   3.938   2.855
 2634SOL    HW1 8801   2.098   3.907   2.881
 2634SOL    HW2 8802   2.238   3.971   2.936
 2635SOL     OW 8803   6.006   6.334   4.635
 2635SOL    HW1 8804   6.021   6.292   4.546
 2635SOL    HW2 8805   5.930   6.288   4.682
 2636SOL     OW 8806   4.709   0.785   5.951
 2636SOL    HW1 8807   4.738   0.747   6.040
 2636SOL    HW2 8808   4.727   0.717   5.879
 2637SOL     OW 8809   6.562   0.916   3.907
 2637SOL    HW1 8810   6.500   0.919   3.829
 2637SOL    HW2 8811   6.556   1.002   3.958
 2638SOL     OW 8812   0.016   6.758   2.790
 2638SOL    HW1 8813   0.112   6.782   2.775
 2638SOL    HW2 8814   0.007   6.707   2.876
 2639SOL     OW 8815   0.476   0.283   1.996
 2639SOL    HW1 8816   0.574   0.272   1.979
 2639SOL    HW2 8817   0.450   0.378   1.979
 2640SOL     OW 8818   6.687   5.935   5.279
 2640SOL    HW1 8819   6.769   5.884   5.252
 2640SOL    HW2 8820   6.648   5.895   5.362
 2641SOL     OW 8821   5.242   2.897   2.216
 2641SOL    HW1 8822   5.302   2.894   2.296
 2641SOL    HW2 8823   5.195   2.809   2.207
 2642SOL     OW 8824   5.245   6.858   4.656
 2642SOL    HW1 8825   5.265   6.865   4.754
 2642SOL    HW2 8826   5.255   6.763   4.627
 2643SOL     OW 8827   1.590   4.761   3.239
 2643SOL    HW1 8828   1.510   4.813   3.268
 2643SOL    HW2 8829   1.564   4.694   3.170
 2644SOL     OW 8830   6.616   4.132   5.542
 2644SOL    HW1 8831   6.707   4.098   5.563
 2644SOL    HW2 8832   6.565   4.061   5.493
 2645SOL     OW 8833   4.408   6.402   4.141
 2645SOL    HW1 8834   4.458   6.363   4.219
 2645SOL    HW2 8835   4.314   6.369   4.142
 2646SOL     OW 8836   5.973   6.503   6.365
 2646SOL    HW1 8837   6.025   6.584   6.396
 2646SOL    HW2 8838   5.946   6.449   6.444
 2647SOL     OW 8839   5.585   0.560   1.267
 2647SOL    HW1 8840   5.676   0.576   1.228
 2647SOL    HW2 8841   5.523   0.532   1.194
 2648SOL     OW 8842   6.927   0.465   4.084
 2648SOL    HW1 8843   6.850   0.415   4.123
 2648SOL    HW2 8844   6.903   0.498   3.993
 2649SOL     OW 8845   4.728   2.398   5.824
 2649SOL    HW1 8846   4.719   2.323   5.889
 2649SOL    HW2 8847   4.757   2.362   5.735
 2650SOL     OW 8848   0.434   3.604   3.706
 2650SOL    HW1 8849   0.442   3.513   3.665
 2650SOL    HW2 8850   0.494   3.667   3.656
 2651SOL     OW 8851   0.856   1.733   0.112
 2651SOL    HW1 8852   0.761   1.713   0.132
 2651SOL    HW2 8853   0.912   1.716   0.194
 2652SOL     OW 8854   2.908   3.371   3.999
 2652SOL    HW1 8855   2.897   3.465   4.031
 2652SOL    HW2 8856   2.919   3.310   4.078
 2653SOL     OW 8857   4.957   7.017   5.363
 2653SOL    HW1 8858   5.000   0.030   5.280
 2653SOL    HW2 8859   4.865   6.985   5.342
 2654SOL     OW 8860   4.432   3.454   1.054
 2654SOL    HW1 8861   4.485   3.525   1.100
 2654SOL    HW2 8862   4.334   3.474   1.064
 2655SOL     OW 8863   5.456   4.531   4.686
 2655SOL    HW1 8864   5.360   4.504   4.688
 2655SOL    HW2 8865   5.482   4.553   4.592
 2656SOL     OW 8866   4.306   5.078   4.581
 2656SOL    HW1 8867   4.221   5.043   4.621
 2656SOL    HW2 8868   4.291   5.098   4.484
 2657SOL     OW 8869   2.582   4.609   6.347
 2657SOL    HW1 8870   2.551   4.598   6.253
 2657SOL    HW2 8871   2.505   4.596   6.410
 2658SOL     OW 8872   4.942   3.802   0.311
 2658SOL    HW1 8873   4.889   3.717   0.308
 2658SOL    HW2 8874   5.039   3.780   0.313
 2659SOL     OW 8875   6.324   2.638   4.409
 2659SOL    HW1 8876   6.314   2.610   4.313
 2659SOL    HW2 8877   6.396   2.708   4.415
 2660SOL     OW 8878   0.174   1.201   1.354
 2660SOL    HW1 8879   0.110   1.173   1.426
 2660SOL    HW2 8880   0.183   1.128   1.287
 2661SOL     OW 8881   2.232   6.404   1.910
 2661SOL    HW1 8882   2.271   6.311   1.911
 2661SOL    HW2 8883   2.274   6.456   1.836
 2662SOL     OW 8884   4.582   0.168   5.531
 2662SOL    HW1 8885   4.576   0.260   5.494
 2662SOL    HW2 8886   4.553   0.167   5.626
 2663SOL     OW 8887   2.901   3.869   1.450
 2663SOL    HW1 8888   2.948   3.875   1.538
 2663SOL    HW2 8889   2.802   3.864   1.466
 2664SOL     OW 8890   3.881   3.981   4.384
 2664SOL    HW1 8891   3.832   4.025   4.459
 2664SOL    HW2 8892   3.863   4.030   4.298
 2665SOL     OW 8893   2.695   1.880   4.748
 2665SOL    HW1 8894   2.764   1.891   4.819
 2665SOL    HW2 8895   2.607   1.914   4.781
 2666SOL     OW 8896   4.396   4.048   1.590
 2666SOL    HW1 8897   4.392   4.098   1.677
 2666SOL    HW2 8898   4.410   3.951   1.609
 2667SOL     OW 8899   1.733   6.020   4.675
 2667SOL    HW1 8900   1.730   6.063   4.585
 2667SOL    HW2 8901   1.700   5.926   4.668
 2668SOL     OW 8902   6.907   3.026   3.158
 2668SOL    HW1 8903   6.818   3.070   3.166
 2668SOL    HW2 8904   6.896   2.928   3.145
 2669SOL     OW 8905   3.091   4.826   5.015
 2669SOL    HW1 8906   3.151   4.849   5.091
 2669SOL    HW2 8907   3.013   4.773   5.049
 2670SOL     OW 8908   5.396   1.475   6.384
 2670SOL    HW1 8909   5.307   1.464   6.340
 2670SOL    HW2 8910   5.468   1.477   6.315
 2671SOL     OW 8911   2.969   5.309   0.257
 2671SOL    HW1 8912   2.983   5.397   0.211
 2671SOL    HW2 8913   2.888   5.314   0.315
 2672SOL     OW 8914   0.251   5.471   0.174
 2672SOL    HW1 8915   0.277   5.562   0.208
 2672SOL    HW2 8916   0.191   5.482   0.095
 2673SOL     OW 8917   6.159   1.658   3.529
 2673SOL    HW1 8918   6.198   1.586   3.587
 2673SOL    HW2 8919   6.201   1.745   3.551
 2674SOL     OW 8920   1.981   3.763   4.547
 2674SOL    HW1 8921   1.884   3.749   4.524
 2674SOL    HW2 8922   2.037   3.729   4.471
 2675SOL     OW 8923   0.507   4.990   4.601
 2675SOL    HW1 8924   0.456   4.912   4.638
 2675SOL    HW2 8925   0.595   4.998   4.648
 2676SOL     OW 8926   4.133   1.106   2.161
 2676SOL    HW1 8927   4.069   1.164   2.212
 2676SOL    HW2 8928   4.201   1.069   2.224
 2677SOL     OW 8929   3.136   4.578   0.489
 2677SOL    HW1 8930   3.106   4.660   0.538
 2677SOL    HW2 8931   3.189   4.605   0.409
 2678SOL     OW 8932   0.407   4.237   1.030
 2678SOL    HW1 8933   0.359   4.269   0.948
 2678SOL    HW2 8934   0.373   4.286   1.110
 2679SOL     OW 8935   3.500   5.224   0.771
 2679SOL    HW1 8936   3.588   5.271   0.779
 2679SOL    HW2 8937   3.510   5.143   0.712
 2680SOL     OW 8938   1.388   1.279   0.845
 2680SOL    HW1 8939   1.449   1.306   0.920
 2680SOL    HW2 8940   1.346   1.191   0.866
 2681SOL     OW 8941   1.631   2.412   4.407
 2681SOL    HW1 8942   1.629   2.435   4.504
 2681SOL    HW2 8943   1.689   2.477   4.358
 2682SOL     OW 8944   5.416   3.762   2.438
 2682SOL    HW1 8945   5.337   3.744   2.379
 2682SOL    HW2 8946   5.483   3.688   2.428
 2683SOL     OW 8947   1.005   3.719   6.958
 2683SOL    HW1 8948   0.938   3.660   6.912
 2683SOL    HW2 8949   0.982   3.726   0.032
 2684SOL     OW 8950   4.352   5.472   2.476
 2684SOL    HW1 8951   4.346   5.413   2.556
 2684SOL    HW2 8952   4.289   5.440   2.406
 2685SOL     OW 8953   6.638   6.325   6.260
 2685SOL    HW1 8954   6.628   6.226   6.268
 2685SOL    HW2 8955   6.559   6.363   6.212
 2686SOL     OW 8956   1.473   1.821   5.730
 2686SOL    HW1 8957   1.434   1.867   5.650
 2686SOL    HW2 8958   1.486   1.724   5.709
 2687SOL     OW 8959   4.332   4.601   3.030
 2687SOL    HW1 8960   4.294   4.663   2.961
 2687SOL    HW2 8961   4.356   4.514   2.988
 2688SOL     OW 8962   4.906   5.532   6.749
 2688SOL    HW1 8963   4.981   5.569   6.695
 2688SOL    HW2 8964   4.822   5.582   6.728
 2689SOL     OW 8965   2.214   2.096   3.109
 2689SOL    HW1 8966   2.226   2.127   3.015
 2689SOL    HW2 8967   2.299   2.110   3.160
 2690SOL     OW 8968   2.925   3.649   4.092
 2690SOL    HW1 8969   2.909   3.662   4.189
 2690SOL    HW2 8970   2.960   3.734   4.052
 2691SOL     OW 8971   0.993   5.712   1.995
 2691SOL    HW1 8972   0.903   5.726   2.037
 2691SOL    HW2 8973   1.064   5.737   2.061
 2692SOL     OW 8974   4.568   5.002   3.811
 2692SOL    HW1 8975   4.599   4.998   3.906
 2692SOL    HW2 8976   4.530   4.913   3.785
 2693SOL     OW 8977   1.967   4.127   3.026
 2693SOL    HW1 8978   1.978   4.225   3.010
 2693SOL    HW2 8979   1.910   4.087   2.955
 2694SOL     OW 8980   3.807   0.306   2.569
 2694SOL    HW1 8981   3.716   0.295   2.609
 2694SOL    HW2 8982   3.862   0.366   2.628
 2695SOL     OW 8983   5.675   1.304   2.908
 2695SOL    HW1 8984   5.674   1.354   2.821
 2695SOL    HW2 8985   5.607   1.231   2.905
 2696SOL     OW 8986   3.599   3.683   4.860
 2696SOL    HW1 8987   3.644   3.628   4.790
 2696SOL    HW2 8988   3.668   3.717   4.925
 2697SOL     OW 8989   4.094   1.579   3.491
 2697SOL    HW1 8990   4.189   1.579   3.522
 2697SOL    HW2 8991   4.068   1.671   3.462
 2698SOL     OW 8992   1.988   5.405   0.694
 2698SOL    HW1 8993   1.895   5.412   0.658
 2698SOL    HW2 8994   2.041   5.339   0.640
 2699SOL     OW 8995   3.443   5.784   0.395
 2699SOL    HW1 8996   3.520   5.797   0.332
 2699SOL    HW2 8997   3.362   5.829   0.358
 2700SOL     OW 8998   2.317   4.073   1.170
 2700SOL    HW1 8999   2.229   4.115   1.149
 2700SOL    HW2 9000   2.390   4.140   1.153
 2701SOL     OW 9001   2.827   0.388   6.434
 2701SOL    HW1 9002   2.879   0.303   6.436
 2701SOL    HW2 9003   2.735   0.371   6.469
 2702SOL     OW 9004   0.055   2.556   2.973
 2702SOL    HW1 9005   0.120   2.631   2.982
 2702SOL    HW2 9006   7.010   2.563   3.046
 2703SOL     OW 9007   2.208   0.805   2.359
 2703SOL    HW1 9008   2.233   0.837   2.451
 2703SOL    HW2 9009   2.290   0.804   2.301
 2704SOL     OW 9010   0.391   5.510   0.889
 2704SOL    HW1 9011   0.378   5.553   0.800
 2704SOL    HW2 9012   0.477   5.457   0.887
 2705SOL     OW 9013   1.696   5.542   4.686
 2705SOL    HW1 9014   1.771   5.601   4.656
 2705SOL    HW2 9015   1.631   5.595   4.740
 2706SOL     OW 9016   0.804   0.665   1.253
 2706SOL    HW1 9017   0.790   0.655   1.154
 2706SOL    HW2 9018   0.902   0.668   1.272
 2707SOL     OW 9019   1.962   0.234   5.300
 2707SOL    HW1 9020   2.023   0.310   5.320
 2707SOL    HW2 9021   2.016   0.152   5.279
 2708SOL     OW 9022   1.818   1.971   1.094
 2708SOL    HW1 9023   1.763   2.054   1.097
 2708SOL    HW2 9024   1.881   1.969   1.171
 2709SOL     OW 9025   5.539   6.794   0.715
 2709SOL    HW1 9026   5.508   6.888   0.702
 2709SOL    HW2 9027   5.506   6.759   0.803
 2710SOL     OW 9028   0.372   3.019   2.501
 2710SOL    HW1 9029   0.409   2.964   2.575
 2710SOL    HW2 9030   0.448   3.061   2.450
 2711SOL     OW 9031   2.680   1.388   3.375
 2711SOL    HW1 9032   2.712   1.469   3.424
 2711SOL    HW2 9033   2.709   1.394   3.279
 2712SOL     OW 9034   3.169   5.364   1.463
 2712SOL    HW1 9035   3.139   5.270   1.447
 2712SOL    HW2 9036   3.211   5.371   1.553
 2713SOL     OW 9037   1.763   2.061   4.976
 2713SOL    HW1 9038   1.728   2.134   5.034
 2713SOL    HW2 9039   1.858   2.081   4.950
 2714SOL     OW 9040   5.037   2.058   6.658
 2714SOL    HW1 9041   5.091   2.109   6.590
 2714SOL    HW2 9042   4.945   2.095   6.662
 2715SOL     OW 9043   5.410   0.824   0.147
 2715SOL    HW1 9044   5.410   0.847   0.244
 2715SOL    HW2 9045   5.393   0.726   0.136
 2716SOL     OW 9046   5.596   5.116   2.625
 2716SOL    HW1 9047   5.668   5.047   2.633
 2716SOL    HW2 9048   5.543   5.099   2.542
 2717SOL     OW 9049   1.181   4.997   1.691
 2717SOL    HW1 9050   1.228   4.929   1.635
 2717SOL    HW2 9051   1.115   4.952   1.751
 2718SOL     OW 9052   2.127   3.550   4.724
 2718SOL    HW1 9053   2.029   3.569   4.729
 2718SOL    HW2 9054   2.178   3.629   4.759
 2719SOL     OW 9055   5.750   5.559   1.724
 2719SOL    HW1 9056   5.775   5.545   1.820
 2719SOL    HW2 9057   5.705   5.648   1.715
 2720SOL     OW 9058   2.175   5.750   3.160
 2720SOL    HW1 9059   2.186   5.842   3.122
 2720SOL    HW2 9060   2.104   5.751   3.230
 2721SOL     OW 9061   3.341   0.154   4.211
 2721SOL    HW1 9062   3.250   0.135   4.246
 2721SOL    HW2 9063   3.341   0.141   4.111
 2722SOL     OW 9064   6.038   5.318   2.482
 2722SOL    HW1 9065   6.083   5.406   2.468
 2722SOL    HW2 9066   5.998   5.315   2.573
 2723SOL     OW 9067   0.959   6.759   5.795
 2723SOL    HW1 9068   0.995   6.702   5.869
 2723SOL    HW2 9069   0.900   6.703   5.736
 2724SOL     OW 9070   2.803   6.576   6.090
 2724SOL    HW1 9071   2.889   6.525   6.082
 2724SOL    HW2 9072   2.782   6.591   6.187
 2725SOL     OW 9073   6.214   5.149   3.850
 2725SOL    HW1 9074   6.138   5.097   3.888
 2725SOL    HW2 9075   6.260   5.094   3.780
 2726SOL     OW 9076   6.936   4.054   0.894
 2726SOL    HW1 9077   6.877   4.098   0.826
 2726SOL    HW2 9078   6.916   4.091   0.984
 2727SOL     OW 9079   0.567   4.569   2.760
 2727SOL    HW1 9080   0.605   4.512   2.687
 2727SOL    HW2 9081   0.532   4.654   2.721
 2728SOL     OW 9082   3.600   0.011   5.157
 2728SOL    HW1 9083   3.676   6.976   5.187
 2728SOL    HW2 9084   3.628   0.107   5.160
 2729SOL     OW 9085   6.081   5.874   1.293
 2729SOL    HW1 9086   6.078   5.777   1.271
 2729SOL    HW2 9087   6.085   5.928   1.209
 2730SOL     OW 9088   1.239   5.316   1.472
 2730SOL    HW1 9089   1.203   5.241   1.416
 2730SOL    HW2 9090   1.163   5.368   1.511
 2731SOL     OW 9091   4.129   3.456   1.919
 2731SOL    HW1 9092   4.180   3.457   2.005
 2731SOL    HW2 9093   4.146   3.370   1.872
 2732SOL     OW 9094   5.694   2.993   1.862
 2732SOL    HW1 9095   5.675   3.065   1.929
 2732SOL    HW2 9096   5.610   2.972   1.812
 2733SOL     OW 9097   0.461   0.276   5.447
 2733SOL    HW1 9098   0.502   0.331   5.375
 2733SOL    HW2 9099   0.509   0.291   5.533
 2734SOL     OW 9100   2.345   5.353   2.314
 2734SOL    HW1 9101   2.325   5.266   2.269
 2734SOL    HW2 9102   2.260   5.395   2.345
 2735SOL     OW 9103   0.741   3.649   2.839
 2735SOL    HW1 9104   0.710   3.639   2.934
 2735SOL    HW2 9105   0.815   3.717   2.836
 2736SOL     OW 9106   5.062   0.358   4.532
 2736SOL    HW1 9107   5.119   0.431   4.567
 2736SOL    HW2 9108   5.021   0.386   4.445
 2737SOL     OW 9109   3.241   3.304   5.651
 2737SOL    HW1 9110   3.208   3.221   5.606
 2737SOL    HW2 9111   3.329   3.329   5.611
 2738SOL     OW 9112   5.149   5.041   4.192
 2738SOL    HW1 9113   5.067   5.082   4.229
 2738SOL    HW2 9114   5.159   4.948   4.228
 2739SOL     OW 9115   6.080   5.228   0.393
 2739SOL    HW1 9116   6.062   5.166   0.469
 2739SOL    HW2 9117   6.159   5.285   0.415
 2740SOL     OW 9118   6.290   3.534   2.401
 2740SOL    HW1 9119   6.300   3.436   2.416
 2740SOL    HW2 9120   6.338   3.584   2.474
 2741SOL     OW 9121   6.944   0.870   6.133
 2741SOL    HW1 9122   6.854   0.869   6.177
 2741SOL    HW2 9123   6.980   0.776   6.128
 2742SOL     OW 9124   1.781   5.044   6.934
 2742SOL    HW1 9125   1.862   4.992   6.910
 2742SOL    HW2 9126   1.802   5.105   7.011
 2743SOL     OW 9127   6.450   5.472   1.988
 2743SOL    HW1 9128   6.466   5.377   1.962
 2743SOL    HW2 9129   6.353   5.486   2.006
 2744SOL     OW 9130   4.387   2.036   6.847
 2744SOL    HW1 9131   4.424   2.064   6.936
 2744SOL    HW2 9132   4.312   1.971   6.861
 2745SOL     OW 9133   1.358   6.766   6.825
 2745SOL    HW1 9134   1.320   6.684   6.782
 2745SOL    HW2 9135   1.290   6.805   6.887
 2746SOL     OW 9136   2.536   1.721   4.419
 2746SOL    HW1 9137   2.570   1.809   4.385
 2746SOL    HW2 9138   2.502   1.667   4.342
 2747SOL     OW 9139   5.462   3.243   5.258
 2747SOL    HW1 9140   5.379   3.284   5.220
 2747SOL    HW2 9141   5.523   3.315   5.291
 2748SOL     OW 9142   4.088   1.528   1.288
 2748SOL    HW1 9143   4.133   1.606   1.244
 2748SOL    HW2 9144   4.044   1.558   1.372
 2749SOL     OW 9145   5.916   4.771   3.784
 2749SOL    HW1 9146   5.822   4.804   3.784
 2749SOL    HW2 9147   5.920   4.681   3.826
 2750SOL     OW 9148   0.501   5.307   1.856
 2750SOL    HW1 9149   0.596   5.335   1.869
 2750SOL    HW2 9150   0.467   5.263   1.939
 2751SOL     OW 9151   1.502   6.728   0.621
 2751SOL    HW1 9152   1.439   6.700   0.549
 2751SOL    HW2 9153   1.522   6.826   0.613
 2752SOL     OW 9154   4.808   5.107   5.200
 2752SOL    HW1 9155   4.799   5.178   5.270
 2752SOL    HW2 9156   4.886   5.126   5.141
 2753SOL     OW 9157   1.634   0.166   6.610
 2753SOL    HW1 9158   1.600   0.226   6.682
 2753SOL    HW2 9159   1.562   0.150   6.543
 2754SOL     OW 9160   6.440   0.785   4.330
 2754SOL    HW1 9161   6.392   0.726   4.265
 2754SOL    HW2 9162   6.432   0.880   4.301
 2755SOL     OW 9163   3.271   6.779   3.116
 2755SOL    HW1 9164   3.172   6.795   3.121
 2755SOL    HW2 9165   3.289   6.693   3.069
 2756SOL     OW 9166   6.463   4.000   4.698
 2756SOL    HW1 9167   6.385   3.938   4.709
 2756SOL    HW2 9168   6.543   3.959   4.741
 2757SOL     OW 9169   2.511   1.417   6.481
 2757SOL    HW1 9170   2.494   1.462   6.569
 2757SOL    HW2 9171   2.517   1.319   6.495
 2758SOL     OW 9172   5.280   6.245   3.637
 2758SOL    HW1 9173   5.184   6.232   3.664
 2758SOL    HW2 9174   5.327   6.157   3.642
 2759SOL     OW 9175   4.155   5.623   5.266
 2759SOL    HW1 9176   4.067   5.586   5.295
 2759SOL    HW2 9177   4.204   5.555   5.211
 2760SOL     OW 9178   6.998   5.112   2.917
 2760SOL    HW1 9179   0.035   5.114   2.998
 2760SOL    HW2 9180   6.908   5.148   2.941
 2761SOL     OW 9181   1.534   4.439   4.045
 2761SOL    HW1 9182   1.540   4.484   4.134
 2761SOL    HW2 9183   1.453   4.471   3.997
 2762SOL     OW 9184   1.775   1.782   6.731
 2762SOL    HW1 9185   1.733   1.805   6.818
 2762SOL    HW2 9186   1.705   1.780   6.659
 2763SOL     OW 9187   4.972   2.158   5.283
 2763SOL    HW1 9188   4.903   2.221   5.246
 2763SOL    HW2 9189   5.001   2.095   5.211
 2764SOL     OW 9190   0.228   6.272   2.465
 2764SOL    HW1 9191   0.277   6.205   2.408
 2764SOL    HW2 9192   0.272   6.278   2.555
 2765SOL     OW 9193   0.069   0.212   0.605
 2765SOL    HW1 9194   0.088   0.189   0.510
 2765SOL    HW2 9195   0.015   0.139   0.647
 2766SOL     OW 9196   3.703   1.601   6.600
 2766SOL    HW1 9197   3.716   1.694   6.566
 2766SOL    HW2 9198   3.616   1.565   6.565
 2767SOL     OW 9199   5.989   5.528   6.489
 2767SOL    HW1 9200   5.994   5.627   6.481
 2767SOL    HW2 9201   5.923   5.503   6.560
 2768SOL     OW 9202   4.895   1.353   0.194
 2768SOL    HW1 9203   4.959   1.314   0.260
 2768SOL    HW2 9204   4.943   1.421   0.138
 2769SOL     OW 9205   2.326   4.922   6.614
 2769SOL    HW1 9206   2.307   5.020   6.612
 2769SOL    HW2 9207   2.425   4.907   6.616
 2770SOL     OW 9208   4.172   5.821   5.852
 2770SOL    HW1 9209   4.231   5.890   5.892
 2770SOL    HW2 9210   4.197   5.806   5.756
 2771SOL     OW 9211   5.912   0.903   4.749
 2771SOL    HW1 9212   5.905   0.993   4.793
 2771SOL    HW2 9213   5.856   0.902   4.667
 2772SOL     OW 9214   2.936   1.523   1.581
 2772SOL    HW1 9215   2.919   1.544   1.485
 2772SOL    HW2 9216   3.022   1.566   1.610
 2773SOL     OW 9217   6.922   2.703   3.881
 2773SOL    HW1 9218   6.953   2.672   3.791
 2773SOL    HW2 9219   6.942   2.633   3.949
 2774SOL     OW 9220   5.212   3.133   2.599
 2774SOL    HW1 9221   5.149   3.079   2.655
 2774SOL    HW2 9222   5.173   3.145   2.508
 2775SOL     OW 9223   6.217   3.165   4.186
 2775SOL    HW1 9224   6.296   3.176   4.124
 2775SOL    HW2 9225   6.133   3.182   4.135
 2776SOL     OW 9226   5.323   4.142   5.454
 2776SOL    HW1 9227   5.259   4.078   5.411
 2776SOL    HW2 9228   5.302   4.235   5.424
 2777SOL     OW 9229   2.259   1.515   0.053
 2777SOL    HW1 9230   2.221   1.466   6.998
 2777SOL    HW2 9231   2.298   1.602   0.023
 2778SOL     OW 9232   1.722   5.955   6.286
 2778SOL    HW1 9233   1.652   5.885   6.297
 2778SOL    HW2 9234   1.739   5.971   6.189
 2779SOL     OW 9235   4.929   6.880   1.789
 2779SOL    HW1 9236   4.896   6.960   1.739
 2779SOL    HW2 9237   5.004   6.906   1.849
 2780SOL     OW 9238   6.541   6.897   5.938
 2780SOL    HW1 9239   6.538   6.891   5.838
 2780SOL    HW2 9240   6.634   6.877   5.969
 2781SOL     OW 9241   5.711   0.122   3.471
 2781SOL    HW1 9242   5.626   0.173   3.459
 2781SOL    HW2 9243   5.691   0.024   3.465
 2782SOL     OW 9244   4.617   1.324   5.474
 2782SOL    HW1 9245   4.716   1.311   5.482
 2782SOL    HW2 9246   4.597   1.377   5.392
 2783SOL     OW 9247   6.830   3.833   1.329
 2783SOL    HW1 9248   6.851   3.931   1.334
 2783SOL    HW2 9249   6.749   3.814   1.384
 2784SOL     OW 9250   3.223   1.468   2.039
 2784SOL    HW1 9251   3.237   1.371   2.060
 2784SOL    HW2 9252   3.258   1.488   1.948
 2785SOL     OW 9253   5.699   2.398   0.775
 2785SOL    HW1 9254   5.673   2.313   0.728
 2785SOL    HW2 9255   5.726   2.376   0.869
 2786SOL     OW 9256   6.687   6.603   1.445
 2786SOL    HW1 9257   6.769   6.564   1.488
 2786SOL    HW2 9258   6.609   6.592   1.506
 2787SOL     OW 9259   6.328   5.773   5.508
 2787SOL    HW1 9260   6.254   5.835   5.535
 2787SOL    HW2 9261   6.294   5.710   5.438
 2788SOL     OW 9262   2.781   6.207   6.342
 2788SOL    HW1 9263   2.819   6.116   6.326
 2788SOL    HW2 9264   2.728   6.235   6.262
 2789SOL     OW 9265   1.885   1.697   3.659
 2789SOL    HW1 9266   1.919   1.718   3.567
 2789SOL    HW2 9267   1.829   1.773   3.692
 2790SOL     OW 9268   3.041   5.456   0.907
 2790SOL    HW1 9269   3.012   5.375   0.957
 2790SOL    HW2 9270   3.099   5.513   0.965
 2791SOL     OW 9271   0.718   4.319   2.343
 2791SOL    HW1 9272   0.815   4.340   2.330
 2791SOL    HW2 9273   0.704   4.220   2.336
 2792SOL     OW 9274   2.981   1.135   4.771
 2792SOL    HW1 9275   2.975   1.078   4.689
 2792SOL    HW2 9276   2.920   1.213   4.761
 2793SOL     OW 9277   5.433   3.673   2.036
 2793SOL    HW1 9278   5.397   3.715   1.952
 2793SOL    HW2 9279   5.470   3.583   2.014
 2794SOL     OW 9280   6.747   2.047   6.195
 2794SOL    HW1 9281   6.666   2.050   6.137
 2794SOL    HW2 9282   6.741   1.969   6.257
 2795SOL     OW 9283   0.261   4.661   1.143
 2795SOL    HW1 9284   0.230   4.657   1.237
 2795SOL    HW2 9285   0.234   4.748   1.102
 2796SOL     OW 9286   0.687   5.711   4.120
 2796SOL    HW1 9287   0.638   5.710   4.033
 2796SOL    HW2 9288   0.733   5.623   4.134
 2797SOL     OW 9289   5.482   5.252   5.522
 2797SOL    HW1 9290   5.557   5.221   5.580
 2797SOL    HW2 9291   5.513   5.257   5.427
 2798SOL     OW 9292   5.791   6.102   2.594
 2798SOL    HW1 9293   5.706   6.071   2.636
 2798SOL    HW2 9294   5.770   6.160   2.515
 2799SOL     OW 9295   5.233   6.162   5.895
 2799SOL    HW1 9296   5.159   6.131   5.954
 2799SOL    HW2 9297   5.205   6.244   5.845
 2800SOL     OW 9298   6.047   0.469   6.109
 2800SOL    HW1 9299   6.012   0.542   6.167
 2800SOL    HW2 9300   6.020   0.486   6.014
 2801SOL     OW 9301   1.286   5.569   6.076
 2801SOL    HW1 9302   1.381   5.541   6.091
 2801SOL    HW2 9303   1.240   5.500   6.020
 2802SOL     OW 9304   6.750   6.310   5.558
 2802SOL    HW1 9305   6.796   6.285   5.643
 2802SOL    HW2 9306   6.667   6.256   5.547
 2803SOL     OW 9307   3.281   4.554   5.776
 2803SOL    HW1 9308   3.201   4.562   5.717
 2803SOL    HW2 9309   3.358   4.519   5.723
 2804SOL     OW 9310   0.386   4.140   4.542
 2804SOL    HW1 9311   0.423   4.143   4.448
 2804SOL    HW2 9312   0.426   4.063   4.591
 2805SOL     OW 9313   6.058   4.117   2.799
 2805SOL    HW1 9314   5.978   4.168   2.771
 2805SOL    HW2 9315   6.091   4.061   2.722
 2806SOL     OW 9316   1.377   4.583   6.398
 2806SOL    HW1 9317   1.458   4.572   6.456
 2806SOL    HW2 9318   1.295   4.558   6.449
 2807SOL     OW 9319   4.144   0.546   3.148
 2807SOL    HW1 9320   4.061   0.553   3.203
 2807SOL    HW2 9321   4.215   0.605   3.188
 2808SOL     OW 9322   6.450   5.944   0.891
 2808SOL    HW1 9323   6.465   5.929   0.989
 2808SOL    HW2 9324   6.532   5.984   0.850
 2809SOL     OW 9325   5.530   2.351   1.551
 2809SOL    HW1 9326   5.562   2.444   1.531
 2809SOL    HW2 9327   5.594   2.285   1.513
 2810SOL     OW 9328   2.170   5.376   2.710
 2810SOL    HW1 9329   2.147   5.467   2.676
 2810SOL    HW2 9330   2.098   5.344   2.772
 2811SOL     OW 9331   1.005   1.537   2.723
 2811SOL    HW1 9332   1.004   1.498   2.631
 2811SOL    HW2 9333   0.916   1.524   2.766
 2812SOL     OW 9334   6.129   3.373   0.631
 2812SOL    HW1 9335   6.085   3.283   0.632
 2812SOL    HW2 9336   6.186   3.382   0.713
 2813SOL     OW 9337   0.785   1.649   0.493
 2813SOL    HW1 9338   0.813   1.745   0.492
 2813SOL    HW2 9339   0.862   1.591   0.468
 2814SOL     OW 9340   2.892   4.481   5.727
 2814SOL    HW1 9341   2.938   4.550   5.670
 2814SOL    HW2 9342   2.793   4.496   5.723
 2815SOL     OW 9343   0.149   5.305   5.998
 2815SOL    HW1 9344   0.211   5.247   6.050
 2815SOL    HW2 9345   0.176   5.400   6.007
 2816SOL     OW 9346   6.541   5.557   4.752
 2816SOL    HW1 9347   6.580   5.551   4.660
 2816SOL    HW2 9348   6.464   5.620   4.752
 2817SOL     OW 9349   3.634   1.461   2.761
 2817SOL    HW1 9350   3.718   1.490   2.806
 2817SOL    HW2 9351   3.617   1.518   2.681
 2818SOL     OW 9352   6.635   1.148   2.353
 2818SOL    HW1 9353   6.597   1.056   2.363
 2818SOL    HW2 9354   6.727   1.150   2.392
 2819SOL     OW 9355   1.467   0.234   1.471
 2819SOL    HW1 9356   1.481   0.190   1.560
 2819SOL    HW2 9357   1.427   0.168   1.407
 2820SOL     OW 9358   1.019   1.992   2.180
 2820SOL    HW1 9359   0.984   1.937   2.104
 2820SOL    HW2 9360   0.966   1.971   2.263
 2821SOL     OW 9361   2.622   5.297   6.001
 2821SOL    HW1 9362   2.560   5.316   6.077
 2821SOL    HW2 9363   2.717   5.307   6.032
 2822SOL     OW 9364   4.693   2.774   0.169
 2822SOL    HW1 9365   4.792   2.784   0.175
 2822SOL    HW2 9366   4.664   2.696   0.225
 2823SOL     OW 9367   6.282   0.769   6.979
 2823SOL    HW1 9368   6.204   0.706   6.978
 2823SOL    HW2 9369   6.248   0.863   6.988
 2824SOL     OW 9370   1.598   3.166   5.676
 2824SOL    HW1 9371   1.579   3.084   5.731
 2824SOL    HW2 9372   1.605   3.140   5.580
 2825SOL     OW 9373   5.430   0.735   5.977
 2825SOL    HW1 9374   5.447   0.711   6.073
 2825SOL    HW2 9375   5.511   0.777   5.939
 2826SOL     OW 9376   2.751   3.377   6.507
 2826SOL    HW1 9377   2.665   3.375   6.456
 2826SOL    HW2 9378   2.818   3.316   6.463
 2827SOL     OW 9379   0.320   0.788   6.854
 2827SOL    HW1 9380   0.418   0.793   6.876
 2827SOL    HW2 9381   0.310   0.779   6.755
 2828SOL     OW 9382   1.918   3.410   1.411
 2828SOL    HW1 9383   1.979   3.482   1.378
 2828SOL    HW2 9384   1.952   3.321   1.381
 2829SOL     OW 9385   3.179   3.269   3.363
 2829SOL    HW1 9386   3.086   3.303   3.348
 2829SOL    HW2 9387   3.178   3.199   3.434
 2830SOL     OW 9388   3.593   4.242   5.379
 2830SOL    HW1 9389   3.666   4.255   5.312
 2830SOL    HW2 9390   3.512   4.204   5.333
 2831SOL     OW 9391   0.328   2.550   2.463
 2831SOL    HW1 9392   0.382   2.554   2.547
 2831SOL    HW2 9393   0.317   2.454   2.436
 2832SOL     OW 9394   0.603   3.542   1.534
 2832SOL    HW1 9395   0.696   3.507   1.526
 2832SOL    HW2 9396   0.541   3.468   1.559
 2833SOL     OW 9397   2.129   1.519   1.538
 2833SOL    HW1 9398   2.087   1.595   1.587
 2833SOL    HW2 9399   2.119   1.435   1.592
 2834SOL     OW 9400   4.683   6.377   4.563
 2834SOL    HW1 9401   4.751   6.441   4.599
 2834SOL    HW2 9402   4.593   6.402   4.597
 2835SOL     OW 9403   1.045   6.538   0.450
 2835SOL    HW1 9404   1.020   6.535   0.546
 2835SOL    HW2 9405   0.967   6.510   0.394
 2836SOL     OW 9406   2.203   6.257   2.292
 2836SOL    HW1 9407   2.192   6.178   2.232
 2836SOL    HW2 9408   2.268   6.321   2.252
 2837SOL     OW 9409   5.712   4.620   2.636
 2837SOL    HW1 9410   5.641   4.609   2.706
 2837SOL    HW2 9411   5.802   4.615   2.680
 2838SOL     OW 9412   4.739   3.928   0.520
 2838SOL    HW1 9413   4.730   3.853   0.585
 2838SOL    HW2 9414   4.806   3.904   0.450
 2839SOL     OW 9415   0.302   3.008   2.116
 2839SOL    HW1 9416   0.377   3.029   2.179
 2839SOL    HW2 9417   0.215   3.008   2.166
 2840SOL     OW 9418   1.275   5.872   2.792
 2840SOL    HW1 9419   1.330   5.916   2.863
 2840SOL    HW2 9420   1.181   5.863   2.824
 2841SOL     OW 9421   6.640   2.346   0.148
 2841SOL    HW1 9422   6.687   2.275   0.201
 2841SOL    HW2 9423   6.606   2.306   0.062
 2842SOL     OW 9424   1.286   5.848   4.800
 2842SOL    HW1 9425   1.327   5.807   4.882
 2842SOL    HW2 9426   1.293   5.784   4.723
 2843SOL     OW 9427   2.733   1.725   2.680
 2843SOL    HW1 9428   2.741   1.644   2.738
 2843SOL    HW2 9429   2.819   1.738   2.629
 2844SOL     OW 9430   5.598   4.734   1.243
 2844SOL    HW1 9431   5.579   4.741   1.145
 2844SOL    HW2 9432   5.622   4.639   1.265
 2845SOL     OW 9433   5.357   3.365   2.526
 2845SOL    HW1 9434   5.451   3.383   2.557
 2845SOL    HW2 9435   5.337   3.268   2.536
 2846SOL     OW 9436   3.210   1.456   0.447
 2846SOL    HW1 9437   3.122   1.459   0.494
 2846SOL    HW2 9438   3.284   1.468   0.514
 2847SOL     OW 9439   4.974   3.694   2.171
 2847SOL    HW1 9440   4.926   3.778   2.147
 2847SOL    HW2 9441   4.955   3.624   2.102
 2848SOL     OW 9442   2.433   2.459   5.382
 2848SOL    HW1 9443   2.472   2.545   5.413
 2848SOL    HW2 9444   2.351   2.478   5.326
 2849SOL     OW 9445   3.734   1.436   1.513
 2849SOL    HW1 9446   3.733   1.497   1.592
 2849SOL    HW2 9447   3.821   1.386   1.510
 2850SOL     OW 9448   2.245   6.628   3.160
 2850SOL    HW1 9449   2.292   6.676   3.086
 2850SOL    HW2 9450   2.312   6.594   3.226
 2851SOL     OW 9451   3.965   3.574   6.725
 2851SOL    HW1 9452   4.061   3.601   6.712
 2851SOL    HW2 9453   3.958   3.475   6.726
 2852SOL     OW 9454   5.822   4.543   7.011
 2852SOL    HW1 9455   5.916   4.565   6.985
 2852SOL    HW2 9456   5.769   4.627   7.022
 2853SOL     OW 9457   0.807   3.399   0.592
 2853SOL    HW1 9458   0.719   3.369   0.630
 2853SOL    HW2 9459   0.833   3.338   0.517
 2854SOL     OW 9460   3.172   0.509   5.881
 2854SOL    HW1 9461   3.175   0.514   5.782
 2854SOL    HW2 9462   3.264   0.527   5.918
 2855SOL     OW 9463   0.939   2.892   4.892
 2855SOL    HW1 9464   1.031   2.891   4.854
 2855SOL    HW2 9465   0.878   2.941   4.830
 2856SOL     OW 9466   1.340   2.755   3.704
 2856SOL    HW1 9467   1.409   2.740   3.633
 2856SOL    HW2 9468   1.352   2.847   3.743
 2857SOL     OW 9469   0.275   2.973   1.072
 2857SOL    HW1 9470   0.224   2.892   1.044
 2857SOL    HW2 9471   0.373   2.957   1.058
 2858SOL     OW 9472   5.266   6.598   2.325
 2858SOL    HW1 9473   5.359   6.570   2.303
 2858SOL    HW2 9474   5.206   6.517   2.329
 2859SOL     OW 9475   5.372   6.379   0.817
 2859SOL    HW1 9476   5.391   6.463   0.869
 2859SOL    HW2 9477   5.327   6.402   0.731
 2860SOL     OW 9478   1.471   6.589   2.150
 2860SOL    HW1 9479   1.430   6.645   2.223
 2860SOL    HW2 9480   1.406   6.581   2.074
 2861SOL     OW 9481   3.453   6.054   5.328
 2861SOL    HW1 9482   3.419   6.083   5.417
 2861SOL    HW2 9483   3.388   5.992   5.285
 2862SOL     OW 9484   4.508   2.533   1.955
 2862SOL    HW1 9485   4.518   2.435   1.937
 2862SOL    HW2 9486   4.537   2.553   2.048
 2863SOL     OW 9487   5.081   1.267   6.916
 2863SOL    HW1 9488   5.020   1.340   6.945
 2863SOL    HW2 9489   5.057   1.183   6.964
 2864SOL     OW 9490   4.635   2.702   1.085
 2864SOL    HW1 9491   4.591   2.685   1.172
 2864SOL    HW2 9492   4.665   2.798   1.081
 2865SOL     OW 9493   4.197   6.887   3.864
 2865SOL    HW1 9494   4.217   6.797   3.903
 2865SOL    HW2 9495   4.121   6.880   3.799
 2866SOL     OW 9496   5.591   4.063   0.306
 2866SOL    HW1 9497   5.632   4.133   0.247
 2866SOL    HW2 9498   5.518   4.016   0.255
 2867SOL     OW 9499   6.008   6.490   2.718
 2867SOL    HW1 9500   6.003   6.530   2.626
 2867SOL    HW2 9501   5.982   6.393   2.713
 2868SOL     OW 9502   1.127   1.561   5.302
 2868SOL    HW1 9503   1.120   1.640   5.241
 2868SOL    HW2 9504   1.046   1.503   5.292
 2869SOL     OW 9505   6.363   0.744   4.017
 2869SOL    HW1 9506   6.330   0.736   3.922
 2869SOL    HW2 9507   6.457   0.777   4.016
 2870SOL     OW 9508   0.666   1.661   6.539
 2870SOL    HW1 9509   0.611   1.634   6.460
 2870SOL    HW2 9510   0.751   1.702   6.507
 2871SOL     OW 9511   6.437   0.525   6.961
 2871SOL    HW1 9512   6.369   0.453   6.948
 2871SOL    HW2 9513   6.391   0.614   6.968
 2872SOL     OW 9514   2.920   1.757   0.800
 2872SOL    HW1 9515   3.011   1.798   0.805
 2872SOL    HW2 9516   2.881   1.775   0.710
 2873SOL     OW 9517   6.885   6.152   1.970
 2873SOL    HW1 9518   6.918   6.064   2.004
 2873SOL    HW2 9519   6.793   6.141   1.931
 2874SOL     OW 9520   4.373   6.845   2.891
 2874SOL    HW1 9521   4.452   6.877   2.839
 2874SOL    HW2 9522   4.305   6.919   2.896
 2875SOL     OW 9523   3.779   6.980   2.687
 2875SOL    HW1 9524   3.750   0.052   2.697
 2875SOL    HW2 9525   3.772   6.933   2.775
 2876SOL     OW 9526   1.198   6.358   2.390
 2876SOL    HW1 9527   1.297   6.351   2.381
 2876SOL    HW2 9528   1.157   6.372   2.300
 2877SOL     OW 9529   1.892   0.729   6.691
 2877SOL    HW1 9530   1.983   0.691   6.706
 2877SOL    HW2 9531   1.887   0.771   6.601
 2878SOL     OW 9532   2.931   3.856   4.793
 2878SOL    HW1 9533   2.835   3.834   4.778
 2878SOL    HW2 9534   2.973   3.788   4.852
 2879SOL     OW 9535   4.295   5.391   5.550
 2879SOL    HW1 9536   4.273   5.300   5.585
 2879SOL    HW2 9537   4.366   5.383   5.480
 2880SOL     OW 9538   0.309   1.537   3.726
 2880SOL    HW1 9539   0.385   1.491   3.771
 2880SOL    HW2 9540   0.286   1.489   3.641
 2881SOL     OW 9541   3.583   6.100   6.892
 2881SOL    HW1 9542   3.516   6.042   6.846
 2881SOL    HW2 9543   3.646   6.043   6.944
 2882SOL     OW 9544   6.252   5.935   1.519
 2882SOL    HW1 9545   6.186   5.922   1.446
 2882SOL    HW2 9546   6.314   5.856   1.524
 2883SOL     OW 9547   6.167   6.605   3.467
 2883SOL    HW1 9548   6.248   6.614   3.409
 2883SOL    HW2 9549   6.185   6.538   3.539
 2884SOL     OW 9550   6.903   5.872   2.098
 2884SOL    HW1 9551   6.825   5.823   2.060
 2884SOL    HW2 9552   6.916   5.844   2.193
 2885SOL     OW 9553   0.965   2.290   4.378
 2885SOL    HW1 9554   0.877   2.300   4.331
 2885SOL    HW2 9555   0.950   2.292   4.477
 2886SOL     OW 9556   2.047   4.339   6.614
 2886SOL    HW1 9557   2.077   4.354   6.708
 2886SOL    HW2 9558   1.952   4.308   6.613
 2887SOL     OW 9559   7.003   5.971   4.487
 2887SOL    HW1 9560   6.977   5.920   4.405
 2887SOL    HW2 9561   6.921   5.994   4.539
 2888SOL     OW 9562   0.360   5.302   0.359
 2888SOL    HW1 9563   0.302   5.356   0.298
 2888SOL    HW2 9564   0.303   5.237   0.409
 2889SOL     OW 9565   3.194   6.656   2.818
 2889SOL    HW1 9566   3.168   6.753   2.813
 2889SOL    HW2 9567   3.284   6.645   2.776
 2890SOL     OW 9568   1.787   5.086   0.971
 2890SOL    HW1 9569   1.773   5.030   0.889
 2890SOL    HW2 9570   1.873   5.136   0.961
 2891SOL     OW 9571   1.550   3.397   3.407
 2891SOL    HW1 9572   1.513   3.379   3.316
 2891SOL    HW2 9573   1.509   3.334   3.473
 2892SOL     OW 9574   6.006   2.962   1.028
 2892SOL    HW1 9575   6.057   3.016   1.095
 2892SOL    HW2 9576   5.910   2.958   1.054
 2893SOL     OW 9577   1.764   5.272   4.780
 2893SOL    HW1 9578   1.735   5.366   4.759
 2893SOL    HW2 9579   1.785   5.264   4.877
 2894SOL     OW 9580   1.958   3.973   1.468
 2894SOL    HW1 9581   1.860   3.987   1.479
 2894SOL    HW2 9582   1.986   3.891   1.517
 2895SOL     OW 9583   4.110   0.394   6.578
 2895SOL    HW1 9584   4.010   0.401   6.583
 2895SOL    HW2 9585   4.136   0.376   6.483
 2896SOL     OW 9586   4.793   0.322   5.744
 2896SOL    HW1 9587   4.725   0.252   5.767
 2896SOL    HW2 9588   4.849   0.290   5.668
 2897SOL     OW 9589   4.187   5.064   2.838
 2897SOL    HW1 9590   4.240   5.105   2.911
 2897SOL    HW2 9591   4.095   5.102   2.838
 2898SOL     OW 9592   5.200   4.047   3.995
 2898SOL    HW1 9593   5.279   3.994   4.027
 2898SOL    HW2 9594   5.188   4.127   4.053
 2899SOL     OW 9595   6.533   1.790   0.901
 2899SOL    HW1 9596   6.597   1.730   0.854
 2899SOL    HW2 9597   6.547   1.884   0.871
 2900SOL     OW 9598   4.369   4.805   6.519
 2900SOL    HW1 9599   4.327   4.885   6.562
 2900SOL    HW2 9600   4.299   4.735   6.504
 2901SOL     OW 9601   2.114   4.738   3.535
 2901SOL    HW1 9602   2.053   4.768   3.609
 2901SOL    HW2 9603   2.108   4.638   3.526
 2902SOL     OW 9604   6.644   5.172   3.615
 2902SOL    HW1 9605   6.566   5.165   3.554
 2902SOL    HW2 9606   6.621   5.231   3.692
 2903SOL     OW 9607   4.203   6.336   1.034
 2903SOL    HW1 9608   4.233   6.431   1.022
 2903SOL    HW2 9609   4.152   6.328   1.119
 2904SOL     OW 9610   3.130   5.148   4.853
 2904SOL    HW1 9611   3.139   5.061   4.805
 2904SOL    HW2 9612   3.110   5.220   4.787
 2905SOL     OW 9613   1.481   4.188   4.002
 2905SOL    HW1 9614   1.522   4.276   4.029
 2905SOL    HW2 9615   1.479   4.182   3.903
 2906SOL     OW 9616   5.556   5.872   2.618
 2906SOL    HW1 9617   5.587   5.916   2.703
 2906SOL    HW2 9618   5.536   5.776   2.635
 2907SOL     OW 9619   0.973   1.637   4.105
 2907SOL    HW1 9620   0.902   1.576   4.070
 2907SOL    HW2 9621   1.052   1.634   4.044
 2908SOL     OW 9622   5.301   6.481   3.497
 2908SOL    HW1 9623   5.212   6.525   3.507
 2908SOL    HW2 9624   5.297   6.388   3.535
 2909SOL     OW 9625   1.996   6.968   3.093
 2909SOL    HW1 9626   1.920   0.004   3.121
 2909SOL    HW2 9627   1.980   6.875   3.125
 2910SOL     OW 9628   6.739   0.781   3.724
 2910SOL    HW1 9629   6.658   0.816   3.676
 2910SOL    HW2 9630   6.731   0.800   3.822
 2911SOL     OW 9631   1.829   5.277   3.631
 2911SOL    HW1 9632   1.817   5.237   3.722
 2911SOL    HW2 9633   1.784   5.366   3.627
 2912SOL     OW 9634   6.598   6.072   6.589
 2912SOL    HW1 9635   6.531   6.009   6.628
 2912SOL    HW2 9636   6.554   6.159   6.567
 2913SOL     OW 9637   3.412   4.898   2.434
 2913SOL    HW1 9638   3.470   4.880   2.355
 2913SOL    HW2 9639   3.459   4.960   2.497
 2914SOL     OW 9640   5.742   5.826   1.131
 2914SOL    HW1 9641   5.770   5.782   1.217
 2914SOL    HW2 9642   5.695   5.759   1.074
 2915SOL     OW 9643   3.380   1.787   3.912
 2915SOL    HW1 9644   3.301   1.749   3.865
 2915SOL    HW2 9645   3.444   1.824   3.845
 2916SOL     OW 9646   1.563   5.274   0.422
 2916SOL    HW1 9647   1.635   5.214   0.387
 2916SOL    HW2 9648   1.533   5.337   0.351
 2917SOL     OW 9649   3.313   0.435   4.428
 2917SOL    HW1 9650   3.406   0.469   4.410
 2917SOL    HW2 9651   3.264   0.425   4.341
 2918SOL     OW 9652   5.901   3.634   6.398
 2918SOL    HW1 9653   5.852   3.717   6.424
 2918SOL    HW2 9654   5.984   3.658   6.348
 2919SOL     OW 9655   6.015   0.609   3.711
 2919SOL    HW1 9656   5.919   0.635   3.697
 2919SOL    HW2 9657   6.018   0.518   3.753
 2920SOL     OW 9658   3.373   0.098   1.693
 2920SOL    HW1 9659   3.453   0.157   1.679
 2920SOL    HW2 9660   3.294   0.155   1.716
 2921SOL     OW 9661   0.645   0.010   5.839
 2921SOL    HW1 9662   0.574   0.048   5.780
 2921SOL    HW2 9663   0.648   6.933   5.827
 2922SOL     OW 9664   3.775   6.441   1.792
 2922SOL    HW1 9665   3.753   6.529   1.834
 2922SOL    HW2 9666   3.743   6.366   1.850
 2923SOL     OW 9667   6.505   5.385   5.007
 2923SOL    HW1 9668   6.493   5.418   5.101
 2923SOL    HW2 9669   6.534   5.461   4.949
 2924SOL     OW 9670   0.364   1.815   4.461
 2924SOL    HW1 9671   0.457   1.802   4.429
 2924SOL    HW2 9672   0.331   1.730   4.502
 2925SOL     OW 9673   5.805   1.716   0.183
 2925SOL    HW1 9674   5.822   1.713   0.084
 2925SOL    HW2 9675   5.816   1.625   0.221
 2926SOL     OW 9676   6.317   2.101   6.215
 2926SOL    HW1 9677   6.314   2.189   6.263
 2926SOL    HW2 9678   6.397   2.098   6.156
 2927SOL     OW 9679   1.437   3.202   0.687
 2927SOL    HW1 9680   1.361   3.208   0.622
 2927SOL    HW2 9681   1.516   3.161   0.642
 2928SOL     OW 9682   6.457   1.446   6.938
 2928SOL    HW1 9683   6.390   1.404   6.877
 2928SOL    HW2 9684   6.489   1.532   6.898
 2929SOL     OW 9685   1.646   2.776   5.066
 2929SOL    HW1 9686   1.740   2.809   5.056
 2929SOL    HW2 9687   1.606   2.765   4.975
 2930SOL     OW 9688   5.311   6.561   5.058
 2930SOL    HW1 9689   5.267   6.631   5.114
 2930SOL    HW2 9690   5.325   6.479   5.113
 2931SOL     OW 9691   4.872   4.816   6.817
 2931SOL    HW1 9692   4.958   4.843   6.859
 2931SOL    HW2 9693   4.800   4.815   6.887
 2932SOL     OW 9694   6.994   5.832   1.507
 2932SOL    HW1 9695   6.945   5.839   1.420
 2932SOL    HW2 9696   0.062   5.874   1.497
 2933SOL     OW 9697   0.467   6.628   2.157
 2933SOL    HW1 9698   0.424   6.710   2.121
 2933SOL    HW2 9699   0.398   6.569   2.199
 2934SOL     OW 9700   5.142   2.850   1.168
 2934SOL    HW1 9701   5.226   2.905   1.166
 2934SOL    HW2 9702   5.076   2.893   1.231
 2935SOL     OW 9703   0.115   2.466   6.581
 2935SOL    HW1 9704   0.116   2.561   6.549
 2935SOL    HW2 9705   0.077   2.463   6.673
 2936SOL     OW 9706   3.964   6.400   0.601
 2936SOL    HW1 9707   4.000   6.374   0.691
 2936SOL    HW2 9708   3.921   6.321   0.558
 2937SOL     OW 9709   4.782   5.218   0.784
 2937SOL    HW1 9710   4.843   5.249   0.710
 2937SOL    HW2 9711   4.837   5.190   0.863
 2938SOL     OW 9712   7.000   5.334   0.298
 2938SOL    HW1 9713   0.015   5.308   0.387
 2938SOL    HW2 9714   6.942   5.415   0.309
 2939SOL     OW 9715   1.549   0.501   1.795
 2939SOL    HW1 9716   1.450   0.492   1.807
 2939SOL    HW2 9717   1.568   0.544   1.706
 2940SOL     OW 9718   6.229   5.676   5.005
 2940SOL    HW1 9719   6.219   5.754   4.943
 2940SOL    HW2 9720   6.205   5.591   4.957
 2941SOL     OW 9721   2.580   2.034   2.944
 2941SOL    HW1 9722   2.524   2.055   3.024
 2941SOL    HW2 9723   2.629   1.948   2.959
 2942SOL     OW 9724   3.683   2.434   0.879
 2942SOL    HW1 9725   3.749   2.359   0.867
 2942SOL    HW2 9726   3.698   2.503   0.808
 2943SOL     OW 9727   5.660   4.837   3.824
 2943SOL    HW1 9728   5.605   4.863   3.745
 2943SOL    HW2 9729   5.625   4.752   3.863
 2944SOL     OW 9730   2.582   6.315   3.926
 2944SOL    HW1 9731   2.682   6.320   3.928
 2944SOL    HW2 9732   2.552   6.282   3.837
 2945SOL     OW 9733   4.945   2.700   1.734
 2945SOL    HW1 9734   4.891   2.617   1.718
 2945SOL    HW2 9735   4.939   2.725   1.830
 2946SOL     OW 9736   2.342   4.338   5.634
 2946SOL    HW1 9737   2.278   4.371   5.565
 2946SOL    HW2 9738   2.368   4.244   5.614
 2947SOL     OW 9739   6.921   5.129   0.527
 2947SOL    HW1 9740   6.978   5.194   0.578
 2947SOL    HW2 9741   6.824   5.146   0.548
 2948SOL     OW 9742   0.012   4.424   3.475
 2948SOL    HW1 9743   6.945   4.386   3.453
 2948SOL    HW2 9744   0.083   4.360   3.444
 2949SOL     OW 9745   0.530   5.719   6.877
 2949SOL    HW1 9746   0.470   5.670   6.814
 2949SOL    HW2 9747   0.621   5.728   6.837
 2950SOL     OW 9748   5.803   5.926   3.661
 2950SOL    HW1 9749   5.828   5.851   3.722
 2950SOL    HW2 9750   5.745   5.891   3.588
 2951SOL     OW 9751   5.500   1.296   1.890
 2951SOL    HW1 9752   5.467   1.280   1.983
 2951SOL    HW2 9753   5.422   1.296   1.827
 2952SOL     OW 9754   0.166   6.844   5.042
 2952SOL    HW1 9755   0.201   6.930   5.079
 2952SOL    HW2 9756   0.085   6.862   4.986
 2953SOL     OW 9757   0.111   4.390   3.001
 2953SOL    HW1 9758   0.092   4.372   2.904
 2953SOL    HW2 9759   0.117   4.304   3.050
 2954SOL     OW 9760   6.958   4.635   0.046
 2954SOL    HW1 9761   7.003   4.618   6.981
 2954SOL    HW2 9762   0.003   4.657   0.115
 2955SOL     OW 9763   0.809   4.526   1.161
 2955SOL    HW1 9764   0.805   4.488   1.068
 2955SOL    HW2 9765   0.902   4.517   1.197
 2956SOL     OW 9766   6.818   5.484   3.760
 2956SOL    HW1 9767   6.734   5.430   3.761
 2956SOL    HW2 9768   6.799   5.575   3.724
 2957SOL     OW 9769   4.710   4.684   1.567
 2957SOL    HW1 9770   4.802   4.719   1.548
 2957SOL    HW2 9771   4.657   4.753   1.616
 2958SOL     OW 9772   2.055   5.045   3.416
 2958SOL    HW1 9773   1.992   4.970   3.431
 2958SOL    HW2 9774   2.059   5.066   3.318
 2959SOL     OW 9775   5.376   2.881   2.493
 2959SOL    HW1 9776   5.342   2.904   2.584
 2959SOL    HW2 9777   5.456   2.938   2.472
 2960SOL     OW 9778   3.701   0.039   6.735
 2960SOL    HW1 9779   3.682   0.090   6.651
 2960SOL    HW2 9780   3.712   6.965   6.713
 2961SOL     OW 9781   6.138   4.738   3.228
 2961SOL    HW1 9782   6.234   4.730   3.200
 2961SOL    HW2 9783   6.079   4.711   3.151
 2962SOL     OW 9784   4.674   6.436   3.474
 2962SOL    HW1 9785   4.640   6.525   3.443
 2962SOL    HW2 9786   4.676   6.372   3.397
 2963SOL     OW 9787   0.851   0.766   6.616
 2963SOL    HW1 9788   0.760   0.757   6.574
 2963SOL    HW2 9789   0.881   0.861   6.608
 2964SOL     OW 9790   0.220   2.240   6.105
 2964SOL    HW1 9791   0.128   2.215   6.074
 2964SOL    HW2 9792   0.288   2.204   6.041
 2965SOL     OW 9793   0.763   0.514   4.146
 2965SOL    HW1 9794   0.830   0.447   4.179
 2965SOL    HW2 9795   0.801   0.564   4.069
 2966SOL     OW 9796   4.761   5.712   3.699
 2966SOL    HW1 9797   4.689   5.724   3.767
 2966SOL    HW2 9798   4.836   5.774   3.719
 2967SOL     OW 9799   6.430   0.949   5.503
 2967SOL    HW1 9800   6.357   1.006   5.464
 2967SOL    HW2 9801   6.430   0.958   5.602
 2968SOL     OW 9802   1.101   2.507   1.007
 2968SOL    HW1 9803   1.017   2.562   1.009
 2968SOL    HW2 9804   1.078   2.412   0.988
 2969SOL     OW 9805   4.776   2.916   4.689
 2969SOL    HW1 9806   4.754   2.959   4.602
 2969SOL    HW2 9807   4.835   2.977   4.742
 2970SOL     OW 9808   2.726   3.019   5.326
 2970SOL    HW1 9809   2.738   3.087   5.398
 2970SOL    HW2 9810   2.637   3.033   5.281
 2971SOL     OW 9811   5.156   4.237   0.498
 2971SOL    HW1 9812   5.106   4.181   0.432
 2971SOL    HW2 9813   5.133   4.209   0.591
 2972SOL     OW 9814   5.846   4.986   6.473
 2972SOL    HW1 9815   5.870   4.937   6.556
 2972SOL    HW2 9816   5.775   4.935   6.423
 2973SOL     OW 9817   4.550   6.552   2.217
 2973SOL    HW1 9818   4.503   6.601   2.290
 2973SOL    HW2 9819   4.649   6.562   2.229
 2974SOL     OW 9820   6.506   4.308   3.338
 2974SOL    HW1 9821   6.478   4.281   3.246
 2974SOL    HW2 9822   6.459   4.393   3.364
 2975SOL     OW 9823   5.511   4.580   4.440
 2975SOL    HW1 9824   5.509   4.502   4.378
 2975SOL    HW2 9825   5.586   4.641   4.413
 2976SOL     OW 9826   5.066   1.996   2.780
 2976SOL    HW1 9827   5.106   1.908   2.755
 2976SOL    HW2 9828   5.117   2.070   2.735
 2977SOL     OW 9829   6.859   0.972   2.251
 2977SOL    HW1 9830   6.928   1.006   2.186
 2977SOL    HW2 9831   6.768   0.991   2.215
 2978SOL     OW 9832   3.714   4.385   0.108
 2978SOL    HW1 9833   3.776   4.433   0.045
 2978SOL    HW2 9834   3.639   4.446   0.134
 2979SOL     OW 9835   3.546   1.823   4.341
 2979SOL    HW1 9836   3.627   1.878   4.321
 2979SOL    HW2 9837   3.466   1.883   4.352
 2980SOL     OW 9838   2.124   5.346   6.248
 2980SOL    HW1 9839   2.101   5.272   6.185
 2980SOL    HW2 9840   2.221   5.342   6.270
 2981SOL     OW 9841   2.393   0.972   0.103
 2981SOL    HW1 9842   2.311   1.020   0.073
 2981SOL    HW2 9843   2.451   1.034   0.156
 2982SOL     OW 9844   2.239   5.868   1.816
 2982SOL    HW1 9845   2.168   5.813   1.861
 2982SOL    HW2 9846   2.217   5.878   1.719
 2983SOL     OW 9847   6.710   2.371   1.417
 2983SOL    HW1 9848   6.623   2.419   1.406
 2983SOL    HW2 9849   6.783   2.424   1.373
 2984SOL     OW 9850   5.616   5.600   6.180
 2984SOL    HW1 9851   5.688   5.593   6.111
 2984SOL    HW2 9852   5.616   5.691   6.220
 2985SOL     OW 9853   1.082   1.736   5.025
 2985SOL    HW1 9854   1.097   1.759   4.929
 2985SOL    HW2 9855   0.987   1.708   5.039
 2986SOL     OW 9856   3.762   3.826   2.356
 2986SOL    HW1 9857   3.716   3.764   2.420
 2986SOL    HW2 9858   3.740   3.921   2.379
 2987SOL     OW 9859   1.408   1.276   4.366
 2987SOL    HW1 9860   1.475   1.234   4.305
 2987SOL    HW2 9861   1.361   1.351   4.319
 2988SOL     OW 9862   1.728   7.021   1.908
 2988SOL    HW1 9863   1.822   0.003   1.941
 2988SOL    HW2 9864   1.695   0.089   1.886
 2989SOL     OW 9865   5.397   3.995   5.698
 2989SOL    HW1 9866   5.350   4.023   5.782
 2989SOL    HW2 9867   5.376   4.060   5.625
 2990SOL     OW 9868   5.127   2.534   4.422
 2990SOL    HW1 9869   5.074   2.618   4.435
 2990SOL    HW2 9870   5.071   2.466   4.375
 2991SOL     OW 9871   5.879   3.351   6.172
 2991SOL    HW1 9872   5.821   3.312   6.243
 2991SOL    HW2 9873   5.963   3.385   6.213
 2992SOL     OW 9874   1.875   4.710   4.902
 2992SOL    HW1 9875   1.845   4.801   4.874
 2992SOL    HW2 9876   1.956   4.684   4.850
 2993SOL     OW 9877   0.207   5.113   0.478
 2993SOL    HW1 9878   0.196   5.139   0.574
 2993SOL    HW2 9879   0.126   5.064   0.446
 2994SOL     OW 9880   3.832   5.853   0.597
 2994SOL    HW1 9881   3.803   5.830   0.690
 2994SOL    HW2 9882   3.904   5.922   0.600
 2995SOL     OW 9883   4.127   0.594   0.285
 2995SOL    HW1 9884   4.032   0.565   0.280
 2995SOL    HW2 9885   4.174   0.541   0.355
 2996SOL     OW 9886   0.912   2.242   4.655
 2996SOL    HW1 9887   0.899   2.327   4.706
 2996SOL    HW2 9888   0.914   2.165   4.718
 2997SOL     OW 9889   5.042   6.933   3.406
 2997SOL    HW1 9890   5.104   7.012   3.414
 2997SOL    HW2 9891   4.974   6.951   3.335
 2998SOL     OW 9892   4.266   6.421   3.323
 2998SOL    HW1 9893   4.220   6.479   3.390
 2998SOL    HW2 9894   4.344   6.470   3.285
 2999SOL     OW 9895   2.704   5.021   5.953
 2999SOL    HW1 9896   2.673   5.083   6.025
 2999SOL    HW2 9897   2.720   4.930   5.992
 3000SOL     OW 9898   2.740   3.866   6.704
 3000SOL    HW1 9899   2.719   3.805   6.627
 3000SOL    HW2 9900   2.763   3.812   6.785
 3001SOL     OW 9901   6.140   1.794   0.413
 3001SOL    HW1 9902   6.105   1.811   0.321
 3001SOL    HW2 9903   6.097   1.711   0.449
 3002SOL     OW 9904   3.451   2.201   0.335
 3002SOL    HW1 9905   3.451   2.287   0.286
 3002SOL    HW2 9906   3.380   2.141   0.298
 3003SOL     OW 9907   1.193   6.737   1.353
 3003SOL    HW1 9908   1.272   6.680   1.330
 3003SOL    HW2 9909   1.124   6.729   1.281
 3004SOL     OW 9910   1.231   4.972   2.671
 3004SOL    HW1 9911   1.194   4.935   2.756
 3004SOL    HW2 9912   1.166   4.957   2.597
 3005SOL     OW 9913   1.346   3.178   6.708
 3005SOL    HW1 9914   1.311   3.239   6.779
 3005SOL    HW2 9915   1.328   3.219   6.618
 3006SOL     OW 9916   5.789   1.754   5.168
 3006SOL    HW1 9917   5.846   1.721   5.094
 3006SOL    HW2 9918   5.771   1.680   5.232
 3007SOL     OW 9919   4.635   4.873   0.269
 3007SOL    HW1 9920   4.552   4.930   0.264
 3007SOL    HW2 9921   4.657   4.839   0.178
 3008SOL     OW 9922   3.519   2.279   6.328
 3008SOL    HW1 9923   3.526   2.218   6.249
 3008SOL    HW2 9924   3.602   2.336   6.334
 3009SOL     OW 9925   0.110   3.293   2.280
 3009SOL    HW1 9926   0.157   3.328   2.360
 3009SOL    HW2 9927   0.091   3.195   2.292
 3010SOL     OW 9928   2.912   5.715   4.240
 3010SOL    HW1 9929   2.894   5.684   4.333
 3010SOL    HW2 9930   2.929   5.636   4.181
 3011SOL     OW 9931   6.026   0.217   1.579
 3011SOL    HW1 9932   5.994   0.265   1.661
 3011SOL    HW2 9933   6.031   0.281   1.503
 3012SOL     OW 9934   1.994   2.958   0.419
 3012SOL    HW1 9935   2.085   2.987   0.391
 3012SOL    HW2 9936   1.928   2.980   0.347
 3013SOL     OW 9937   6.484   5.101   3.413
 3013SOL    HW1 9938   6.578   5.094   3.378
 3013SOL    HW2 9939   6.420   5.077   3.341
 3014SOL     OW 9940   4.714   1.805   6.480
 3014SOL    HW1 9941   4.786   1.758   6.532
 3014SOL    HW2 9942   4.752   1.843   6.396
 3015SOL     OW 9943   2.277   1.879   0.192
 3015SOL    HW1 9944   2.263   1.978   0.187
 3015SOL    HW2 9945   2.219   1.834   0.125
 3016SOL     OW 9946   3.518   6.775   4.407
 3016SOL    HW1 9947   3.597   6.732   4.363
 3016SOL    HW2 9948   3.459   6.705   4.447
 3017SOL     OW 9949   5.225   5.587   2.554
 3017SOL    HW1 9950   5.185   5.672   2.521
 3017SOL    HW2 9951   5.190   5.567   2.646
 3018SOL     OW 9952   3.298   0.182   6.808
 3018SOL    HW1 9953   3.322   0.110   6.873
 3018SOL    HW2 9954   3.349   0.265   6.830
 3019SOL     OW 9955   0.980   0.038   0.020
 3019SOL    HW1 9956   1.005   0.132   7.020
 3019SOL    HW2 9957   0.902   0.039   0.082
 3020SOL     OW 9958   4.147   3.105   1.027
 3020SOL    HW1 9959   4.049   3.085   1.023
 3020SOL    HW2 9960   4.196   3.050   0.960
 3021SOL     OW 9961   2.330   7.019   4.407
 3021SOL    HW1 9962   2.260   7.001   4.338
 3021SOL    HW2 9963   2.420   6.996   4.371
 3022SOL     OW 9964   4.070   5.263   4.607
 3022SOL    HW1 9965   4.126   5.330   4.558
 3022SOL    HW2 9966   4.082   5.275   4.705
 3023SOL     OW 9967   3.901   6.621   3.193
 3023SOL    HW1 9968   3.812   6.615   3.148
 3023SOL    HW2 9969   3.960   6.547   3.161
 3024SOL     OW 9970   5.674   6.425   5.553
 3024SOL    HW1 9971   5.603   6.355   5.559
 3024SOL    HW2 9972   5.764   6.382   5.565
 3025SOL     OW 9973   3.777   6.011   1.642
 3025SOL    HW1 9974   3.829   6.057   1.714
 3025SOL    HW2 9975   3.694   6.063   1.622
 3026SOL     OW 9976   0.155   1.215   6.056
 3026SOL    HW1 9977   0.123   1.139   5.999
 3026SOL    HW2 9978   0.245   1.245   6.024
 3027SOL     OW 9979   4.016   1.408   1.932
 3027SOL    HW1 9980   4.025   1.453   2.021
 3027SOL    HW2 9981   3.920   1.382   1.917
 3028SOL     OW 9982   1.202   4.357   6.146
 3028SOL    HW1 9983   1.158   4.437   6.186
 3028SOL    HW2 9984   1.297   4.352   6.178
 3029SOL     OW 9985   1.027   2.803   3.753
 3029SOL    HW1 9986   1.021   2.704   3.751
 3029SOL    HW2 9987   1.122   2.831   3.737
 3030SOL     OW 9988   1.254   3.867   1.090
 3030SOL    HW1 9989   1.319   3.791   1.102
 3030SOL    HW2 9990   1.161   3.835   1.108
 3031SOL     OW 9991   0.703   4.386   0.919
 3031SOL    HW1 9992   0.721   4.335   0.835
 3031SOL    HW2 9993   0.613   4.360   0.955
 3032SOL     OW 9994   2.209   6.119   1.481
 3032SOL    HW1 9995   2.221   6.172   1.397
 3032SOL    HW2 9996   2.272   6.152   1.551
 3033SOL     OW 9997   6.201   1.351   2.412
 3033SOL    HW1 9998   6.204   1.355   2.312
 3033SOL    HW2 9999   6.213   1.443   2.449
 3034SOL     OW10000   0.341   5.913   3.530
 3034SOL    HW110001   0.379   5.975   3.461
 3034SOL    HW210002   0.265   5.861   3.489
 3035SOL     OW10003   1.040   3.250   5.880
 3035SOL    HW110004   0.976   3.288   5.947
 3035SOL    HW210005   1.047   3.312   5.802
 3036SOL     OW10006   1.381   2.333   5.083
 3036SOL    HW110007   1.283   2.311   5.075
 3036SOL    HW210008   1.408   2.390   5.006
 3037SOL     OW10009   6.511   4.881   5.091
 3037SOL    HW110010   6.528   4.968   5.138
 3037SOL    HW210011   6.492   4.899   4.994
 3038SOL     OW10012   4.772   4.102   5.935
 3038SOL    HW110013   4.827   4.083   6.016
 3038SOL    HW210014   4.809   4.182   5.887
 3039SOL     OW10015   0.090   3.470   0.513
 3039SOL    HW110016   0.037   3.494   0.595
 3039SOL    HW210017   0.154   3.397   0.536
 3040SOL     OW10018   3.368   4.799   5.910
 3040SOL    HW110019   3.280   4.843   5.929
 3040SOL    HW210020   3.355   4.701   5.896
 3041SOL     OW10021   1.137   5.235   6.163
 3041SOL    HW110022   1.104   5.217   6.256
 3041SOL    HW210023   1.072   5.198   6.097
 3042SOL     OW10024   5.515   6.461   2.522
 3042SOL    HW110025   5.558   6.543   2.558
 3042SOL    HW210026   5.419   6.459   2.549
 3043SOL     OW10027   3.371   3.851   1.619
 3043SOL    HW110028   3.383   3.758   1.585
 3043SOL    HW210029   3.277   3.862   1.653
 3044SOL     OW10030   3.130   5.182   5.453
 3044SOL    HW110031   3.090   5.095   5.483
 3044SOL    HW210032   3.081   5.216   5.374
 3045SOL     OW10033   5.045   6.787   3.075
 3045SOL    HW110034   4.972   6.719   3.072
 3045SOL    HW210035   5.088   6.785   3.166
 3046SOL     OW10036   3.338   0.025   0.030
 3046SOL    HW110037   3.274   0.063   0.096
 3046SOL    HW210038   3.307   6.957   0.002
 3047SOL     OW10039   6.099   6.992   0.608
 3047SOL    HW110040   6.079   0.020   0.692
 3047SOL    HW210041   6.131   0.032   0.537
 3048SOL     OW10042   5.019   2.105   0.788
 3048SOL    HW110043   5.103   2.107   0.842
 3048SOL    HW210044   4.983   2.198   0.778
 3049SOL     OW10045   1.291   0.305   4.045
 3049SOL    HW110046   1.333   0.219   4.014
 3049SOL    HW210047   1.205   0.319   3.997
 3050SOL     OW10048   2.812   2.110   1.261
 3050SOL    HW110049   2.868   2.032   1.287
 3050SOL    HW210050   2.800   2.170   1.340
 3051SOL     OW10051   2.496   6.556   6.297
 3051SOL    HW110052   2.458   6.596   6.214
 3051SOL    HW210053   2.568   6.616   6.333
 3052SOL     OW10054   5.280   5.337   2.242
 3052SOL    HW110055   5.197   5.392   2.235
 3052SOL    HW210056   5.339   5.374   2.315
 3053SOL     OW10057   0.090   3.499   1.489
 3053SOL    HW110058   0.023   3.525   1.420
 3053SOL    HW210059   0.161   3.570   1.496
 3054SOL     OW10060   5.983   0.676   2.002
 3054SOL    HW110061   5.998   0.590   1.953
 3054SOL    HW210062   5.913   0.729   1.954
 3055SOL     OW10063   5.197   0.407   5.248
 3055SOL    HW110064   5.200   0.385   5.345
 3055SOL    HW210065   5.108   0.381   5.211
 3056SOL     OW10066   6.317   1.472   5.804
 3056SOL    HW110067   6.331   1.557   5.854
 3056SOL    HW210068   6.300   1.397   5.868
 3057SOL     OW10069   4.965   6.329   4.136
 3057SOL    HW110070   5.012   6.342   4.223
 3057SOL    HW210071   5.030   6.300   4.066
 3058SOL     OW10072   6.160   4.270   0.663
 3058SOL    HW110073   6.063   4.245   0.672
 3058SOL    HW210074   6.214   4.219   0.730
 3059SOL     OW10075   2.410   1.760   4.043
 3059SOL    HW110076   2.480   1.831   4.038
 3059SOL    HW210077   2.335   1.784   3.981
 3060SOL     OW10078   2.007   5.217   0.061
 3060SOL    HW110079   2.106   5.226   0.052
 3060SOL    HW210080   1.983   5.214   0.158
 3061SOL     OW10081   6.069   5.681   5.858
 3061SOL    HW110082   5.974   5.673   5.826
 3061SOL    HW210083   6.076   5.645   5.951
 3062SOL     OW10084   2.243   6.286   1.252
 3062SOL    HW110085   2.307   6.244   1.187
 3062SOL    HW210086   2.150   6.280   1.217
 3063SOL     OW10087   1.003   4.617   1.409
 3063SOL    HW110088   1.015   4.547   1.479
 3063SOL    HW210089   0.920   4.670   1.429
 3064SOL     OW10090   4.187   3.364   0.554
 3064SOL    HW110091   4.157   3.453   0.588
 3064SOL    HW210092   4.204   3.370   0.455
 3065SOL     OW10093   1.070   2.122   6.373
 3065SOL    HW110094   1.154   2.121   6.428
 3065SOL    HW210095   1.089   2.086   6.282
 3066SOL     OW10096   5.127   5.345   6.365
 3066SOL    HW110097   5.046   5.394   6.333
 3066SOL    HW210098   5.203   5.410   6.375
 3067SOL     OW10099   2.846   1.177   0.358
 3067SOL    HW110100   2.825   1.117   0.281
 3067SOL    HW210101   2.945   1.183   0.371
 3068SOL     OW10102   6.999   0.311   1.566
 3068SOL    HW110103   0.047   0.381   1.551
 3068SOL    HW210104   6.978   0.306   1.664
 3069SOL     OW10105   6.436   6.754   3.436
 3069SOL    HW110106   6.474   6.756   3.343
 3069SOL    HW210107   6.382   6.836   3.452
 3070SOL     OW10108   2.160   0.892   6.844
 3070SOL    HW110109   2.214   0.921   6.766
 3070SOL    HW210110   2.128   0.798   6.830
 3071SOL     OW10111   6.549   5.626   4.046
 3071SOL    HW110112   6.495   5.651   4.126
 3071SOL    HW210113   6.581   5.532   4.055
 3072SOL     OW10114   2.167   5.744   6.479
 3072SOL    HW110115   2.222   5.759   6.397
 3072SOL    HW210116   2.087   5.803   6.477
 3073SOL     OW10117   0.181   4.252   2.226
 3073SOL    HW110118   0.081   4.242   2.220
 3073SOL    HW210119   0.206   4.270   2.321
 3074SOL     OW10120   0.432   4.361   0.761
 3074SOL    HW110121   0.512   4.307   0.735
 3074SOL    HW210122   0.404   4.419   0.684
 3075SOL     OW10123   2.774   5.559   3.286
 3075SOL    HW110124   2.676   5.540   3.280
 3075SOL    HW210125   2.823   5.477   3.315
 3076SOL     OW10126   6.737   1.537   4.431
 3076SOL    HW110127   6.698   1.527   4.522
 3076SOL    HW210128   6.758   1.634   4.414
 3077SOL     OW10129   6.028   3.858   2.042
 3077SOL    HW110130   5.941   3.859   1.993
 3077SOL    HW210131   6.069   3.949   2.040
 3078SOL     OW10132   6.676   3.420   2.231
 3078SOL    HW110133   6.594   3.381   2.272
 3078SOL    HW210134   6.755   3.400   2.289
 3079SOL     OW10135   3.309   2.145   3.343
 3079SOL    HW110136   3.394   2.109   3.381
 3079SOL    HW210137   3.318   2.157   3.245
 3080SOL     OW10138   5.191   4.015   2.075
 3080SOL    HW110139   5.137   4.064   2.144
 3080SOL    HW210140   5.271   3.974   2.118
 3081SOL     OW10141   0.457   4.538   5.638
 3081SOL    HW110142   0.477   4.547   5.736
 3081SOL    HW210143   0.491   4.450   5.605
 3082SOL     OW10144   2.034   5.878   4.055
 3082SOL    HW110145   2.123   5.872   4.100
 3082SOL    HW210146   1.992   5.966   4.076
 3083SOL     OW10147   3.492   6.198   3.032
 3083SOL    HW110148   3.430   6.190   2.954
 3083SOL    HW210149   3.463   6.136   3.104
 3084SOL     OW10150   6.551   4.507   3.064
 3084SOL    HW110151   6.559   4.431   2.999
 3084SOL    HW210152   6.617   4.578   3.040
 3085SOL     OW10153   5.778   4.360   0.778
 3085SOL    HW110154   5.816   4.291   0.715
 3085SOL    HW210155   5.852   4.416   0.814
 3086SOL     OW10156   4.744   1.242   6.698
 3086SOL    HW110157   4.657   1.287   6.678
 3086SOL    HW210158   4.813   1.311   6.717
 3087SOL     OW10159   2.965   6.254   3.230
 3087SOL    HW110160   2.948   6.257   3.329
 3087SOL    HW210161   3.035   6.185   3.211
 3088SOL     OW10162   1.727   3.428   5.370
 3088SOL    HW110163   1.712   3.527   5.379
 3088SOL    HW210164   1.639   3.381   5.366
 3089SOL     OW10165   4.171   2.312   4.616
 3089SOL    HW110166   4.234   2.357   4.680
 3089SOL    HW210167   4.083   2.299   4.661
 3090SOL     OW10168   2.573   1.193   2.496
 3090SOL    HW110169   2.592   1.122   2.429
 3090SOL    HW210170   2.545   1.277   2.449
 3091SOL     OW10171   1.313   1.192   0.312
 3091SOL    HW110172   1.410   1.188   0.336
 3091SOL    HW210173   1.299   1.148   0.223
 3092SOL     OW10174   5.417   6.645   0.912
 3092SOL    HW110175   5.343   6.693   0.958
 3092SOL    HW210176   5.480   6.608   0.980
 3093SOL     OW10177   5.642   6.041   6.019
 3093SOL    HW110178   5.608   6.099   6.094
 3093SOL    HW210179   5.576   6.043   5.944
 3094SOL     OW10180   2.658   0.285   4.134
 3094SOL    HW110181   2.615   0.197   4.154
 3094SOL    HW210182   2.662   0.340   4.218
 3095SOL     OW10183   2.324   4.046   5.778
 3095SOL    HW110184   2.341   4.072   5.683
 3095SOL    HW210185   2.399   3.989   5.811
 3096SOL     OW10186   1.072   4.875   5.196
 3096SOL    HW110187   1.028   4.871   5.286
 3096SOL    HW210188   1.111   4.785   5.174
 3097SOL     OW10189   5.260   3.016   6.808
 3097SOL    HW110190   5.215   2.974   6.887
 3097SOL    HW210191   5.254   3.115   6.815
 3098SOL     OW10192   1.777   3.540   1.831
 3098SOL    HW110193   1.853   3.493   1.787
 3098SOL    HW210194   1.711   3.570   1.762
 3099SOL     OW10195   0.698   6.439   4.078
 3099SOL    HW110196   0.611   6.488   4.082
 3099SOL    HW210197   0.746   6.449   4.165
 3100SOL     OW10198   6.672   6.254   2.971
 3100SOL    HW110199   6.616   6.292   2.898
 3100SOL    HW210200   6.675   6.154   2.962
 3101SOL     OW10201   4.704   5.870   5.765
 3101SOL    HW110202   4.690   5.909   5.674
 3101SOL    HW210203   4.728   5.773   5.756
 3102SOL     OW10204   6.549   6.911   1.151
 3102SOL    HW110205   6.503   6.981   1.205
 3102SOL    HW210206   6.636   6.887   1.195
 3103SOL     OW10207   4.813   1.082   1.217
 3103SOL    HW110208   4.878   1.012   1.188
 3103SOL    HW210209   4.827   1.165   1.162
 3104SOL     OW10210   3.212   0.305   6.219
 3104SOL    HW110211   3.288   0.315   6.155
 3104SOL    HW210212   3.226   0.365   6.298
 3105SOL     OW10213   4.606   4.060   1.406
 3105SOL    HW110214   4.520   4.061   1.456
 3105SOL    HW210215   4.676   4.111   1.457
 3106SOL     OW10216   5.174   6.757   5.184
 3106SOL    HW110217   5.236   6.786   5.257
 3106SOL    HW210218   5.081   6.751   5.221
 3107SOL     OW10219   4.072   1.300   4.938
 3107SOL    HW110220   4.003   1.228   4.934
 3107SOL    HW210221   4.142   1.284   4.869
 3108SOL     OW10222   2.111   5.097   5.035
 3108SOL    HW110223   2.129   5.055   4.946
 3108SOL    HW210224   2.014   5.120   5.042
 3109SOL     OW10225   6.357   0.172   4.274
 3109SOL    HW110226   6.310   0.095   4.233
 3109SOL    HW210227   6.306   0.204   4.354
 3110SOL     OW10228   2.148   4.592   3.211
 3110SOL    HW110229   2.167   4.577   3.308
 3110SOL    HW210230   2.223   4.556   3.156
 3111SOL     OW10231   0.240   4.797   3.247
 3111SOL    HW110232   0.180   4.752   3.313
 3111SOL    HW210233   0.313   4.845   3.295
 3112SOL     OW10234   2.793   3.052   0.239
 3112SOL    HW110235   2.846   2.968   0.230
 3112SOL    HW210236   2.820   3.099   0.324
 3113SOL     OW10237   3.167   6.049   2.572
 3113SOL    HW110238   3.224   6.126   2.542
 3113SOL    HW210239   3.136   5.998   2.492
 3114SOL     OW10240   4.231   1.601   0.462
 3114SOL    HW110241   4.137   1.634   0.469
 3114SOL    HW210242   4.235   1.528   0.394
 3115SOL     OW10243   3.811   4.616   5.405
 3115SOL    HW110244   3.849   4.643   5.494
 3115SOL    HW210245   3.807   4.516   5.399
 3116SOL     OW10246   7.005   1.700   0.240
 3116SOL    HW110247   6.952   1.615   0.245
 3116SOL    HW210248   6.996   1.738   0.148
 3117SOL     OW10249   4.306   3.246   5.262
 3117SOL    HW110250   4.254   3.215   5.342
 3117SOL    HW210251   4.251   3.313   5.211
 3118SOL     OW10252   0.789   6.392   1.923
 3118SOL    HW110253   0.730   6.470   1.941
 3118SOL    HW210254   0.822   6.396   1.828
 3119SOL     OW10255   2.742   2.204   6.038
 3119SOL    HW110256   2.668   2.169   6.095
 3119SOL    HW210257   2.703   2.256   5.961
 3120SOL     OW10258   2.897   0.913   5.798
 3120SOL    HW110259   2.960   0.926   5.721
 3120SOL    HW210260   2.938   0.850   5.864
 3121SOL     OW10261   5.971   1.885   4.688
 3121SOL    HW110262   5.951   1.937   4.605
 3121SOL    HW210263   5.915   1.802   4.690
 3122SOL     OW10264   4.744   4.874   4.726
 3122SOL    HW110265   4.802   4.915   4.796
 3122SOL    HW210266   4.654   4.918   4.727
 3123SOL     OW10267   1.656   1.357   3.131
 3123SOL    HW110268   1.692   1.274   3.088
 3123SOL    HW210269   1.635   1.424   3.060
 3124SOL     OW10270   4.499   0.001   3.880
 3124SOL    HW110271   4.533   0.077   3.934
 3124SOL    HW210272   4.480   0.032   3.787
 3125SOL     OW10273   1.600   3.082   5.379
 3125SOL    HW110274   1.627   3.106   5.286
 3125SOL    HW210275   1.574   2.985   5.382
 3126SOL     OW10276   5.340   4.385   5.612
 3126SOL    HW110277   5.310   4.417   5.523
 3126SOL    HW210278   5.261   4.350   5.663
 3127SOL     OW10279   2.150   2.319   5.728
 3127SOL    HW110280   2.144   2.418   5.743
 3127SOL    HW210281   2.197   2.302   5.641
 3128SOL     OW10282   3.622   0.658   0.359
 3128SOL    HW110283   3.522   0.661   0.359
 3128SOL    HW210284   3.656   0.639   0.451
 3129SOL     OW10285   4.826   3.708   1.120
 3129SOL    HW110286   4.891   3.770   1.078
 3129SOL    HW210287   4.875   3.632   1.162
 3130SOL     OW10288   1.691   4.643   1.343
 3130SOL    HW110289   1.702   4.742   1.354
 3130SOL    HW210290   1.594   4.621   1.333
 3131SOL     OW10291   0.458   3.541   2.266
 3131SOL    HW110292   0.471   3.485   2.184
 3131SOL    HW210293   0.489   3.635   2.246
 3132SOL     OW10294   4.882   5.162   6.443
 3132SOL    HW110295   4.860   5.229   6.372
 3132SOL    HW210296   4.952   5.199   6.504
 3133SOL     OW10297   3.730   1.232   3.059
 3133SOL    HW110298   3.799   1.300   3.085
 3133SOL    HW210299   3.641   1.276   3.053
 3134SOL     OW10300   4.121   4.822   1.121
 3134SOL    HW110301   4.111   4.922   1.128
 3134SOL    HW210302   4.031   4.781   1.108
 3135SOL     OW10303   4.933   0.104   5.997
 3135SOL    HW110304   4.982   0.030   6.043
 3135SOL    HW210305   4.996   0.179   5.977
 3136SOL     OW10306   5.604   0.205   2.133
 3136SOL    HW110307   5.664   0.133   2.167
 3136SOL    HW210308   5.575   0.263   2.210
 3137SOL     OW10309   6.629   6.446   3.257
 3137SOL    HW110310   6.659   6.386   3.183
 3137SOL    HW210311   6.616   6.539   3.222
 3138SOL     OW10312   5.981   5.722   3.363
 3138SOL    HW110313   5.906   5.767   3.315
 3138SOL    HW210314   6.048   5.790   3.393
 3139SOL     OW10315   3.455   4.813   1.424
 3139SOL    HW110316   3.378   4.790   1.483
 3139SOL    HW210317   3.458   4.749   1.347
 3140SOL     OW10318   6.416   6.138   5.245
 3140SOL    HW110319   6.431   6.161   5.148
 3140SOL    HW210320   6.369   6.214   5.290
 3141SOL     OW10321   0.629   6.954   6.880
 3141SOL    HW110322   0.698   6.897   6.925
 3141SOL    HW210323   0.673   7.009   6.809
 3142SOL     OW10324   2.825   0.386   2.903
 3142SOL    HW110325   2.846   0.472   2.857
 3142SOL    HW210326   2.748   0.341   2.857
 3143SOL     OW10327   6.108   1.361   0.056
 3143SOL    HW110328   6.132   1.265   0.067
 3143SOL    HW210329   6.173   1.405   7.016
 3144SOL     OW10330   4.407   3.479   0.747
 3144SOL    HW110331   4.404   3.496   0.846
 3144SOL    HW210332   4.314   3.470   0.711
 3145SOL     OW10333   1.767   6.471   2.501
 3145SOL    HW110334   1.705   6.420   2.441
 3145SOL    HW210335   1.737   6.461   2.596
 3146SOL     OW10336   0.736   0.875   4.741
 3146SOL    HW110337   0.757   0.962   4.696
 3146SOL    HW210338   0.752   0.800   4.677
 3147SOL     OW10339   3.001   4.845   0.152
 3147SOL    HW110340   2.906   4.864   0.178
 3147SOL    HW210341   3.028   4.756   0.188
 3148SOL     OW10342   6.646   0.154   4.082
 3148SOL    HW110343   6.642   0.248   4.116
 3148SOL    HW210344   6.569   0.137   4.021
 3149SOL     OW10345   3.391   1.216   6.622
 3149SOL    HW110346   3.371   1.245   6.716
 3149SOL    HW210347   3.308   1.180   6.581
 3150SOL     OW10348   7.016   6.048   5.129
 3150SOL    HW110349   0.047   6.028   5.211
 3150SOL    HW210350   6.981   5.962   5.091
 3151SOL     OW10351   0.265   1.310   5.712
 3151SOL    HW110352   0.310   1.332   5.798
 3151SOL    HW210353   0.166   1.314   5.723
 3152SOL     OW10354   0.826   3.660   0.432
 3152SOL    HW110355   0.815   3.759   0.437
 3152SOL    HW210356   0.889   3.630   0.504
 3153SOL     OW10357   6.393   5.837   0.357
 3153SOL    HW110358   6.469   5.891   0.323
 3153SOL    HW210359   6.394   5.836   0.457
 3154SOL     OW10360   6.544   1.094   0.704
 3154SOL    HW110361   6.512   1.021   0.644
 3154SOL    HW210362   6.643   1.085   0.718
 3155SOL     OW10363   6.003   5.056   0.201
 3155SOL    HW110364   6.048   5.113   0.270
 3155SOL    HW210365   5.946   4.988   0.247
 3156SOL     OW10366   3.336   3.730   2.143
 3156SOL    HW110367   3.266   3.733   2.214
 3156SOL    HW210368   3.293   3.718   2.054
 3157SOL     OW10369   2.166   1.591   5.294
 3157SOL    HW110370   2.246   1.544   5.332
 3157SOL    HW210371   2.196   1.661   5.230
 3158SOL     OW10372   2.085   0.807   4.497
 3158SOL    HW110373   2.126   0.897   4.481
 3158SOL    HW210374   2.040   0.776   4.414
 3159SOL     OW10375   5.786   6.988   6.577
 3159SOL    HW110376   5.751   6.911   6.630
 3159SOL    HW210377   5.720   7.011   6.505
 3160SOL     OW10378   1.732   6.021   6.002
 3160SOL    HW110379   1.704   6.116   6.018
 3160SOL    HW210380   1.785   6.015   5.918
 3161SOL     OW10381   2.332   2.059   2.577
 3161SOL    HW110382   2.286   2.064   2.666
 3161SOL    HW210383   2.431   2.060   2.590
 3162SOL     OW10384   1.028   5.789   1.409
 3162SOL    HW110385   0.966   5.866   1.423
 3162SOL    HW210386   1.085   5.777   1.490
 3163SOL     OW10387   4.015   4.126   6.672
 3163SOL    HW110388   3.920   4.115   6.644
 3163SOL    HW210389   4.063   4.182   6.604
 3164SOL     OW10390   3.915   5.730   2.017
 3164SOL    HW110391   3.947   5.741   1.923
 3164SOL    HW210392   3.821   5.695   2.016
 3165SOL     OW10393   1.206   5.626   1.842
 3165SOL    HW110394   1.118   5.634   1.889
 3165SOL    HW210395   1.271   5.691   1.881
 3166SOL     OW10396   4.600   2.276   3.947
 3166SOL    HW110397   4.519   2.217   3.944
 3166SOL    HW210398   4.679   2.227   3.912
 3167SOL     OW10399   5.558   4.258   0.930
 3167SOL    HW110400   5.540   4.165   0.899
 3167SOL    HW210401   5.640   4.293   0.884
 3168SOL     OW10402   5.517   3.170   6.821
 3168SOL    HW110403   5.453   3.094   6.812
 3168SOL    HW210404   5.500   3.219   6.907
 3169SOL     OW10405   2.358   4.311   3.534
 3169SOL    HW110406   2.377   4.308   3.436
 3169SOL    HW210407   2.286   4.245   3.557
 3170SOL     OW10408   4.255   5.552   1.958
 3170SOL    HW110409   4.220   5.583   1.869
 3170SOL    HW210410   4.274   5.454   1.954
 3171SOL     OW10411   6.218   2.023   1.955
 3171SOL    HW110412   6.276   2.096   1.919
 3171SOL    HW210413   6.260   1.935   1.936
 3172SOL     OW10414   6.921   5.080   6.954
 3172SOL    HW110415   6.945   5.166   7.000
 3172SOL    HW210416   6.967   5.004   7.000
 3173SOL     OW10417   3.283   2.223   6.661
 3173SOL    HW110418   3.248   2.145   6.713
 3173SOL    HW210419   3.292   2.199   6.565
 3174SOL     OW10420   3.126   2.818   6.742
 3174SOL    HW110421   3.188   2.806   6.665
 3174SOL    HW210422   3.031   2.817   6.709
 3175SOL     OW10423   5.586   1.612   1.621
 3175SOL    HW110424   5.496   1.635   1.657
 3175SOL    HW210425   5.639   1.565   1.692
 3176SOL     OW10426   1.008   3.773   5.477
 3176SOL    HW110427   0.983   3.869   5.487
 3176SOL    HW210428   1.101   3.759   5.512
 3177SOL     OW10429   5.626   4.315   3.929
 3177SOL    HW110430   5.560   4.340   4.000
 3177SOL    HW210431   5.682   4.239   3.961
 3178SOL     OW10432   6.446   2.532   0.199
 3178SOL    HW110433   6.520   2.468   0.177
 3178SOL    HW210434   6.459   2.617   0.148
 3179SOL     OW10435   1.337   1.971   2.239
 3179SOL    HW110436   1.391   2.054   2.258
 3179SOL    HW210437   1.258   1.996   2.184
 3180SOL     OW10438   6.320   6.832   0.473
 3180SOL    HW110439   6.360   6.805   0.560
 3180SOL    HW210440   6.229   6.871   0.489
 3181SOL     OW10441   6.481   2.362   3.559
 3181SOL    HW110442   6.429   2.430   3.508
 3181SOL    HW210443   6.422   2.319   3.627
 3182SOL     OW10444   2.545   0.408   6.788
 3182SOL    HW110445   2.500   0.387   6.874
 3182SOL    HW210446   2.627   0.351   6.778
 3183SOL     OW10447   4.737   4.308   2.429
 3183SOL    HW110448   4.725   4.211   2.449
 3183SOL    HW210449   4.687   4.332   2.346
 3184SOL     OW10450   0.386   2.226   3.113
 3184SOL    HW110451   0.392   2.241   3.014
 3184SOL    HW210452   0.474   2.190   3.146
 3185SOL     OW10453   4.549   6.092   6.534
 3185SOL    HW110454   4.548   6.117   6.437
 3185SOL    HW210455   4.459   6.110   6.573
 3186SOL     OW10456   3.119   2.345   0.440
 3186SOL    HW110457   3.134   2.327   0.342
 3186SOL    HW210458   3.057   2.422   0.450
 3187SOL     OW10459   4.014   5.192   1.340
 3187SOL    HW110460   4.014   5.145   1.252
 3187SOL    HW210461   4.091   5.255   1.345
 3188SOL     OW10462   1.311   6.684   3.851
 3188SOL    HW110463   1.239   6.738   3.807
 3188SOL    HW210464   1.333   6.723   3.940
 3189SOL     OW10465   1.111   1.857   1.057
 3189SOL    HW110466   1.108   1.927   0.986
 3189SOL    HW210467   1.200   1.860   1.103
 3190SOL     OW10468   6.904   5.583   0.386
 3190SOL    HW110469   6.975   5.617   0.447
 3190SOL    HW210470   6.849   5.660   0.352
 3191SOL     OW10471   4.991   4.953   1.494
 3191SOL    HW110472   5.010   4.855   1.483
 3191SOL    HW210473   4.947   4.988   1.412
 3192SOL     OW10474   0.671   3.806   1.103
 3192SOL    HW110475   0.739   3.739   1.073
 3192SOL    HW210476   0.704   3.898   1.083
 3193SOL     OW10477   3.874   1.725   5.531
 3193SOL    HW110478   3.915   1.773   5.609
 3193SOL    HW210479   3.775   1.734   5.536
 3194SOL     OW10480   1.414   2.231   5.834
 3194SOL    HW110481   1.434   2.290   5.756
 3194SOL    HW210482   1.495   2.224   5.892
 3195SOL     OW10483   1.455   1.284   2.469
 3195SOL    HW110484   1.501   1.195   2.464
 3195SOL    HW210485   1.360   1.271   2.494
 3196SOL     OW10486   0.005   0.585   6.611
 3196SOL    HW110487   6.968   0.625   6.541
 3196SOL    HW210488   6.981   0.588   6.699
 3197SOL     OW10489   2.808   6.562   4.719
 3197SOL    HW110490   2.781   6.559   4.816
 3197SOL    HW210491   2.759   6.637   4.674
 3198SOL     OW10492   6.638   3.161   3.140
 3198SOL    HW110493   6.635   3.204   3.050
 3198SOL    HW210494   6.687   3.221   3.204
 3199SOL     OW10495   5.104   3.904   2.566
 3199SOL    HW110496   5.148   3.843   2.632
 3199SOL    HW210497   5.162   3.984   2.550
 3200SOL     OW10498   5.700   3.316   2.516
 3200SOL    HW110499   5.706   3.366   2.602
 3200SOL    HW210500   5.789   3.280   2.492
 3201SOL     OW10501   6.357   4.561   3.231
 3201SOL    HW110502   6.432   4.522   3.178
 3201SOL    HW210503   6.271   4.515   3.207
 3202SOL     OW10504   1.004   4.898   0.931
 3202SOL    HW110505   1.043   4.810   0.958
 3202SOL    HW210506   0.943   4.932   1.003
 3203SOL     OW10507   5.835   1.423   0.889
 3203SOL    HW110508   5.836   1.346   0.952
 3203SOL    HW210509   5.921   1.474   0.897
 3204SOL     OW10510   4.008   0.124   3.208
 3204SOL    HW110511   3.966   0.033   3.201
 3204SOL    HW210512   3.936   0.194   3.208
 3205SOL     OW10513   5.195   3.186   6.048
 3205SOL    HW110514   5.272   3.125   6.068
 3205SOL    HW210515   5.174   3.183   5.951
 3206SOL     OW10516   1.491   4.327   1.046
 3206SOL    HW110517   1.451   4.251   0.996
 3206SOL    HW210518   1.562   4.370   0.990
 3207SOL     OW10519   1.544   1.141   6.747
 3207SOL    HW110520   1.643   1.127   6.755
 3207SOL    HW210521   1.498   1.053   6.747
 3208SOL     OW10522   5.026   6.620   6.526
 3208SOL    HW110523   5.013   6.536   6.579
 3208SOL    HW210524   5.113   6.663   6.552
 3209SOL     OW10525   3.226   5.327   3.885
 3209SOL    HW110526   3.201   5.252   3.823
 3209SOL    HW210527   3.167   5.406   3.866
 3210SOL     OW10528   1.205   4.545   1.248
 3210SOL    HW110529   1.128   4.568   1.308
 3210SOL    HW210530   1.197   4.450   1.218
 3211SOL     OW10531   1.392   3.604   0.913
 3211SOL    HW110532   1.404   3.634   1.007
 3211SOL    HW210533   1.454   3.528   0.894
 3212SOL     OW10534   2.855   6.550   2.102
 3212SOL    HW110535   2.821   6.474   2.157
 3212SOL    HW210536   2.811   6.635   2.132
 3213SOL     OW10537   1.368   0.014   0.192
 3213SOL    HW110538   1.415   0.027   0.105
 3213SOL    HW210539   1.278   0.057   0.187
 3214SOL     OW10540   4.317   5.497   1.608
 3214SOL    HW110541   4.271   5.575   1.651
 3214SOL    HW210542   4.412   5.494   1.638
 3215SOL     OW10543   0.622   4.055   0.432
 3215SOL    HW110544   0.693   4.125   0.431
 3215SOL    HW210545   0.581   4.050   0.523
 3216SOL     OW10546   5.936   5.386   0.692
 3216SOL    HW110547   5.954   5.457   0.625
 3216SOL    HW210548   5.924   5.428   0.782
 3217SOL     OW10549   0.118   5.588   2.677
 3217SOL    HW110550   0.213   5.605   2.702
 3217SOL    HW210551   0.096   5.492   2.692
 3218SOL     OW10552   5.516   2.694   3.289
 3218SOL    HW110553   5.612   2.697   3.261
 3218SOL    HW210554   5.464   2.641   3.222
 3219SOL     OW10555   0.600   1.435   3.526
 3219SOL    HW110556   0.595   1.336   3.542
 3219SOL    HW210557   0.646   1.479   3.603
 3220SOL     OW10558   6.933   5.265   5.495
 3220SOL    HW110559   6.951   5.169   5.474
 3220SOL    HW210560   6.997   5.298   5.564
 3221SOL     OW10561   3.627   0.054   2.016
 3221SOL    HW110562   3.673   0.125   2.070
 3221SOL    HW210563   3.534   0.084   1.995
 3222SOL     OW10564   2.877   1.464   2.582
 3222SOL    HW110565   2.954   1.515   2.619
 3222SOL    HW210566   2.801   1.465   2.647
 3223SOL     OW10567   2.514   6.677   6.703
 3223SOL    HW110568   2.534   6.579   6.694
 3223SOL    HW210569   2.504   6.701   6.799
 3224SOL     OW10570   4.778   2.726   4.882
 3224SOL    HW110571   4.738   2.641   4.849
 3224SOL    HW210572   4.761   2.799   4.815
 3225SOL     OW10573   5.091   2.328   5.869
 3225SOL    HW110574   5.054   2.410   5.826
 3225SOL    HW210575   5.107   2.258   5.799
 3226SOL     OW10576   2.384   1.238   2.115
 3226SOL    HW110577   2.292   1.240   2.155
 3226SOL    HW210578   2.425   1.328   2.122
 3227SOL     OW10579   3.448   3.723   6.747
 3227SOL    HW110580   3.524   3.778   6.781
 3227SOL    HW210581   3.365   3.778   6.742
 3228SOL     OW10582   6.501   3.938   1.127
 3228SOL    HW110583   6.512   3.962   1.223
 3228SOL    HW210584   6.515   3.839   1.116
 3229SOL     OW10585   3.540   0.482   5.844
 3229SOL    HW110586   3.483   0.563   5.836
 3229SOL    HW210587   3.634   0.503   5.815
 3230SOL     OW10588   2.217   5.185   5.925
 3230SOL    HW110589   2.190   5.180   5.829
 3230SOL    HW210590   2.292   5.121   5.942
 3231SOL     OW10591   2.501   0.299   1.847
 3231SOL    HW110592   2.413   0.303   1.800
 3231SOL    HW210593   2.514   0.382   1.901
 3232SOL     OW10594   4.131   6.558   4.671
 3232SOL    HW110595   4.202   6.629   4.673
 3232SOL    HW210596   4.099   6.545   4.577
 3233SOL     OW10597   6.625   2.401   0.741
 3233SOL    HW110598   6.635   2.459   0.822
 3233SOL    HW210599   6.532   2.367   0.736
 3234SOL     OW10600   0.648   2.347   0.239
 3234SOL    HW110601   0.643   2.383   0.145
 3234SOL    HW210602   0.741   2.314   0.257
 3235SOL     OW10603   6.913   0.157   1.347
 3235SOL    HW110604   6.933   0.217   1.424
 3235SOL    HW210605   6.825   0.184   1.306
 3236SOL     OW10606   0.616   3.967   0.162
 3236SOL    HW110607   0.609   3.998   0.256
 3236SOL    HW210608   0.713   3.962   0.136
 3237SOL     OW10609   5.995   1.349   2.104
 3237SOL    HW110610   6.093   1.349   2.122
 3237SOL    HW210611   5.959   1.442   2.114
 3238SOL     OW10612   6.651   5.419   6.923
 3238SOL    HW110613   6.745   5.387   6.922
 3238SOL    HW210614   6.642   5.499   6.864
 3239SOL     OW10615   0.142   1.458   2.601
 3239SOL    HW110616   0.190   1.427   2.519
 3239SOL    HW210617   0.049   1.485   2.577
 3240SOL     OW10618   0.020   6.164   6.309
 3240SOL    HW110619   7.014   6.253   6.344
 3240SOL    HW210620   6.975   6.130   6.244
 3241SOL     OW10621   4.713   1.152   5.832
 3241SOL    HW110622   4.700   1.126   5.737
 3241SOL    HW210623   4.656   1.095   5.891
 3242SOL     OW10624   4.533   4.544   6.583
 3242SOL    HW110625   4.632   4.538   6.600
 3242SOL    HW210626   4.513   4.630   6.536
 3243SOL     OW10627   4.353   4.667   0.480
 3243SOL    HW110628   4.322   4.754   0.442
 3243SOL    HW210629   4.452   4.669   0.494
 3244SOL     OW10630   5.363   6.213   6.762
 3244SOL    HW110631   5.335   6.118   6.749
 3244SOL    HW210632   5.346   6.241   6.856
 3245SOL     OW10633   5.339   3.049   4.045
 3245SOL    HW110634   5.386   2.985   4.106
 3245SOL    HW210635   5.404   3.117   4.012
 3246SOL     OW10636   6.760   7.011   2.902
 3246SOL    HW110637   6.765   0.082   2.870
 3246SOL    HW210638   6.818   7.000   2.983
 3247SOL     OW10639   5.899   4.463   2.188
 3247SOL    HW110640   5.984   4.421   2.220
 3247SOL    HW210641   5.829   4.392   2.179
 3248SOL     OW10642   5.603   2.803   2.144
 3248SOL    HW110643   5.671   2.825   2.074
 3248SOL    HW210644   5.553   2.885   2.170
 3249SOL     OW10645   3.567   3.911   3.558
 3249SOL    HW110646   3.559   3.842   3.487
 3249SOL    HW210647   3.481   3.918   3.609
 3250SOL     OW10648   5.998   0.297   2.427
 3250SOL    HW110649   5.923   0.241   2.393
 3250SOL    HW210650   5.979   0.324   2.522
 3251SOL     OW10651   3.423   0.754   3.552
 3251SOL    HW110652   3.325   0.767   3.565
 3251SOL    HW210653   3.472   0.834   3.587
 3252SOL     OW10654   2.995   1.044   2.628
 3252SOL    HW110655   2.922   1.106   2.658
 3252SOL    HW210656   2.989   1.031   2.529
 3253SOL     OW10657   4.470   3.198   1.137
 3253SOL    HW110658   4.456   3.277   1.078
 3253SOL    HW210659   4.404   3.127   1.115
 3254SOL     OW10660   4.466   5.728   6.725
 3254SOL    HW110661   4.545   5.718   6.784
 3254SOL    HW210662   4.494   5.769   6.638
 3255SOL     OW10663   4.117   6.862   1.204
 3255SOL    HW110664   4.079   6.771   1.218
 3255SOL    HW210665   4.061   6.911   1.137
 3256SOL     OW10666   3.906   1.392   1.140
 3256SOL    HW110667   3.821   1.382   1.192
 3256SOL    HW210668   3.971   1.447   1.193
 3257SOL     OW10669   1.404   1.969   1.920
 3257SOL    HW110670   1.374   2.035   1.852
 3257SOL    HW210671   1.364   1.991   2.009
 3258SOL     OW10672   4.694   5.948   2.518
 3258SOL    HW110673   4.678   5.914   2.425
 3258SOL    HW210674   4.685   5.872   2.583
 3259SOL     OW10675   4.768   4.925   5.403
 3259SOL    HW110676   4.786   4.981   5.322
 3259SOL    HW210677   4.754   4.985   5.482
 3260SOL     OW10678   1.681   2.528   0.940
 3260SOL    HW110679   1.592   2.521   0.895
 3260SOL    HW210680   1.730   2.441   0.932
 3261SOL     OW10681   5.565   0.818   1.529
 3261SOL    HW110682   5.520   0.905   1.513
 3261SOL    HW210683   5.591   0.810   1.625
 3262SOL     OW10684   3.282   1.913   2.104
 3262SOL    HW110685   3.275   1.948   2.198
 3262SOL    HW210686   3.269   1.814   2.104
 3263SOL     OW10687   2.946   1.533   2.897
 3263SOL    HW110688   2.935   1.441   2.937
 3263SOL    HW210689   3.012   1.529   2.822
 3264SOL     OW10690   1.671   5.645   0.856
 3264SOL    HW110691   1.689   5.734   0.898
 3264SOL    HW210692   1.725   5.575   0.902
 3265SOL     OW10693   4.596   0.337   6.448
 3265SOL    HW110694   4.677   0.279   6.440
 3265SOL    HW210695   4.554   0.324   6.538
 3266SOL     OW10696   2.189   4.174   0.174
 3266SOL    HW110697   2.268   4.118   0.146
 3266SOL    HW210698   2.106   4.118   0.173
 3267SOL     OW10699   3.153   6.227   1.592
 3267SOL    HW110700   3.184   6.314   1.630
 3267SOL    HW210701   3.067   6.241   1.542
 3268SOL     OW10702   2.771   4.103   1.697
 3268SOL    HW110703   2.834   4.174   1.729
 3268SOL    HW210704   2.677   4.133   1.711
 3269SOL     OW10705   5.039   5.768   2.713
 3269SOL    HW110706   5.051   5.799   2.619
 3269SOL    HW210707   5.061   5.843   2.776
 3270SOL     OW10708   1.088   4.493   6.415
 3270SOL    HW110709   1.125   4.570   6.363
 3270SOL    HW210710   1.093   4.514   6.513
 3271SOL     OW10711   5.867   3.230   1.466
 3271SOL    HW110712   5.961   3.263   1.476
 3271SOL    HW210713   5.856   3.146   1.520
 3272SOL     OW10714   2.757   4.340   6.243
 3272SOL    HW110715   2.781   4.413   6.179
 3272SOL    HW210716   2.657   4.331   6.247
 3273SOL     OW10717   6.442   5.561   0.281
 3273SOL    HW110718   6.400   5.555   0.190
 3273SOL    HW210719   6.423   5.651   0.321
 3274SOL     OW10720   5.503   0.657   0.594
 3274SOL    HW110721   5.472   0.721   0.665
 3274SOL    HW210722   5.596   0.627   0.614
 3275SOL     OW10723   5.193   0.713   6.991
 3275SOL    HW110724   5.251   0.631   6.993
 3275SOL    HW210725   5.242   0.790   0.009
 3276SOL     OW10726   3.767   6.051   6.650
 3276SOL    HW110727   3.680   6.095   6.673
 3276SOL    HW210728   3.836   6.077   6.717
 3277SOL     OW10729   3.457   0.228   0.942
 3277SOL    HW110730   3.370   0.184   0.959
 3277SOL    HW210731   3.519   0.211   1.018
 3278SOL     OW10732   1.211   0.933   5.865
 3278SOL    HW110733   1.220   0.879   5.782
 3278SOL    HW210734   1.162   0.880   5.935
 3279SOL     OW10735   4.955   6.875   0.333
 3279SOL    HW110736   4.893   6.928   0.390
 3279SOL    HW210737   4.997   6.935   0.264
 3280SOL     OW10738   5.084   4.160   4.944
 3280SOL    HW110739   5.020   4.132   4.873
 3280SOL    HW210740   5.053   4.247   4.984
 3281SOL     OW10741   1.146   4.435   1.602
 3281SOL    HW110742   1.241   4.430   1.571
 3281SOL    HW210743   1.096   4.355   1.569
 3282SOL     OW10744   0.032   4.631   4.673
 3282SOL    HW110745   0.111   4.590   4.629
 3282SOL    HW210746   6.972   4.606   4.622
 3283SOL     OW10747   3.357   1.093   0.708
 3283SOL    HW110748   3.428   1.039   0.663
 3283SOL    HW210749   3.271   1.081   0.658
 3284SOL     OW10750   1.044   5.769   6.496
 3284SOL    HW110751   1.127   5.824   6.509
 3284SOL    HW210752   0.976   5.824   6.447
 3285SOL     OW10753   4.182   2.203   4.123
 3285SOL    HW110754   4.210   2.207   4.219
 3285SOL    HW210755   4.252   2.156   4.070
 3286SOL     OW10756   3.945   3.014   2.301
 3286SOL    HW110757   3.972   2.994   2.207
 3286SOL    HW210758   3.954   3.112   2.318
 3287SOL     OW10759   0.859   0.093   0.255
 3287SOL    HW110760   0.954   0.108   0.281
 3287SOL    HW210761   0.805   0.071   0.337
 3288SOL     OW10762   2.346   6.502   0.355
 3288SOL    HW110763   2.250   6.528   0.369
 3288SOL    HW210764   2.351   6.425   0.292
 3289SOL     OW10765   3.035   0.980   5.583
 3289SOL    HW110766   2.982   0.938   5.510
 3289SOL    HW210767   3.088   1.057   5.547
 3290SOL     OW10768   0.104   5.016   1.166
 3290SOL    HW110769   0.081   5.105   1.206
 3290SOL    HW210770   0.130   5.027   1.071
 3291SOL     OW10771   1.940   0.597   6.386
 3291SOL    HW110772   2.000   0.676   6.399
 3291SOL    HW210773   1.904   0.568   6.475
 3292SOL     OW10774   0.197   1.169   0.744
 3292SOL    HW110775   0.275   1.151   0.684
 3292SOL    HW210776   0.182   1.091   0.803
 3293SOL     OW10777   6.744   4.562   1.473
 3293SOL    HW110778   6.798   4.477   1.471
 3293SOL    HW210779   6.788   4.627   1.534
 3294SOL     OW10780   5.703   2.984   6.301
 3294SOL    HW110781   5.699   3.083   6.285
 3294SOL    HW210782   5.772   2.964   6.369
 3295SOL     OW10783   1.126   2.770   1.986
 3295SOL    HW110784   1.203   2.716   2.020
 3295SOL    HW210785   1.042   2.717   1.995
 3296SOL     OW10786   1.333   0.756   2.264
 3296SOL    HW110787   1.345   0.660   2.242
 3296SOL    HW210788   1.307   0.806   2.181
 3297SOL     OW10789   3.059   1.500   5.460
 3297SOL    HW110790   2.964   1.507   5.429
 3297SOL    HW210791   3.112   1.577   5.425
 3298SOL     OW10792   6.048   1.983   6.142
 3298SOL    HW110793   5.990   2.063   6.126
 3298SOL    HW210794   6.119   2.006   6.208
 3299SOL     OW10795   3.729   5.853   2.957
 3299SOL    HW110796   3.773   5.925   2.905
 3299SOL    HW210797   3.630   5.868   2.957
 3300SOL     OW10798   0.885   0.412   6.083
 3300SOL    HW110799   0.885   0.368   6.173
 3300SOL    HW210800   0.897   0.342   6.012
 3301SOL     OW10801   1.922   3.268   3.529
 3301SOL    HW110802   1.868   3.301   3.607
 3301SOL    HW210803   1.869   3.279   3.445
 3302SOL     OW10804   0.477   5.250   5.267
 3302SOL    HW110805   0.485   5.191   5.187
 3302SOL    HW210806   0.500   5.344   5.241
 3303SOL     OW10807   3.161   3.431   0.371
 3303SOL    HW110808   3.110   3.370   0.432
 3303SOL    HW210809   3.120   3.430   0.281
 3304SOL     OW10810   1.970   5.500   5.080
 3304SOL    HW110811   2.043   5.557   5.118
 3304SOL    HW210812   1.885   5.552   5.077
 3305SOL     OW10813   2.401   1.791   2.283
 3305SOL    HW110814   2.460   1.718   2.317
 3305SOL    HW210815   2.440   1.880   2.307
 3306SOL     OW10816   2.051   5.385   4.662
 3306SOL    HW110817   2.127   5.415   4.721
 3306SOL    HW210818   1.978   5.348   4.718
 3307SOL     OW10819   0.711   5.895   6.535
 3307SOL    HW110820   0.767   5.924   6.458
 3307SOL    HW210821   0.636   5.837   6.501
 3308SOL     OW10822   2.452   5.731   1.597
 3308SOL    HW110823   2.458   5.710   1.694
 3308SOL    HW210824   2.361   5.768   1.576
 3309SOL     OW10825   5.912   5.443   3.745
 3309SOL    HW110826   5.888   5.375   3.676
 3309SOL    HW210827   5.983   5.504   3.709
 3310SOL     OW10828   7.016   4.321   5.584
 3310SOL    HW110829   6.922   4.354   5.595
 3310SOL    HW210830   0.055   4.399   5.572
 3311SOL     OW10831   3.752   4.336   0.370
 3311SOL    HW110832   3.741   4.366   0.276
 3311SOL    HW210833   3.670   4.288   0.400
 3312SOL     OW10834   3.896   4.298   5.538
 3312SOL    HW110835   3.957   4.330   5.465
 3312SOL    HW210836   3.935   4.320   5.627
 3313SOL     OW10837   0.826   6.538   3.529
 3313SOL    HW110838   0.826   6.439   3.539
 3313SOL    HW210839   0.896   6.579   3.588
 3314SOL     OW10840   2.172   1.468   2.251
 3314SOL    HW110841   2.194   1.496   2.158
 3314SOL    HW210842   2.073   1.453   2.259
 3315SOL     OW10843   0.038   4.462   4.892
 3315SOL    HW110844   0.031   4.557   4.861
 3315SOL    HW210845   7.008   4.451   4.977
 3316SOL     OW10846   5.513   1.202   5.448
 3316SOL    HW110847   5.472   1.293   5.449
 3316SOL    HW210848   5.485   1.152   5.530
 3317SOL     OW10849   4.745   2.729   2.083
 3317SOL    HW110850   4.693   2.813   2.067
 3317SOL    HW210851   4.841   2.746   2.063
 3318SOL     OW10852   1.782   1.501   1.164
 3318SOL    HW110853   1.784   1.481   1.066
 3318SOL    HW210854   1.874   1.523   1.195
 3319SOL     OW10855   5.945   1.446   3.730
 3319SOL    HW110856   5.933   1.530   3.677
 3319SOL    HW210857   5.878   1.444   3.804
 3320SOL     OW10858   6.273   1.155   5.677
 3320SOL    HW110859   6.293   1.237   5.624
 3320SOL    HW210860   6.177   1.130   5.666
 3321SOL     OW10861   5.317   1.688   0.512
 3321SOL    HW110862   5.251   1.666   0.583
 3321SOL    HW210863   5.284   1.655   0.423
 3322SOL     OW10864   6.603   2.628   0.898
 3322SOL    HW110865   6.580   2.717   0.938
 3322SOL    HW210866   6.689   2.635   0.848
 3323SOL     OW10867   3.183   2.955   0.397
 3323SOL    HW110868   3.237   2.871   0.404
 3323SOL    HW210869   3.103   2.948   0.456
 3324SOL     OW10870   3.699   4.935   6.606
 3324SOL    HW110871   3.683   4.913   6.702
 3324SOL    HW210872   3.788   4.899   6.578
 3325SOL     OW10873   0.010   3.761   6.729
 3325SOL    HW110874   6.983   3.682   6.692
 3325SOL    HW210875   0.100   3.730   6.762
 3326SOL     OW10876   4.734   2.068   2.152
 3326SOL    HW110877   4.827   2.098   2.174
 3326SOL    HW210878   4.720   1.975   2.188
 3327SOL     OW10879   3.065   5.102   1.749
 3327SOL    HW110880   3.085   5.179   1.810
 3327SOL    HW210881   2.967   5.085   1.747
 3328SOL     OW10882   4.508   2.115   0.691
 3328SOL    HW110883   4.509   2.166   0.605
 3328SOL    HW210884   4.594   2.064   0.700
 3329SOL     OW10885   5.720   0.622   4.709
 3329SOL    HW110886   5.820   0.614   4.713
 3329SOL    HW210887   5.695   0.719   4.710
 3330SOL     OW10888   6.508   4.138   1.656
 3330SOL    HW110889   6.545   4.195   1.583
 3330SOL    HW210890   6.543   4.169   1.744
 3331SOL     OW10891   2.628   2.793   1.715
 3331SOL    HW110892   2.622   2.869   1.650
 3331SOL    HW210893   2.537   2.765   1.743
 3332SOL     OW10894   5.439   5.503   0.085
 3332SOL    HW110895   5.525   5.493   0.137
 3332SOL    HW210896   5.377   5.563   0.135
 3333SOL     OW10897   4.521   5.119   6.711
 3333SOL    HW110898   4.584   5.118   6.788
 3333SOL    HW210899   4.565   5.077   6.631
 3334SOL     OW10900   3.115   3.950   1.691
 3334SOL    HW110901   3.129   3.888   1.768
 3334SOL    HW210902   3.089   4.040   1.725
 3335SOL     OW10903   4.632   5.955   6.007
 3335SOL    HW110904   4.650   5.935   5.911
 3335SOL    HW210905   4.534   5.968   6.020
 3336SOL     OW10906   2.836   5.695   5.017
 3336SOL    HW110907   2.875   5.694   5.109
 3336SOL    HW210908   2.895   5.749   4.957
 3337SOL     OW10909   2.919   3.792   2.424
 3337SOL    HW110910   2.883   3.754   2.338
 3337SOL    HW210911   2.980   3.868   2.404
 3338SOL     OW10912   5.706   2.673   1.742
 3338SOL    HW110913   5.651   2.632   1.815
 3338SOL    HW210914   5.645   2.717   1.675
 3339SOL     OW10915   6.448   6.951   6.771
 3339SOL    HW110916   6.487   6.876   6.823
 3339SOL    HW210917   6.471   6.941   6.674
 3340SOL     OW10918   3.739   0.753   2.498
 3340SOL    HW110919   3.659   0.693   2.505
 3340SOL    HW210920   3.713   0.846   2.526
 3341SOL     OW10921   0.682   5.995   3.489
 3341SOL    HW110922   0.671   6.088   3.452
 3341SOL    HW210923   0.672   5.997   3.588
 3342SOL     OW10924   2.875   6.610   4.091
 3342SOL    HW110925   2.865   6.527   4.035
 3342SOL    HW210926   2.794   6.619   4.150
 3343SOL     OW10927   4.610   2.823   0.631
 3343SOL    HW110928   4.673   2.899   0.646
 3343SOL    HW210929   4.591   2.778   0.719
 3344SOL     OW10930   5.885   3.350   4.301
 3344SOL    HW110931   5.901   3.334   4.203
 3344SOL    HW210932   5.920   3.441   4.325
 3345SOL     OW10933   1.548   3.666   6.243
 3345SOL    HW110934   1.554   3.749   6.298
 3345SOL    HW210935   1.510   3.688   6.153
 3346SOL     OW10936   1.922   0.926   0.706
 3346SOL    HW110937   1.947   0.870   0.785
 3346SOL    HW210938   1.862   0.873   0.646
 3347SOL     OW10939   0.490   4.209   3.830
 3347SOL    HW110940   0.436   4.139   3.783
 3347SOL    HW210941   0.541   4.167   3.904
 3348SOL     OW10942   3.033   3.148   3.669
 3348SOL    HW110943   2.954   3.086   3.671
 3348SOL    HW210944   3.067   3.161   3.763
 3349SOL     OW10945   0.940   5.606   3.813
 3349SOL    HW110946   0.878   5.546   3.863
 3349SOL    HW210947   0.927   5.700   3.843
 3350SOL     OW10948   1.728   2.457   5.698
 3350SOL    HW110949   1.637   2.415   5.695
 3350SOL    HW210950   1.795   2.393   5.661
 3351SOL     OW10951   5.420   0.997   2.656
 3351SOL    HW110952   5.356   0.936   2.609
 3351SOL    HW210953   5.464   1.057   2.589
 3352SOL     OW10954   0.323   2.495   0.523
 3352SOL    HW110955   0.400   2.519   0.464
 3352SOL    HW210956   0.259   2.572   0.526
 3353SOL     OW10957   1.423   6.036   2.119
 3353SOL    HW110958   1.374   6.027   2.205
 3353SOL    HW210959   1.522   6.041   2.136
 3354SOL     OW10960   5.263   2.663   5.095
 3354SOL    HW110961   5.253   2.565   5.074
 3354SOL    HW210962   5.259   2.715   5.009
 3355SOL     OW10963   1.983   1.393   0.461
 3355SOL    HW110964   1.919   1.352   0.397
 3355SOL    HW210965   2.068   1.417   0.413
 3356SOL     OW10966   2.140   3.913   6.228
 3356SOL    HW110967   2.129   3.890   6.324
 3356SOL    HW210968   2.091   3.998   6.208
 3357SOL     OW10969   2.597   4.576   1.799
 3357SOL    HW110970   2.681   4.583   1.853
 3357SOL    HW210971   2.616   4.529   1.713
 3358SOL     OW10972   5.140   0.377   0.644
 3358SOL    HW110973   5.081   0.450   0.678
 3358SOL    HW210974   5.108   0.289   0.679
 3359SOL     OW10975   6.862   0.413   3.591
 3359SOL    HW110976   6.792   0.343   3.600
 3359SOL    HW210977   6.854   0.478   3.667
 3360SOL     OW10978   0.568   0.986   6.694
 3360SOL    HW110979   0.545   1.080   6.668
 3360SOL    HW210980   0.597   0.936   6.613
 3361SOL     OW10981   0.344   3.772   2.839
 3361SOL    HW110982   0.358   3.758   2.937
 3361SOL    HW210983   0.249   3.796   2.822
 3362SOL     OW10984   3.817   0.987   3.901
 3362SOL    HW110985   3.838   1.076   3.940
 3362SOL    HW210986   3.724   0.960   3.925
 3363SOL     OW10987   0.089   0.135   0.343
 3363SOL    HW110988   0.033   0.059   0.310
 3363SOL    HW210989   0.170   0.145   0.285
 3364SOL     OW10990   1.408   4.616   3.836
 3364SOL    HW110991   1.317   4.653   3.820
 3364SOL    HW210992   1.466   4.634   3.757
 3365SOL     OW10993   0.562   2.171   5.555
 3365SOL    HW110994   0.573   2.088   5.500
 3365SOL    HW210995   0.637   2.234   5.534
 3366SOL     OW10996   5.768   0.546   6.349
 3366SOL    HW110997   5.799   0.454   6.374
 3366SOL    HW210998   5.737   0.594   6.432
 3367SOL     OW10999   3.208   2.941   1.520
 3367SOL    HW111000   3.127   2.994   1.496
 3367SOL    HW211001   3.289   3.000   1.516
 3368SOL     OW11002   0.784   5.393   6.099
 3368SOL    HW111003   0.871   5.442   6.095
 3368SOL    HW211004   0.709   5.456   6.080
 3369SOL     OW11005   3.794   2.520   5.586
 3369SOL    HW111006   3.750   2.610   5.581
 3369SOL    HW211007   3.790   2.475   5.497
 3370SOL     OW11008   6.475   6.119   6.143
 3370SOL    HW111009   6.482   6.169   6.056
 3370SOL    HW211010   6.385   6.135   6.183
 3371SOL     OW11011   1.592   3.517   2.202
 3371SOL    HW111012   1.655   3.550   2.132
 3371SOL    HW211013   1.644   3.482   2.280
 3372SOL     OW11014   0.736   1.253   1.334
 3372SOL    HW111015   0.757   1.298   1.247
 3372SOL    HW211016   0.666   1.306   1.383
 3373SOL     OW11017   7.010   2.172   2.768
 3373SOL    HW111018   6.993   2.145   2.673
 3373SOL    HW211019   6.954   2.116   2.829
 3374SOL     OW11020   2.028   6.292   4.218
 3374SOL    HW111021   1.940   6.258   4.186
 3374SOL    HW211022   2.088   6.309   4.140
 3375SOL     OW11023   5.751   5.105   6.049
 3375SOL    HW111024   5.830   5.069   5.999
 3375SOL    HW211025   5.669   5.052   6.024
 3376SOL     OW11026   3.515   3.002   3.575
 3376SOL    HW111027   3.608   3.000   3.613
 3376SOL    HW211028   3.479   3.095   3.579
 3377SOL     OW11029   0.325   6.824   4.469
 3377SOL    HW111030   0.386   6.797   4.544
 3377SOL    HW211031   0.248   6.876   4.506
 3378SOL     OW11032   7.017   0.983   0.467
 3378SOL    HW111033   7.006   1.050   0.540
 3378SOL    HW211034   0.009   0.893   0.507
 3379SOL     OW11035   0.054   5.500   6.373
 3379SOL    HW111036   0.091   5.487   6.464
 3379SOL    HW211037   6.977   5.499   6.377
 3380SOL     OW11038   5.415   6.788   6.076
 3380SOL    HW111039   5.408   6.763   5.979
 3380SOL    HW211040   5.507   6.822   6.095
 3381SOL     OW11041   1.220   3.013   1.334
 3381SOL    HW111042   1.211   3.068   1.417
 3381SOL    HW211043   1.152   3.042   1.267
 3382SOL     OW11044   1.076   0.699   0.698
 3382SOL    HW111045   1.096   0.641   0.619
 3382SOL    HW211046   1.161   0.740   0.731
 3383SOL     OW11047   4.284   5.740   2.166
 3383SOL    HW111048   4.378   5.706   2.178
 3383SOL    HW211049   4.231   5.674   2.113
 3384SOL     OW11050   2.436   3.723   5.528
 3384SOL    HW111051   2.463   3.643   5.474
 3384SOL    HW211052   2.495   3.730   5.609
 3385SOL     OW11053   0.261   2.893   3.862
 3385SOL    HW111054   0.276   2.923   3.956
 3385SOL    HW211055   0.233   2.971   3.806
 3386SOL     OW11056   6.578   3.307   6.637
 3386SOL    HW111057   6.496   3.329   6.586
 3386SOL    HW211058   6.659   3.327   6.581
 3387SOL     OW11059   3.153   1.187   3.953
 3387SOL    HW111060   3.226   1.157   4.015
 3387SOL    HW211061   3.150   1.287   3.951
 3388SOL     OW11062   5.144   3.304   1.899
 3388SOL    HW111063   5.081   3.227   1.901
 3388SOL    HW211064   5.218   3.286   1.834
 3389SOL     OW11065   5.107   5.125   5.208
 3389SOL    HW111066   5.167   5.205   5.197
 3389SOL    HW211067   5.110   5.095   5.303
 3390SOL     OW11068   5.065   4.532   5.963
 3390SOL    HW111069   5.008   4.613   5.973
 3390SOL    HW211070   5.007   4.450   5.961
 3391SOL     OW11071   5.543   2.477   4.870
 3391SOL    HW111072   5.450   2.451   4.895
 3391SOL    HW211073   5.601   2.479   4.951
 3392SOL     OW11074   2.802   6.776   3.651
 3392SOL    HW111075   2.757   6.783   3.739
 3392SOL    HW211076   2.753   6.831   3.583
 3393SOL     OW11077   0.369   6.210   0.133
 3393SOL    HW111078   0.435   6.256   0.192
 3393SOL    HW211079   0.399   6.219   0.038
 3394SOL     OW11080   6.130   2.730   0.964
 3394SOL    HW111081   6.212   2.727   1.021
 3394SOL    HW211082   6.074   2.809   0.989
 3395SOL     OW11083   5.753   3.147   3.408
 3395SOL    HW111084   5.758   3.143   3.308
 3395SOL    HW211085   5.823   3.088   3.448
 3396SOL     OW11086   5.777   2.206   3.706
 3396SOL    HW111087   5.686   2.176   3.678
 3396SOL    HW211088   5.807   2.152   3.785
 3397SOL     OW11089   2.855   0.985   5.368
 3397SOL    HW111090   2.820   0.975   5.275
 3397SOL    HW211091   2.869   1.082   5.387
 3398SOL     OW11092   1.023   6.643   3.999
 3398SOL    HW111093   0.983   6.730   3.970
 3398SOL    HW211094   1.062   6.653   4.091
 3399SOL     OW11095   5.755   4.697   4.403
 3399SOL    HW111096   5.754   4.707   4.503
 3399SOL    HW211097   5.803   4.614   4.378
 3400SOL     OW11098   4.878   2.172   5.685
 3400SOL    HW111099   4.824   2.095   5.718
 3400SOL    HW211100   4.831   2.216   5.608
 3401SOL     OW11101   6.950   3.540   0.761
 3401SOL    HW111102   6.976   3.636   0.772
 3401SOL    HW211103   6.967   3.490   0.846
 3402SOL     OW11104   3.819   6.553   6.600
 3402SOL    HW111105   3.910   6.524   6.631
 3402SOL    HW211106   3.756   6.476   6.608
 3403SOL     OW11107   4.419   6.732   4.995
 3403SOL    HW111108   4.320   6.740   4.986
 3403SOL    HW211109   4.441   6.669   5.068
 3404SOL     OW11110   5.375   1.536   0.251
 3404SOL    HW111111   5.363   1.438   0.236
 3404SOL    HW211112   5.351   1.586   0.168
 3405SOL     OW11113   6.745   3.830   4.306
 3405SOL    HW111114   6.799   3.815   4.389
 3405SOL    HW211115   6.802   3.877   4.238
 3406SOL     OW11116   0.715   3.563   2.578
 3406SOL    HW111117   0.625   3.520   2.567
 3406SOL    HW211118   0.734   3.573   2.676
 3407SOL     OW11119   1.496   5.467   0.248
 3407SOL    HW111120   1.510   5.562   0.278
 3407SOL    HW211121   1.496   5.464   0.148
 3408SOL     OW11122   5.113   3.928   5.321
 3408SOL    HW111123   5.045   3.875   5.372
 3408SOL    HW211124   5.194   3.872   5.304
 3409SOL     OW11125   3.338   5.893   6.479
 3409SOL    HW111126   3.261   5.840   6.511
 3409SOL    HW211127   3.322   5.924   6.385
 3410SOL     OW11128   0.020   5.906   0.395
 3410SOL    HW111129   6.959   5.886   0.344
 3410SOL    HW211130   0.091   5.936   0.332
 3411SOL     OW11131   0.414   2.663   1.646
 3411SOL    HW111132   0.430   2.627   1.738
 3411SOL    HW211133   0.413   2.763   1.649
 3412SOL     OW11134   4.315   2.767   6.870
 3412SOL    HW111135   4.407   2.730   6.871
 3412SOL    HW211136   4.319   2.867   6.867
 3413SOL     OW11137   5.385   1.108   1.419
 3413SOL    HW111138   5.446   1.180   1.384
 3413SOL    HW211139   5.380   1.115   1.519
 3414SOL     OW11140   1.994   1.026   6.032
 3414SOL    HW111141   1.932   1.026   6.110
 3414SOL    HW211142   2.009   0.932   6.001
 3415SOL     OW11143   1.615   3.935   4.587
 3415SOL    HW111144   1.699   3.981   4.618
 3415SOL    HW211145   1.633   3.837   4.577
 3416SOL     OW11146   0.021   6.074   0.929
 3416SOL    HW111147   6.998   6.005   0.985
 3416SOL    HW211148   0.033   6.040   0.836
 3417SOL     OW11149   0.406   5.978   3.232
 3417SOL    HW111150   0.318   6.020   3.209
 3417SOL    HW211151   0.480   6.036   3.197
 3418SOL     OW11152   3.498   0.622   4.697
 3418SOL    HW111153   3.482   0.599   4.602
 3418SOL    HW211154   3.450   0.558   4.756
 3419SOL     OW11155   4.449   6.007   4.941
 3419SOL    HW111156   4.504   6.024   5.023
 3419SOL    HW211157   4.502   5.952   4.877
 3420SOL     OW11158   5.871   2.712   3.866
 3420SOL    HW111159   5.820   2.745   3.946
 3420SOL    HW211160   5.826   2.744   3.783
 3421SOL     OW11161   5.743   0.875   6.348
 3421SOL    HW111162   5.654   0.870   6.394
 3421SOL    HW211163   5.732   0.922   6.260
 3422SOL     OW11164   1.765   0.036   1.090
 3422SOL    HW111165   1.851   0.017   1.043
 3422SOL    HW211166   1.756   0.134   1.106
 3423SOL     OW11167   2.304   6.255   0.676
 3423SOL    HW111168   2.346   6.167   0.697
 3423SOL    HW211169   2.349   6.327   0.728
 3424SOL     OW11170   2.748   6.810   2.171
 3424SOL    HW111171   2.777   6.900   2.203
 3424SOL    HW211172   2.689   6.768   2.240
 3425SOL     OW11173   5.311   4.362   2.184
 3425SOL    HW111174   5.369   4.405   2.254
 3425SOL    HW211175   5.260   4.287   2.226
 3426SOL     OW11176   3.357   2.910   0.746
 3426SOL    HW111177   3.318   3.002   0.744
 3426SOL    HW211178   3.376   2.884   0.840
 3427SOL     OW11179   6.802   6.959   0.407
 3427SOL    HW111180   6.742   6.894   0.454
 3427SOL    HW211181   6.746   0.007   0.364
 3428SOL     OW11182   2.993   4.629   1.002
 3428SOL    HW111183   2.920   4.579   1.048
 3428SOL    HW211184   2.955   4.705   0.951
 3429SOL     OW11185   0.624   2.059   0.045
 3429SOL    HW111186   0.579   2.148   0.040
 3429SOL    HW211187   0.557   1.988   0.064
 3430SOL     OW11188   0.263   6.252   5.163
 3430SOL    HW111189   0.168   6.244   5.135
 3430SOL    HW211190   0.321   6.267   5.083
 3431SOL     OW11191   1.666   6.712   0.965
 3431SOL    HW111192   1.707   6.649   1.030
 3431SOL    HW211193   1.738   6.754   0.910
 3432SOL     OW11194   2.157   2.704   6.920
 3432SOL    HW111195   2.093   2.713   6.843
 3432SOL    HW211196   2.150   2.612   6.959
 3433SOL     OW11197   1.040   0.287   6.272
 3433SOL    HW111198   0.998   0.196   6.271
 3433SOL    HW211199   1.128   0.284   6.225
 3434SOL     OW11200   4.749   1.980   0.648
 3434SOL    HW111201   4.702   1.903   0.691
 3434SOL    HW211202   4.824   2.011   0.706
 3435SOL     OW11203   1.258   1.041   0.949
 3435SOL    HW111204   1.284   0.967   0.888
 3435SOL    HW211205   1.159   1.042   0.962
 3436SOL     OW11206   3.326   6.233   5.894
 3436SOL    HW111207   3.281   6.146   5.914
 3436SOL    HW211208   3.259   6.308   5.898
 3437SOL     OW11209   2.744   1.159   5.800
 3437SOL    HW111210   2.790   1.071   5.799
 3437SOL    HW211211   2.646   1.146   5.781
 3438SOL     OW11212   1.195   2.523   0.532
 3438SOL    HW111213   1.282   2.510   0.579
 3438SOL    HW211214   1.133   2.448   0.556
 3439SOL     OW11215   2.146   6.111   5.170
 3439SOL    HW111216   2.146   6.211   5.169
 3439SOL    HW211217   2.128   6.077   5.078
 3440SOL     OW11218   3.892   3.083   1.961
 3440SOL    HW111219   3.818   3.090   2.029
 3440SOL    HW211220   3.977   3.118   2.001
 3441SOL     OW11221   5.236   6.725   4.159
 3441SOL    HW111222   5.266   6.820   4.157
 3441SOL    HW211223   5.186   6.704   4.075
 3442SOL     OW11224   3.764   5.103   2.481
 3442SOL    HW111225   3.680   5.055   2.508
 3442SOL    HW211226   3.741   5.183   2.426
 3443SOL     OW11227   5.095   6.474   1.514
 3443SOL    HW111228   5.145   6.391   1.491
 3443SOL    HW211229   4.998   6.461   1.494
 3444SOL     OW11230   5.249   5.670   0.529
 3444SOL    HW111231   5.157   5.631   0.521
 3444SOL    HW211232   5.244   5.770   0.521
 3445SOL     OW11233   6.275   5.790   4.487
 3445SOL    HW111234   6.180   5.822   4.487
 3445SOL    HW211235   6.337   5.868   4.489
 3446SOL     OW11236   5.877   0.321   2.092
 3446SOL    HW111237   5.826   0.270   2.162
 3446SOL    HW211238   5.824   0.325   2.008
 3447SOL     OW11239   5.219   5.578   1.236
 3447SOL    HW111240   5.139   5.554   1.180
 3447SOL    HW211241   5.302   5.547   1.191
 3448SOL     OW11242   3.296   0.457   0.720
 3448SOL    HW111243   3.328   0.546   0.690
 3448SOL    HW211244   3.339   0.433   0.807
 3449SOL     OW11245   6.417   0.074   3.942
 3449SOL    HW111246   6.341   0.016   3.971
 3449SOL    HW211247   6.463   0.032   3.864
 3450SOL     OW11248   0.107   2.053   6.546
 3450SOL    HW111249   0.114   2.115   6.468
 3450SOL    HW211250   0.166   2.085   6.620
 3451SOL     OW11251   1.636   6.370   2.268
 3451SOL    HW111252   1.690   6.326   2.197
 3451SOL    HW211253   1.598   6.455   2.232
 3452SOL     OW11254   6.338   1.522   6.425
 3452SOL    HW111255   6.350   1.618   6.400
 3452SOL    HW211256   6.426   1.475   6.424
 3453SOL     OW11257   6.881   5.716   5.974
 3453SOL    HW111258   6.926   5.680   5.893
 3453SOL    HW211259   6.822   5.646   6.014
 3454SOL     OW11260   1.271   1.867   6.855
 3454SOL    HW111261   1.215   1.809   6.913
 3454SOL    HW211262   1.232   1.871   6.763
 3455SOL     OW11263   2.272   2.401   4.348
 3455SOL    HW111264   2.305   2.361   4.263
 3455SOL    HW211265   2.223   2.331   4.401
 3456SOL     OW11266   5.851   5.695   2.167
 3456SOL    HW111267   5.935   5.678   2.219
 3456SOL    HW211268   5.774   5.706   2.230
 3457SOL     OW11269   2.699   5.774   3.722
 3457SOL    HW111270   2.778   5.770   3.782
 3457SOL    HW211271   2.727   5.751   3.628
 3458SOL     OW11272   4.728   0.488   0.806
 3458SOL    HW111273   4.679   0.566   0.844
 3458SOL    HW211274   4.669   0.407   0.808
 3459SOL     OW11275   5.835   4.254   2.740
 3459SOL    HW111276   5.759   4.193   2.719
 3459SOL    HW211277   5.838   4.328   2.673
 3460SOL     OW11278   2.433   3.149   6.952
 3460SOL    HW111279   2.485   3.234   6.944
 3460SOL    HW211280   2.463   3.099   0.010
 3461SOL     OW11281   4.542   6.571   4.711
 3461SOL    HW111282   4.448   6.604   4.705
 3461SOL    HW211283   4.605   6.643   4.683
 3462SOL     OW11284   0.260   3.373   2.074
 3462SOL    HW111285   0.214   3.343   2.157
 3462SOL    HW211286   0.357   3.348   2.079
 3463SOL     OW11287   1.112   3.598   3.734
 3463SOL    HW111288   1.143   3.540   3.658
 3463SOL    HW211289   1.181   3.597   3.807
 3464SOL     OW11290   6.889   3.081   7.003
 3464SOL    HW111291   6.846   3.171   6.994
 3464SOL    HW211292   6.987   3.088   6.985
 3465SOL     OW11293   1.628   2.666   2.081
 3465SOL    HW111294   1.584   2.644   1.994
 3465SOL    HW211295   1.696   2.596   2.102
 3466SOL     OW11296   6.450   5.244   6.908
 3466SOL    HW111297   6.377   5.257   6.975
 3466SOL    HW211298   6.530   5.298   6.935
 3467SOL     OW11299   2.042   2.320   0.724
 3467SOL    HW111300   2.052   2.316   0.823
 3467SOL    HW211301   2.052   2.228   0.685
 3468SOL     OW11302   5.855   0.698   2.648
 3468SOL    HW111303   5.774   0.700   2.590
 3468SOL    HW211304   5.827   0.683   2.743
 3469SOL     OW11305   4.863   6.983   4.137
 3469SOL    HW111306   4.850   0.037   4.200
 3469SOL    HW211307   4.945   6.998   4.083
 3470SOL     OW11308   6.598   2.151   1.711
 3470SOL    HW111309   6.537   2.170   1.634
 3470SOL    HW211310   6.692   2.173   1.686
 3471SOL     OW11311   5.031   4.611   4.536
 3471SOL    HW111312   5.013   4.709   4.542
 3471SOL    HW211313   5.110   4.594   4.477
 3472SOL     OW11314   2.811   1.539   3.142
 3472SOL    HW111315   2.866   1.542   3.059
 3472SOL    HW211316   2.804   1.630   3.181
 3473SOL     OW11317   0.064   2.747   1.541
 3473SOL    HW111318   0.112   2.708   1.620
 3473SOL    HW211319   0.131   2.774   1.471
 3474SOL     OW11320   1.127   4.519   2.767
 3474SOL    HW111321   1.077   4.602   2.742
 3474SOL    HW211322   1.066   4.456   2.814
 3475SOL     OW11323   1.585   3.915   4.018
 3475SOL    HW111324   1.555   4.009   4.006
 3475SOL    HW211325   1.576   3.866   3.931
 3476SOL     OW11326   2.288   1.767   2.804
 3476SOL    HW111327   2.237   1.851   2.786
 3476SOL    HW211328   2.364   1.760   2.740
 3477SOL     OW11329   1.512   4.603   0.686
 3477SOL    HW111330   1.532   4.630   0.592
 3477SOL    HW211331   1.555   4.667   0.749
 3478SOL     OW11332   2.431   5.608   5.654
 3478SOL    HW111333   2.498   5.542   5.689
 3478SOL    HW211334   2.390   5.571   5.570
 3479SOL     OW11335   1.606   0.698   3.067
 3479SOL    HW111336   1.618   0.690   2.968
 3479SOL    HW211337   1.692   0.677   3.113
 3480SOL     OW11338   6.905   6.130   4.815
 3480SOL    HW111339   6.962   6.053   4.844
 3480SOL    HW211340   6.898   6.197   4.889
 3481SOL     OW11341   5.029   0.600   0.367
 3481SOL    HW111342   5.003   0.616   0.462
 3481SOL    HW211343   5.123   0.566   0.363
 3482SOL     OW11344   6.124   1.160   1.921
 3482SOL    HW111345   6.143   1.249   1.880
 3482SOL    HW211346   6.046   1.167   1.983
 3483SOL     OW11347   4.811   2.340   1.898
 3483SOL    HW111348   4.806   2.387   1.810
 3483SOL    HW211349   4.893   2.370   1.948
 3484SOL     OW11350   0.952   3.070   0.658
 3484SOL    HW111351   0.864   3.032   0.630
 3484SOL    HW211352   1.004   3.000   0.708
 3485SOL     OW11353   1.890   1.993   4.155
 3485SOL    HW111354   1.961   1.923   4.163
 3485SOL    HW211355   1.803   1.948   4.133
 3486SOL     OW11356   2.691   0.258   3.826
 3486SOL    HW111357   2.708   0.271   3.923
 3486SOL    HW211358   2.624   0.325   3.794
 3487SOL     OW11359   6.368   2.113   6.588
 3487SOL    HW111360   6.460   2.086   6.561
 3487SOL    HW211361   6.301   2.059   6.536
 3488SOL     OW11362   6.368   0.572   4.641
 3488SOL    HW111363   6.409   0.520   4.716
 3488SOL    HW211364   6.394   0.669   4.649
 3489SOL     OW11365   4.056   0.301   1.754
 3489SOL    HW111366   4.109   0.257   1.827
 3489SOL    HW211367   4.113   0.309   1.672
 3490SOL     OW11368   3.848   4.272   0.940
 3490SOL    HW111369   3.753   4.302   0.942
 3490SOL    HW211370   3.889   4.298   0.853
 3491SOL     OW11371   4.484   2.940   5.982
 3491SOL    HW111372   4.415   2.914   6.050
 3491SOL    HW211373   4.560   2.875   5.986
 3492SOL     OW11374   6.623   4.370   0.893
 3492SOL    HW111375   6.575   4.304   0.951
 3492SOL    HW211376   6.691   4.419   0.948
 3493SOL     OW11377   5.071   3.889   5.045
 3493SOL    HW111378   5.084   3.976   4.998
 3493SOL    HW211379   5.039   3.905   5.138
 3494SOL     OW11380   3.321   0.692   1.985
 3494SOL    HW111381   3.335   0.659   2.079
 3494SOL    HW211382   3.301   0.615   1.925
 3495SOL     OW11383   5.878   4.921   1.643
 3495SOL    HW111384   5.801   4.984   1.650
 3495SOL    HW211385   5.955   4.969   1.599
 3496SOL     OW11386   5.967   4.648   0.842
 3496SOL    HW111387   5.982   4.646   0.941
 3496SOL    HW211388   6.043   4.604   0.795
 3497SOL     OW11389   2.170   1.114   3.983
 3497SOL    HW111390   2.156   1.015   3.986
 3497SOL    HW211391   2.137   1.149   3.895
 3498SOL     OW11392   3.351   2.329   1.097
 3498SOL    HW111393   3.372   2.301   1.003
 3498SOL    HW211394   3.432   2.319   1.154
 3499SOL     OW11395   5.454   3.940   4.062
 3499SOL    HW111396   5.456   3.921   4.160
 3499SOL    HW211397   5.545   3.924   4.023
 3500SOL     OW11398   1.836   3.459   4.771
 3500SOL    HW111399   1.888   3.504   4.844
 3500SOL    HW211400   1.872   3.366   4.758
 3501SOL     OW11401   1.540   5.887   4.903
 3501SOL    HW111402   1.584   5.970   4.871
 3501SOL    HW211403   1.488   5.906   4.987
 3502SOL     OW11404   6.637   2.706   2.086
 3502SOL    HW111405   6.640   2.769   2.008
 3502SOL    HW211406   6.554   2.651   2.082
 3503SOL     OW11407   6.192   6.523   5.028
 3503SOL    HW111408   6.107   6.571   5.009
 3503SOL    HW211409   6.246   6.575   5.094
 3504SOL     OW11410   2.528   1.271   1.603
 3504SOL    HW111411   2.435   1.247   1.630
 3504SOL    HW211412   2.593   1.211   1.650
 3505SOL     OW11413   5.575   4.003   5.151
 3505SOL    HW111414   5.531   3.983   5.064
 3505SOL    HW211415   5.540   4.089   5.188
 3506SOL     OW11416   5.056   5.685   5.470
 3506SOL    HW111417   5.051   5.586   5.466
 3506SOL    HW211418   5.145   5.716   5.435
 3507SOL     OW11419   2.159   0.776   0.921
 3507SOL    HW111420   2.159   0.681   0.951
 3507SOL    HW211421   2.213   0.831   0.985
 3508SOL     OW11422   2.062   1.856   5.576
 3508SOL    HW111423   2.077   1.811   5.663
 3508SOL    HW211424   1.976   1.906   5.579
 3509SOL     OW11425   5.154   0.610   6.227
 3509SOL    HW111426   5.249   0.618   6.255
 3509SOL    HW211427   5.149   0.601   6.127
 3510SOL     OW11428   1.380   1.700   1.824
 3510SOL    HW111429   1.421   1.781   1.864
 3510SOL    HW211430   1.346   1.722   1.732
 3511SOL     OW11431   2.821   5.118   0.919
 3511SOL    HW111432   2.770   5.078   0.995
 3511SOL    HW211433   2.918   5.122   0.942
 3512SOL     OW11434   6.800   4.237   0.742
 3512SOL    HW111435   6.878   4.294   0.715
 3512SOL    HW211436   6.733   4.292   0.791
 3513SOL     OW11437   5.556   2.751   6.926
 3513SOL    HW111438   5.568   2.652   6.926
 3513SOL    HW211439   5.471   2.775   6.973
 3514SOL     OW11440   0.218   1.599   1.964
 3514SOL    HW111441   0.176   1.579   1.876
 3514SOL    HW211442   0.152   1.584   2.038
 3515SOL     OW11443   4.998   6.194   3.203
 3515SOL    HW111444   5.086   6.223   3.167
 3515SOL    HW211445   4.930   6.194   3.129
 3516SOL     OW11446   4.544   7.013   0.937
 3516SOL    HW111447   4.476   6.954   0.980
 3516SOL    HW211448   4.546   0.079   0.983
 3517SOL     OW11449   1.510   2.441   0.759
 3517SOL    HW111450   1.464   2.426   0.847
 3517SOL    HW211451   1.460   2.393   0.687
 3518SOL     OW11452   5.869   2.243   4.081
 3518SOL    HW111453   5.879   2.308   4.006
 3518SOL    HW211454   5.850   2.152   4.044
 3519SOL     OW11455   1.533   0.553   6.470
 3519SOL    HW111456   1.553   0.644   6.432
 3519SOL    HW211457   1.511   0.491   6.395
 3520SOL     OW11458   2.996   5.251   6.542
 3520SOL    HW111459   3.071   5.301   6.585
 3520SOL    HW211460   3.028   5.162   6.511
 3521SOL     OW11461   5.191   2.551   6.787
 3521SOL    HW111462   5.192   2.511   6.879
 3521SOL    HW211463   5.098   2.550   6.751
 3522SOL     OW11464   0.291   4.858   1.455
 3522SOL    HW111465   0.369   4.845   1.516
 3522SOL    HW211466   0.216   4.798   1.482
 3523SOL     OW11467   1.802   4.897   6.080
 3523SOL    HW111468   1.714   4.920   6.121
 3523SOL    HW211469   1.815   4.951   5.997
 3524SOL     OW11470   4.640   1.592   2.146
 3524SOL    HW111471   4.675   1.502   2.174
 3524SOL    HW211472   4.655   1.605   2.048
 3525SOL     OW11473   1.340   4.626   3.351
 3525SOL    HW111474   1.368   4.550   3.409
 3525SOL    HW211475   1.282   4.688   3.404
 3526SOL     OW11476   2.436   6.778   4.182
 3526SOL    HW111477   2.372   6.855   4.169
 3526SOL    HW211478   2.474   6.751   4.094
 3527SOL     OW11479   5.678   3.308   6.335
 3527SOL    HW111480   5.718   3.352   6.416
 3527SOL    HW211481   5.584   3.341   6.323
 3528SOL     OW11482   0.945   6.143   4.955
 3528SOL    HW111483   0.871   6.188   4.904
 3528SOL    HW211484   1.016   6.209   4.978
 3529SOL     OW11485   3.838   0.408   6.601
 3529SOL    HW111486   3.785   0.325   6.584
 3529SOL    HW211487   3.787   0.488   6.569
 3530SOL     OW11488   0.431   4.864   2.596
 3530SOL    HW111489   0.404   4.897   2.686
 3530SOL    HW211490   0.520   4.901   2.571
 3531SOL     OW11491   4.988   2.710   0.200
 3531SOL    HW111492   4.924   2.671   0.266
 3531SOL    HW211493   5.036   2.635   0.152
 3532SOL     OW11494   2.919   0.789   1.669
 3532SOL    HW111495   3.002   0.762   1.619
 3532SOL    HW211496   2.887   0.712   1.723
 3533SOL     OW11497   1.655   2.121   2.578
 3533SOL    HW111498   1.753   2.133   2.598
 3533SOL    HW211499   1.621   2.039   2.624
 3534SOL     OW11500   6.399   1.246   6.729
 3534SOL    HW111501   6.312   1.289   6.703
 3534SOL    HW211502   6.471   1.315   6.728
 3535SOL     OW11503   1.831   6.153   0.994
 3535SOL    HW111504   1.898   6.179   0.924
 3535SOL    HW211505   1.767   6.086   0.956
 3536SOL     OW11506   3.009   1.994   3.135
 3536SOL    HW111507   3.102   1.986   3.171
 3536SOL    HW211508   2.951   2.039   3.202
 3537SOL     OW11509   3.225   5.558   1.763
 3537SOL    HW111510   3.255   5.469   1.798
 3537SOL    HW211511   3.301   5.604   1.719
 3538SOL     OW11512   1.425   0.228   6.435
 3538SOL    HW111513   1.392   0.230   6.341
 3538SOL    HW211514   1.351   0.254   6.497
 3539SOL     OW11515   5.526   3.343   5.642
 3539SOL    HW111516   5.472   3.284   5.703
 3539SOL    HW211517   5.599   3.386   5.695
 3540SOL     OW11518   2.203   2.090   5.493
 3540SOL    HW111519   2.264   2.169   5.505
 3540SOL    HW211520   2.253   2.007   5.517
 3541SOL     OW11521   1.956   2.416   6.522
 3541SOL    HW111522   1.954   2.489   6.454
 3541SOL    HW211523   2.048   2.409   6.561
 3542SOL     OW11524   1.524   5.452   2.873
 3542SOL    HW111525   1.472   5.415   2.950
 3542SOL    HW211526   1.561   5.541   2.898
 3543SOL     OW11527   0.668   1.960   4.655
 3543SOL    HW111528   0.759   1.963   4.696
 3543SOL    HW211529   0.655   2.040   4.597
 3544SOL     OW11530   2.725   4.055   6.409
 3544SOL    HW111531   2.722   3.994   6.487
 3544SOL    HW211532   2.744   4.148   6.440
 3545SOL     OW11533   4.011   4.911   0.746
 3545SOL    HW111534   4.067   4.971   0.688
 3545SOL    HW211535   4.054   4.821   0.753
 3546SOL     OW11536   1.199   4.492   4.130
 3546SOL    HW111537   1.120   4.529   4.179
 3546SOL    HW211538   1.253   4.436   4.192
 3547SOL     OW11539   6.472   5.046   4.477
 3547SOL    HW111540   6.547   5.027   4.540
 3547SOL    HW211541   6.444   5.141   4.487
 3548SOL     OW11542   6.006   1.076   5.934
 3548SOL    HW111543   5.963   1.165   5.918
 3548SOL    HW211544   6.099   1.078   5.900
 3549SOL     OW11545   6.988   4.930   5.684
 3549SOL    HW111546   6.993   4.964   5.590
 3549SOL    HW211547   0.004   4.999   5.746
 3550SOL     OW11548   6.028   3.316   3.173
 3550SOL    HW111549   5.981   3.353   3.254
 3550SOL    HW211550   6.102   3.378   3.147
 3551SOL     OW11551   3.820   1.260   2.639
 3551SOL    HW111552   3.756   1.330   2.670
 3551SOL    HW211553   3.887   1.301   2.578
 3552SOL     OW11554   5.815   0.049   2.178
 3552SOL    HW111555   5.805   6.980   2.218
 3552SOL    HW211556   5.910   0.063   2.152
 3553SOL     OW11557   4.698   4.901   1.093
 3553SOL    HW111558   4.610   4.931   1.055
 3553SOL    HW211559   4.699   4.801   1.098
 3554SOL     OW11560   4.539   2.122   1.518
 3554SOL    HW111561   4.468   2.113   1.588
 3554SOL    HW211562   4.570   2.031   1.490
 3555SOL     OW11563   0.979   4.570   3.804
 3555SOL    HW111564   0.890   4.581   3.760
 3555SOL    HW211565   0.973   4.498   3.873
 3556SOL     OW11566   4.168   1.554   4.613
 3556SOL    HW111567   4.089   1.510   4.570
 3556SOL    HW211568   4.150   1.569   4.710
 3557SOL     OW11569   0.898   1.483   4.734
 3557SOL    HW111570   0.867   1.564   4.684
 3557SOL    HW211571   0.946   1.422   4.671
 3558SOL     OW11572   1.342   6.723   2.340
 3558SOL    HW111573   1.350   6.714   2.440
 3558SOL    HW211574   1.250   6.755   2.317
 3559SOL     OW11575   0.650   6.158   5.644
 3559SOL    HW111576   0.582   6.188   5.710
 3559SOL    HW211577   0.680   6.065   5.667
 3560SOL     OW11578   0.760   5.685   1.799
 3560SOL    HW111579   0.842   5.638   1.766
 3560SOL    HW211580   0.684   5.666   1.737
 3561SOL     OW11581   4.330   4.663   4.757
 3561SOL    HW111582   4.422   4.636   4.731
 3561SOL    HW211583   4.301   4.612   4.838
 3562SOL     OW11584   4.776   1.310   3.475
 3562SOL    HW111585   4.867   1.319   3.434
 3562SOL    HW211586   4.765   1.217   3.512
 3563SOL     OW11587   5.958   1.003   0.226
 3563SOL    HW111588   6.054   1.004   0.254
 3563SOL    HW211589   5.930   0.910   0.203
 3564SOL     OW11590   2.122   4.452   3.503
 3564SOL    HW111591   2.206   4.436   3.555
 3564SOL    HW211592   2.091   4.366   3.463
 3565SOL     OW11593   2.615   5.795   5.256
 3565SOL    HW111594   2.586   5.701   5.239
 3565SOL    HW211595   2.693   5.817   5.197
 3566SOL     OW11596   6.363   3.686   5.900
 3566SOL    HW111597   6.379   3.633   5.983
 3566SOL    HW211598   6.315   3.629   5.833
 3567SOL     OW11599   0.156   2.853   0.103
 3567SOL    HW111600   0.170   2.946   0.135
 3567SOL    HW211601   0.067   2.820   0.133
 3568SOL     OW11602   4.583   5.131   4.290
 3568SOL    HW111603   4.624   5.130   4.381
 3568SOL    HW211604   4.507   5.195   4.288
 3569SOL     OW11605   1.751   1.975   5.785
 3569SOL    HW111606   1.737   2.042   5.858
 3569SOL    HW211607   1.672   1.915   5.779
 3570SOL     OW11608   5.486   0.991   5.244
 3570SOL    HW111609   5.526   0.904   5.272
 3570SOL    HW211610   5.513   1.063   5.308
 3571SOL     OW11611   0.819   5.769   5.329
 3571SOL    HW111612   0.728   5.729   5.320
 3571SOL    HW211613   0.823   5.853   5.275
 3572SOL     OW11614   5.914   2.995   3.057
 3572SOL    HW111615   5.873   2.976   2.968
 3572SOL    HW211616   5.846   2.981   3.129
 3573SOL     OW11617   6.448   4.908   3.142
 3573SOL    HW111618   6.491   4.852   3.213
 3573SOL    HW211619   6.353   4.925   3.167
 3574SOL     OW11620   0.514   2.747   0.656
 3574SOL    HW111621   0.525   2.672   0.591
 3574SOL    HW211622   0.597   2.755   0.711
 3575SOL     OW11623   5.433   5.411   2.439
 3575SOL    HW111624   5.377   5.450   2.512
 3575SOL    HW211625   5.530   5.420   2.463
 3576SOL     OW11626   0.694   2.228   6.712
 3576SOL    HW111627   0.713   2.163   6.639
 3576SOL    HW211628   0.765   2.299   6.712
 3577SOL     OW11629   1.571   2.645   6.988
 3577SOL    HW111630   1.565   2.720   6.921
 3577SOL    HW211631   1.480   2.626   0.002
 3578SOL     OW11632   4.130   1.162   0.500
 3578SOL    HW111633   4.077   1.246   0.511
 3578SOL    HW211634   4.219   1.173   0.546
 3579SOL     OW11635   6.481   2.292   3.003
 3579SOL    HW111636   6.442   2.384   2.997
 3579SOL    HW211637   6.580   2.298   2.998
 3580SOL     OW11638   6.314   3.262   1.223
 3580SOL    HW111639   6.361   3.328   1.281
 3580SOL    HW211640   6.336   3.281   1.127
 3581SOL     OW11641   1.220   5.066   3.552
 3581SOL    HW111642   1.150   5.135   3.535
 3581SOL    HW211643   1.210   5.032   3.646
 3582SOL     OW11644   1.167   3.574   6.448
 3582SOL    HW111645   1.134   3.666   6.425
 3582SOL    HW211646   1.248   3.581   6.505
 3583SOL     OW11647   1.511   4.923   6.860
 3583SOL    HW111648   1.591   4.973   6.893
 3583SOL    HW211649   1.428   4.978   6.876
 3584SOL     OW11650   5.972   4.623   5.937
 3584SOL    HW111651   5.985   4.630   5.838
 3584SOL    HW211652   5.926   4.536   5.958
 3585SOL     OW11653   2.615   1.969   4.348
 3585SOL    HW111654   2.695   1.993   4.402
 3585SOL    HW211655   2.542   2.035   4.365
 3586SOL     OW11656   5.964   1.609   4.480
 3586SOL    HW111657   6.047   1.665   4.490
 3586SOL    HW211658   5.897   1.636   4.548
 3587SOL     OW11659   1.851   4.694   5.861
 3587SOL    HW111660   1.865   4.755   5.939
 3587SOL    HW211661   1.808   4.746   5.786
 3588SOL     OW11662   0.814   3.365   5.421
 3588SOL    HW111663   0.846   3.448   5.375
 3588SOL    HW211664   0.806   3.383   5.519
 3589SOL     OW11665   5.468   1.067   5.671
 3589SOL    HW111666   5.543   1.094   5.731
 3589SOL    HW211667   5.381   1.088   5.716
 3590SOL     OW11668   0.560   3.583   0.448
 3590SOL    HW111669   0.659   3.596   0.439
 3590SOL    HW211670   0.541   3.496   0.494
 3591SOL     OW11671   5.662   3.948   6.996
 3591SOL    HW111672   5.723   4.000   0.033
 3591SOL    HW211673   5.693   3.853   6.991
 3592SOL     OW11674   0.618   6.135   2.490
 3592SOL    HW111675   0.538   6.110   2.435
 3592SOL    HW211676   0.692   6.164   2.430
 3593SOL     OW11677   0.883   5.415   5.443
 3593SOL    HW111678   0.960   5.352   5.433
 3593SOL    HW211679   0.916   5.509   5.449
 3594SOL     OW11680   4.882   7.014   3.222
 3594SOL    HW111681   4.784   6.996   3.215
 3594SOL    HW211682   4.903   0.081   3.183
 3595SOL     OW11683   4.572   6.207   6.261
 3595SOL    HW111684   4.615   6.118   6.243
 3595SOL    HW211685   4.608   6.275   6.198
 3596SOL     OW11686   5.567   3.549   2.301
 3596SOL    HW111687   5.615   3.577   2.218
 3596SOL    HW211688   5.541   3.453   2.293
 3597SOL     OW11689   1.779   2.031   5.520
 3597SOL    HW111690   1.687   2.043   5.481
 3597SOL    HW211691   1.771   2.007   5.617
 3598SOL     OW11692   1.068   6.593   5.989
 3598SOL    HW111693   1.096   6.649   6.068
 3598SOL    HW211694   1.127   6.513   5.983
 3599SOL     OW11695   5.141   2.181   6.968
 3599SOL    HW111696   5.207   2.202   6.896
 3599SOL    HW211697   5.049   2.180   6.930
 3600SOL     OW11698   0.846   3.096   1.908
 3600SOL    HW111699   0.910   3.021   1.893
 3600SOL    HW211700   0.752   3.064   1.889
 3601SOL     OW11701   4.963   3.211   5.762
 3601SOL    HW111702   5.055   3.201   5.724
 3601SOL    HW211703   4.967   3.267   5.845
 3602SOL     OW11704   0.888   3.910   0.470
 3602SOL    HW111705   0.844   3.999   0.458
 3602SOL    HW211706   0.941   3.910   0.555
 3603SOL     OW11707   3.910   1.120   4.372
 3603SOL    HW111708   3.984   1.122   4.439
 3603SOL    HW211709   3.828   1.162   4.410
 3604SOL     OW11710   6.700   6.125   3.417
 3604SOL    HW111711   6.795   6.096   3.404
 3604SOL    HW211712   6.698   6.202   3.481
 3605SOL     OW11713   0.268   4.408   3.742
 3605SOL    HW111714   0.343   4.343   3.755
 3605SOL    HW211715   0.184   4.368   3.778
 3606SOL     OW11716   0.602   0.207   4.151
 3606SOL    HW111717   0.504   0.221   4.139
 3606SOL    HW211718   0.651   0.294   4.141
 3607SOL     OW11719   5.179   5.194   2.028
 3607SOL    HW111720   5.191   5.246   2.112
 3607SOL    HW211721   5.250   5.219   1.962
 3608SOL     OW11722   4.527   2.166   4.525
 3608SOL    HW111723   4.441   2.180   4.476
 3608SOL    HW211724   4.567   2.255   4.548
 3609SOL     OW11725   1.427   0.070   3.951
 3609SOL    HW111726   1.473   7.021   3.900
 3609SOL    HW211727   1.452   0.065   4.047
 3610SOL     OW11728   1.750   0.440   5.979
 3610SOL    HW111729   1.766   0.380   5.900
 3610SOL    HW211730   1.801   0.406   6.057
 3611SOL     OW11731   4.714   4.914   4.462
 3611SOL    HW111732   4.716   4.868   4.551
 3611SOL    HW211733   4.807   4.940   4.435
 3612SOL     OW11734   0.351   0.494   6.908
 3612SOL    HW111735   0.451   0.489   6.912
 3612SOL    HW211736   0.323   0.584   6.877
 3613SOL     OW11737   4.915   4.672   2.369
 3613SOL    HW111738   5.004   4.644   2.403
 3613SOL    HW211739   4.844   4.613   2.408
 3614SOL     OW11740   3.439   3.862   0.704
 3614SOL    HW111741   3.344   3.833   0.717
 3614SOL    HW211742   3.452   3.893   0.610
 3615SOL     OW11743   5.246   3.496   5.970
 3615SOL    HW111744   5.263   3.585   5.928
 3615SOL    HW211745   5.264   3.502   6.068
 3616SOL     OW11746   0.521   1.235   6.577
 3616SOL    HW111747   0.578   1.310   6.610
 3616SOL    HW211748   0.428   1.268   6.563
 3617SOL     OW11749   4.711   0.854   6.961
 3617SOL    HW111750   4.675   0.933   7.012
 3617SOL    HW211751   4.643   0.825   6.894
 3618SOL     OW11752   2.438   3.270   5.328
 3618SOL    HW111753   2.444   3.186   5.273
 3618SOL    HW211754   2.366   3.259   5.397
 3619SOL     OW11755   6.122   2.692   5.260
 3619SOL    HW111756   6.100   2.761   5.191
 3619SOL    HW211757   6.038   2.662   5.305
 3620SOL     OW11758   6.120   5.510   5.639
 3620SOL    HW111759   6.096   5.519   5.736
 3620SOL    HW211760   6.121   5.413   5.614
 3621SOL     OW11761   3.279   2.715   5.248
 3621SOL    HW111762   3.300   2.759   5.161
 3621SOL    HW211763   3.259   2.618   5.232
 3622SOL     OW11764   1.146   1.733   0.016
 3622SOL    HW111765   1.164   1.750   0.113
 3622SOL    HW211766   1.049   1.748   7.020
 3623SOL     OW11767   6.611   6.074   4.385
 3623SOL    HW111768   6.624   6.021   4.469
 3623SOL    HW211769   6.690   6.132   4.370
 3624SOL     OW11770   1.749   0.030   2.170
 3624SOL    HW111771   1.810   0.106   2.188
 3624SOL    HW211772   1.756   0.004   2.073
 3625SOL     OW11773   0.289   3.120   6.490
 3625SOL    HW111774   0.371   3.150   6.441
 3625SOL    HW211775   0.208   3.153   6.442
 3626SOL     OW11776   1.016   2.867   5.581
 3626SOL    HW111777   1.101   2.836   5.539
 3626SOL    HW211778   0.965   2.923   5.516
 3627SOL     OW11779   3.890   3.011   1.328
 3627SOL    HW111780   3.883   2.980   1.423
 3627SOL    HW211781   3.872   2.934   1.267
 3628SOL     OW11782   0.956   1.518   2.231
 3628SOL    HW111783   0.989   1.612   2.216
 3628SOL    HW211784   1.014   1.454   2.181
 3629SOL     OW11785   0.825   1.147   5.396
 3629SOL    HW111786   0.893   1.210   5.435
 3629SOL    HW211787   0.782   1.095   5.470
 3630SOL     OW11788   5.184   2.390   3.929
 3630SOL    HW111789   5.169   2.332   3.849
 3630SOL    HW211790   5.101   2.441   3.950
 3631SOL     OW11791   2.286   0.768   3.014
 3631SOL    HW111792   2.233   0.796   2.934
 3631SOL    HW211793   2.379   0.745   2.986
 3632SOL     OW11794   5.447   5.217   1.294
 3632SOL    HW111795   5.349   5.230   1.281
 3632SOL    HW211796   5.484   5.159   1.221
 3633SOL     OW11797   3.905   2.253   5.902
 3633SOL    HW111798   3.851   2.333   5.928
 3633SOL    HW211799   3.979   2.281   5.841
 3634SOL     OW11800   1.914   5.592   5.874
 3634SOL    HW111801   1.953   5.617   5.785
 3634SOL    HW211802   1.815   5.590   5.868
 3635SOL     OW11803   3.204   0.120   0.996
 3635SOL    HW111804   3.225   0.113   1.094
 3635SOL    HW211805   3.133   0.189   0.982
 3636SOL     OW11806   6.488   5.776   0.620
 3636SOL    HW111807   6.473   5.848   0.687
 3636SOL    HW211808   6.586   5.766   0.602
 3637SOL     OW11809   0.098   2.631   1.877
 3637SOL    HW111810   0.095   2.731   1.871
 3637SOL    HW211811   0.009   2.597   1.909
 3638SOL     OW11812   0.069   3.867   2.929
 3638SOL    HW111813   0.091   3.927   3.005
 3638SOL    HW211814   0.089   3.913   2.842
 3639SOL     OW11815   4.081   5.019   0.501
 3639SOL    HW111816   4.056   5.042   0.407
 3639SOL    HW211817   4.180   5.030   0.513
 3640SOL     OW11818   4.685   1.195   0.308
 3640SOL    HW111819   4.672   1.294   0.311
 3640SOL    HW211820   4.781   1.175   0.287
 3641SOL     OW11821   6.211   3.663   2.045
 3641SOL    HW111822   6.147   3.736   2.024
 3641SOL    HW211823   6.281   3.696   2.107
 3642SOL     OW11824   4.612   2.256   7.014
 3642SOL    HW111825   4.621   2.159   0.014
 3642SOL    HW211826   4.515   2.282   7.018
 3643SOL     OW11827   3.057   5.674   4.712
 3643SOL    HW111828   3.133   5.675   4.776
 3643SOL    HW211829   2.978   5.720   4.753
 3644SOL     OW11830   2.257   1.505   1.995
 3644SOL    HW111831   2.185   1.452   1.950
 3644SOL    HW211832   2.296   1.571   1.931
 3645SOL     OW11833   1.883   2.301   3.964
 3645SOL    HW111834   1.933   2.381   3.931
 3645SOL    HW211835   1.897   2.291   4.062
 3646SOL     OW11836   1.211   4.066   5.691
 3646SOL    HW111837   1.120   4.055   5.730
 3646SOL    HW211838   1.264   4.128   5.749
 3647SOL     OW11839   2.328   5.732   6.933
 3647SOL    HW111840   2.291   5.824   6.943
 3647SOL    HW211841   2.289   5.689   6.851
 3648SOL     OW11842   4.304   6.135   3.192
 3648SOL    HW111843   4.317   6.212   3.255
 3648SOL    HW211844   4.388   6.118   3.142
 3649SOL     OW11845   6.248   2.894   0.778
 3649SOL    HW111846   6.214   2.831   0.847
 3649SOL    HW211847   6.337   2.864   0.746
 3650SOL     OW11848   6.249   5.225   1.773
 3650SOL    HW111849   6.337   5.273   1.761
 3650SOL    HW211850   6.207   5.255   1.858
 3651SOL     OW11851   1.258   0.536   4.412
 3651SOL    HW111852   1.319   0.515   4.488
 3651SOL    HW211853   1.224   0.629   4.421
 3652SOL     OW11854   6.302   6.901   3.711
 3652SOL    HW111855   6.240   6.910   3.633
 3652SOL    HW211856   6.397   6.904   3.678
 3653SOL     OW11857   1.472   1.746   3.235
 3653SOL    HW111858   1.497   1.763   3.330
 3653SOL    HW211859   1.496   1.826   3.180
 3654SOL     OW11860   3.755   4.824   0.716
 3654SOL    HW111861   3.725   4.828   0.811
 3654SOL    HW211862   3.847   4.862   0.708
 3655SOL     OW11863   3.264   0.495   4.118
 3655SOL    HW111864   3.362   0.499   4.099
 3655SOL    HW211865   3.226   0.588   4.115
 3656SOL     OW11866   0.266   5.355   1.489
 3656SOL    HW111867   0.281   5.434   1.429
 3656SOL    HW211868   0.292   5.272   1.440
 3657SOL     OW11869   4.957   5.894   4.967
 3657SOL    HW111870   5.029   5.839   5.010
 3657SOL    HW211871   4.939   5.859   4.875
 3658SOL     OW11872   2.965   4.749   6.704
 3658SOL    HW111873   2.878   4.707   6.730
 3658SOL    HW211874   2.983   4.827   6.763
 3659SOL     OW11875   1.860   2.562   5.937
 3659SOL    HW111876   1.957   2.565   5.962
 3659SOL    HW211877   1.851   2.532   5.842
 3660SOL     OW11878   6.035   6.720   4.214
 3660SOL    HW111879   6.016   6.728   4.312
 3660SOL    HW211880   6.126   6.680   4.201
 3661SOL     OW11881   0.094   0.891   5.259
 3661SOL    HW111882   0.002   0.857   5.275
 3661SOL    HW211883   0.092   0.989   5.241
 3662SOL     OW11884   4.278   0.618   4.533
 3662SOL    HW111885   4.309   0.524   4.548
 3662SOL    HW211886   4.353   0.672   4.495
 3663SOL     OW11887   1.792   2.958   0.207
 3663SOL    HW111888   1.711   2.977   0.263
 3663SOL    HW211889   1.782   3.002   0.118
 3664SOL     OW11890   4.176   2.249   2.115
 3664SOL    HW111891   4.269   2.254   2.151
 3664SOL    HW211892   4.146   2.341   2.088
 3665SOL     OW11893   0.907   6.558   5.002
 3665SOL    HW111894   0.881   6.548   4.906
 3665SOL    HW211895   0.853   6.631   5.044
 3666SOL     OW11896   0.792   3.982   3.213
 3666SOL    HW111897   0.886   4.001   3.242
 3666SOL    HW211898   0.779   4.011   3.119
 3667SOL     OW11899   6.963   1.578   3.625
 3667SOL    HW111900   6.894   1.651   3.626
 3667SOL    HW211901   0.021   1.608   3.674
 3668SOL     OW11902   1.328   0.643   1.361
 3668SOL    HW111903   1.307   0.741   1.371
 3668SOL    HW211904   1.243   0.592   1.350
 3669SOL     OW11905   5.865   1.668   3.532
 3669SOL    HW111906   5.836   1.624   3.447
 3669SOL    HW211907   5.965   1.677   3.533
 3670SOL     OW11908   2.574   5.305   7.000
 3670SOL    HW111909   2.562   5.312   0.076
 3670SOL    HW211910   2.606   5.393   6.964
 3671SOL     OW11911   7.013   1.887   3.981
 3671SOL    HW111912   7.013   1.934   4.069
 3671SOL    HW211913   6.967   1.943   3.912
 3672SOL     OW11914   4.720   1.955   2.683
 3672SOL    HW111915   4.649   1.951   2.753
 3672SOL    HW211916   4.678   1.968   2.593
 3673SOL     OW11917   3.703   5.926   0.033
 3673SOL    HW111918   3.707   5.889   0.126
 3673SOL    HW211919   3.641   5.869   7.001
 3674SOL     OW11920   1.872   5.961   5.768
 3674SOL    HW111921   1.885   6.037   5.705
 3674SOL    HW211922   1.884   5.874   5.719
 3675SOL     OW11923   1.580   2.618   4.008
 3675SOL    HW111924   1.636   2.609   4.091
 3675SOL    HW211925   1.632   2.586   3.929
 3676SOL     OW11926   5.950   3.866   2.406
 3676SOL    HW111927   6.030   3.919   2.378
 3676SOL    HW211928   5.977   3.798   2.474
 3677SOL     OW11929   3.068   0.091   4.274
 3677SOL    HW111930   3.062   0.002   4.320
 3677SOL    HW211931   2.994   0.099   4.208
 3678SOL     OW11932   1.220   1.387   4.596
 3678SOL    HW111933   1.263   1.344   4.517
 3678SOL    HW211934   1.155   1.323   4.638
 3679SOL     OW11935   0.019   0.454   3.365
 3679SOL    HW111936   6.966   0.441   3.429
 3679SOL    HW211937   0.103   0.472   3.417
 3680SOL     OW11938   4.966   2.753   4.487
 3680SOL    HW111939   4.975   2.757   4.586
 3680SOL    HW211940   4.941   2.843   4.452
 3681SOL     OW11941   0.988   1.005   6.591
 3681SOL    HW111942   1.034   1.013   6.503
 3681SOL    HW211943   0.965   1.097   6.624
 3682SOL     OW11944   5.526   2.151   6.986
 3682SOL    HW111945   5.568   2.061   7.001
 3682SOL    HW211946   5.459   2.144   6.912
 3683SOL     OW11947   0.102   1.121   4.006
 3683SOL    HW111948   0.031   1.142   3.939
 3683SOL    HW211949   0.077   1.039   4.057
 3684SOL     OW11950   1.177   5.374   0.341
 3684SOL    HW111951   1.171   5.339   0.434
 3684SOL    HW211952   1.085   5.399   0.308
 3685SOL     OW11953   1.935   5.737   5.635
 3685SOL    HW111954   2.025   5.767   5.604
 3685SOL    HW211955   1.906   5.658   5.582
 3686SOL     OW11956   5.991   5.489   4.497
 3686SOL    HW111957   6.070   5.491   4.558
 3686SOL    HW211958   6.020   5.509   4.403
 3687SOL     OW11959   4.618   6.279   4.272
 3687SOL    HW111960   4.663   6.359   4.232
 3687SOL    HW211961   4.633   6.278   4.371
 3688SOL     OW11962   6.769   3.413   0.282
 3688SOL    HW111963   6.694   3.349   0.261
 3688SOL    HW211964   6.736   3.506   0.268
 3689SOL     OW11965   2.191   0.812   5.664
 3689SOL    HW111966   2.254   0.882   5.630
 3689SOL    HW211967   2.211   0.792   5.759
 3690SOL     OW11968   4.017   5.455   0.772
 3690SOL    HW111969   3.983   5.392   0.703
 3690SOL    HW211970   3.940   5.508   0.810
 3691SOL     OW11971   2.762   1.715   0.107
 3691SOL    HW111972   2.698   1.774   0.059
 3691SOL    HW211973   2.805   1.765   0.181
 3692SOL     OW11974   6.675   4.944   5.476
 3692SOL    HW111975   6.671   5.001   5.559
 3692SOL    HW211976   6.691   4.849   5.503
 3693SOL     OW11977   1.965   2.104   3.264
 3693SOL    HW111978   2.023   2.081   3.342
 3693SOL    HW211979   2.020   2.106   3.181
 3694SOL     OW11980   1.911   6.691   2.398
 3694SOL    HW111981   1.878   6.707   2.305
 3694SOL    HW211982   1.850   6.628   2.446
 3695SOL     OW11983   5.264   2.422   1.433
 3695SOL    HW111984   5.178   2.388   1.470
 3695SOL    HW211985   5.340   2.368   1.470
 3696SOL     OW11986   4.636   0.257   4.480
 3696SOL    HW111987   4.718   0.199   4.479
 3696SOL    HW211988   4.560   0.208   4.438
 3697SOL     OW11989   7.000   5.985   2.982
 3697SOL    HW111990   7.001   6.080   3.011
 3697SOL    HW211991   6.907   5.958   2.958
 3698SOL     OW11992   2.182   0.896   3.714
 3698SOL    HW111993   2.144   0.899   3.622
 3698SOL    HW211994   2.279   0.920   3.710
 3699SOL     OW11995   2.066   1.237   3.751
 3699SOL    HW111996   2.055   1.299   3.673
 3699SOL    HW211997   2.007   1.157   3.738
 3700SOL     OW11998   1.634   4.579   4.879
 3700SOL    HW111999   1.607   4.595   4.784
 3700SOL    HW212000   1.726   4.615   4.894
 3701SOL     OW12001   1.292   0.058   3.555
 3701SOL    HW112002   1.310   0.136   3.614
 3701SOL    HW212003   1.308   0.083   3.459
 3702SOL     OW12004   5.324   6.470   3.127
 3702SOL    HW112005   5.410   6.521   3.124
 3702SOL    HW212006   5.266   6.508   3.200
 3703SOL     OW12007   0.266   0.703   6.610
 3703SOL    HW112008   0.339   0.643   6.577
 3703SOL    HW212009   0.182   0.650   6.624
 3704SOL     OW12010   4.184   2.328   1.498
 3704SOL    HW112011   4.096   2.328   1.546
 3704SOL    HW212012   4.250   2.383   1.549
 3705SOL     OW12013   5.863   4.455   4.308
 3705SOL    HW112014   5.791   4.385   4.300
 3705SOL    HW212015   5.952   4.413   4.290
 3706SOL     OW12016   0.261   3.928   6.529
 3706SOL    HW112017   0.265   4.027   6.515
 3706SOL    HW212018   0.177   3.904   6.578
 3707SOL     OW12019   4.616   5.449   4.551
 3707SOL    HW112020   4.618   5.524   4.484
 3707SOL    HW212021   4.628   5.487   4.643
 3708SOL     OW12022   4.668   6.777   1.196
 3708SOL    HW112023   4.628   6.742   1.111
 3708SOL    HW212024   4.613   6.853   1.229
 3709SOL     OW12025   3.025   0.508   1.399
 3709SOL    HW112026   2.946   0.455   1.430
 3709SOL    HW212027   3.101   0.446   1.379
 3710SOL     OW12028   0.188   5.361   4.907
 3710SOL    HW112029   0.267   5.304   4.884
 3710SOL    HW212030   0.111   5.302   4.933
 3711SOL     OW12031   1.542   5.643   5.268
 3711SOL    HW112032   1.511   5.725   5.218
 3711SOL    HW212033   1.465   5.605   5.319
 3712SOL     OW12034   1.272   5.700   6.977
 3712SOL    HW112035   1.192   5.759   6.984
 3712SOL    HW212036   1.272   5.634   0.029
 3713SOL     OW12037   0.660   0.107   5.325
 3713SOL    HW112038   0.649   0.137   5.420
 3713SOL    HW212039   0.704   0.180   5.272
 3714SOL     OW12040   5.587   5.509   6.883
 3714SOL    HW112041   5.662   5.450   6.911
 3714SOL    HW212042   5.518   5.513   6.956
 3715SOL     OW12043   1.364   4.451   2.408
 3715SOL    HW112044   1.463   4.454   2.394
 3715SOL    HW212045   1.344   4.398   2.490
 3716SOL     OW12046   6.118   6.257   5.049
 3716SOL    HW112047   6.197   6.195   5.053
 3716SOL    HW212048   6.151   6.352   5.046
 3717SOL     OW12049   5.488   0.523   6.930
 3717SOL    HW112050   5.531   0.535   7.019
 3717SOL    HW212051   5.417   0.453   6.936
 3718SOL     OW12052   6.961   0.242   6.817
 3718SOL    HW112053   6.925   0.158   6.776
 3718SOL    HW212054   6.901   0.270   6.892
 3719SOL     OW12055   4.397   2.710   0.177
 3719SOL    HW112056   4.356   2.751   0.095
 3719SOL    HW212057   4.460   2.775   0.219
 3720SOL     OW12058   5.175   3.259   0.790
 3720SOL    HW112059   5.219   3.251   0.700
 3720SOL    HW212060   5.107   3.186   0.801
 3721SOL     OW12061   0.122   4.764   0.857
 3721SOL    HW112062   0.196   4.791   0.919
 3721SOL    HW212063   0.147   4.787   0.763
 3722SOL     OW12064   5.592   6.260   1.383
 3722SOL    HW112065   5.573   6.351   1.346
 3722SOL    HW212066   5.523   6.237   1.451
 3723SOL     OW12067   4.368   5.024   0.565
 3723SOL    HW112068   4.384   5.117   0.600
 3723SOL    HW212069   4.443   4.964   0.593
 3724SOL     OW12070   1.607   4.138   5.729
 3724SOL    HW112071   1.673   4.095   5.667
 3724SOL    HW212072   1.572   4.069   5.792
 3725SOL     OW12073   0.436   5.964   6.829
 3725SOL    HW112074   0.366   5.943   6.762
 3725SOL    HW212075   0.480   5.879   6.860
 3726SOL     OW12076   5.720   3.477   5.739
 3726SOL    HW112077   5.786   3.409   5.774
 3726SOL    HW212078   5.750   3.568   5.766
 3727SOL     OW12079   6.869   2.830   5.377
 3727SOL    HW112080   6.867   2.734   5.348
 3727SOL    HW212081   6.784   2.875   5.349
 3728SOL     OW12082   1.571   3.515   6.696
 3728SOL    HW112083   1.546   3.589   6.634
 3728SOL    HW212084   1.582   3.430   6.644
 3729SOL     OW12085   1.432   1.810   4.272
 3729SOL    HW112086   1.467   1.874   4.203
 3729SOL    HW212087   1.333   1.801   4.261
 3730SOL     OW12088   3.974   6.110   5.577
 3730SOL    HW112089   3.954   6.146   5.669
 3730SOL    HW212090   3.969   6.011   5.578
 3731SOL     OW12091   0.431   1.393   0.570
 3731SOL    HW112092   0.492   1.431   0.500
 3731SOL    HW212093   0.418   1.295   0.553
 3732SOL     OW12094   2.482   1.926   0.471
 3732SOL    HW112095   2.541   1.994   0.428
 3732SOL    HW212096   2.424   1.883   0.402
 3733SOL     OW12097   2.338   2.197   3.429
 3733SOL    HW112098   2.254   2.143   3.436
 3733SOL    HW212099   2.317   2.288   3.395
 3734SOL     OW12100   4.563   0.220   1.078
 3734SOL    HW112101   4.498   0.282   1.032
 3734SOL    HW212102   4.621   0.272   1.140
 3735SOL     OW12103   2.876   0.641   2.757
 3735SOL    HW112104   2.903   0.642   2.661
 3735SOL    HW212105   2.790   0.691   2.769
 3736SOL     OW12106   0.150   1.573   1.142
 3736SOL    HW112107   0.127   1.505   1.072
 3736SOL    HW212108   0.117   1.663   1.113
 3737SOL     OW12109   6.138   1.194   3.813
 3737SOL    HW112110   6.152   1.226   3.720
 3737SOL    HW212111   6.063   1.245   3.855
 3738SOL     OW12112   6.230   0.569   1.348
 3738SOL    HW112113   6.247   0.644   1.283
 3738SOL    HW212114   6.311   0.511   1.354
 3739SOL     OW12115   2.266   4.616   1.389
 3739SOL    HW112116   2.313   4.528   1.380
 3739SOL    HW212117   2.173   4.608   1.353
 3740SOL     OW12118   6.421   6.065   0.602
 3740SOL    HW112119   6.397   6.138   0.538
 3740SOL    HW212120   6.489   6.098   0.667
 3741SOL     OW12121   5.145   2.522   6.421
 3741SOL    HW112122   5.186   2.540   6.331
 3741SOL    HW212123   5.054   2.565   6.425
 3742SOL     OW12124   4.138   0.383   0.554
 3742SOL    HW112125   4.038   0.381   0.542
 3742SOL    HW212126   4.168   0.297   0.595
 3743SOL     OW12127   5.364   2.971   1.239
 3743SOL    HW112128   5.396   3.016   1.155
 3743SOL    HW212129   5.301   3.032   1.288
 3744SOL     OW12130   1.212   6.022   1.788
 3744SOL    HW112131   1.297   6.001   1.836
 3744SOL    HW212132   1.222   6.109   1.739
 3745SOL     OW12133   5.322   4.110   3.238
 3745SOL    HW112134   5.281   4.083   3.325
 3745SOL    HW212135   5.256   4.165   3.186
 3746SOL     OW12136   6.565   0.485   3.892
 3746SOL    HW112137   6.494   0.434   3.843
 3746SOL    HW212138   6.532   0.506   3.984
 3747SOL     OW12139   4.323   5.819   5.322
 3747SOL    HW112140   4.273   5.903   5.301
 3747SOL    HW212141   4.273   5.740   5.287
 3748SOL     OW12142   5.275   1.300   1.706
 3748SOL    HW112143   5.268   1.388   1.755
 3748SOL    HW212144   5.187   1.279   1.664
 3749SOL     OW12145   2.338   4.935   2.812
 3749SOL    HW112146   2.345   5.033   2.830
 3749SOL    HW212147   2.321   4.921   2.714
 3750SOL     OW12148   6.205   4.521   0.738
 3750SOL    HW112149   6.299   4.553   0.754
 3750SOL    HW212150   6.206   4.422   0.723
 3751SOL     OW12151   6.439   3.300   0.721
 3751SOL    HW112152   6.511   3.361   0.688
 3751SOL    HW212153   6.453   3.208   0.685
 3752SOL     OW12154   0.486   6.841   0.340
 3752SOL    HW112155   0.504   6.807   0.432
 3752SOL    HW212156   0.388   6.846   0.324
 3753SOL     OW12157   6.825   1.113   4.205
 3753SOL    HW112158   6.894   1.044   4.227
 3753SOL    HW212159   6.869   1.199   4.179
 3754SOL     OW12160   4.065   6.303   1.279
 3754SOL    HW112161   3.999   6.230   1.298
 3754SOL    HW212162   4.043   6.383   1.334
 3755SOL     OW12163   5.990   5.827   4.491
 3755SOL    HW112164   5.950   5.747   4.447
 3755SOL    HW212165   5.928   5.905   4.480
 3756SOL     OW12166   2.231   6.496   5.601
 3756SOL    HW112167   2.236   6.410   5.550
 3756SOL    HW212168   2.149   6.495   5.658
 3757SOL     OW12169   3.708   6.760   6.475
 3757SOL    HW112170   3.707   6.667   6.513
 3757SOL    HW212171   3.622   6.776   6.426
 3758SOL     OW12172   1.965   1.414   4.624
 3758SOL    HW112173   1.933   1.452   4.537
 3758SOL    HW212174   1.931   1.321   4.634
 3759SOL     OW12175   4.760   5.664   6.433
 3759SOL    HW112176   4.829   5.696   6.369
 3759SOL    HW212177   4.682   5.727   6.433
 3760SOL     OW12178   1.740   2.607   4.255
 3760SOL    HW112179   1.835   2.597   4.225
 3760SOL    HW212180   1.733   2.685   4.317
 3761SOL     OW12181   0.866   0.452   5.376
 3761SOL    HW112182   0.962   0.425   5.374
 3761SOL    HW212183   0.822   0.412   5.457
 3762SOL     OW12184   0.722   5.167   7.004
 3762SOL    HW112185   0.655   5.241   7.010
 3762SOL    HW212186   0.680   5.081   0.011
 3763SOL     OW12187   6.588   4.577   6.773
 3763SOL    HW112188   6.648   4.509   6.815
 3763SOL    HW212189   6.512   4.598   6.835
 3764SOL     OW12190   1.825   0.045   3.506
 3764SOL    HW112191   1.742   7.012   3.513
 3764SOL    HW212192   1.905   7.008   3.500
 3765SOL     OW12193   5.012   1.611   0.974
 3765SOL    HW112194   5.054   1.700   0.988
 3765SOL    HW212195   5.056   1.544   1.033
 3766SOL     OW12196   0.863   1.356   3.507
 3766SOL    HW112197   0.797   1.425   3.478
 3766SOL    HW212198   0.939   1.399   3.555
 3767SOL     OW12199   2.298   5.272   0.068
 3767SOL    HW112200   2.256   5.354   0.104
 3767SOL    HW212201   2.356   5.295   7.012
 3768SOL     OW12202   2.078   5.998   4.944
 3768SOL    HW112203   1.989   6.012   4.987
 3768SOL    HW212204   2.067   5.937   4.865
 3769SOL     OW12205   5.548   5.770   5.291
 3769SOL    HW112206   5.584   5.802   5.379
 3769SOL    HW212207   5.535   5.671   5.295
 3770SOL     OW12208   1.866   6.608   6.826
 3770SOL    HW112209   1.883   6.603   6.925
 3770SOL    HW212210   1.845   6.703   6.801
 3771SOL     OW12211   6.304   3.169   6.576
 3771SOL    HW112212   6.295   3.168   6.675
 3771SOL    HW212213   6.244   3.098   6.537
 3772SOL     OW12214   0.114   0.790   0.333
 3772SOL    HW112215   0.049   0.742   0.275
 3772SOL    HW212216   0.068   0.864   0.382
 3773SOL     OW12217   6.549   2.768   6.498
 3773SOL    HW112218   6.605   2.686   6.515
 3773SOL    HW212219   6.591   2.846   6.543
 3774SOL     OW12220   0.448   5.898   0.419
 3774SOL    HW112221   0.460   5.806   0.382
 3774SOL    HW212222   0.514   5.960   0.376
 3775SOL     OW12223   5.099   4.981   2.258
 3775SOL    HW112224   5.080   5.063   2.312
 3775SOL    HW212225   5.169   5.001   2.189
 3776SOL     OW12226   4.210   1.342   1.137
 3776SOL    HW112227   4.166   1.409   1.197
 3776SOL    HW212228   4.153   1.260   1.131
 3777SOL     OW12229   3.381   5.035   4.952
 3777SOL    HW112230   3.307   5.095   4.922
 3777SOL    HW212231   3.345   4.966   5.015
 3778SOL     OW12232   3.188   4.918   2.927
 3778SOL    HW112233   3.210   4.890   2.834
 3778SOL    HW212234   3.142   5.007   2.925
 3779SOL     OW12235   2.219   5.033   1.028
 3779SOL    HW112236   2.305   5.084   1.034
 3779SOL    HW212237   2.216   4.964   1.101
 3780SOL     OW12238   4.803   6.018   6.195
 3780SOL    HW112239   4.728   6.000   6.131
 3780SOL    HW212240   4.853   5.934   6.212
 3781SOL     OW12241   1.599   0.061   4.180
 3781SOL    HW112242   1.695   0.089   4.189
 3781SOL    HW212243   1.580   7.009   4.244
 3782SOL     OW12244   2.558   1.058   4.570
 3782SOL    HW112245   2.550   1.156   4.587
 3782SOL    HW212246   2.649   1.039   4.532
 3783SOL     OW12247   5.489   5.963   4.260
 3783SOL    HW112248   5.484   6.041   4.323
 3783SOL    HW212249   5.571   5.970   4.204
 3784SOL     OW12250   5.220   2.767   3.012
 3784SOL    HW112251   5.167   2.729   2.937
 3784SOL    HW212252   5.230   2.866   2.999
 3785SOL     OW12253   1.181   1.432   6.995
 3785SOL    HW112254   1.201   1.519   0.017
 3785SOL    HW212255   1.094   1.396   0.007
 3786SOL     OW12256   2.387   6.726   2.845
 3786SOL    HW112257   2.341   6.638   2.852
 3786SOL    HW212258   2.359   6.772   2.761
 3787SOL     OW12259   5.899   0.232   2.705
 3787SOL    HW112260   5.813   0.227   2.653
 3787SOL    HW212261   5.925   0.141   2.735
 3788SOL     OW12262   1.230   3.889   4.279
 3788SOL    HW112263   1.329   3.878   4.285
 3788SOL    HW212264   1.185   3.817   4.332
 3789SOL     OW12265   0.517   3.480   4.752
 3789SOL    HW112266   0.443   3.534   4.712
 3789SOL    HW212267   0.601   3.535   4.754
 3790SOL     OW12268   1.893   4.465   5.530
 3790SOL    HW112269   1.815   4.463   5.592
 3790SOL    HW212270   1.863   4.494   5.439
 3791SOL     OW12271   6.399   6.790   0.224
 3791SOL    HW112272   6.432   6.877   0.188
 3791SOL    HW212273   6.376   6.800   0.321
 3792SOL     OW12274   0.591   0.815   4.426
 3792SOL    HW112275   0.619   0.910   4.440
 3792SOL    HW212276   0.647   0.754   4.482
 3793SOL     OW12277   4.320   0.375   2.486
 3793SOL    HW112278   4.297   0.283   2.453
 3793SOL    HW212279   4.322   0.375   2.586
 3794SOL     OW12280   2.260   4.251   0.880
 3794SOL    HW112281   2.233   4.317   0.809
 3794SOL    HW212282   2.235   4.159   0.851
 3795SOL     OW12283   3.521   6.293   6.106
 3795SOL    HW112284   3.478   6.298   6.016
 3795SOL    HW212285   3.487   6.213   6.155
 3796SOL     OW12286   3.202   1.840   0.944
 3796SOL    HW112287   3.144   1.899   1.000
 3796SOL    HW212288   3.294   1.878   0.940
 3797SOL     OW12289   6.380   4.255   2.711
 3797SOL    HW112290   6.281   4.246   2.700
 3797SOL    HW212291   6.424   4.263   2.622
 3798SOL     OW12292   3.828   6.075   2.807
 3798SOL    HW112293   3.914   6.099   2.762
 3798SOL    HW212294   3.786   6.158   2.845
 3799SOL     OW12295   0.509   2.364   4.024
 3799SOL    HW112296   0.542   2.372   3.930
 3799SOL    HW212297   0.440   2.292   4.030
 3800SOL     OW12298   5.908   3.104   4.425
 3800SOL    HW112299   5.851   3.080   4.504
 3800SOL    HW212300   5.885   3.196   4.394
 3801SOL     OW12301   6.192   6.355   3.179
 3801SOL    HW112302   6.172   6.277   3.120
 3801SOL    HW212303   6.244   6.324   3.258
 3802SOL     OW12304   1.071   2.725   3.218
 3802SOL    HW112305   1.169   2.733   3.236
 3802SOL    HW212306   1.045   2.793   3.149
 3803SOL     OW12307   3.963   2.085   1.378
 3803SOL    HW112308   3.958   1.989   1.349
 3803SOL    HW212309   3.876   2.111   1.422
 3804SOL     OW12310   5.228   1.973   3.448
 3804SOL    HW112311   5.240   1.922   3.533
 3804SOL    HW212312   5.152   2.038   3.459
 3805SOL     OW12313   2.899   3.608   1.843
 3805SOL    HW112314   2.861   3.651   1.760
 3805SOL    HW212315   2.879   3.510   1.842
 3806SOL     OW12316   3.436   3.998   0.146
 3806SOL    HW112317   3.358   3.999   0.084
 3806SOL    HW212318   3.512   4.049   0.106
 3807SOL     OW12319   2.495   6.551   3.583
 3807SOL    HW112320   2.417   6.602   3.619
 3807SOL    HW212321   2.580   6.591   3.618
 3808SOL     OW12322   4.364   0.379   0.970
 3808SOL    HW112323   4.272   0.418   0.965
 3808SOL    HW212324   4.426   0.435   0.915
 3809SOL     OW12325   5.796   2.706   0.692
 3809SOL    HW112326   5.848   2.777   0.645
 3809SOL    HW212327   5.746   2.650   0.626
 3810SOL     OW12328   4.575   2.249   5.106
 3810SOL    HW112329   4.657   2.298   5.137
 3810SOL    HW212330   4.553   2.178   5.173
 3811SOL     OW12331   1.196   4.238   4.035
 3811SOL    HW112332   1.295   4.222   4.034
 3811SOL    HW212333   1.178   4.336   4.036
 3812SOL     OW12334   4.930   0.326   5.165
 3812SOL    HW112335   4.897   0.392   5.233
 3812SOL    HW212336   4.940   0.372   5.077
 3813SOL     OW12337   4.564   3.904   0.045
 3813SOL    HW112338   4.659   3.894   0.016
 3813SOL    HW212339   4.560   3.958   0.129
 3814SOL     OW12340   0.446   6.999   1.047
 3814SOL    HW112341   0.499   0.033   1.110
 3814SOL    HW212342   0.447   0.019   0.956
 3815SOL     OW12343   4.557   2.912   0.348
 3815SOL    HW112344   4.619   2.879   0.277
 3815SOL    HW212345   4.570   2.856   0.431
 3816SOL     OW12346   0.604   6.088   0.341
 3816SOL    HW112347   0.584   6.174   0.387
 3816SOL    HW212348   0.675   6.104   0.272
 3817SOL     OW12349   5.221   3.580   3.359
 3817SOL    HW112350   5.219   3.604   3.262
 3817SOL    HW212351   5.311   3.545   3.383
 3818SOL     OW12352   5.167   0.259   0.208
 3818SOL    HW112353   5.099   0.243   0.279
 3818SOL    HW212354   5.241   0.192   0.217
 3819SOL     OW12355   5.191   5.182   1.218
 3819SOL    HW112356   5.110   5.123   1.215
 3819SOL    HW212357   5.207   5.220   1.126
 3820SOL     OW12358   6.628   6.705   3.215
 3820SOL    HW112359   6.658   6.777   3.278
 3820SOL    HW212360   6.598   6.746   3.129
 3821SOL     OW12361   2.615   2.392   0.478
 3821SOL    HW112362   2.663   2.476   0.502
 3821SOL    HW212363   2.660   2.314   0.521
 3822SOL     OW12364   1.593   6.182   3.021
 3822SOL    HW112365   1.589   6.184   3.121
 3822SOL    HW212366   1.594   6.275   2.986
 3823SOL     OW12367   3.681   2.518   5.823
 3823SOL    HW112368   3.620   2.441   5.842
 3823SOL    HW212369   3.724   2.505   5.734
 3824SOL     OW12370   5.902   1.721   6.957
 3824SOL    HW112371   5.916   1.813   6.920
 3824SOL    HW212372   5.938   1.654   6.893
 3825SOL     OW12373   0.515   6.935   0.678
 3825SOL    HW112374   0.447   6.862   0.673
 3825SOL    HW212375   0.574   6.920   0.757
 3826SOL     OW12376   0.278   3.177   0.240
 3826SOL    HW112377   0.306   3.272   0.251
 3826SOL    HW212378   0.236   3.144   0.325
 3827SOL     OW12379   3.119   2.733   1.155
 3827SOL    HW112380   3.052   2.718   1.228
 3827SOL    HW212381   3.212   2.720   1.192
 3828SOL     OW12382   4.014   2.426   1.733
 3828SOL    HW112383   3.994   2.356   1.802
 3828SOL    HW212384   3.928   2.461   1.696
 3829SOL     OW12385   2.157   4.132   4.464
 3829SOL    HW112386   2.151   4.076   4.547
 3829SOL    HW212387   2.128   4.078   4.385
 3830SOL     OW12388   0.777   0.004   4.796
 3830SOL    HW112389   0.867   0.045   4.781
 3830SOL    HW212390   0.788   6.929   4.813
 3831SOL     OW12391   4.720   1.562   2.590
 3831SOL    HW112392   4.622   1.542   2.580
 3831SOL    HW212393   4.739   1.592   2.683
 3832SOL     OW12394   5.747   0.524   2.271
 3832SOL    HW112395   5.703   0.566   2.350
 3832SOL    HW212396   5.844   0.547   2.270
 3833SOL     OW12397   0.968   5.854   6.074
 3833SOL    HW112398   0.980   5.950   6.047
 3833SOL    HW212399   1.054   5.820   6.113
 3834SOL     OW12400   3.436   2.799   0.992
 3834SOL    HW112401   3.526   2.756   1.001
 3834SOL    HW212402   3.375   2.767   1.064
 3835SOL     OW12403   3.099   5.129   5.135
 3835SOL    HW112404   3.111   5.145   5.037
 3835SOL    HW212405   3.050   5.206   5.175
 3836SOL     OW12406   1.908   3.727   5.706
 3836SOL    HW112407   1.902   3.627   5.703
 3836SOL    HW212408   1.880   3.760   5.795
 3837SOL     OW12409   4.883   3.601   0.021
 3837SOL    HW112410   4.871   3.559   0.111
 3837SOL    HW212411   4.903   3.529   6.976
 3838SOL     OW12412   6.922   3.964   4.118
 3838SOL    HW112413   6.973   4.030   4.174
 3838SOL    HW212414   6.879   4.012   4.041
 3839SOL     OW12415   4.177   0.752   4.301
 3839SOL    HW112416   4.185   0.732   4.398
 3839SOL    HW212417   4.094   0.805   4.284
 3840SOL     OW12418   1.861   0.870   5.225
 3840SOL    HW112419   1.787   0.930   5.196
 3840SOL    HW212420   1.933   0.924   5.268
 3841SOL     OW12421   0.421   3.305   4.951
 3841SOL    HW112422   0.430   3.327   5.048
 3841SOL    HW212423   0.471   3.373   4.897
 3842SOL     OW12424   0.832   4.502   6.591
 3842SOL    HW112425   0.890   4.421   6.596
 3842SOL    HW212426   0.778   4.509   6.675
 3843SOL     OW12427   0.197   4.991   1.945
 3843SOL    HW112428   0.099   4.996   1.924
 3843SOL    HW212429   0.230   5.082   1.970
 3844SOL     OW12430   6.899   3.706   6.186
 3844SOL    HW112431   6.988   3.673   6.156
 3844SOL    HW212432   6.873   3.785   6.130
 3845SOL     OW12433   3.829   2.978   3.045
 3845SOL    HW112434   3.789   2.959   3.134
 3845SOL    HW212435   3.924   3.008   3.056
 3846SOL     OW12436   0.515   4.464   4.013
 3846SOL    HW112437   0.498   4.373   3.977
 3846SOL    HW212438   0.429   4.517   4.012
 3847SOL     OW12439   5.973   1.244   5.258
 3847SOL    HW112440   6.012   1.155   5.236
 3847SOL    HW212441   5.909   1.272   5.187
 3848SOL     OW12442   3.174   5.510   2.757
 3848SOL    HW112443   3.079   5.533   2.736
 3848SOL    HW212444   3.177   5.455   2.840
 3849SOL     OW12445   0.822   1.688   5.044
 3849SOL    HW112446   0.736   1.718   5.004
 3849SOL    HW212447   0.822   1.589   5.056
 3850SOL     OW12448   2.529   3.300   1.491
 3850SOL    HW112449   2.557   3.349   1.574
 3850SOL    HW212450   2.578   3.336   1.412
 3851SOL     OW12451   1.042   4.219   3.312
 3851SOL    HW112452   1.050   4.126   3.275
 3851SOL    HW212453   1.084   4.222   3.403
 3852SOL     OW12454   4.586   6.667   4.242
 3852SOL    HW112455   4.537   6.653   4.156
 3852SOL    HW212456   4.679   6.629   4.234
 3853SOL     OW12457   1.661   3.023   2.478
 3853SOL    HW112458   1.570   3.059   2.496
 3853SOL    HW212459   1.715   3.092   2.429
 3854SOL     OW12460   1.144   3.820   2.714
 3854SOL    HW112461   1.242   3.837   2.704
 3854SOL    HW212462   1.109   3.871   2.792
 3855SOL     OW12463   4.777   5.916   6.867
 3855SOL    HW112464   4.747   6.003   6.828
 3855SOL    HW212465   4.697   5.857   6.880
 3856SOL     OW12466   6.946   6.392   5.403
 3856SOL    HW112467   6.881   6.355   5.469
 3856SOL    HW212468   6.897   6.420   5.321
 3857SOL     OW12469   0.998   6.206   5.807
 3857SOL    HW112470   0.976   6.200   5.904
 3857SOL    HW212471   0.933   6.267   5.762
 3858SOL     OW12472   1.551   6.334   5.570
 3858SOL    HW112473   1.536   6.433   5.573
 3858SOL    HW212474   1.626   6.314   5.507
 3859SOL     OW12475   6.774   2.445   2.611
 3859SOL    HW112476   6.681   2.468   2.642
 3859SOL    HW212477   6.836   2.444   2.689
 3860SOL     OW12478   1.428   0.072   5.354
 3860SOL    HW112479   1.410   0.118   5.267
 3860SOL    HW212480   1.498   0.002   5.341
 3861SOL     OW12481   4.873   4.227   1.953
 3861SOL    HW112482   4.924   4.304   1.991
 3861SOL    HW212483   4.837   4.171   2.027
 3862SOL     OW12484   0.124   6.671   5.263
 3862SOL    HW112485   0.204   6.627   5.304
 3862SOL    HW212486   0.149   6.712   5.176
 3863SOL     OW12487   3.545   4.298   6.279
 3863SOL    HW112488   3.446   4.306   6.263
 3863SOL    HW212489   3.569   4.349   6.362
 3864SOL     OW12490   4.270   1.851   5.728
 3864SOL    HW112491   4.181   1.824   5.690
 3864SOL    HW212492   4.255   1.914   5.804
 3865SOL     OW12493   3.741   0.471   1.574
 3865SOL    HW112494   3.826   0.444   1.530
 3865SOL    HW212495   3.758   0.495   1.669
 3866SOL     OW12496   4.073   0.769   0.930
 3866SOL    HW112497   4.086   0.717   0.846
 3866SOL    HW212498   4.144   0.745   0.996
 3867SOL     OW12499   1.458   3.286   4.298
 3867SOL    HW112500   1.452   3.384   4.321
 3867SOL    HW212501   1.442   3.275   4.200
 3868SOL     OW12502   1.972   6.325   1.802
 3868SOL    HW112503   2.051   6.314   1.862
 3868SOL    HW212504   1.962   6.244   1.745
 3869SOL     OW12505   6.793   3.027   4.444
 3869SOL    HW112506   6.756   2.993   4.357
 3869SOL    HW212507   6.768   2.964   4.518
 3870SOL     OW12508   4.716   4.646   0.806
 3870SOL    HW112509   4.657   4.647   0.725
 3870SOL    HW212510   4.810   4.669   0.779
 3871SOL     OW12511   3.140   0.912   2.376
 3871SOL    HW112512   3.191   0.961   2.446
 3871SOL    HW212513   3.197   0.904   2.293
 3872SOL     OW12514   2.943   3.174   2.106
 3872SOL    HW112515   3.007   3.144   2.176
 3872SOL    HW212516   2.887   3.096   2.076
 3873SOL     OW12517   5.806   5.650   1.344
 3873SOL    HW112518   5.741   5.575   1.354
 3873SOL    HW212519   5.828   5.687   1.434
 3874SOL     OW12520   4.151   6.266   0.179
 3874SOL    HW112521   4.082   6.195   0.171
 3874SOL    HW212522   4.132   6.322   0.260
 3875SOL     OW12523   1.289   2.885   2.288
 3875SOL    HW112524   1.330   2.949   2.223
 3875SOL    HW212525   1.303   2.917   2.381
 3876SOL     OW12526   5.627   5.306   6.224
 3876SOL    HW112527   5.714   5.277   6.184
 3876SOL    HW212528   5.626   5.406   6.232
 3877SOL     OW12529   6.928   1.494   0.603
 3877SOL    HW112530   6.913   1.507   0.505
 3877SOL    HW212531   6.858   1.433   0.639
 3878SOL     OW12532   2.490   6.179   5.771
 3878SOL    HW112533   2.444   6.116   5.833
 3878SOL    HW212534   2.450   6.270   5.780
 3879SOL     OW12535   4.331   6.282   1.389
 3879SOL    HW112536   4.378   6.342   1.324
 3879SOL    HW212537   4.232   6.297   1.382
 3880SOL     OW12538   5.803   3.934   3.140
 3880SOL    HW112539   5.833   3.911   3.232
 3880SOL    HW212540   5.878   3.923   3.075
 3881SOL     OW12541   1.479   5.365   0.962
 3881SOL    HW112542   1.447   5.451   1.002
 3881SOL    HW212543   1.405   5.297   0.966
 3882SOL     OW12544   6.383   1.148   5.034
 3882SOL    HW112545   6.318   1.188   5.098
 3882SOL    HW212546   6.442   1.084   5.083
 3883SOL     OW12547   4.489   1.553   3.977
 3883SOL    HW112548   4.457   1.612   3.903
 3883SOL    HW212549   4.426   1.475   3.986
 3884SOL     OW12550   1.087   6.450   4.618
 3884SOL    HW112551   1.085   6.352   4.638
 3884SOL    HW212552   1.177   6.476   4.584
 3885SOL     OW12553   6.641   1.179   4.707
 3885SOL    HW112554   6.646   1.177   4.607
 3885SOL    HW212555   6.610   1.269   4.737
 3886SOL     OW12556   5.976   0.336   5.496
 3886SOL    HW112557   6.035   0.416   5.484
 3886SOL    HW212558   5.945   0.303   5.407
 3887SOL     OW12559   5.710   2.192   5.447
 3887SOL    HW112560   5.711   2.123   5.375
 3887SOL    HW212561   5.677   2.150   5.532
 3888SOL     OW12562   0.102   0.470   6.361
 3888SOL    HW112563   0.023   0.419   6.394
 3888SOL    HW212564   0.104   0.560   6.404
 3889SOL     OW12565   0.089   4.598   6.261
 3889SOL    HW112566   0.128   4.545   6.336
 3889SOL    HW212567   0.003   4.639   6.290
 3890SOL     OW12568   6.573   6.587   2.860
 3890SOL    HW112569   6.502   6.533   2.905
 3890SOL    HW212570   6.566   6.575   2.761
 3891SOL     OW12571   5.097   4.486   4.944
 3891SOL    HW112572   5.030   4.549   4.903
 3891SOL    HW212573   5.166   4.463   4.875
 3892SOL     OW12574   1.221   0.342   2.340
 3892SOL    HW112575   1.163   0.370   2.417
 3892SOL    HW212576   1.233   0.242   2.343
 3893SOL     OW12577   3.422   5.863   2.980
 3893SOL    HW112578   3.420   5.775   3.029
 3893SOL    HW212579   3.368   5.856   2.896
 3894SOL     OW12580   4.024   2.271   0.523
 3894SOL    HW112581   3.982   2.353   0.562
 3894SOL    HW212582   3.962   2.194   0.533
 3895SOL     OW12583   1.094   1.004   5.553
 3895SOL    HW112584   1.099   1.100   5.525
 3895SOL    HW212585   1.053   0.950   5.479
 3896SOL     OW12586   0.835   2.383   6.319
 3896SOL    HW112587   0.821   2.408   6.223
 3896SOL    HW212588   0.816   2.462   6.377
 3897SOL     OW12589   2.989   6.354   2.502
 3897SOL    HW112590   2.986   6.313   2.594
 3897SOL    HW212591   2.959   6.287   2.435
 3898SOL     OW12592   3.229   3.038   3.524
 3898SOL    HW112593   3.165   3.069   3.593
 3898SOL    HW212594   3.315   3.011   3.568
 3899SOL     OW12595   5.038   1.266   4.830
 3899SOL    HW112596   4.986   1.317   4.762
 3899SOL    HW212597   5.127   1.310   4.844
 3900SOL     OW12598   5.770   2.703   3.149
 3900SOL    HW112599   5.807   2.671   3.236
 3900SOL    HW212600   5.821   2.660   3.074
 3901SOL     OW12601   1.784   6.319   5.424
 3901SOL    HW112602   1.833   6.233   5.434
 3901SOL    HW212603   1.836   6.380   5.363
 3902SOL     OW12604   5.111   4.209   3.062
 3902SOL    HW112605   5.048   4.174   2.993
 3902SOL    HW212606   5.089   4.305   3.081
 3903SOL     OW12607   4.423   3.886   6.785
 3903SOL    HW112608   4.394   3.844   6.870
 3903SOL    HW212609   4.393   3.981   6.782
 3904SOL     OW12610   1.068   6.751   0.210
 3904SOL    HW112611   1.093   6.812   0.285
 3904SOL    HW212612   1.094   6.792   0.123
 3905SOL     OW12613   6.289   6.323   6.454
 3905SOL    HW112614   6.274   6.265   6.374
 3905SOL    HW212615   6.207   6.322   6.512
 3906SOL     OW12616   1.833   4.539   4.431
 3906SOL    HW112617   1.925   4.553   4.468
 3906SOL    HW212618   1.810   4.614   4.369
 3907SOL     OW12619   0.311   1.031   4.983
 3907SOL    HW112620   0.382   0.962   4.969
 3907SOL    HW212621   0.265   1.016   5.070
 3908SOL     OW12622   0.926   0.543   5.846
 3908SOL    HW112623   0.991   0.487   5.795
 3908SOL    HW212624   0.902   0.497   5.932
 3909SOL     OW12625   5.369   3.561   6.212
 3909SOL    HW112626   5.457   3.608   6.203
 3909SOL    HW212627   5.318   3.601   6.288
 3910SOL     OW12628   3.721   3.905   2.092
 3910SOL    HW112629   3.726   3.858   2.180
 3910SOL    HW212630   3.813   3.920   2.056
 3911SOL     OW12631   5.625   0.320   1.017
 3911SOL    HW112632   5.717   0.285   0.999
 3911SOL    HW212633   5.564   0.244   1.042
 3912SOL     OW12634   3.047   1.199   5.870
 3912SOL    HW112635   2.994   1.276   5.834
 3912SOL    HW212636   3.049   1.125   5.803
 3913SOL     OW12637   3.921   6.099   0.182
 3913SOL    HW112638   3.863   6.088   0.100
 3913SOL    HW212639   3.874   6.157   0.248
 3914SOL     OW12640   5.353   1.773   1.666
 3914SOL    HW112641   5.424   1.839   1.641
 3914SOL    HW212642   5.280   1.819   1.715
 3915SOL     OW12643   3.149   6.576   0.460
 3915SOL    HW112644   3.198   6.599   0.376
 3915SOL    HW212645   3.189   6.494   0.500
 3916SOL     OW12646   3.496   0.234   3.027
 3916SOL    HW112647   3.493   0.324   3.071
 3916SOL    HW212648   3.432   0.172   3.074
 3917SOL     OW12649   2.411   5.235   0.561
 3917SOL    HW112650   2.501   5.247   0.602
 3917SOL    HW212651   2.355   5.317   0.578
 3918SOL     OW12652   4.832   1.401   0.576
 3918SOL    HW112653   4.907   1.336   0.585
 3918SOL    HW212654   4.838   1.449   0.489
 3919SOL     OW12655   4.311   1.047   1.098
 3919SOL    HW112656   4.226   1.065   1.048
 3919SOL    HW212657   4.300   1.076   1.193
 3920SOL     OW12658   2.813   1.335   7.008
 3920SOL    HW112659   2.805   1.341   0.084
 3920SOL    HW212660   2.838   1.424   6.970
 3921SOL     OW12661   6.794   2.858   6.840
 3921SOL    HW112662   6.737   2.896   6.767
 3921SOL    HW212663   6.818   2.930   6.904
 3922SOL     OW12664   4.695   4.758   2.055
 3922SOL    HW112665   4.734   4.677   2.013
 3922SOL    HW212666   4.595   4.751   2.057
 3923SOL     OW12667   6.069   0.753   1.575
 3923SOL    HW112668   5.975   0.756   1.540
 3923SOL    HW212669   6.095   0.658   1.591
 3924SOL     OW12670   6.882   4.651   3.667
 3924SOL    HW112671   6.926   4.564   3.690
 3924SOL    HW212672   6.950   4.724   3.670
 3925SOL     OW12673   4.141   4.213   0.850
 3925SOL    HW112674   4.085   4.256   0.779
 3925SOL    HW212675   4.083   4.190   0.928
 3926SOL     OW12676   1.126   0.398   5.708
 3926SOL    HW112677   1.203   0.343   5.740
 3926SOL    HW212678   1.099   0.368   5.617
 3927SOL     OW12679   0.425   3.294   4.378
 3927SOL    HW112680   0.421   3.211   4.434
 3927SOL    HW212681   0.374   3.280   4.293
 3928SOL     OW12682   2.949   6.550   2.869
 3928SOL    HW112683   2.868   6.608   2.880
 3928SOL    HW212684   3.025   6.605   2.834
 3929SOL     OW12685   6.815   1.784   6.730
 3929SOL    HW112686   6.868   1.779   6.646
 3929SOL    HW212687   6.772   1.874   6.737
 3930SOL     OW12688   1.323   2.190   4.013
 3930SOL    HW112689   1.405   2.242   4.037
 3930SOL    HW212690   1.248   2.253   3.993
 3931SOL     OW12691   1.644   1.822   1.854
 3931SOL    HW112692   1.663   1.796   1.948
 3931SOL    HW212693   1.579   1.899   1.853
 3932SOL     OW12694   2.007   5.717   3.368
 3932SOL    HW112695   1.999   5.620   3.390
 3932SOL    HW212696   2.059   5.763   3.440
 3933SOL     OW12697   1.061   5.316   0.607
 3933SOL    HW112698   1.083   5.388   0.673
 3933SOL    HW212699   0.986   5.259   0.643
 3934SOL     OW12700   0.512   1.618   2.986
 3934SOL    HW112701   0.454   1.545   2.949
 3934SOL    HW212702   0.457   1.701   2.998
 3935SOL     OW12703   6.166   2.962   6.445
 3935SOL    HW112704   6.223   2.881   6.458
 3935SOL    HW212705   6.081   2.935   6.399
 3936SOL     OW12706   6.970   5.827   4.920
 3936SOL    HW112707   7.017   5.740   4.935
 3936SOL    HW212708   6.880   5.810   4.879
 3937SOL     OW12709   0.644   5.229   2.687
 3937SOL    HW112710   0.595   5.144   2.708
 3937SOL    HW212711   0.720   5.209   2.625
 3938SOL     OW12712   0.028   3.546   4.757
 3938SOL    HW112713   7.022   3.578   4.847
 3938SOL    HW212714   0.113   3.591   4.731
 3939SOL     OW12715   1.030   1.436   2.478
 3939SOL    HW112716   1.023   1.336   2.486
 3939SOL    HW212717   1.026   1.461   2.381
 3940SOL     OW12718   2.975   4.689   1.669
 3940SOL    HW112719   2.956   4.773   1.720
 3940SOL    HW212720   2.975   4.611   1.732
 3941SOL     OW12721   6.186   6.993   4.197
 3941SOL    HW112722   6.126   0.011   4.128
 3941SOL    HW212723   6.238   6.919   4.156
 3942SOL     OW12724   1.429   6.638   6.173
 3942SOL    HW112725   1.350   6.578   6.164
 3942SOL    HW212726   1.513   6.584   6.179
 3943SOL     OW12727   0.942   4.039   2.055
 3943SOL    HW112728   0.993   4.110   2.102
 3943SOL    HW212729   0.851   4.073   2.032
 3944SOL     OW12730   5.721   2.828   6.741
 3944SOL    HW112731   5.809   2.826   6.788
 3944SOL    HW212732   5.647   2.817   6.808
 3945SOL     OW12733   1.041   2.116   3.177
 3945SOL    HW112734   1.056   2.214   3.190
 3945SOL    HW212735   1.024   2.097   3.080
 3946SOL     OW12736   6.651   3.672   0.437
 3946SOL    HW112737   6.733   3.721   0.407
 3946SOL    HW212738   6.579   3.682   0.368
 3947SOL     OW12739   5.776   5.953   0.551
 3947SOL    HW112740   5.815   5.881   0.494
 3947SOL    HW212741   5.764   5.918   0.645
 3948SOL     OW12742   2.050   3.018   6.716
 3948SOL    HW112743   2.053   2.934   6.770
 3948SOL    HW212744   2.093   3.092   6.767
 3949SOL     OW12745   6.561   6.575   2.597
 3949SOL    HW112746   6.483   6.632   2.569
 3949SOL    HW212747   6.603   6.535   2.516
 3950SOL     OW12748   4.184   4.005   1.779
 3950SOL    HW112749   4.132   4.016   1.864
 3950SOL    HW212750   4.280   4.029   1.794
 3951SOL     OW12751   0.341   2.193   5.693
 3951SOL    HW112752   0.280   2.247   5.636
 3951SOL    HW212753   0.429   2.181   5.646
 3952SOL     OW12754   5.693   2.229   4.886
 3952SOL    HW112755   5.769   2.163   4.882
 3952SOL    HW212756   5.729   2.321   4.875
 3953SOL     OW12757   3.224   3.968   6.191
 3953SOL    HW112758   3.183   3.998   6.105
 3953SOL    HW212759   3.163   3.992   6.267
 3954SOL     OW12760   6.557   3.986   5.236
 3954SOL    HW112761   6.621   3.928   5.186
 3954SOL    HW212762   6.531   3.942   5.321
 3955SOL     OW12763   5.280   6.399   0.484
 3955SOL    HW112764   5.234   6.311   0.493
 3955SOL    HW212765   5.215   6.473   0.503
 3956SOL     OW12766   0.691   2.997   5.765
 3956SOL    HW112767   0.743   2.987   5.679
 3956SOL    HW212768   0.687   3.093   5.790
 3957SOL     OW12769   2.970   7.002   3.769
 3957SOL    HW112770   2.875   6.977   3.789
 3957SOL    HW212771   3.026   6.985   3.850
 3958SOL     OW12772   6.527   6.338   6.873
 3958SOL    HW112773   6.601   6.382   6.925
 3958SOL    HW212774   6.549   6.341   6.776
 3959SOL     OW12775   2.427   5.641   1.096
 3959SOL    HW112776   2.399   5.577   1.024
 3959SOL    HW212777   2.364   5.636   1.172
 3960SOL     OW12778   4.739   2.492   6.934
 3960SOL    HW112779   4.809   2.522   6.999
 3960SOL    HW212780   4.698   2.407   6.966
 3961SOL     OW12781   5.060   1.995   2.124
 3961SOL    HW112782   5.157   2.000   2.100
 3961SOL    HW212783   5.005   2.023   2.045
 3962SOL     OW12784   1.162   6.132   0.299
 3962SOL    HW112785   1.254   6.166   0.320
 3962SOL    HW212786   1.164   6.033   0.291
 3963SOL     OW12787   4.987   5.762   3.431
 3963SOL    HW112788   5.072   5.722   3.399
 3963SOL    HW212789   4.915   5.693   3.429
 3964SOL     OW12790   5.285   6.135   5.460
 3964SOL    HW112791   5.268   6.069   5.386
 3964SOL    HW212792   5.198   6.171   5.494
 3965SOL     OW12793   3.407   4.962   0.156
 3965SOL    HW112794   3.383   4.945   0.061
 3965SOL    HW212795   3.327   4.948   0.214
 3966SOL     OW12796   6.269   4.458   6.266
 3966SOL    HW112797   6.296   4.554   6.259
 3966SOL    HW212798   6.186   4.443   6.213
 3967SOL     OW12799   0.796   5.254   4.240
 3967SOL    HW112800   0.710   5.298   4.266
 3967SOL    HW212801   0.780   5.194   4.161
 3968SOL     OW12802   5.489   0.436   3.274
 3968SOL    HW112803   5.552   0.478   3.338
 3968SOL    HW212804   5.399   0.425   3.319
 3969SOL     OW12805   1.624   5.141   3.009
 3969SOL    HW112806   1.562   5.066   3.032
 3969SOL    HW212807   1.651   5.134   2.913
 3970SOL     OW12808   4.821   4.745   4.196
 3970SOL    HW112809   4.752   4.696   4.248
 3970SOL    HW212810   4.814   4.721   4.100
 3971SOL     OW12811   3.072   5.475   3.183
 3971SOL    HW112812   3.140   5.537   3.222
 3971SOL    HW212813   2.990   5.475   3.239
 3972SOL     OW12814   0.203   6.418   0.583
 3972SOL    HW112815   0.254   6.439   0.499
 3972SOL    HW212816   0.267   6.397   0.657
 3973SOL     OW12817   3.235   3.095   5.046
 3973SOL    HW112818   3.198   3.160   4.979
 3973SOL    HW212819   3.176   3.093   5.127
 3974SOL     OW12820   0.409   1.324   5.951
 3974SOL    HW112821   0.498   1.279   5.961
 3974SOL    HW212822   0.395   1.387   6.028
 3975SOL     OW12823   6.393   0.560   5.864
 3975SOL    HW112824   6.411   0.484   5.802
 3975SOL    HW212825   6.472   0.573   5.924
 3976SOL     OW12826   0.394   4.408   1.243
 3976SOL    HW112827   0.398   4.417   1.343
 3976SOL    HW212828   0.384   4.499   1.202
 3977SOL     OW12829   2.307   6.024   5.920
 3977SOL    HW112830   2.275   6.061   6.008
 3977SOL    HW212831   2.309   5.924   5.925
 3978SOL     OW12832   5.712   1.651   5.772
 3978SOL    HW112833   5.649   1.706   5.828
 3978SOL    HW212834   5.804   1.655   5.811
 3979SOL     OW12835   1.968   6.987   1.552
 3979SOL    HW112836   2.041   0.012   1.502
 3979SOL    HW212837   1.900   0.031   1.581
 3980SOL     OW12838   5.424   3.534   4.736
 3980SOL    HW112839   5.333   3.512   4.771
 3980SOL    HW212840   5.490   3.466   4.771
 3981SOL     OW12841   0.251   2.237   6.395
 3981SOL    HW112842   0.250   2.236   6.295
 3981SOL    HW212843   0.247   2.331   6.428
 3982SOL     OW12844   1.852   0.997   4.830
 3982SOL    HW112845   1.926   0.935   4.805
 3982SOL    HW212846   1.842   1.067   4.760
 3983SOL     OW12847   3.679   0.331   4.717
 3983SOL    HW112848   3.603   0.324   4.782
 3983SOL    HW212849   3.685   0.246   4.664
 3984SOL     OW12850   1.786   6.596   2.138
 3984SOL    HW112851   1.812   6.499   2.131
 3984SOL    HW212852   1.687   6.604   2.143
 3985SOL     OW12853   1.669   4.026   6.824
 3985SOL    HW112854   1.600   4.030   6.896
 3985SOL    HW212855   1.713   3.936   6.824
 3986SOL     OW12856   0.212   2.134   1.728
 3986SOL    HW112857   0.279   2.149   1.800
 3986SOL    HW212858   0.198   2.036   1.715
 3987SOL     OW12859   1.332   5.498   5.390
 3987SOL    HW112860   1.309   5.431   5.319
 3987SOL    HW212861   1.251   5.554   5.410
 3988SOL     OW12862   4.139   1.603   6.422
 3988SOL    HW112863   4.117   1.512   6.454
 3988SOL    HW212864   4.056   1.650   6.394
 3989SOL     OW12865   6.107   6.715   6.451
 3989SOL    HW112866   6.107   6.815   6.459
 3989SOL    HW212867   6.199   6.681   6.470
 3990SOL     OW12868   7.002   2.479   5.051
 3990SOL    HW112869   0.005   2.559   5.105
 3990SOL    HW212870   6.995   2.505   4.955
 3991SOL     OW12871   0.541   2.100   3.602
 3991SOL    HW112872   0.538   2.096   3.701
 3991SOL    HW212873   0.617   2.159   3.573
 3992SOL     OW12874   3.788   3.334   6.775
 3992SOL    HW112875   3.704   3.385   6.791
 3992SOL    HW212876   3.789   3.298   6.682
 3993SOL     OW12877   2.715   2.379   2.547
 3993SOL    HW112878   2.739   2.306   2.482
 3993SOL    HW212879   2.639   2.432   2.510
 3994SOL     OW12880   1.962   2.435   4.911
 3994SOL    HW112881   2.053   2.444   4.872
 3994SOL    HW212882   1.966   2.449   5.010
 3995SOL     OW12883   2.297   4.228   3.262
 3995SOL    HW112884   2.283   4.136   3.227
 3995SOL    HW212885   2.301   4.293   3.186
 3996SOL     OW12886   1.256   1.457   4.233
 3996SOL    HW112887   1.237   1.533   4.297
 3996SOL    HW212888   1.228   1.484   4.141
 3997SOL     OW12889   4.922   3.479   3.121
 3997SOL    HW112890   4.910   3.446   3.215
 3997SOL    HW212891   5.019   3.492   3.103
 3998SOL     OW12892   6.033   1.746   1.792
 3998SOL    HW112893   6.022   1.803   1.710
 3998SOL    HW212894   6.128   1.751   1.823
 3999SOL     OW12895   6.170   3.753   3.642
 3999SOL    HW112896   6.108   3.763   3.564
 3999SOL    HW212897   6.160   3.830   3.704
 4000SOL     OW12898   3.038   6.059   2.803
 4000SOL    HW112899   3.088   6.065   2.716
 4000SOL    HW212900   2.974   6.136   2.809
 4001SOL     OW12901   2.333   4.178   6.068
 4001SOL    HW112902   2.345   4.146   5.974
 4001SOL    HW212903   2.237   4.171   6.094
 4002SOL     OW12904   3.787   2.979   4.366
 4002SOL    HW112905   3.875   3.027   4.368
 4002SOL    HW212906   3.761   2.956   4.460
 4003SOL     OW12907   2.141   1.420   6.275
 4003SOL    HW112908   2.167   1.374   6.360
 4003SOL    HW212909   2.210   1.487   6.250
 4004SOL     OW12910   6.402   3.368   3.749
 4004SOL    HW112911   6.355   3.293   3.795
 4004SOL    HW212912   6.500   3.351   3.748
 4005SOL     OW12913   4.253   4.582   1.342
 4005SOL    HW112914   4.185   4.637   1.295
 4005SOL    HW212915   4.339   4.633   1.347
 4006SOL     OW12916   5.319   4.768   1.810
 4006SOL    HW112917   5.371   4.777   1.725
 4006SOL    HW212918   5.306   4.858   1.851
 4007SOL     OW12919   0.257   2.046   3.291
 4007SOL    HW112920   0.166   2.005   3.280
 4007SOL    HW212921   0.266   2.125   3.231
 4008SOL     OW12922   3.220   0.321   6.561
 4008SOL    HW112923   3.249   0.269   6.641
 4008SOL    HW212924   3.150   0.387   6.587
 4009SOL     OW12925   4.996   1.921   1.393
 4009SOL    HW112926   4.991   2.010   1.347
 4009SOL    HW212927   4.940   1.855   1.343
 4010SOL     OW12928   3.100   3.311   1.581
 4010SOL    HW112929   3.100   3.329   1.680
 4010SOL    HW212930   3.143   3.388   1.533
 4011SOL     OW12931   6.395   5.816   2.099
 4011SOL    HW112932   6.381   5.906   2.057
 4011SOL    HW212933   6.330   5.751   2.059
 4012SOL     OW12934   4.006   6.682   2.658
 4012SOL    HW112935   3.981   6.587   2.674
 4012SOL    HW212936   4.039   6.723   2.743
 4013SOL     OW12937   2.029   0.202   1.124
 4013SOL    HW112938   2.001   0.293   1.156
 4013SOL    HW212939   2.083   0.157   1.196
 4014SOL     OW12940   3.227   6.378   3.900
 4014SOL    HW112941   3.243   6.365   3.998
 4014SOL    HW212942   3.305   6.342   3.849
 4015SOL     OW12943   4.619   5.117   6.217
 4015SOL    HW112944   4.697   5.094   6.276
 4015SOL    HW212945   4.652   5.155   6.131
 4016SOL     OW12946   2.563   5.306   0.264
 4016SOL    HW112947   2.493   5.238   0.285
 4016SOL    HW212948   2.644   5.289   0.319
 4017SOL     OW12949   0.018   5.129   4.974
 4017SOL    HW112950   6.962   5.136   5.035
 4017SOL    HW212951   0.038   5.033   4.956
 4018SOL     OW12952   4.187   0.186   1.494
 4018SOL    HW112953   4.235   0.228   1.417
 4018SOL    HW212954   4.217   0.091   1.504
 4019SOL     OW12955   5.232   3.430   2.288
 4019SOL    HW112956   5.246   3.434   2.387
 4019SOL    HW212957   5.241   3.521   2.249
 4020SOL     OW12958   6.745   2.887   5.620
 4020SOL    HW112959   6.809   2.881   5.544
 4020SOL    HW212960   6.794   2.881   5.706
 4021SOL     OW12961   3.614   4.210   5.653
 4021SOL    HW112962   3.602   4.220   5.554
 4021SOL    HW212963   3.709   4.191   5.674
 4022SOL     OW12964   3.603   6.344   6.743
 4022SOL    HW112965   3.516   6.382   6.711
 4022SOL    HW212966   3.585   6.260   6.795
 4023SOL     OW12967   0.032   0.863   5.708
 4023SOL    HW112968   0.096   0.900   5.641
 4023SOL    HW212969   0.021   0.928   5.783
 4024SOL     OW12970   2.543   4.690   4.074
 4024SOL    HW112971   2.592   4.721   4.156
 4024SOL    HW212972   2.596   4.712   3.993
 4025SOL     OW12973   0.469   6.180   4.341
 4025SOL    HW112974   0.372   6.157   4.339
 4025SOL    HW212975   0.501   6.179   4.436
 4026SOL     OW12976   6.305   6.617   4.199
 4026SOL    HW112977   6.359   6.623   4.282
 4026SOL    HW212978   6.283   6.521   4.181
 4027SOL     OW12979   2.834   2.297   0.162
 4027SOL    HW112980   2.856   2.393   0.181
 4027SOL    HW212981   2.868   2.240   0.236
 4028SOL     OW12982   4.572   1.721   3.745
 4028SOL    HW112983   4.556   1.819   3.731
 4028SOL    HW212984   4.504   1.669   3.694
 4029SOL     OW12985   3.145   3.884   5.820
 4029SOL    HW112986   3.127   3.901   5.723
 4029SOL    HW212987   3.109   3.959   5.875
 4030SOL     OW12988   6.533   0.888   2.303
 4030SOL    HW112989   6.578   0.810   2.346
 4030SOL    HW212990   6.533   0.875   2.203
 4031SOL     OW12991   5.372   6.024   3.258
 4031SOL    HW112992   5.433   6.080   3.314
 4031SOL    HW212993   5.318   5.963   3.316
 4032SOL     OW12994   0.292   6.898   2.314
 4032SOL    HW112995   0.273   6.836   2.237
 4032SOL    HW212996   0.304   6.991   2.280
 4033SOL     OW12997   2.349   2.680   1.433
 4033SOL    HW112998   2.289   2.749   1.472
 4033SOL    HW212999   2.387   2.713   1.347
 4034SOL     OW13000   6.011   1.988   5.120
 4034SOL    HW113001   6.018   1.926   5.198
 4034SOL    HW213002   6.097   2.038   5.108
 4035SOL     OW13003   6.040   1.182   0.821
 4035SOL    HW113004   5.957   1.162   0.769
 4035SOL    HW213005   6.040   1.130   0.906
 4036SOL     OW13006   4.258   4.673   2.183
 4036SOL    HW113007   4.173   4.670   2.130
 4036SOL    HW213008   4.328   4.719   2.129
 4037SOL     OW13009   2.289   1.952   6.763
 4037SOL    HW113010   2.334   1.996   6.841
 4037SOL    HW213011   2.225   1.884   6.797
 4038SOL     OW13012   4.446   2.806   1.288
 4038SOL    HW113013   4.395   2.891   1.280
 4038SOL    HW213014   4.480   2.795   1.382
 4039SOL     OW13015   5.277   5.382   1.587
 4039SOL    HW113016   5.365   5.388   1.634
 4039SOL    HW213017   5.275   5.300   1.530
 4040SOL     OW13018   3.883   6.771   4.829
 4040SOL    HW113019   3.955   6.824   4.786
 4040SOL    HW213020   3.852   6.818   4.912
 4041SOL     OW13021   1.152   4.868   0.671
 4041SOL    HW113022   1.204   4.945   0.636
 4041SOL    HW213023   1.128   4.885   0.767
 4042SOL     OW13024   6.077   6.183   4.412
 4042SOL    HW113025   6.014   6.118   4.369
 4042SOL    HW213026   6.168   6.142   4.418
 4043SOL     OW13027   6.823   2.286   6.276
 4043SOL    HW113028   6.791   2.193   6.256
 4043SOL    HW213029   6.781   2.350   6.211
 4044SOL     OW13030   4.772   6.319   3.693
 4044SOL    HW113031   4.732   6.383   3.627
 4044SOL    HW213032   4.703   6.294   3.760
 4045SOL     OW13033   3.871   6.025   5.988
 4045SOL    HW113034   3.804   5.988   5.924
 4045SOL    HW213035   3.841   6.008   6.081
 4046SOL     OW13036   1.317   1.720   3.691
 4046SOL    HW113037   1.407   1.725   3.647
 4046SOL    HW213038   1.303   1.801   3.748
 4047SOL     OW13039   2.998   2.097   6.971
 4047SOL    HW113040   3.085   2.098   6.922
 4047SOL    HW213041   2.923   2.100   6.906
 4048SOL     OW13042   5.276   1.545   1.825
 4048SOL    HW113043   5.287   1.615   1.754
 4048SOL    HW213044   5.236   1.586   1.907
 4049SOL     OW13045   5.274   4.869   6.396
 4049SOL    HW113046   5.269   4.836   6.302
 4049SOL    HW213047   5.183   4.896   6.427
 4050SOL     OW13048   0.689   6.544   2.286
 4050SOL    HW113049   0.767   6.553   2.225
 4050SOL    HW213050   0.609   6.586   2.244
 4051SOL     OW13051   4.115   1.415   6.819
 4051SOL    HW113052   4.131   1.390   6.915
 4051SOL    HW213053   4.078   1.507   6.815
 4052SOL     OW13054   5.943   1.234   2.393
 4052SOL    HW113055   6.038   1.265   2.394
 4052SOL    HW213056   5.940   1.134   2.401
 4053SOL     OW13057   3.082   6.848   4.383
 4053SOL    HW113058   3.089   6.757   4.342
 4053SOL    HW213059   3.151   6.857   4.455
 4054SOL     OW13060   5.621   3.738   0.933
 4054SOL    HW113061   5.643   3.777   1.022
 4054SOL    HW213062   5.527   3.760   0.909
 4055SOL     OW13063   2.796   3.537   0.505
 4055SOL    HW113064   2.772   3.448   0.543
 4055SOL    HW213065   2.744   3.609   0.551
 4056SOL     OW13066   5.131   3.842   0.637
 4056SOL    HW113067   5.147   3.826   0.539
 4056SOL    HW213068   5.103   3.937   0.650
 4057SOL     OW13069   6.887   2.653   0.779
 4057SOL    HW113070   6.918   2.747   0.761
 4057SOL    HW213071   6.965   2.598   0.809
 4058SOL     OW13072   2.500   6.855   4.987
 4058SOL    HW113073   2.553   6.875   4.905
 4058SOL    HW213074   2.449   6.770   4.974
 4059SOL     OW13075   1.112   1.752   2.877
 4059SOL    HW113076   1.090   1.679   2.813
 4059SOL    HW213077   1.134   1.713   2.966
 4060SOL     OW13078   5.505   5.481   5.251
 4060SOL    HW113079   5.487   5.480   5.153
 4060SOL    HW213080   5.556   5.399   5.277
 4061SOL     OW13081   2.255   4.729   2.154
 4061SOL    HW113082   2.222   4.811   2.201
 4061SOL    HW213083   2.302   4.670   2.219
 4062SOL     OW13084   2.510   0.621   1.760
 4062SOL    HW113085   2.424   0.574   1.778
 4062SOL    HW213086   2.492   0.718   1.742
 4063SOL     OW13087   6.099   6.286   0.531
 4063SOL    HW113088   6.061   6.218   0.468
 4063SOL    HW213089   6.065   6.377   0.506
 4064SOL     OW13090   2.393   0.400   3.991
 4064SOL    HW113091   2.332   0.479   3.985
 4064SOL    HW213092   2.487   0.431   4.004
 4065SOL     OW13093   1.066   6.685   1.707
 4065SOL    HW113094   1.043   6.606   1.650
 4065SOL    HW213095   1.166   6.695   1.711
 4066SOL     OW13096   6.146   4.406   3.154
 4066SOL    HW113097   6.103   4.357   3.230
 4066SOL    HW213098   6.087   4.402   3.073
 4067SOL     OW13099   6.077   3.918   3.014
 4067SOL    HW113100   6.090   3.986   2.941
 4067SOL    HW213101   6.133   3.943   3.093
 4068SOL     OW13102   1.725   1.157   5.271
 4068SOL    HW113103   1.682   1.121   5.188
 4068SOL    HW213104   1.656   1.163   5.343
 4069SOL     OW13105   3.138   5.463   6.678
 4069SOL    HW113106   3.064   5.503   6.624
 4069SOL    HW213107   3.221   5.518   6.666
 4070SOL     OW13108   0.559   3.154   2.330
 4070SOL    HW113109   0.644   3.117   2.293
 4070SOL    HW213110   0.537   3.240   2.284
 4071SOL     OW13111   1.230   1.453   5.766
 4071SOL    HW113112   1.221   1.439   5.667
 4071SOL    HW213113   1.325   1.434   5.793
 4072SOL     OW13114   0.554   5.726   4.451
 4072SOL    HW113115   0.542   5.789   4.374
 4072SOL    HW213116   0.636   5.671   4.436
 4073SOL     OW13117   3.087   6.479   6.141
 4073SOL    HW113118   3.097   6.398   6.198
 4073SOL    HW213119   3.103   6.455   6.045
 4074SOL     OW13120   6.984   4.158   1.588
 4074SOL    HW113121   6.921   4.205   1.526
 4074SOL    HW213122   7.009   4.220   1.663
 4075SOL     OW13123   4.457   2.071   1.832
 4075SOL    HW113124   4.507   2.124   1.900
 4075SOL    HW213125   4.359   2.092   1.838
 4076SOL     OW13126   3.369   2.974   5.867
 4076SOL    HW113127   3.319   2.995   5.782
 4076SOL    HW213128   3.445   2.913   5.846
 4077SOL     OW13129   3.683   1.332   0.039
 4077SOL    HW113130   3.629   1.269   7.007
 4077SOL    HW213131   3.781   1.314   0.023
 4078SOL     OW13132   0.355   5.572   1.345
 4078SOL    HW113133   0.335   5.579   1.248
 4078SOL    HW213134   0.453   5.556   1.358
 4079SOL     OW13135   1.828   1.058   3.700
 4079SOL    HW113136   1.812   0.960   3.691
 4079SOL    HW213137   1.741   1.107   3.691
 4080SOL     OW13138   4.146   3.930   6.100
 4080SOL    HW113139   4.084   3.934   6.179
 4080SOL    HW213140   4.240   3.946   6.131
 4081SOL     OW13141   1.991   2.883   4.250
 4081SOL    HW113142   1.944   2.868   4.338
 4081SOL    HW213143   1.923   2.886   4.177
 4082SOL     OW13144   0.496   3.721   0.221
 4082SOL    HW113145   0.497   3.698   0.318
 4082SOL    HW213146   0.532   3.814   0.208
 4083SOL     OW13147   6.749   3.664   2.443
 4083SOL    HW113148   6.776   3.613   2.361
 4083SOL    HW213149   6.776   3.759   2.433
 4084SOL     OW13150   5.686   1.899   3.629
 4084SOL    HW113151   5.597   1.856   3.642
 4084SOL    HW213152   5.753   1.830   3.601
 4085SOL     OW13153   2.952   5.542   1.733
 4085SOL    HW113154   3.051   5.551   1.744
 4085SOL    HW213155   2.917   5.478   1.802
 4086SOL     OW13156   1.134   5.262   1.759
 4086SOL    HW113157   1.216   5.290   1.809
 4086SOL    HW213158   1.147   5.169   1.725
 4087SOL     OW13159   1.983   1.724   3.393
 4087SOL    HW113160   1.916   1.682   3.331
 4087SOL    HW213161   2.071   1.677   3.383
 4088SOL     OW13162   0.037   1.433   0.070
 4088SOL    HW113163   0.028   1.528   0.042
 4088SOL    HW213164   0.019   1.373   7.015
 4089SOL     OW13165   6.230   6.318   4.155
 4089SOL    HW113166   6.146   6.335   4.207
 4089SOL    HW213167   6.207   6.301   4.059
 4090SOL     OW13168   1.753   5.037   5.855
 4090SOL    HW113169   1.756   5.137   5.861
 4090SOL    HW213170   1.760   5.009   5.759
 4091SOL     OW13171   0.001   6.371   6.972
 4091SOL    HW113172   0.070   6.394   0.018
 4091SOL    HW213173   6.970   6.293   7.004
 4092SOL     OW13174   6.536   2.459   6.177
 4092SOL    HW113175   6.463   2.447   6.109
 4092SOL    HW213176   6.619   2.492   6.131
 4093SOL     OW13177   4.548   0.167   2.651
 4093SOL    HW113178   4.457   0.206   2.665
 4093SOL    HW213179   4.617   0.233   2.678
 4094SOL     OW13180   2.300   5.796   4.648
 4094SOL    HW113181   2.237   5.873   4.633
 4094SOL    HW213182   2.379   5.827   4.701
 4095SOL     OW13183   0.404   3.799   0.538
 4095SOL    HW113184   0.321   3.787   0.484
 4095SOL    HW213185   0.458   3.716   0.535
 4096SOL     OW13186   4.374   6.025   6.024
 4096SOL    HW113187   4.374   6.062   5.931
 4096SOL    HW213188   4.286   6.044   6.067
 4097SOL     OW13189   3.586   4.779   5.382
 4097SOL    HW113190   3.493   4.744   5.369
 4097SOL    HW213191   3.652   4.708   5.357
 4098SOL     OW13192   0.039   2.294   1.417
 4098SOL    HW113193   0.135   2.266   1.414
 4098SOL    HW213194   0.013   2.310   1.512
 4099SOL     OW13195   2.721   4.593   1.417
 4099SOL    HW113196   2.750   4.519   1.479
 4099SOL    HW213197   2.768   4.677   1.442
 4100SOL     OW13198   6.740   5.989   4.622
 4100SOL    HW113199   6.765   6.072   4.673
 4100SOL    HW213200   6.698   5.923   4.684
 4101SOL     OW13201   6.233   0.736   0.243
 4101SOL    HW113202   6.280   0.733   0.155
 4101SOL    HW213203   6.243   0.827   0.283
 4102SOL     OW13204   6.537   0.603   0.633
 4102SOL    HW113205   6.469   0.566   0.570
 4102SOL    HW213206   6.587   0.528   0.677
 4103SOL     OW13207   0.488   0.461   0.631
 4103SOL    HW113208   0.407   0.442   0.575
 4103SOL    HW213209   0.556   0.509   0.575
 4104SOL     OW13210   0.921   4.615   3.116
 4104SOL    HW113211   0.852   4.567   3.170
 4104SOL    HW213212   0.997   4.553   3.096
 4105SOL     OW13213   4.522   6.961   1.360
 4105SOL    HW113214   4.554   0.032   1.346
 4105SOL    HW213215   4.560   6.925   1.445
 4106SOL     OW13216   6.306   2.540   3.444
 4106SOL    HW113217   6.362   2.623   3.441
 4106SOL    HW213218   6.209   2.565   3.438
 4107SOL     OW13219   0.984   5.610   1.227
 4107SOL    HW113220   0.977   5.681   1.298
 4107SOL    HW213221   1.075   5.569   1.229
 4108SOL     OW13222   6.370   4.134   5.105
 4108SOL    HW113223   6.435   4.084   5.162
 4108SOL    HW213224   6.420   4.177   5.029
 4109SOL     OW13225   6.233   0.155   5.049
 4109SOL    HW113226   6.185   0.084   4.997
 4109SOL    HW213227   6.246   0.124   5.143
 4110SOL     OW13228   3.764   3.786   6.176
 4110SOL    HW113229   3.671   3.760   6.151
 4110SOL    HW213230   3.792   3.737   6.259
 4111SOL     OW13231   4.149   3.347   0.244
 4111SOL    HW113232   4.197   3.382   0.163
 4111SOL    HW213233   4.084   3.277   0.217
 4112SOL     OW13234   4.993   6.584   4.871
 4112SOL    HW113235   4.989   6.668   4.926
 4112SOL    HW213236   5.013   6.506   4.930
 4113SOL     OW13237   4.893   6.187   4.518
 4113SOL    HW113238   4.819   6.246   4.549
 4113SOL    HW213239   4.961   6.242   4.468
 4114SOL     OW13240   3.465   2.122   3.986
 4114SOL    HW113241   3.435   2.028   4.001
 4114SOL    HW213242   3.386   2.183   3.985
 4115SOL     OW13243   3.607   4.922   2.251
 4115SOL    HW113244   3.633   4.844   2.193
 4115SOL    HW213245   3.690   4.966   2.286
 4116SOL     OW13246   3.306   1.666   2.219
 4116SOL    HW113247   3.270   1.590   2.166
 4116SOL    HW213248   3.401   1.647   2.245
 4117SOL     OW13249   1.225   4.697   2.411
 4117SOL    HW113250   1.297   4.759   2.444
 4117SOL    HW213251   1.250   4.603   2.431
 4118SOL     OW13252   3.048   6.608   0.717
 4118SOL    HW113253   2.964   6.559   0.694
 4118SOL    HW213254   3.112   6.602   0.640
 4119SOL     OW13255   3.687   2.078   4.206
 4119SOL    HW113256   3.615   2.120   4.150
 4119SOL    HW213257   3.681   2.113   4.300
 4120SOL     OW13258   3.864   0.402   0.498
 4120SOL    HW113259   3.841   0.306   0.481
 4120SOL    HW213260   3.861   0.453   0.412
 4121SOL     OW13261   6.218   0.786   5.089
 4121SOL    HW113262   6.179   0.700   5.058
 4121SOL    HW213263   6.266   0.772   5.176
 4122SOL     OW13264   1.333   5.867   5.130
 4122SOL    HW113265   1.240   5.836   5.111
 4122SOL    HW213266   1.334   5.966   5.139
 4123SOL     OW13267   4.360   5.175   5.999
 4123SOL    HW113268   4.309   5.259   5.984
 4123SOL    HW213269   4.453   5.185   5.963
 4124SOL     OW13270   6.430   5.632   6.621
 4124SOL    HW113271   6.362   5.560   6.605
 4124SOL    HW213272   6.487   5.642   6.540
 4125SOL     OW13273   4.460   1.212   2.579
 4125SOL    HW113274   4.448   1.292   2.638
 4125SOL    HW213275   4.558   1.191   2.571
 4126SOL     OW13276   1.252   3.767   4.645
 4126SOL    HW113277   1.152   3.777   4.648
 4126SOL    HW213278   1.290   3.835   4.582
 4127SOL     OW13279   4.481   4.925   4.739
 4127SOL    HW113280   4.448   4.994   4.675
 4127SOL    HW213281   4.430   4.840   4.727
 4128SOL     OW13282   1.594   2.905   1.730
 4128SOL    HW113283   1.587   2.859   1.641
 4128SOL    HW213284   1.690   2.918   1.753
 4129SOL     OW13285   4.214   1.364   6.191
 4129SOL    HW113286   4.126   1.385   6.233
 4129SOL    HW213287   4.283   1.428   6.226
 4130SOL     OW13288   6.583   2.916   5.947
 4130SOL    HW113289   6.610   3.010   5.925
 4130SOL    HW213290   6.577   2.907   6.047
 4131SOL     OW13291   1.993   0.451   3.350
 4131SOL    HW113292   2.061   0.402   3.295
 4131SOL    HW213293   1.939   0.386   3.402
 4132SOL     OW13294   5.220   4.376   3.929
 4132SOL    HW113295   5.253   4.340   4.017
 4132SOL    HW213296   5.163   4.307   3.884
 4133SOL     OW13297   3.229   6.300   0.936
 4133SOL    HW113298   3.167   6.280   1.012
 4133SOL    HW213299   3.221   6.229   0.867
 4134SOL     OW13300   2.718   2.735   0.408
 4134SOL    HW113301   2.662   2.759   0.329
 4134SOL    HW213302   2.665   2.747   0.491
 4135SOL     OW13303   1.164   1.664   3.125
 4135SOL    HW113304   1.255   1.680   3.163
 4135SOL    HW213305   1.097   1.660   3.199
 4136SOL     OW13306   1.335   2.212   2.884
 4136SOL    HW113307   1.343   2.119   2.849
 4136SOL    HW213308   1.388   2.274   2.826
 4137SOL     OW13309   0.334   4.758   0.657
 4137SOL    HW113310   0.380   4.760   0.745
 4137SOL    HW213311   0.343   4.667   0.616
 4138SOL     OW13312   4.495   5.188   3.331
 4138SOL    HW113313   4.583   5.202   3.285
 4138SOL    HW213314   4.512   5.154   3.424
 4139SOL     OW13315   2.101   2.042   5.125
 4139SOL    HW113316   2.033   2.031   5.198
 4139SOL    HW213317   2.135   1.952   5.098
 4140SOL     OW13318   3.102   1.094   5.268
 4140SOL    HW113319   3.171   1.129   5.332
 4140SOL    HW213320   3.123   1.125   5.175
 4141SOL     OW13321   6.272   6.211   1.380
 4141SOL    HW113322   6.216   6.146   1.431
 4141SOL    HW213323   6.247   6.208   1.283
 4142SOL     OW13324   6.076   5.531   0.974
 4142SOL    HW113325   6.144   5.548   0.903
 4142SOL    HW213326   6.094   5.589   1.053
 4143SOL     OW13327   0.015   2.706   1.203
 4143SOL    HW113328   7.012   2.786   1.256
 4143SOL    HW213329   0.043   2.734   1.111
 4144SOL     OW13330   4.995   3.821   6.035
 4144SOL    HW113331   5.038   3.900   5.990
 4144SOL    HW213332   5.047   3.797   6.117
 4145SOL     OW13333   6.739   6.375   1.100
 4145SOL    HW113334   6.776   6.343   1.187
 4145SOL    HW213335   6.661   6.319   1.074
 4146SOL     OW13336   6.855   0.635   5.215
 4146SOL    HW113337   6.887   0.613   5.122
 4146SOL    HW213338   6.904   0.578   5.281
 4147SOL     OW13339   4.856   3.747   5.803
 4147SOL    HW113340   4.819   3.655   5.807
 4147SOL    HW213341   4.887   3.774   5.894
 4148SOL     OW13342   1.200   0.661   4.742
 4148SOL    HW113343   1.127   0.594   4.731
 4148SOL    HW213344   1.218   0.674   4.840
 4149SOL     OW13345   0.159   2.699   0.402
 4149SOL    HW113346   0.179   2.703   0.304
 4149SOL    HW213347   0.093   2.627   0.420
 4150SOL     OW13348   0.908   0.941   6.154
 4150SOL    HW113349   0.970   1.003   6.204
 4150SOL    HW213350   0.843   0.901   6.219
 4151SOL     OW13351   3.926   5.474   5.293
 4151SOL    HW113352   3.936   5.384   5.335
 4151SOL    HW213353   3.919   5.464   5.194
 4152SOL     OW13354   3.573   6.252   1.608
 4152SOL    HW113355   3.619   6.320   1.552
 4152SOL    HW213356   3.516   6.298   1.676
 4153SOL     OW13357   4.393   4.995   0.209
 4153SOL    HW113358   4.373   4.985   0.112
 4153SOL    HW213359   4.321   5.049   0.253
 4154SOL     OW13360   0.747   4.446   4.581
 4154SOL    HW113361   0.775   4.522   4.522
 4154SOL    HW213362   0.761   4.359   4.533
 4155SOL     OW13363   6.968   1.105   2.005
 4155SOL    HW113364   6.980   1.162   2.086
 4155SOL    HW213365   6.871   1.102   1.981
 4156SOL     OW13366   5.949   6.190   5.226
 4156SOL    HW113367   5.991   6.109   5.266
 4156SOL    HW213368   6.012   6.231   5.159
 4157SOL     OW13369   4.778   5.705   4.626
 4157SOL    HW113370   4.847   5.770   4.595
 4157SOL    HW213371   4.820   5.615   4.639
 4158SOL     OW13372   1.646   4.483   2.640
 4158SOL    HW113373   1.642   4.395   2.688
 4158SOL    HW213374   1.554   4.522   2.634
 4159SOL     OW13375   1.944   3.456   4.261
 4159SOL    HW113376   1.865   3.404   4.294
 4159SOL    HW213377   1.918   3.507   4.179
 4160SOL     OW13378   6.192   0.332   0.615
 4160SOL    HW113379   6.225   0.279   0.537
 4160SOL    HW213380   6.203   0.429   0.597
 4161SOL     OW13381   0.723   0.592   0.059
 4161SOL    HW113382   0.654   0.662   0.078
 4161SOL    HW213383   0.738   0.587   6.983
 4162SOL     OW13384   5.926   6.874   6.052
 4162SOL    HW113385   5.925   6.781   6.090
 4162SOL    HW213386   6.020   6.905   6.043
 4163SOL     OW13387   6.240   6.640   3.810
 4163SOL    HW113388   6.317   6.579   3.792
 4163SOL    HW213389   6.261   6.731   3.774
 4164SOL     OW13390   1.530   6.519   6.861
 4164SOL    HW113391   1.464   6.573   6.914
 4164SOL    HW213392   1.607   6.577   6.835
 4165SOL     OW13393   3.802   0.425   7.005
 4165SOL    HW113394   3.751   0.482   6.940
 4165SOL    HW213395   3.883   0.388   6.961
 4166SOL     OW13396   6.389   3.884   0.739
 4166SOL    HW113397   6.458   3.835   0.792
 4166SOL    HW213398   6.435   3.945   0.674
 4167SOL     OW13399   0.793   4.104   1.102
 4167SOL    HW113400   0.862   4.082   1.171
 4167SOL    HW213401   0.735   4.179   1.134
 4168SOL     OW13402   6.769   4.861   0.790
 4168SOL    HW113403   6.678   4.824   0.810
 4168SOL    HW213404   6.824   4.859   0.874
 4169SOL     OW13405   5.947   4.167   3.838
 4169SOL    HW113406   5.920   4.246   3.782
 4169SOL    HW213407   6.034   4.131   3.805
 4170SOL     OW13408   3.914   4.013   5.478
 4170SOL    HW113409   3.871   4.101   5.459
 4170SOL    HW213410   3.896   3.987   5.573
 4171SOL     OW13411   5.432   5.659   1.504
 4171SOL    HW113412   5.459   5.569   1.469
 4171SOL    HW213413   5.367   5.701   1.440
 4172SOL     OW13414   0.514   2.279   6.236
 4172SOL    HW113415   0.464   2.354   6.279
 4172SOL    HW213416   0.513   2.291   6.137
 4173SOL     OW13417   5.086   3.487   5.369
 4173SOL    HW113418   5.083   3.542   5.286
 4173SOL    HW213419   5.139   3.535   5.439
 4174SOL     OW13420   5.486   0.842   3.469
 4174SOL    HW113421   5.497   0.805   3.561
 4174SOL    HW213422   5.506   0.939   3.469
 4175SOL     OW13423   2.074   6.324   4.488
 4175SOL    HW113424   2.158   6.361   4.528
 4175SOL    HW213425   2.082   6.321   4.389
 4176SOL     OW13426   3.124   6.457   2.123
 4176SOL    HW113427   3.033   6.490   2.096
 4176SOL    HW213428   3.128   6.450   2.223
 4177SOL     OW13429   6.676   4.432   4.685
 4177SOL    HW113430   6.635   4.518   4.715
 4177SOL    HW213431   6.619   4.391   4.614
 4178SOL     OW13432   4.716   0.725   4.122
 4178SOL    HW113433   4.723   0.792   4.197
 4178SOL    HW213434   4.633   0.671   4.133
 4179SOL     OW13435   5.288   2.114   3.002
 4179SOL    HW113436   5.345   2.195   2.988
 4179SOL    HW213437   5.215   2.113   2.934
 4180SOL     OW13438   5.040   3.964   1.570
 4180SOL    HW113439   5.101   3.958   1.491
 4180SOL    HW213440   5.018   3.872   1.602
 4181SOL     OW13441   2.639   2.186   6.991
 4181SOL    HW113442   2.696   2.153   6.915
 4181SOL    HW213443   2.697   2.230   0.037
 4182SOL     OW13444   0.202   6.408   3.113
 4182SOL    HW113445   0.156   6.485   3.068
 4182SOL    HW213446   0.264   6.364   3.048
 4183SOL     OW13447   4.765   0.885   0.284
 4183SOL    HW113448   4.822   0.834   0.219
 4183SOL    HW213449   4.669   0.872   0.261
 4184SOL     OW13450   4.378   5.008   1.354
 4184SOL    HW113451   4.323   5.001   1.271
 4184SOL    HW213452   4.327   5.056   1.425
 4185SOL     OW13453   0.789   5.816   2.184
 4185SOL    HW113454   0.854   5.880   2.224
 4185SOL    HW213455   0.744   5.859   2.105
 4186SOL     OW13456   2.216   4.864   1.243
 4186SOL    HW113457   2.253   4.772   1.230
 4186SOL    HW213458   2.190   4.876   1.339
 4187SOL     OW13459   3.507   3.655   6.106
 4187SOL    HW113460   3.416   3.641   6.067
 4187SOL    HW213461   3.559   3.569   6.100
 4188SOL     OW13462   5.279   0.154   4.345
 4188SOL    HW113463   5.359   0.169   4.403
 4188SOL    HW213464   5.216   0.091   4.391
 4189SOL     OW13465   3.651   0.665   4.940
 4189SOL    HW113466   3.733   0.615   4.969
 4189SOL    HW213467   3.623   0.633   4.849
 4190SOL     OW13468   0.617   0.504   6.796
 4190SOL    HW113469   0.628   0.534   6.702
 4190SOL    HW213470   0.647   0.408   6.804
 4191SOL     OW13471   5.438   3.083   3.195
 4191SOL    HW113472   5.499   3.154   3.160
 4191SOL    HW213473   5.415   3.103   3.290
 4192SOL     OW13474   0.553   0.951   4.012
 4192SOL    HW113475   0.515   0.979   3.924
 4192SOL    HW213476   0.652   0.967   4.013
 4193SOL     OW13477   2.330   6.804   2.565
 4193SOL    HW113478   2.299   6.845   2.479
 4193SOL    HW213479   2.426   6.827   2.580
 4194SOL     OW13480   5.717   0.848   5.524
 4194SOL    HW113481   5.747   0.918   5.589
 4194SOL    HW213482   5.619   0.857   5.509
 4195SOL     OW13483   4.060   0.548   1.860
 4195SOL    HW113484   4.030   0.456   1.834
 4195SOL    HW213485   4.089   0.548   1.956
 4196SOL     OW13486   5.574   2.403   3.912
 4196SOL    HW113487   5.599   2.344   3.835
 4196SOL    HW213488   5.479   2.386   3.938
 4197SOL     OW13489   5.275   5.828   5.325
 4197SOL    HW113490   5.375   5.816   5.328
 4197SOL    HW213491   5.244   5.828   5.230
 4198SOL     OW13492   5.555   2.952   6.571
 4198SOL    HW113493   5.601   2.906   6.648
 4198SOL    HW213494   5.609   2.939   6.488
 4199SOL     OW13495   1.895   3.894   6.466
 4199SOL    HW113496   1.878   3.803   6.503
 4199SOL    HW213497   1.856   3.899   6.374
 4200SOL     OW13498   3.190   5.996   4.739
 4200SOL    HW113499   3.275   5.943   4.742
 4200SOL    HW213500   3.199   6.071   4.674
 4201SOL     OW13501   6.160   6.223   3.568
 4201SOL    HW113502   6.077   6.277   3.555
 4201SOL    HW213503   6.142   6.149   3.633
 4202SOL     OW13504   4.252   6.103   5.762
 4202SOL    HW113505   4.304   6.059   5.689
 4202SOL    HW213506   4.188   6.169   5.723
 4203SOL     OW13507   4.793   5.355   1.212
 4203SOL    HW113508   4.803   5.342   1.310
 4203SOL    HW213509   4.698   5.379   1.190
 4204SOL     OW13510   3.562   2.863   2.438
 4204SOL    HW113511   3.658   2.836   2.445
 4204SOL    HW213512   3.546   2.947   2.489
 4205SOL     OW13513   3.665   4.914   3.926
 4205SOL    HW113514   3.690   4.882   4.017
 4205SOL    HW213515   3.667   5.014   3.924
 4206SOL     OW13516   5.765   0.967   5.770
 4206SOL    HW113517   5.846   0.976   5.828
 4206SOL    HW213518   5.730   0.873   5.777
 4207SOL     OW13519   2.048   2.020   1.566
 4207SOL    HW113520   2.050   2.120   1.560
 4207SOL    HW213521   1.955   1.988   1.545
 4208SOL     OW13522   1.338   2.914   6.740
 4208SOL    HW113523   1.347   2.870   6.650
 4208SOL    HW213524   1.326   3.012   6.729
 4209SOL     OW13525   0.507   1.697   5.246
 4209SOL    HW113526   0.527   1.666   5.153
 4209SOL    HW213527   0.576   1.763   5.275
 4210SOL     OW13528   2.966   3.488   2.110
 4210SOL    HW113529   2.935   3.475   2.204
 4210SOL    HW213530   2.901   3.444   2.048
 4211SOL     OW13531   3.664   5.776   4.867
 4211SOL    HW113532   3.683   5.834   4.946
 4211SOL    HW213533   3.743   5.718   4.849
 4212SOL     OW13534   5.841   2.673   2.261
 4212SOL    HW113535   5.770   2.717   2.206
 4212SOL    HW213536   5.926   2.726   2.255
 4213SOL     OW13537   2.735   1.176   2.695
 4213SOL    HW113538   2.676   1.198   2.617
 4213SOL    HW213539   2.747   1.258   2.752
 4214SOL     OW13540   0.941   4.262   5.712
 4214SOL    HW113541   0.958   4.250   5.810
 4214SOL    HW213542   0.953   4.359   5.688
 4215SOL     OW13543   6.344   6.067   4.504
 4215SOL    HW113544   6.430   6.093   4.460
 4215SOL    HW213545   6.363   6.022   4.592
 4216SOL     OW13546   1.790   1.893   3.435
 4216SOL    HW113547   1.791   1.973   3.376
 4216SOL    HW213548   1.878   1.845   3.428
 4217SOL     OW13549   6.633   0.111   2.380
 4217SOL    HW113550   6.556   0.091   2.319
 4217SOL    HW213551   6.658   0.028   2.430
 4218SOL     OW13552   4.992   0.122   1.422
 4218SOL    HW113553   4.950   0.122   1.513
 4218SOL    HW213554   5.088   0.146   1.429
 4219SOL     OW13555   2.970   5.486   4.113
 4219SOL    HW113556   3.068   5.500   4.097
 4219SOL    HW213557   2.920   5.496   4.027
 4220SOL     OW13558   6.209   2.609   2.982
 4220SOL    HW113559   6.217   2.701   3.021
 4220SOL    HW213560   6.236   2.542   3.050
 4221SOL     OW13561   6.054   5.439   6.234
 4221SOL    HW113562   6.075   5.341   6.230
 4221SOL    HW213563   6.025   5.462   6.327
 4222SOL     OW13564   6.190   2.324   2.645
 4222SOL    HW113565   6.165   2.296   2.552
 4222SOL    HW213566   6.288   2.307   2.659
 4223SOL     OW13567   3.113   3.477   5.159
 4223SOL    HW113568   3.197   3.482   5.212
 4223SOL    HW213569   3.121   3.405   5.090
 4224SOL     OW13570   4.897   3.109   3.557
 4224SOL    HW113571   4.982   3.059   3.574
 4224SOL    HW213572   4.819   3.049   3.575
 4225SOL     OW13573   4.482   0.141   5.806
 4225SOL    HW113574   4.390   0.102   5.806
 4225SOL    HW213575   4.525   0.126   5.895
 4226SOL     OW13576   0.524   0.777   3.423
 4226SOL    HW113577   0.619   0.803   3.441
 4226SOL    HW213578   0.471   0.858   3.399
 4227SOL     OW13579   3.333   4.968   6.910
 4227SOL    HW113580   3.313   4.941   6.816
 4227SOL    HW213581   3.303   5.062   6.925
 4228SOL     OW13582   0.390   3.312   3.156
 4228SOL    HW113583   0.353   3.220   3.162
 4228SOL    HW213584   0.333   3.367   3.095
 4229SOL     OW13585   4.649   5.179   5.902
 4229SOL    HW113586   4.703   5.119   5.843
 4229SOL    HW213587   4.665   5.274   5.877
 4230SOL     OW13588   2.073   0.844   4.780
 4230SOL    HW113589   2.041   0.836   4.685
 4230SOL    HW213590   2.083   0.752   4.819
 4231SOL     OW13591   5.399   6.277   4.405
 4231SOL    HW113592   5.493   6.247   4.393
 4231SOL    HW213593   5.366   6.250   4.495
 4232SOL     OW13594   6.749   4.471   2.043
 4232SOL    HW113595   6.729   4.471   2.141
 4232SOL    HW213596   6.836   4.517   2.026
 4233SOL     OW13597   0.126   0.343   6.671
 4233SOL    HW113598   0.104   0.431   6.629
 4233SOL    HW213599   0.061   0.324   6.744
 4234SOL     OW13600   1.392   0.292   5.805
 4234SOL    HW113601   1.407   0.330   5.896
 4234SOL    HW213602   1.422   0.197   5.803
 4235SOL     OW13603   6.076   3.585   5.515
 4235SOL    HW113604   6.036   3.630   5.435
 4235SOL    HW213605   6.083   3.487   5.497
 4236SOL     OW13606   0.902   3.318   2.990
 4236SOL    HW113607   0.950   3.405   3.003
 4236SOL    HW213608   0.846   3.298   3.070
 4237SOL     OW13609   6.474   4.947   4.229
 4237SOL    HW113610   6.446   5.017   4.164
 4237SOL    HW213611   6.470   4.983   4.322
 4238SOL     OW13612   4.494   4.733   3.750
 4238SOL    HW113613   4.503   4.653   3.809
 4238SOL    HW213614   4.477   4.704   3.656
 4239SOL     OW13615   6.368   0.719   3.498
 4239SOL    HW113616   6.362   0.624   3.528
 4239SOL    HW213617   6.313   0.732   3.415
 4240SOL     OW13618   1.996   6.918   6.886
 4240SOL    HW113619   1.919   6.976   6.860
 4240SOL    HW213620   2.036   6.952   6.971
 4241SOL     OW13621   5.096   1.015   1.046
 4241SOL    HW113622   5.043   1.047   0.967
 4241SOL    HW213623   5.082   0.917   1.058
 4242SOL     OW13624   1.884   0.915   3.084
 4242SOL    HW113625   1.956   0.977   3.116
 4242SOL    HW213626   1.873   0.840   3.150
 4243SOL     OW13627   0.651   3.520   3.369
 4243SOL    HW113628   0.710   3.440   3.368
 4243SOL    HW213629   0.556   3.492   3.384
 4244SOL     OW13630   4.375   5.201   0.894
 4244SOL    HW113631   4.351   5.245   0.807
 4244SOL    HW213632   4.463   5.237   0.926
 4245SOL     OW13633   6.798   1.328   6.890
 4245SOL    HW113634   6.777   1.231   6.903
 4245SOL    HW213635   6.883   1.337   6.839
 4246SOL     OW13636   5.803   2.342   3.462
 4246SOL    HW113637   5.821   2.290   3.545
 4246SOL    HW213638   5.825   2.286   3.382
 4247SOL     OW13639   2.308   5.217   4.028
 4247SOL    HW113640   2.249   5.208   4.108
 4247SOL    HW213641   2.317   5.313   4.003
 4248SOL     OW13642   1.338   1.059   3.607
 4248SOL    HW113643   1.273   1.128   3.574
 4248SOL    HW213644   1.424   1.103   3.630
 4249SOL     OW13645   6.333   1.186   3.392
 4249SOL    HW113646   6.250   1.135   3.417
 4249SOL    HW213647   6.313   1.243   3.312
 4250SOL     OW13648   6.768   6.029   4.039
 4250SOL    HW113649   6.844   6.037   3.974
 4250SOL    HW213650   6.797   5.975   4.118
 4251SOL     OW13651   6.513   2.886   0.339
 4251SOL    HW113652   6.582   2.951   0.374
 4251SOL    HW213653   6.532   2.795   0.376
 4252SOL     OW13654   5.390   6.409   6.601
 4252SOL    HW113655   5.317   6.402   6.533
 4252SOL    HW213656   5.398   6.323   6.650
 4253SOL     OW13657   3.647   6.005   2.125
 4253SOL    HW113658   3.632   5.936   2.054
 4253SOL    HW213659   3.568   6.007   2.186
 4254SOL     OW13660   2.005   4.536   1.700
 4254SOL    HW113661   1.993   4.578   1.610
 4254SOL    HW213662   1.946   4.581   1.766
 4255SOL     OW13663   0.209   3.950   3.922
 4255SOL    HW113664   0.111   3.962   3.931
 4255SOL    HW213665   0.234   3.856   3.946
 4256SOL     OW13666   1.009   6.146   1.505
 4256SOL    HW113667   1.084   6.180   1.449
 4256SOL    HW213668   1.034   6.151   1.602
 4257SOL     OW13669   4.671   1.212   4.260
 4257SOL    HW113670   4.707   1.300   4.292
 4257SOL    HW213671   4.711   1.138   4.314
 4258SOL     OW13672   3.308   6.312   1.229
 4258SOL    HW113673   3.359   6.353   1.153
 4258SOL    HW213674   3.371   6.273   1.296
 4259SOL     OW13675   1.617   6.311   1.082
 4259SOL    HW113676   1.699   6.282   1.033
 4259SOL    HW213677   1.538   6.302   1.022
 4260SOL     OW13678   5.398   0.150   3.680
 4260SOL    HW113679   5.412   0.061   3.638
 4260SOL    HW213680   5.484   0.202   3.679
 4261SOL     OW13681   1.811   0.827   2.837
 4261SOL    HW113682   1.832   0.851   2.932
 4261SOL    HW213683   1.825   0.729   2.824
 4262SOL     OW13684   1.073   4.126   6.066
 4262SOL    HW113685   1.110   4.204   6.116
 4262SOL    HW213686   0.978   4.146   6.039
 4263SOL     OW13687   2.652   1.145   3.531
 4263SOL    HW113688   2.626   1.102   3.445
 4263SOL    HW213689   2.686   1.238   3.514
 4264SOL     OW13690   6.119   1.893   4.286
 4264SOL    HW113691   6.154   1.852   4.370
 4264SOL    HW213692   6.139   1.833   4.209
 4265SOL     OW13693   3.838   1.086   0.795
 4265SOL    HW113694   3.790   1.023   0.857
 4265SOL    HW213695   3.897   1.033   0.734
 4266SOL     OW13696   1.391   6.530   0.074
 4266SOL    HW113697   1.384   6.611   0.133
 4266SOL    HW213698   1.483   6.493   0.078
 4267SOL     OW13699   2.055   3.427   3.757
 4267SOL    HW113700   1.980   3.461   3.813
 4267SOL    HW213701   2.049   3.328   3.749
 4268SOL     OW13702   2.010   5.681   6.900
 4268SOL    HW113703   1.924   5.665   6.850
 4268SOL    HW213704   2.087   5.656   6.842
 4269SOL     OW13705   2.948   1.022   4.006
 4269SOL    HW113706   2.878   1.013   3.934
 4269SOL    HW213707   3.026   1.073   3.971
 4270SOL     OW13708   3.088   3.060   2.301
 4270SOL    HW113709   3.141   2.982   2.334
 4270SOL    HW213710   3.070   3.122   2.378
 4271SOL     OW13711   6.954   1.401   0.330
 4271SOL    HW113712   7.006   1.396   0.245
 4271SOL    HW213713   6.856   1.399   0.310
 4272SOL     OW13714   6.849   2.793   5.068
 4272SOL    HW113715   6.923   2.769   5.131
 4272SOL    HW213716   6.785   2.855   5.115
 4273SOL     OW13717   5.164   6.394   5.305
 4273SOL    HW113718   5.067   6.411   5.289
 4273SOL    HW213719   5.203   6.469   5.358
 4274SOL     OW13720   1.000   0.175   1.797
 4274SOL    HW113721   1.012   0.160   1.699
 4274SOL    HW213722   1.028   0.093   1.846
 4275SOL     OW13723   0.521   2.010   3.883
 4275SOL    HW113724   0.464   2.047   3.956
 4275SOL    HW213725   0.537   1.912   3.900
 4276SOL     OW13726   3.157   4.865   3.772
 4276SOL    HW113727   3.073   4.826   3.809
 4276SOL    HW213728   3.220   4.791   3.749
 4277SOL     OW13729   0.568   4.436   2.519
 4277SOL    HW113730   0.627   4.378   2.463
 4277SOL    HW213731   0.485   4.459   2.467
 4278SOL     OW13732   0.543   6.931   3.854
 4278SOL    HW113733   0.481   6.983   3.796
 4278SOL    HW213734   0.576   6.851   3.804
 4279SOL     OW13735   1.138   1.180   2.542
 4279SOL    HW113736   1.144   1.241   2.620
 4279SOL    HW213737   1.166   1.088   2.569
 4280SOL     OW13738   6.175   6.964   6.009
 4280SOL    HW113739   6.213   6.962   5.917
 4280SOL    HW213740   6.206   0.024   6.056
 4281SOL     OW13741   5.419   4.814   3.361
 4281SOL    HW113742   5.335   4.848   3.403
 4281SOL    HW213743   5.403   4.724   3.321
 4282SOL     OW13744   2.742   4.987   0.522
 4282SOL    HW113745   2.829   4.946   0.550
 4282SOL    HW213746   2.666   4.932   0.557
 4283SOL     OW13747   3.795   0.904   3.509
 4283SOL    HW113748   3.869   0.906   3.576
 4283SOL    HW213749   3.803   0.820   3.455
 4284SOL     OW13750   4.521   5.558   0.633
 4284SOL    HW113751   4.442   5.579   0.692
 4284SOL    HW213752   4.491   5.555   0.538
 4285SOL     OW13753   2.514   1.043   5.716
 4285SOL    HW113754   2.449   1.078   5.649
 4285SOL    HW213755   2.571   0.973   5.674
 4286SOL     OW13756   5.638   0.360   6.119
 4286SOL    HW113757   5.709   0.430   6.124
 4286SOL    HW213758   5.641   0.304   6.202
 4287SOL     OW13759   4.668   1.034   5.598
 4287SOL    HW113760   4.743   1.090   5.563
 4287SOL    HW213761   4.600   1.022   5.525
 4288SOL     OW13762   0.658   5.295   2.997
 4288SOL    HW113763   0.667   5.395   2.987
 4288SOL    HW213764   0.650   5.253   2.907
 4289SOL     OW13765   1.362   2.418   6.451
 4289SOL    HW113766   1.282   2.417   6.391
 4289SOL    HW213767   1.420   2.339   6.430
 4290SOL     OW13768   0.207   6.522   4.918
 4290SOL    HW113769   0.265   6.590   4.962
 4290SOL    HW213770   0.264   6.448   4.881
 4291SOL     OW13771   5.084   4.110   6.101
 4291SOL    HW113772   5.047   4.194   6.140
 4291SOL    HW213773   5.109   4.047   6.174
 4292SOL     OW13774   5.814   3.088   6.975
 4292SOL    HW113775   5.754   3.084   6.895
 4292SOL    HW213776   5.821   2.998   7.017
 4293SOL     OW13777   3.449   4.274   6.686
 4293SOL    HW113778   3.440   4.179   6.655
 4293SOL    HW213779   3.542   4.289   6.720
 4294SOL     OW13780   2.037   1.717   5.955
 4294SOL    HW113781   2.013   1.763   6.040
 4294SOL    HW213782   2.131   1.681   5.962
 4295SOL     OW13783   4.334   5.986   3.478
 4295SOL    HW113784   4.412   6.049   3.470
 4295SOL    HW213785   4.297   5.990   3.570
 4296SOL     OW13786   3.182   6.880   0.491
 4296SOL    HW113787   3.112   6.923   0.548
 4296SOL    HW213788   3.203   6.789   0.527
 4297SOL     OW13789   6.475   6.630   2.029
 4297SOL    HW113790   6.447   6.599   2.120
 4297SOL    HW213791   6.544   6.568   1.992
 4298SOL     OW13792   3.017   6.274   1.870
 4298SOL    HW113793   3.057   6.246   1.783
 4298SOL    HW213794   3.077   6.246   1.945
 4299SOL     OW13795   0.804   2.900   6.950
 4299SOL    HW113796   0.758   2.973   6.897
 4299SOL    HW213797   0.896   2.930   6.975
 4300SOL     OW13798   2.723   0.165   0.242
 4300SOL    HW113799   2.645   0.120   0.286
 4300SOL    HW213800   2.794   0.097   0.222
 4301SOL     OW13801   4.257   0.571   1.676
 4301SOL    HW113802   4.179   0.582   1.739
 4301SOL    HW213803   4.240   0.624   1.593
 4302SOL     OW13804   6.464   7.009   6.470
 4302SOL    HW113805   6.557   7.015   6.435
 4302SOL    HW213806   6.410   6.947   6.413
 4303SOL     OW13807   0.058   4.830   3.766
 4303SOL    HW113808   0.125   4.756   3.761
 4303SOL    HW213809   0.010   4.826   3.854
 4304SOL     OW13810   3.562   3.608   2.450
 4304SOL    HW113811   3.571   3.592   2.352
 4304SOL    HW213812   3.479   3.662   2.468
 4305SOL     OW13813   0.588   6.495   6.204
 4305SOL    HW113814   0.499   6.520   6.165
 4305SOL    HW213815   0.574   6.462   6.298
 4306SOL     OW13816   4.785   5.202   4.490
 4306SOL    HW113817   4.790   5.287   4.542
 4306SOL    HW213818   4.758   5.127   4.550
 4307SOL     OW13819   5.601   3.336   4.803
 4307SOL    HW113820   5.582   3.265   4.871
 4307SOL    HW213821   5.697   3.365   4.812
 4308SOL     OW13822   5.640   5.434   1.356
 4308SOL    HW113823   5.566   5.369   1.379
 4308SOL    HW213824   5.728   5.393   1.380
 4309SOL     OW13825   1.586   2.388   0.362
 4309SOL    HW113826   1.497   2.344   0.346
 4309SOL    HW213827   1.616   2.432   0.278
 4310SOL     OW13828   1.495   2.639   1.840
 4310SOL    HW113829   1.503   2.729   1.796
 4310SOL    HW213830   1.537   2.570   1.782
 4311SOL     OW13831   1.014   5.962   2.232
 4311SOL    HW113832   1.020   6.021   2.151
 4311SOL    HW213833   1.045   6.012   2.312
 4312SOL     OW13834   1.565   5.709   2.952
 4312SOL    HW113835   1.656   5.749   2.949
 4312SOL    HW213836   1.524   5.726   3.041
 4313SOL     OW13837   4.444   1.718   0.310
 4313SOL    HW113838   4.354   1.699   0.351
 4313SOL    HW213839   4.453   1.668   0.224
 4314SOL     OW13840   6.249   1.740   4.931
 4314SOL    HW113841   6.294   1.796   5.001
 4314SOL    HW213842   6.265   1.781   4.841
 4315SOL     OW13843   2.050   1.164   3.280
 4315SOL    HW113844   2.110   1.101   3.330
 4315SOL    HW213845   2.070   1.158   3.182
 4316SOL     OW13846   5.217   0.405   2.441
 4316SOL    HW113847   5.168   0.463   2.376
 4316SOL    HW213848   5.164   0.320   2.455
 4317SOL     OW13849   4.704   1.670   5.682
 4317SOL    HW113850   4.745   1.654   5.592
 4317SOL    HW213851   4.610   1.637   5.682
 4318SOL     OW13852   0.572   1.268   4.781
 4318SOL    HW113853   0.481   1.310   4.790
 4318SOL    HW213854   0.637   1.318   4.837
 4319SOL     OW13855   1.652   1.769   0.901
 4319SOL    HW113856   1.656   1.812   0.991
 4319SOL    HW213857   1.687   1.832   0.832
 4320SOL     OW13858   3.405   5.501   1.302
 4320SOL    HW113859   3.348   5.442   1.359
 4320SOL    HW213860   3.382   5.486   1.206
 4321SOL     OW13861   6.714   4.942   3.863
 4321SOL    HW113862   6.761   4.892   3.790
 4321SOL    HW213863   6.663   5.018   3.823
 4322SOL     OW13864   6.469   3.264   6.155
 4322SOL    HW113865   6.519   3.306   6.232
 4322SOL    HW213866   6.388   3.217   6.190
 4323SOL     OW13867   4.857   5.273   0.350
 4323SOL    HW113868   4.786   5.306   0.286
 4323SOL    HW213869   4.837   5.178   0.375
 4324SOL     OW13870   6.353   4.209   5.560
 4324SOL    HW113871   6.281   4.145   5.589
 4324SOL    HW213872   6.442   4.175   5.588
 4325SOL     OW13873   2.692   1.555   2.192
 4325SOL    HW113874   2.717   1.540   2.096
 4325SOL    HW213875   2.673   1.652   2.207
 4326SOL     OW13876   5.495   4.140   2.042
 4326SOL    HW113877   5.432   4.204   2.087
 4326SOL    HW213878   5.504   4.058   2.097
 4327SOL     OW13879   4.296   6.218   2.761
 4327SOL    HW113880   4.280   6.265   2.674
 4327SOL    HW213881   4.270   6.279   2.836
 4328SOL     OW13882   5.688   4.511   5.225
 4328SOL    HW113883   5.695   4.569   5.143
 4328SOL    HW213884   5.778   4.470   5.243
 4329SOL     OW13885   5.999   2.606   5.692
 4329SOL    HW113886   6.033   2.680   5.634
 4329SOL    HW213887   5.921   2.562   5.648
 4330SOL     OW13888   1.674   6.659   3.882
 4330SOL    HW113889   1.607   6.702   3.942
 4330SOL    HW213890   1.629   6.631   3.797
 4331SOL     OW13891   6.406   0.682   1.690
 4331SOL    HW113892   6.505   0.684   1.673
 4331SOL    HW213893   6.358   0.665   1.604
 4332SOL     OW13894   6.830   3.078   2.854
 4332SOL    HW113895   6.923   3.065   2.888
 4332SOL    HW213896   6.832   3.095   2.756
 4333SOL     OW13897   4.377   2.011   5.106
 4333SOL    HW113898   4.322   1.991   5.025
 4333SOL    HW213899   4.410   1.926   5.147
 4334SOL     OW13900   1.382   3.262   2.074
 4334SOL    HW113901   1.468   3.235   2.032
 4334SOL    HW213902   1.306   3.219   2.025
 4335SOL     OW13903   3.693   2.776   1.916
 4335SOL    HW113904   3.773   2.809   1.865
 4335SOL    HW213905   3.708   2.790   2.014
 4336SOL     OW13906   2.614   5.442   5.771
 4336SOL    HW113907   2.616   5.391   5.857
 4336SOL    HW213908   2.678   5.401   5.707
 4337SOL     OW13909   2.165   4.908   1.542
 4337SOL    HW113910   2.155   5.007   1.533
 4337SOL    HW213911   2.253   4.887   1.584
 4338SOL     OW13912   6.168   0.205   6.451
 4338SOL    HW113913   6.162   0.260   6.368
 4338SOL    HW213914   6.254   0.225   6.498
 4339SOL     OW13915   3.742   2.469   6.246
 4339SOL    HW113916   3.841   2.479   6.262
 4339SOL    HW213917   3.712   2.533   6.176
 4340SOL     OW13918   5.916   3.607   0.928
 4340SOL    HW113919   5.896   3.593   0.831
 4340SOL    HW213920   5.849   3.670   0.967
 4341SOL     OW13921   1.311   4.965   1.366
 4341SOL    HW113922   1.267   4.899   1.427
 4341SOL    HW213923   1.246   5.039   1.345
 4342SOL     OW13924   5.172   3.496   3.007
 4342SOL    HW113925   5.271   3.492   3.021
 4342SOL    HW213926   5.149   3.455   2.918
 4343SOL     OW13927   3.162   6.153   5.198
 4343SOL    HW113928   3.160   6.199   5.287
 4343SOL    HW213929   3.236   6.192   5.142
 4344SOL     OW13930   1.028   2.913   3.026
 4344SOL    HW113931   1.019   2.877   2.933
 4344SOL    HW213932   0.939   2.945   3.058
 4345SOL     OW13933   2.951   3.294   4.741
 4345SOL    HW113934   2.886   3.259   4.808
 4345SOL    HW213935   2.938   3.248   4.654
 4346SOL     OW13936   2.226   2.796   2.220
 4346SOL    HW113937   2.241   2.697   2.212
 4346SOL    HW213938   2.207   2.834   2.130
 4347SOL     OW13939   6.002   6.840   2.434
 4347SOL    HW113940   5.980   6.894   2.515
 4347SOL    HW213941   6.062   6.893   2.374
 4348SOL     OW13942   0.512   5.891   4.214
 4348SOL    HW113943   0.581   5.831   4.173
 4348SOL    HW213944   0.516   5.981   4.170
 4349SOL     OW13945   6.942   2.974   3.858
 4349SOL    HW113946   7.003   2.993   3.935
 4349SOL    HW213947   6.909   2.880   3.864
 4350SOL     OW13948   4.954   2.288   4.187
 4350SOL    HW113949   4.957   2.201   4.139
 4350SOL    HW213950   4.937   2.362   4.122
 4351SOL     OW13951   1.258   5.845   1.125
 4351SOL    HW113952   1.317   5.796   1.060
 4351SOL    HW213953   1.283   5.819   1.218
 4352SOL     OW13954   6.346   3.977   1.814
 4352SOL    HW113955   6.415   4.034   1.770
 4352SOL    HW213956   6.257   4.021   1.808
 4353SOL     OW13957   3.443   3.720   0.254
 4353SOL    HW113958   3.428   3.739   0.351
 4353SOL    HW213959   3.443   3.806   0.203
 4354SOL     OW13960   1.047   1.707   6.390
 4354SOL    HW113961   1.008   1.630   6.440
 4354SOL    HW213962   1.010   1.709   6.297
 4355SOL     OW13963   2.062   6.941   2.829
 4355SOL    HW113964   2.038   6.953   2.926
 4355SOL    HW213965   2.159   6.963   2.817
 4356SOL     OW13966   4.501   3.697   5.328
 4356SOL    HW113967   4.471   3.606   5.358
 4356SOL    HW213968   4.580   3.687   5.268
 4357SOL     OW13969   6.946   1.679   1.373
 4357SOL    HW113970   0.013   1.679   1.417
 4357SOL    HW213971   6.940   1.602   1.309
 4358SOL     OW13972   6.977   6.911   0.231
 4358SOL    HW113973   6.935   6.881   0.146
 4358SOL    HW213974   6.906   6.925   0.300
 4359SOL     OW13975   1.404   1.374   6.819
 4359SOL    HW113976   1.456   1.289   6.813
 4359SOL    HW213977   1.335   1.367   6.890
 4360SOL     OW13978   0.860   2.575   4.468
 4360SOL    HW113979   0.951   2.591   4.429
 4360SOL    HW213980   0.809   2.512   4.410
 4361SOL     OW13981   2.082   3.597   1.318
 4361SOL    HW113982   2.068   3.652   1.236
 4361SOL    HW213983   2.159   3.635   1.370
 4362SOL     OW13984   0.149   5.635   3.844
 4362SOL    HW113985   0.066   5.685   3.820
 4362SOL    HW213986   0.132   5.536   3.836
 4363SOL     OW13987   4.297   1.335   2.190
 4363SOL    HW113988   4.302   1.361   2.287
 4363SOL    HW213989   4.264   1.241   2.183
 4364SOL     OW13990   3.012   3.965   3.152
 4364SOL    HW113991   3.066   4.013   3.083
 4364SOL    HW213992   2.941   3.910   3.107
 4365SOL     OW13993   3.052   0.445   1.986
 4365SOL    HW113994   2.952   0.443   1.987
 4365SOL    HW213995   3.087   0.398   2.068
 4366SOL     OW13996   5.690   6.153   6.426
 4366SOL    HW113997   5.689   6.054   6.411
 4366SOL    HW213998   5.756   6.196   6.365
 4367SOL     OW13999   2.950   4.828   3.461
 4367SOL    HW114000   2.932   4.791   3.552
 4367SOL    HW214001   3.047   4.852   3.453
 4368SOL     OW14002   4.050   5.578   2.221
 4368SOL    HW114003   4.034   5.637   2.142
 4368SOL    HW214004   3.977   5.590   2.288
 4369SOL     OW14005   5.008   5.337   3.257
 4369SOL    HW114006   5.033   5.393   3.178
 4369SOL    HW214007   5.090   5.302   3.301
 4370SOL     OW14008   3.546   4.061   1.557
 4370SOL    HW114009   3.571   4.130   1.624
 4370SOL    HW214010   3.476   4.000   1.596
 4371SOL     OW14011   2.359   1.484   3.148
 4371SOL    HW114012   2.420   1.534   3.087
 4371SOL    HW214013   2.325   1.546   3.219
 4372SOL     OW14014   2.150   3.133   3.865
 4372SOL    HW114015   2.218   3.206   3.858
 4372SOL    HW214016   2.146   3.099   3.959
 4373SOL     OW14017   4.418   0.594   6.503
 4373SOL    HW114018   4.515   0.607   6.519
 4373SOL    HW214019   4.366   0.625   6.583
 4374SOL     OW14020   2.120   1.780   1.349
 4374SOL    HW114021   2.214   1.799   1.322
 4374SOL    HW214022   2.092   1.691   1.311
 4375SOL     OW14023   4.140   6.471   2.889
 4375SOL    HW114024   4.220   6.523   2.862
 4375SOL    HW214025   4.093   6.438   2.807
 4376SOL     OW14026   6.697   0.303   1.539
 4376SOL    HW114027   6.640   0.268   1.613
 4376SOL    HW214028   6.793   0.293   1.563
 4377SOL     OW14029   6.303   5.573   0.686
 4377SOL    HW114030   6.238   5.633   0.639
 4377SOL    HW214031   6.396   5.606   0.670
 4378SOL     OW14032   1.324   4.346   2.674
 4378SOL    HW114033   1.231   4.382   2.680
 4378SOL    HW214034   1.382   4.394   2.740
 4379SOL     OW14035   2.278   0.988   1.699
 4379SOL    HW114036   2.245   0.894   1.712
 4379SOL    HW214037   2.377   0.986   1.683
 4380SOL     OW14038   1.772   6.134   4.382
 4380SOL    HW114039   1.762   6.229   4.413
 4380SOL    HW214040   1.682   6.092   4.374
 4381SOL     OW14041   2.237   4.180   4.796
 4381SOL    HW114042   2.210   4.118   4.722
 4381SOL    HW214043   2.266   4.126   4.875
 4382SOL     OW14044   5.891   3.924   6.210
 4382SOL    HW114045   5.905   3.970   6.123
 4382SOL    HW214046   5.881   3.992   6.283
 4383SOL     OW14047   0.440   2.767   5.382
 4383SOL    HW114048   0.350   2.741   5.416
 4383SOL    HW214049   0.505   2.693   5.398
 4384SOL     OW14050   5.232   1.003   6.837
 4384SOL    HW114051   5.240   1.074   6.907
 4384SOL    HW214052   5.139   1.002   6.801
 4385SOL     OW14053   0.051   2.944   4.451
 4385SOL    HW114054   0.023   3.013   4.518
 4385SOL    HW214055   0.011   2.856   4.476
 4386SOL     OW14056   1.006   3.432   6.773
 4386SOL    HW114057   0.994   3.389   6.683
 4386SOL    HW214058   0.918   3.469   6.803
 4387SOL     OW14059   0.934   2.325   1.751
 4387SOL    HW114060   0.872   2.332   1.829
 4387SOL    HW214061   0.884   2.294   1.670
 4388SOL     OW14062   4.810   0.951   6.670
 4388SOL    HW114063   4.864   0.905   6.741
 4388SOL    HW214064   4.773   1.036   6.706
 4389SOL     OW14065   5.605   1.692   0.591
 4389SOL    HW114066   5.514   1.684   0.551
 4389SOL    HW214067   5.647   1.778   0.561
 4390SOL     OW14068   3.552   1.952   2.137
 4390SOL    HW114069   3.453   1.938   2.131
 4390SOL    HW214070   3.574   2.045   2.108
 4391SOL     OW14071   1.468   5.502   6.530
 4391SOL    HW114072   1.560   5.463   6.524
 4391SOL    HW214073   1.439   5.505   6.626
 4392SOL     OW14074   6.102   3.584   5.016
 4392SOL    HW114075   6.072   3.674   4.983
 4392SOL    HW214076   6.108   3.585   5.115
 4393SOL     OW14077   5.179   6.546   2.922
 4393SOL    HW114078   5.186   6.646   2.924
 4393SOL    HW214079   5.227   6.508   3.001
 4394SOL     OW14080   6.364   5.309   3.052
 4394SOL    HW114081   6.309   5.300   2.969
 4394SOL    HW214082   6.444   5.366   3.034
 4395SOL     OW14083   4.290   1.789   2.104
 4395SOL    HW114084   4.282   1.698   2.062
 4395SOL    HW214085   4.202   1.836   2.097
 4396SOL     OW14086   2.464   2.122   3.915
 4396SOL    HW114087   2.517   2.053   3.964
 4396SOL    HW214088   2.527   2.186   3.870
 4397SOL     OW14089   0.382   1.452   4.715
 4397SOL    HW114090   0.451   1.520   4.689
 4397SOL    HW214091   0.306   1.498   4.761
 4398SOL     OW14092   1.183   4.626   5.172
 4398SOL    HW114093   1.263   4.640   5.231
 4398SOL    HW214094   1.211   4.629   5.076
 4399SOL     OW14095   2.095   0.418   2.081
 4399SOL    HW114096   2.123   0.322   2.078
 4399SOL    HW214097   2.132   0.461   2.163
 4400SOL     OW14098   1.911   6.405   4.715
 4400SOL    HW114099   1.831   6.437   4.666
 4400SOL    HW214100   1.978   6.369   4.650
 4401SOL     OW14101   5.458   6.216   6.272
 4401SOL    HW114102   5.375   6.251   6.316
 4401SOL    HW214103   5.530   6.207   6.340
 4402SOL     OW14104   1.869   5.839   2.711
 4402SOL    HW114105   1.858   5.934   2.681
 4402SOL    HW214106   1.849   5.833   2.809
 4403SOL     OW14107   7.004   6.847   3.760
 4403SOL    HW114108   0.031   6.934   3.755
 4403SOL    HW214109   6.982   6.827   3.855
 4404SOL     OW14110   0.795   4.041   5.625
 4404SOL    HW114111   0.818   4.134   5.654
 4404SOL    HW214112   0.794   4.037   5.525
 4405SOL     OW14113   3.144   3.826   0.384
 4405SOL    HW114114   3.118   3.912   0.340
 4405SOL    HW214115   3.085   3.753   0.351
 4406SOL     OW14116   5.806   4.577   1.483
 4406SOL    HW114117   5.791   4.604   1.578
 4406SOL    HW214118   5.868   4.642   1.439
 4407SOL     OW14119   0.130   4.726   0.483
 4407SOL    HW114120   0.044   4.773   0.503
 4407SOL    HW214121   0.200   4.754   0.549
 4408SOL     OW14122   4.912   0.843   0.889
 4408SOL    HW114123   4.936   0.810   0.981
 4408SOL    HW214124   4.816   0.820   0.869
 4409SOL     OW14125   3.942   0.869   2.328
 4409SOL    HW114126   4.012   0.798   2.321
 4409SOL    HW214127   3.863   0.833   2.378
 4410SOL     OW14128   1.771   4.819   0.218
 4410SOL    HW114129   1.829   4.808   0.137
 4410SOL    HW214130   1.803   4.759   0.291
 4411SOL     OW14131   3.975   3.291   3.658
 4411SOL    HW114132   4.020   3.270   3.746
 4411SOL    HW214133   3.993   3.387   3.634
 4412SOL     OW14134   3.572   1.517   4.547
 4412SOL    HW114135   3.569   1.574   4.465
 4412SOL    HW214136   3.546   1.423   4.525
 4413SOL     OW14137   4.874   6.120   5.077
 4413SOL    HW114138   4.878   6.187   5.002
 4413SOL    HW214139   4.902   6.030   5.043
 4414SOL     OW14140   4.176   4.801   1.648
 4414SOL    HW114141   4.126   4.715   1.639
 4414SOL    HW214142   4.274   4.782   1.659
 4415SOL     OW14143   3.957   4.024   6.275
 4415SOL    HW114144   3.979   4.117   6.305
 4415SOL    HW214145   3.874   4.026   6.218
 4416SOL     OW14146   3.202   0.293   4.644
 4416SOL    HW114147   3.264   0.215   4.642
 4416SOL    HW214148   3.222   0.353   4.566
 4417SOL     OW14149   6.834   4.430   2.868
 4417SOL    HW114150   6.736   4.414   2.856
 4417SOL    HW214151   6.853   4.446   2.965
 4418SOL     OW14152   5.373   0.832   4.261
 4418SOL    HW114153   5.461   0.797   4.228
 4418SOL    HW214154   5.307   0.833   4.186
 4419SOL     OW14155   5.906   6.148   0.397
 4419SOL    HW114156   5.844   6.222   0.425
 4419SOL    HW214157   5.883   6.064   0.447
 4420SOL     OW14158   5.101   1.885   0.998
 4420SOL    HW114159   5.151   1.959   0.953
 4420SOL    HW214160   5.004   1.890   0.972
 4421SOL     OW14161   1.789   1.169   3.422
 4421SOL    HW114162   1.829   1.137   3.508
 4421SOL    HW214163   1.858   1.164   3.350
 4422SOL     OW14164   2.195   3.704   6.055
 4422SOL    HW114165   2.219   3.738   5.964
 4422SOL    HW214166   2.164   3.781   6.112
 4423SOL     OW14167   1.544   2.891   6.075
 4423SOL    HW114168   1.499   2.922   6.159
 4423SOL    HW214169   1.591   2.804   6.093
 4424SOL     OW14170   5.705   6.542   3.806
 4424SOL    HW114171   5.625   6.491   3.839
 4424SOL    HW214172   5.759   6.573   3.885
 4425SOL     OW14173   3.591   5.595   5.713
 4425SOL    HW114174   3.645   5.570   5.632
 4425SOL    HW214175   3.500   5.626   5.683
 4426SOL     OW14176   0.043   1.878   4.644
 4426SOL    HW114177   0.044   1.790   4.596
 4426SOL    HW214178   0.126   1.929   4.622
 4427SOL     OW14179   6.801   6.845   2.701
 4427SOL    HW114180   6.890   6.801   2.713
 4427SOL    HW214181   6.785   6.908   2.777
 4428SOL     OW14182   3.193   5.159   2.577
 4428SOL    HW114183   3.209   5.169   2.479
 4428SOL    HW214184   3.208   5.064   2.604
 4429SOL     OW14185   2.950   0.773   4.138
 4429SOL    HW114186   2.876   0.754   4.202
 4429SOL    HW214187   2.931   0.858   4.088
 4430SOL     OW14188   5.612   3.095   4.004
 4430SOL    HW114189   5.699   3.141   4.021
 4430SOL    HW214190   5.620   2.998   4.028
 4431SOL     OW14191   1.486   1.221   2.136
 4431SOL    HW114192   1.509   1.286   2.208
 4431SOL    HW214193   1.411   1.259   2.080
 4432SOL     OW14194   3.040   3.923   3.688
 4432SOL    HW114195   2.991   3.836   3.687
 4432SOL    HW214196   3.074   3.943   3.596
 4433SOL     OW14197   6.036   0.592   4.528
 4433SOL    HW114198   5.988   0.619   4.611
 4433SOL    HW214199   6.134   0.582   4.548
 4434SOL     OW14200   4.212   2.257   3.346
 4434SOL    HW114201   4.186   2.185   3.281
 4434SOL    HW214202   4.281   2.316   3.304
 4435SOL     OW14203   4.369   3.839   0.738
 4435SOL    HW114204   4.296   3.849   0.805
 4435SOL    HW214205   4.440   3.778   0.774
 4436SOL     OW14206   3.454   2.267   0.843
 4436SOL    HW114207   3.530   2.332   0.846
 4436SOL    HW214208   3.408   2.274   0.754
 4437SOL     OW14209   5.568   1.146   3.788
 4437SOL    HW114210   5.491   1.143   3.852
 4437SOL    HW214211   5.534   1.132   3.695
 4438SOL     OW14212   4.236   1.117   6.781
 4438SOL    HW114213   4.311   1.106   6.716
 4438SOL    HW214214   4.200   1.210   6.776
 4439SOL     OW14215   0.332   6.250   1.236
 4439SOL    HW114216   0.292   6.341   1.245
 4439SOL    HW214217   0.375   6.224   1.323
 4440SOL     OW14218   1.626   4.540   0.322
 4440SOL    HW114219   1.651   4.454   0.276
 4440SOL    HW214220   1.708   4.581   0.361
 4441SOL     OW14221   6.756   1.681   2.712
 4441SOL    HW114222   6.810   1.725   2.640
 4441SOL    HW214223   6.660   1.680   2.685
 4442SOL     OW14224   3.197   6.335   4.193
 4442SOL    HW114225   3.118   6.285   4.159
 4442SOL    HW214226   3.245   6.278   4.260
 4443SOL     OW14227   0.293   2.901   0.573
 4443SOL    HW114228   0.363   2.854   0.625
 4443SOL    HW214229   0.266   2.845   0.494
 4444SOL     OW14230   3.468   5.936   6.007
 4444SOL    HW114231   3.564   5.914   5.990
 4444SOL    HW214232   3.411   5.892   5.938
 4445SOL     OW14233   0.178   0.473   1.033
 4445SOL    HW114234   0.223   0.558   1.005
 4445SOL    HW214235   0.247   0.402   1.046
 4446SOL     OW14236   5.708   1.510   1.895
 4446SOL    HW114237   5.645   1.433   1.891
 4446SOL    HW214238   5.797   1.483   1.859
 4447SOL     OW14239   6.011   3.767   5.953
 4447SOL    HW114240   6.040   3.861   5.971
 4447SOL    HW214241   6.001   3.718   6.040
 4448SOL     OW14242   3.400   4.075   0.894
 4448SOL    HW114243   3.427   3.997   0.950
 4448SOL    HW214244   3.382   4.043   0.800
 4449SOL     OW14245   4.064   0.623   6.216
 4449SOL    HW114246   4.106   0.679   6.145
 4449SOL    HW214247   4.135   0.581   6.273
 4450SOL     OW14248   4.051   3.539   4.387
 4450SOL    HW114249   4.095   3.493   4.464
 4450SOL    HW214250   4.054   3.638   4.401
 4451SOL     OW14251   5.563   3.796   2.897
 4451SOL    HW114252   5.558   3.879   2.952
 4451SOL    HW214253   5.472   3.772   2.863
 4452SOL     OW14254   5.650   6.797   5.353
 4452SOL    HW114255   5.730   6.842   5.314
 4452SOL    HW214256   5.631   6.713   5.302
 4453SOL     OW14257   6.434   2.498   1.042
 4453SOL    HW114258   6.489   2.554   0.980
 4453SOL    HW214259   6.372   2.557   1.094
 4454SOL     OW14260   5.047   2.238   0.197
 4454SOL    HW114261   5.097   2.204   0.117
 4454SOL    HW214262   5.084   2.197   0.280
 4455SOL     OW14263   3.623   0.344   6.249
 4455SOL    HW114264   3.570   0.378   6.326
 4455SOL    HW214265   3.694   0.410   6.225
 4456SOL     OW14266   2.730   5.059   2.552
 4456SOL    HW114267   2.665   5.126   2.516
 4456SOL    HW214268   2.703   5.033   2.645
 4457SOL     OW14269   4.340   2.139   0.304
 4457SOL    HW114270   4.283   2.220   0.306
 4457SOL    HW214271   4.313   2.076   0.376
 4458SOL     OW14272   1.121   3.835   6.744
 4458SOL    HW114273   1.068   3.792   6.817
 4458SOL    HW214274   1.180   3.905   6.783
 4459SOL     OW14275   4.919   0.648   3.468
 4459SOL    HW114276   4.821   0.633   3.454
 4459SOL    HW214277   4.947   0.730   3.418
 4460SOL     OW14278   2.665   3.182   5.533
 4460SOL    HW114279   2.741   3.225   5.581
 4460SOL    HW214280   2.600   3.146   5.599
 4461SOL     OW14281   0.713   0.812   2.541
 4461SOL    HW114282   0.811   0.831   2.531
 4461SOL    HW214283   0.688   0.813   2.637
 4462SOL     OW14284   6.995   3.583   1.714
 4462SOL    HW114285   0.026   3.531   1.648
 4462SOL    HW214286   7.021   3.679   1.710
 4463SOL     OW14287   2.728   2.774   0.017
 4463SOL    HW114288   2.780   2.857   7.019
 4463SOL    HW214289   2.788   2.695   0.016
 4464SOL     OW14290   5.859   4.853   6.704
 4464SOL    HW114291   5.905   4.914   6.769
 4464SOL    HW214292   5.905   4.765   6.703
 4465SOL     OW14293   2.288   5.605   3.710
 4465SOL    HW114294   2.229   5.641   3.783
 4465SOL    HW214295   2.300   5.675   3.640
 4466SOL     OW14296   1.286   0.481   1.938
 4466SOL    HW114297   1.283   0.580   1.923
 4466SOL    HW214298   1.319   0.462   2.030
 4467SOL     OW14299   1.378   6.123   3.576
 4467SOL    HW114300   1.288   6.092   3.606
 4467SOL    HW214301   1.424   6.171   3.651
 4468SOL     OW14302   1.486   2.617   0.492
 4468SOL    HW114303   1.526   2.542   0.441
 4468SOL    HW214304   1.526   2.620   0.584
 4469SOL     OW14305   3.612   0.212   1.622
 4469SOL    HW114306   3.648   0.302   1.597
 4469SOL    HW214307   3.686   0.145   1.621
 4470SOL     OW14308   6.304   3.703   1.802
 4470SOL    HW114309   6.261   3.681   1.889
 4470SOL    HW214310   6.333   3.799   1.803
 4471SOL     OW14311   6.905   1.888   0.447
 4471SOL    HW114312   6.837   1.821   0.416
 4471SOL    HW214313   6.975   1.841   0.500
 4472SOL     OW14314   1.692   2.998   3.506
 4472SOL    HW114315   1.726   3.081   3.463
 4472SOL    HW214316   1.656   3.019   3.597
 4473SOL     OW14317   6.634   2.000   3.364
 4473SOL    HW114318   6.700   2.008   3.438
 4473SOL    HW214319   6.586   2.087   3.352
 4474SOL     OW14320   3.349   0.928   1.801
 4474SOL    HW114321   3.257   0.964   1.786
 4474SOL    HW214322   3.343   0.833   1.830
 4475SOL     OW14323   1.737   3.684   2.694
 4475SOL    HW114324   1.684   3.716   2.616
 4475SOL    HW214325   1.714   3.588   2.713
 4476SOL     OW14326   4.994   6.435   3.779
 4476SOL    HW114327   5.050   6.386   3.846
 4476SOL    HW214328   4.915   6.378   3.755
 4477SOL     OW14329   1.733   7.004   5.345
 4477SOL    HW114330   1.818   6.952   5.352
 4477SOL    HW214331   1.718   0.009   5.250
 4478SOL     OW14332   2.986   5.884   2.383
 4478SOL    HW114333   2.930   5.860   2.303
 4478SOL    HW214334   2.975   5.815   2.453
 4479SOL     OW14335   0.976   0.270   0.774
 4479SOL    HW114336   1.040   0.316   0.836
 4479SOL    HW214337   0.927   0.339   0.719
 4480SOL     OW14338   1.639   3.712   5.367
 4480SOL    HW114339   1.718   3.751   5.414
 4480SOL    HW214340   1.615   3.770   5.289
 4481SOL     OW14341   2.887   6.926   5.095
 4481SOL    HW114342   2.982   6.926   5.063
 4481SOL    HW214343   2.825   6.927   5.016
 4482SOL     OW14344   0.279   4.181   4.044
 4482SOL    HW114345   0.265   4.088   4.010
 4482SOL    HW214346   0.291   4.243   3.966
 4483SOL     OW14347   5.597   3.247   1.396
 4483SOL    HW114348   5.692   3.271   1.418
 4483SOL    HW214349   5.535   3.301   1.453
 4484SOL     OW14350   3.030   2.525   5.368
 4484SOL    HW114351   2.997   2.455   5.431
 4484SOL    HW214352   3.124   2.504   5.340
 4485SOL     OW14353   5.505   2.422   6.131
 4485SOL    HW114354   5.413   2.458   6.123
 4485SOL    HW214355   5.571   2.497   6.122
 4486SOL     OW14356   5.612   3.701   4.673
 4486SOL    HW114357   5.533   3.649   4.704
 4486SOL    HW214358   5.583   3.768   4.605
 4487SOL     OW14359   2.730   3.064   6.461
 4487SOL    HW114360   2.675   2.985   6.490
 4487SOL    HW214361   2.824   3.053   6.495
 4488SOL     OW14362   5.960   3.258   5.112
 4488SOL    HW114363   5.927   3.332   5.170
 4488SOL    HW214364   6.055   3.275   5.087
 4489SOL     OW14365   4.999   5.878   4.634
 4489SOL    HW114366   4.977   5.969   4.600
 4489SOL    HW214367   5.073   5.839   4.579
 4490SOL     OW14368   5.896   2.407   2.280
 4490SOL    HW114369   5.994   2.418   2.300
 4490SOL    HW214370   5.856   2.497   2.261
 4491SOL     OW14371   0.242   3.157   3.718
 4491SOL    HW114372   0.228   3.252   3.690
 4491SOL    HW214373   0.317   3.117   3.665
 4492SOL     OW14374   4.956   3.113   0.743
 4492SOL    HW114375   4.860   3.087   0.748
 4492SOL    HW214376   4.980   3.132   0.647
 4493SOL     OW14377   4.645   6.250   5.981
 4493SOL    HW114378   4.626   6.157   6.013
 4493SOL    HW214379   4.727   6.249   5.924
 4494SOL     OW14380   6.677   1.643   5.637
 4494SOL    HW114381   6.629   1.555   5.628
 4494SOL    HW214382   6.615   1.710   5.677
 4495SOL     OW14383   4.604   6.263   3.896
 4495SOL    HW114384   4.595   6.183   3.955
 4495SOL    HW214385   4.600   6.346   3.952
 4496SOL     OW14386   4.611   5.665   1.029
 4496SOL    HW114387   4.596   5.734   0.958
 4496SOL    HW214388   4.672   5.703   1.099
 4497SOL     OW14389   4.732   0.353   0.158
 4497SOL    HW114390   4.770   0.279   0.104
 4497SOL    HW214391   4.761   0.342   0.254
 4498SOL     OW14392   0.370   2.939   6.003
 4498SOL    HW114393   0.391   2.846   5.973
 4498SOL    HW214394   0.436   2.968   6.071
 4499SOL     OW14395   0.249   3.667   3.921
 4499SOL    HW114396   0.268   3.610   4.000
 4499SOL    HW214397   0.322   3.655   3.853
 4500SOL     OW14398   2.998   3.395   4.268
 4500SOL    HW114399   2.938   3.473   4.286
 4500SOL    HW214400   3.081   3.426   4.222
 4501SOL     OW14401   0.211   3.364   5.891
 4501SOL    HW114402   0.289   3.332   5.839
 4501SOL    HW214403   0.225   3.460   5.919
 4502SOL     OW14404   1.979   2.006   6.748
 4502SOL    HW114405   1.923   2.070   6.694
 4502SOL    HW214406   1.927   1.923   6.766
 4503SOL     OW14407   3.350   0.103   2.615
 4503SOL    HW114408   3.334   0.059   2.703
 4503SOL    HW214409   3.403   0.043   2.556
 4504SOL     OW14410   6.768   1.557   4.705
 4504SOL    HW114411   6.768   1.643   4.756
 4504SOL    HW214412   6.847   1.554   4.645
 4505SOL     OW14413   6.583   5.752   3.360
 4505SOL    HW114414   6.649   5.771   3.288
 4505SOL    HW214415   6.514   5.825   3.361
 4506SOL     OW14416   4.596   2.455   4.192
 4506SOL    HW114417   4.531   2.434   4.265
 4506SOL    HW214418   4.591   2.385   4.121
 4507SOL     OW14419   5.275   4.622   2.071
 4507SOL    HW114420   5.298   4.525   2.071
 4507SOL    HW214421   5.299   4.662   1.983
 4508SOL     OW14422   0.708   5.200   5.803
 4508SOL    HW114423   0.656   5.199   5.889
 4508SOL    HW214424   0.755   5.288   5.795
 4509SOL     OW14425   5.520   2.673   3.831
 4509SOL    HW114426   5.462   2.689   3.910
 4509SOL    HW214427   5.538   2.575   3.821
 4510SOL     OW14428   5.195   0.353   5.530
 4510SOL    HW114429   5.199   0.262   5.572
 4510SOL    HW214430   5.134   0.411   5.583
 4511SOL     OW14431   6.621   3.688   6.658
 4511SOL    HW114432   6.698   3.628   6.636
 4511SOL    HW214433   6.544   3.665   6.598
 4512SOL     OW14434   2.432   6.699   5.600
 4512SOL    HW114435   2.348   6.646   5.613
 4512SOL    HW214436   2.409   6.792   5.572
 4513SOL     OW14437   4.979   6.495   0.431
 4513SOL    HW114438   4.968   6.395   0.433
 4513SOL    HW214439   4.889   6.538   0.427
 4514SOL     OW14440   5.106   1.064   5.541
 4514SOL    HW114441   5.163   1.020   5.471
 4514SOL    HW214442   5.164   1.114   5.605
 4515SOL     OW14443   6.665   3.819   5.740
 4515SOL    HW114444   6.596   3.842   5.809
 4515SOL    HW214445   6.741   3.884   5.747
 4516SOL     OW14446   1.682   1.116   6.209
 4516SOL    HW114447   1.598   1.167   6.223
 4516SOL    HW214448   1.756   1.159   6.260
 4517SOL     OW14449   1.928   0.368   7.014
 4517SOL    HW114450   1.847   0.384   6.958
 4517SOL    HW214451   1.975   0.455   0.007
 4518SOL     OW14452   6.566   1.501   3.591
 4518SOL    HW114453   6.602   1.445   3.666
 4518SOL    HW214454   6.629   1.576   3.572
 4519SOL     OW14455   5.341   6.958   1.785
 4519SOL    HW114456   5.392   6.933   1.867
 4519SOL    HW214457   5.264   7.017   1.810
 4520SOL     OW14458   5.551   5.560   3.679
 4520SOL    HW114459   5.599   5.514   3.754
 4520SOL    HW214460   5.497   5.493   3.628
 4521SOL     OW14461   5.028   1.831   4.291
 4521SOL    HW114462   5.096   1.899   4.266
 4521SOL    HW214463   4.938   1.858   4.255
 4522SOL     OW14464   5.757   0.025   3.942
 4522SOL    HW114465   5.724   0.115   3.915
 4522SOL    HW214466   5.842   0.005   3.892
 4523SOL     OW14467   1.150   4.396   0.114
 4523SOL    HW114468   1.076   4.420   0.177
 4523SOL    HW214469   1.229   4.364   0.165
 4524SOL     OW14470   5.133   2.072   4.785
 4524SOL    HW114471   5.107   2.168   4.780
 4524SOL    HW214472   5.219   2.058   4.736
 4525SOL     OW14473   6.242   1.288   3.154
 4525SOL    HW114474   6.162   1.235   3.129
 4525SOL    HW214475   6.283   1.329   3.072
 4526SOL     OW14476   4.999   0.562   0.793
 4526SOL    HW114477   4.900   0.551   0.787
 4526SOL    HW214478   5.021   0.655   0.823
 4527SOL     OW14479   4.246   0.859   3.892
 4527SOL    HW114480   4.154   0.825   3.910
 4527SOL    HW214481   4.248   0.958   3.909
 4528SOL     OW14482   4.488   6.804   0.026
 4528SOL    HW114483   4.429   6.886   0.027
 4528SOL    HW214484   4.479   6.756   0.114
 4529SOL     OW14485   3.203   1.631   4.669
 4529SOL    HW114486   3.189   1.647   4.571
 4529SOL    HW214487   3.153   1.701   4.721
 4530SOL     OW14488   6.954   3.268   5.719
 4530SOL    HW114489   6.985   3.331   5.648
 4530SOL    HW214490   7.018   3.191   5.725
 4531SOL     OW14491   0.614   3.316   3.630
 4531SOL    HW114492   0.694   3.337   3.574
 4531SOL    HW214493   0.623   3.362   3.719
 4532SOL     OW14494   6.888   1.172   2.534
 4532SOL    HW114495   6.985   1.158   2.514
 4532SOL    HW214496   6.874   1.262   2.574
 4533SOL     OW14497   1.062   0.432   2.538
 4533SOL    HW114498   0.963   0.442   2.539
 4533SOL    HW214499   1.090   0.366   2.608
 4534SOL     OW14500   6.017   4.086   4.497
 4534SOL    HW114501   5.978   4.099   4.406
 4534SOL    HW214502   6.044   4.175   4.534
 4535SOL     OW14503   4.949   2.012   2.528
 4535SOL    HW114504   4.895   1.964   2.596
 4535SOL    HW214505   5.014   2.073   2.573
 4536SOL     OW14506   4.926   2.499   3.985
 4536SOL    HW114507   4.919   2.585   4.036
 4536SOL    HW214508   4.916   2.517   3.887
 4537SOL     OW14509   4.200   3.202   5.548
 4537SOL    HW114510   4.230   3.159   5.633
 4537SOL    HW214511   4.198   3.301   5.559
 4538SOL     OW14512   2.547   0.775   4.585
 4538SOL    HW114513   2.557   0.872   4.563
 4538SOL    HW214514   2.636   0.739   4.614
 4539SOL     OW14515   1.901   0.545   4.348
 4539SOL    HW114516   1.895   0.478   4.422
 4539SOL    HW214517   1.815   0.597   4.344
 4540SOL     OW14518   3.382   2.887   4.541
 4540SOL    HW114519   3.422   2.820   4.604
 4540SOL    HW214520   3.447   2.909   4.469
 4541SOL     OW14521   5.635   1.148   0.518
 4541SOL    HW114522   5.565   1.212   0.548
 4541SOL    HW214523   5.656   1.164   0.421
 4542SOL     OW14524   6.216   6.666   1.903
 4542SOL    HW114525   6.302   6.694   1.944
 4542SOL    HW214526   6.208   6.704   1.811
 4543SOL     OW14527   5.164   2.295   0.485
 4543SOL    HW114528   5.090   2.357   0.509
 4543SOL    HW214529   5.142   2.203   0.516
 4544SOL     OW14530   2.887   6.527   5.232
 4544SOL    HW114531   2.878   6.429   5.218
 4544SOL    HW214532   2.802   6.563   5.270
 4545SOL     OW14533   5.795   2.638   4.690
 4545SOL    HW114534   5.756   2.682   4.771
 4545SOL    HW214535   5.876   2.689   4.661
 4546SOL     OW14536   1.371   1.722   6.379
 4546SOL    HW114537   1.283   1.734   6.424
 4546SOL    HW214538   1.356   1.700   6.282
 4547SOL     OW14539   6.505   2.575   3.001
 4547SOL    HW114540   6.411   2.608   3.007
 4547SOL    HW214541   6.561   2.619   3.072
 4548SOL     OW14542   1.378   4.268   4.949
 4548SOL    HW114543   1.409   4.333   4.880
 4548SOL    HW214544   1.455   4.239   5.005
 4549SOL     OW14545   6.110   4.107   2.126
 4549SOL    HW114546   6.116   4.193   2.177
 4549SOL    HW214547   6.128   4.123   2.030
 4550SOL     OW14548   0.863   5.880   2.551
 4550SOL    HW114549   0.785   5.869   2.489
 4550SOL    HW214550   0.836   5.938   2.628
 4551SOL     OW14551   6.490   1.824   5.735
 4551SOL    HW114552   6.450   1.845   5.824
 4551SOL    HW214553   6.512   1.909   5.688
 4552SOL     OW14554   6.563   2.762   0.108
 4552SOL    HW114555   6.569   2.813   0.194
 4552SOL    HW214556   6.655   2.732   0.081
 4553SOL     OW14557   4.022   4.298   0.023
 4553SOL    HW114558   4.007   4.200   0.007
 4553SOL    HW214559   4.119   4.318   0.016
 4554SOL     OW14560   4.311   0.906   1.646
 4554SOL    HW114561   4.370   0.983   1.670
 4554SOL    HW214562   4.234   0.903   1.709
 4555SOL     OW14563   3.398   1.892   5.565
 4555SOL    HW114564   3.397   1.952   5.485
 4555SOL    HW214565   3.389   1.948   5.648
 4556SOL     OW14566   4.786   2.365   3.277
 4556SOL    HW114567   4.733   2.439   3.318
 4556SOL    HW214568   4.844   2.402   3.205
 4557SOL     OW14569   5.399   6.889   5.307
 4557SOL    HW114570   5.401   6.950   5.227
 4557SOL    HW214571   5.492   6.867   5.335
 4558SOL     OW14572   6.774   3.561   5.761
 4558SOL    HW114573   6.755   3.563   5.860
 4558SOL    HW214574   6.756   3.651   5.722
 4559SOL     OW14575   0.618   4.789   1.222
 4559SOL    HW114576   0.665   4.702   1.210
 4559SOL    HW214577   0.633   4.822   1.316
 4560SOL     OW14578   4.797   4.755   3.925
 4560SOL    HW114579   4.820   4.788   3.833
 4560SOL    HW214580   4.720   4.807   3.961
 4561SOL     OW14581   2.936   0.738   1.182
 4561SOL    HW114582   3.018   0.774   1.136
 4561SOL    HW214583   2.964   0.676   1.255
 4562SOL     OW14584   3.228   5.878   5.260
 4562SOL    HW114585   3.227   5.884   5.360
 4562SOL    HW214586   3.168   5.949   5.222
 4563SOL     OW14587   0.323   4.041   0.313
 4563SOL    HW114588   0.409   4.003   0.278
 4563SOL    HW214589   0.338   4.079   0.404
 4564SOL     OW14590   0.229   6.587   1.106
 4564SOL    HW114591   0.301   6.551   1.048
 4564SOL    HW214592   0.159   6.631   1.049
 4565SOL     OW14593   0.308   1.456   5.495
 4565SOL    HW114594   0.306   1.400   5.577
 4565SOL    HW214595   0.275   1.403   5.416
 4566SOL     OW14596   6.817   1.339   1.026
 4566SOL    HW114597   6.912   1.348   0.998
 4566SOL    HW214598   6.811   1.273   1.102
 4567SOL     OW14599   0.339   1.055   0.242
 4567SOL    HW114600   0.325   0.994   0.164
 4567SOL    HW214601   0.271   1.128   0.239
 4568SOL     OW14602   1.215   5.085   5.101
 4568SOL    HW114603   1.255   5.037   5.022
 4568SOL    HW214604   1.155   5.023   5.151
 4569SOL     OW14605   2.265   1.511   2.641
 4569SOL    HW114606   2.201   1.588   2.641
 4569SOL    HW214607   2.349   1.537   2.594
 4570SOL     OW14608   0.572   5.038   3.123
 4570SOL    HW114609   0.529   4.987   3.197
 4570SOL    HW214610   0.538   5.132   3.123
 4571SOL     OW14611   3.270   3.597   5.964
 4571SOL    HW114612   3.302   3.628   5.875
 4571SOL    HW214613   3.222   3.510   5.954
 4572SOL     OW14614   1.073   6.793   6.542
 4572SOL    HW114615   1.144   6.840   6.490
 4572SOL    HW214616   0.984   6.833   6.520
 4573SOL     OW14617   6.183   5.935   0.851
 4573SOL    HW114618   6.281   5.955   0.858
 4573SOL    HW214619   6.133   6.017   0.825
 4574SOL     OW14620   6.490   3.974   1.390
 4574SOL    HW114621   6.539   3.923   1.460
 4574SOL    HW214622   6.393   3.978   1.413
 4575SOL     OW14623   6.698   2.048   6.788
 4575SOL    HW114624   6.622   2.080   6.845
 4575SOL    HW214625   6.676   2.063   6.692
 4576SOL     OW14626   1.988   6.203   6.569
 4576SOL    HW114627   2.046   6.284   6.561
 4576SOL    HW214628   1.982   6.176   6.665
 4577SOL     OW14629   0.749   2.305   3.831
 4577SOL    HW114630   0.709   2.391   3.800
 4577SOL    HW214631   0.828   2.283   3.774
 4578SOL     OW14632   0.648   3.007   4.400
 4578SOL    HW114633   0.601   2.963   4.323
 4578SOL    HW214634   0.688   3.094   4.369
 4579SOL     OW14635   5.411   1.918   2.565
 4579SOL    HW114636   5.474   1.874   2.629
 4579SOL    HW214637   5.345   1.851   2.532
 4580SOL     OW14638   5.233   5.643   0.225
 4580SOL    HW114639   5.259   5.617   0.318
 4580SOL    HW214640   5.171   5.574   0.188
 4581SOL     OW14641   3.222   5.368   2.966
 4581SOL    HW114642   3.170   5.405   3.042
 4581SOL    HW214643   3.298   5.312   3.002
 4582SOL     OW14644   5.636   6.496   4.710
 4582SOL    HW114645   5.643   6.525   4.806
 4582SOL    HW214646   5.687   6.411   4.697
 4583SOL     OW14647   2.724   0.990   4.883
 4583SOL    HW114648   2.756   0.976   4.789
 4583SOL    HW214649   2.791   0.950   4.946
 4584SOL     OW14650   0.269   4.957   5.338
 4584SOL    HW114651   0.288   4.865   5.374
 4584SOL    HW214652   0.329   4.976   5.261
 4585SOL     OW14653   3.244   6.404   2.664
 4585SOL    HW114654   3.172   6.471   2.680
 4585SOL    HW214655   3.253   6.346   2.745
 4586SOL     OW14656   3.824   5.211   0.309
 4586SOL    HW114657   3.751   5.144   0.318
 4586SOL    HW214658   3.903   5.168   0.265
 4587SOL     OW14659   4.109   3.176   2.058
 4587SOL    HW114660   4.148   3.251   2.112
 4587SOL    HW214661   4.146   3.180   1.965
 4588SOL     OW14662   3.858   3.891   5.745
 4588SOL    HW114663   3.839   3.801   5.785
 4588SOL    HW214664   3.811   3.961   5.799
 4589SOL     OW14665   5.732   1.181   1.842
 4589SOL    HW114666   5.750   1.172   1.744
 4589SOL    HW214667   5.635   1.200   1.857
 4590SOL     OW14668   4.417   5.933   1.983
 4590SOL    HW114669   4.364   5.864   2.032
 4590SOL    HW214670   4.417   6.018   2.036
 4591SOL     OW14671   0.510   6.210   5.340
 4591SOL    HW114672   0.425   6.239   5.298
 4591SOL    HW214673   0.509   6.231   5.437
 4592SOL     OW14674   3.921   2.145   2.182
 4592SOL    HW114675   3.830   2.165   2.217
 4592SOL    HW214676   3.990   2.187   2.241
 4593SOL     OW14677   3.774   5.646   4.243
 4593SOL    HW114678   3.768   5.549   4.264
 4593SOL    HW214679   3.823   5.659   4.156
 4594SOL     OW14680   3.301   1.841   1.546
 4594SOL    HW114681   3.249   1.759   1.572
 4594SOL    HW214682   3.276   1.867   1.453
 4595SOL     OW14683   3.811   2.873   5.695
 4595SOL    HW114684   3.892   2.846   5.643
 4595SOL    HW214685   3.838   2.907   5.785
 4596SOL     OW14686   5.970   6.565   2.463
 4596SOL    HW114687   5.878   6.543   2.431
 4596SOL    HW214688   5.985   6.664   2.456
 4597SOL     OW14689   5.394   4.607   0.012
 4597SOL    HW114690   5.456   4.560   6.971
 4597SOL    HW214691   5.385   4.553   0.095
 4598SOL     OW14692   1.735   5.576   6.830
 4598SOL    HW114693   1.760   5.510   6.901
 4598SOL    HW214694   1.739   5.532   6.740
 4599SOL     OW14695   1.416   4.347   0.644
 4599SOL    HW114696   1.373   4.361   0.555
 4599SOL    HW214697   1.432   4.435   0.688
 4600SOL     OW14698   1.487   5.013   5.786
 4600SOL    HW114699   1.443   5.098   5.758
 4600SOL    HW214700   1.580   5.031   5.816
 4601SOL     OW14701   1.701   0.026   5.068
 4601SOL    HW114702   1.664   0.107   5.022
 4601SOL    HW214703   1.799   0.020   5.050
 4602SOL     OW14704   0.962   6.002   1.035
 4602SOL    HW114705   0.963   5.999   0.935
 4602SOL    HW214706   1.045   5.958   1.070
 4603SOL     OW14707   3.565   6.126   1.270
 4603SOL    HW114708   3.599   6.045   1.317
 4603SOL    HW214709   3.485   6.102   1.215
 4604SOL     OW14710   4.745   0.742   2.076
 4604SOL    HW114711   4.696   0.659   2.103
 4604SOL    HW214712   4.748   0.805   2.154
 4605SOL     OW14713   4.618   1.354   3.266
 4605SOL    HW114714   4.676   1.363   3.185
 4605SOL    HW214715   4.674   1.369   3.348
 4606SOL     OW14716   1.023   6.872   1.527
 4606SOL    HW114717   1.025   6.815   1.609
 4606SOL    HW214718   1.055   6.819   1.449
 4607SOL     OW14719   2.443   2.435   0.899
 4607SOL    HW114720   2.401   2.376   0.830
 4607SOL    HW214721   2.402   2.416   0.989
 4608SOL     OW14722   0.877   5.554   3.532
 4608SOL    HW114723   0.913   5.568   3.624
 4608SOL    HW214724   0.845   5.460   3.523
 4609SOL     OW14725   3.948   5.701   5.911
 4609SOL    HW114726   4.038   5.741   5.895
 4609SOL    HW214727   3.939   5.674   6.007
 4610SOL     OW14728   5.342   2.393   0.271
 4610SOL    HW114729   5.371   2.488   0.286
 4610SOL    HW214730   5.292   2.360   0.351
 4611SOL     OW14731   6.233   5.645   6.112
 4611SOL    HW114732   6.180   5.600   6.185
 4611SOL    HW214733   6.316   5.593   6.094
 4612SOL     OW14734   1.302   6.397   0.606
 4612SOL    HW114735   1.245   6.461   0.554
 4612SOL    HW214736   1.260   6.306   0.605
 4613SOL     OW14737   2.943   5.648   2.489
 4613SOL    HW114738   2.990   5.569   2.448
 4613SOL    HW214739   2.941   5.637   2.588
 4614SOL     OW14740   0.855   4.210   5.089
 4614SOL    HW114741   0.887   4.285   5.030
 4614SOL    HW214742   0.828   4.132   5.032
 4615SOL     OW14743   1.790   0.805   0.313
 4615SOL    HW114744   1.697   0.830   0.341
 4615SOL    HW214745   1.852   0.882   0.332
 4616SOL     OW14746   5.976   0.488   5.841
 4616SOL    HW114747   5.998   0.391   5.837
 4616SOL    HW214748   5.942   0.519   5.752
 4617SOL     OW14749   1.150   2.236   2.242
 4617SOL    HW114750   1.116   2.269   2.154
 4617SOL    HW214751   1.106   2.149   2.264
 4618SOL     OW14752   2.214   2.299   5.111
 4618SOL    HW114753   2.202   2.368   5.183
 4618SOL    HW214754   2.187   2.209   5.146
 4619SOL     OW14755   3.913   6.171   3.150
 4619SOL    HW114756   3.955   6.262   3.147
 4619SOL    HW214757   3.951   6.114   3.078
 4620SOL     OW14758   3.024   4.062   0.256
 4620SOL    HW114759   2.946   4.085   0.315
 4620SOL    HW214760   2.992   4.049   0.162
 4621SOL     OW14761   5.184   1.699   3.175
 4621SOL    HW114762   5.284   1.704   3.166
 4621SOL    HW214763   5.144   1.677   3.087
 4622SOL     OW14764   1.416   3.318   0.408
 4622SOL    HW114765   1.430   3.394   0.471
 4622SOL    HW214766   1.346   3.341   0.342
 4623SOL     OW14767   0.010   6.608   0.896
 4623SOL    HW114768   0.033   6.514   0.920
 4623SOL    HW214769   6.940   6.629   0.928
 4624SOL     OW14770   5.505   6.993   3.104
 4624SOL    HW114771   5.504   6.943   3.191
 4624SOL    HW214772   5.497   6.928   3.028
 4625SOL     OW14773   1.504   4.698   0.127
 4625SOL    HW114774   1.544   4.627   0.186
 4625SOL    HW214775   1.576   4.760   0.097
 4626SOL     OW14776   5.421   5.686   2.325
 4626SOL    HW114777   5.517   5.700   2.349
 4626SOL    HW214778   5.371   5.657   2.406
 4627SOL     OW14779   3.308   5.650   3.841
 4627SOL    HW114780   3.407   5.644   3.852
 4627SOL    HW214781   3.274   5.730   3.890
 4628SOL     OW14782   5.919   3.688   3.824
 4628SOL    HW114783   5.970   3.607   3.853
 4628SOL    HW214784   5.888   3.675   3.729
 4629SOL     OW14785   2.484   5.129   4.877
 4629SOL    HW114786   2.471   5.189   4.797
 4629SOL    HW214787   2.473   5.034   4.849
 4630SOL     OW14788   3.716   5.716   2.717
 4630SOL    HW114789   3.728   5.746   2.812
 4630SOL    HW214790   3.788   5.652   2.693
 4631SOL     OW14791   2.211   6.108   3.649
 4631SOL    HW114792   2.295   6.162   3.650
 4631SOL    HW214793   2.197   6.067   3.739
 4632SOL     OW14794   4.365   5.021   3.153
 4632SOL    HW114795   4.398   5.077   3.229
 4632SOL    HW214796   4.265   5.016   3.157
 4633SOL     OW14797   6.191   1.937   3.623
 4633SOL    HW114798   6.271   1.968   3.572
 4633SOL    HW214799   6.161   2.009   3.686
 4634SOL     OW14800   2.076   4.410   6.941
 4634SOL    HW114801   2.105   4.454   0.003
 4634SOL    HW214802   1.994   4.355   6.958
 4635SOL     OW14803   5.532   3.716   1.607
 4635SOL    HW114804   5.458   3.753   1.662
 4635SOL    HW214805   5.594   3.664   1.666
 4636SOL     OW14806   1.801   5.408   0.022
 4636SOL    HW114807   1.889   5.367   7.020
 4636SOL    HW214808   1.806   5.443   0.115
 4637SOL     OW14809   1.462   0.536   6.966
 4637SOL    HW114810   1.469   0.565   6.870
 4637SOL    HW214811   1.500   0.607   0.002
 4638SOL     OW14812   4.038   2.703   6.858
 4638SOL    HW114813   3.979   2.759   6.916
 4638SOL    HW214814   4.134   2.725   6.877
 4639SOL     OW14815   1.903   4.348   5.217
 4639SOL    HW114816   1.965   4.425   5.225
 4639SOL    HW214817   1.946   4.266   5.254
 4640SOL     OW14818   5.035   5.085   3.634
 4640SOL    HW114819   4.959   5.124   3.583
 4640SOL    HW214820   5.033   5.120   3.728
 4641SOL     OW14821   3.091   6.610   4.250
 4641SOL    HW114822   3.011   6.618   4.191
 4641SOL    HW214823   3.126   6.517   4.246
 4642SOL     OW14824   0.568   6.556   5.125
 4642SOL    HW114825   0.645   6.520   5.178
 4642SOL    HW214826   0.532   6.637   5.170
 4643SOL     OW14827   5.508   2.338   1.059
 4643SOL    HW114828   5.594   2.389   1.066
 4643SOL    HW214829   5.527   2.243   1.033
 4644SOL     OW14830   1.311   4.987   4.851
 4644SOL    HW114831   1.410   4.978   4.860
 4644SOL    HW214832   1.290   5.047   4.774
 4645SOL     OW14833   1.040   0.365   3.901
 4645SOL    HW114834   0.993   0.453   3.894
 4645SOL    HW214835   1.052   0.326   3.810
 4646SOL     OW14836   2.845   6.541   3.225
 4646SOL    HW114837   2.788   6.460   3.240
 4646SOL    HW214838   2.825   6.579   3.135
 4647SOL     OW14839   1.515   6.946   3.207
 4647SOL    HW114840   1.478   6.856   3.231
 4647SOL    HW214841   1.441   7.014   3.211
 4648SOL     OW14842   3.893   0.758   1.510
 4648SOL    HW114843   3.879   0.711   1.598
 4648SOL    HW214844   3.835   0.839   1.506
 4649SOL     OW14845   4.983   6.677   5.792
 4649SOL    HW114846   5.040   6.750   5.754
 4649SOL    HW214847   4.893   6.714   5.814
 4650SOL     OW14848   4.287   5.924   3.740
 4650SOL    HW114849   4.373   5.974   3.748
 4650SOL    HW214850   4.295   5.836   3.788
 4651SOL     OW14851   0.108   1.851   1.081
 4651SOL    HW114852   0.019   1.886   1.054
 4651SOL    HW214853   0.172   1.860   1.004
 4652SOL     OW14854   0.660   0.268   4.482
 4652SOL    HW114855   0.634   0.359   4.449
 4652SOL    HW214856   0.600   0.199   4.440
 4653SOL     OW14857   6.057   5.737   6.995
 4653SOL    HW114858   6.021   5.645   7.007
 4653SOL    HW214859   5.985   5.804   7.014
 4654SOL     OW14860   0.362   6.494   0.392
 4654SOL    HW114861   0.459   6.506   0.376
 4654SOL    HW214862   0.312   6.503   0.305
 4655SOL     OW14863   6.679   5.552   1.911
 4655SOL    HW114864   6.702   5.529   1.816
 4655SOL    HW214865   6.585   5.526   1.930
 4656SOL     OW14866   0.989   0.405   3.147
 4656SOL    HW114867   1.044   0.432   3.226
 4656SOL    HW214868   0.924   0.334   3.173
 4657SOL     OW14869   4.564   6.553   1.586
 4657SOL    HW114870   4.571   6.456   1.560
 4657SOL    HW214871   4.480   6.591   1.547
 4658SOL     OW14872   3.934   1.597   2.170
 4658SOL    HW114873   3.846   1.594   2.218
 4658SOL    HW214874   3.973   1.689   2.178
 4659SOL     OW14875   2.815   4.111   5.657
 4659SOL    HW114876   2.899   4.159   5.683
 4659SOL    HW214877   2.787   4.139   5.566
 4660SOL     OW14878   1.196   3.120   5.460
 4660SOL    HW114879   1.200   3.040   5.520
 4660SOL    HW214880   1.195   3.203   5.516
 4661SOL     OW14881   3.483   3.891   5.619
 4661SOL    HW114882   3.449   3.901   5.713
 4661SOL    HW214883   3.492   3.981   5.577
 4662SOL     OW14884   4.523   0.360   4.989
 4662SOL    HW114885   4.458   0.394   5.057
 4662SOL    HW214886   4.585   0.295   5.033
 4663SOL     OW14887   0.894   1.794   2.505
 4663SOL    HW114888   0.815   1.734   2.494
 4663SOL    HW214889   0.975   1.750   2.466
 4664SOL     OW14890   2.301   1.680   0.387
 4664SOL    HW114891   2.272   1.591   0.351
 4664SOL    HW214892   2.299   1.748   0.313
 4665SOL     OW14893   4.198   0.136   0.648
 4665SOL    HW114894   4.229   0.117   0.741
 4665SOL    HW214895   4.139   0.062   0.617
 4666SOL     OW14896   1.424   1.937   0.552
 4666SOL    HW114897   1.445   1.953   0.455
 4666SOL    HW214898   1.331   1.901   0.560
 4667SOL     OW14899   6.434   4.389   1.220
 4667SOL    HW114900   6.472   4.321   1.157
 4667SOL    HW214901   6.491   4.471   1.218
 4668SOL     OW14902   5.930   2.573   2.932
 4668SOL    HW114903   5.904   2.587   2.837
 4668SOL    HW214904   6.030   2.580   2.941
 4669SOL     OW14905   3.417   6.878   0.348
 4669SOL    HW114906   3.401   6.810   0.276
 4669SOL    HW214907   3.341   6.876   0.413
 4670SOL     OW14908   3.061   1.853   4.778
 4670SOL    HW114909   2.991   1.853   4.849
 4670SOL    HW214910   3.112   1.938   4.781
 4671SOL     OW14911   6.591   2.589   2.328
 4671SOL    HW114912   6.635   2.640   2.402
 4671SOL    HW214913   6.611   2.632   2.241
 4672SOL     OW14914   2.726   4.843   6.312
 4672SOL    HW114915   2.811   4.841   6.366
 4672SOL    HW214916   2.667   4.768   6.340
 4673SOL     OW14917   4.702   6.395   0.817
 4673SOL    HW114918   4.691   6.490   0.787
 4673SOL    HW214919   4.744   6.393   0.908
 4674SOL     OW14920   5.073   0.066   0.016
 4674SOL    HW114921   5.167   0.032   0.009
 4674SOL    HW214922   5.073   0.165   0.028
 4675SOL     OW14923   0.615   2.909   6.656
 4675SOL    HW114924   0.706   2.869   6.652
 4675SOL    HW214925   0.546   2.837   6.651
 4676SOL     OW14926   6.812   5.667   4.004
 4676SOL    HW114927   6.717   5.660   4.033
 4676SOL    HW214928   6.850   5.576   3.991
 4677SOL     OW14929   3.157   2.110   0.760
 4677SOL    HW114930   3.213   2.029   0.776
 4677SOL    HW214931   3.215   2.187   0.736
 4678SOL     OW14932   1.958   4.430   2.982
 4678SOL    HW114933   1.870   4.462   3.018
 4678SOL    HW214934   2.033   4.468   3.037
 4679SOL     OW14935   4.082   6.856   1.652
 4679SOL    HW114936   4.157   6.880   1.589
 4679SOL    HW214937   4.119   6.800   1.726
 4680SOL     OW14938   3.975   1.077   6.446
 4680SOL    HW114939   4.019   1.001   6.493
 4680SOL    HW214940   4.007   1.080   6.351
 4681SOL     OW14941   5.361   4.881   0.039
 4681SOL    HW114942   5.389   4.787   0.019
 4681SOL    HW214943   5.388   4.941   6.986
 4682SOL     OW14944   4.441   4.836   5.721
 4682SOL    HW114945   4.363   4.897   5.733
 4682SOL    HW214946   4.499   4.840   5.802
 4683SOL     OW14947   5.300   5.520   2.825
 4683SOL    HW114948   5.219   5.491   2.876
 4683SOL    HW214949   5.362   5.570   2.886
 4684SOL     OW14950   4.774   0.007   5.789
 4684SOL    HW114951   4.789   0.055   5.702
 4684SOL    HW214952   4.830   0.050   5.859
 4685SOL     OW14953   1.868   4.748   6.627
 4685SOL    HW114954   1.937   4.745   6.699
 4685SOL    HW214955   1.893   4.684   6.554
 4686SOL     OW14956   3.965   6.143   6.810
 4686SOL    HW114957   4.047   6.167   6.863
 4686SOL    HW214958   3.973   6.181   6.718
 4687SOL     OW14959   4.876   3.134   3.929
 4687SOL    HW114960   4.795   3.079   3.910
 4687SOL    HW214961   4.863   3.183   4.016
 4688SOL     OW14962   5.808   2.791   5.175
 4688SOL    HW114963   5.766   2.772   5.263
 4688SOL    HW214964   5.893   2.841   5.188
 4689SOL     OW14965   5.279   0.525   0.462
 4689SOL    HW114966   5.249   0.444   0.513
 4689SOL    HW214967   5.363   0.561   0.502
 4690SOL     OW14968   1.939   0.538   0.781
 4690SOL    HW114969   1.852   0.587   0.775
 4690SOL    HW214970   1.987   0.545   0.694
 4691SOL     OW14971   2.856   3.327   0.938
 4691SOL    HW114972   2.835   3.262   1.011
 4691SOL    HW214973   2.775   3.381   0.917
 4692SOL     OW14974   5.610   5.496   2.982
 4692SOL    HW114975   5.699   5.498   3.028
 4692SOL    HW214976   5.604   5.415   2.924
 4693SOL     OW14977   1.419   0.612   3.424
 4693SOL    HW114978   1.374   0.639   3.509
 4693SOL    HW214979   1.409   0.684   3.356
 4694SOL     OW14980   2.677   1.449   0.191
 4694SOL    HW114981   2.641   1.447   0.285
 4694SOL    HW214982   2.684   1.544   0.160
 4695SOL     OW14983   1.158   4.690   1.011
 4695SOL    HW114984   1.169   4.670   1.108
 4695SOL    HW214985   1.204   4.620   0.957
 4696SOL     OW14986   0.328   5.184   6.639
 4696SOL    HW114987   0.377   5.101   6.665
 4696SOL    HW214988   0.390   5.246   6.591
 4697SOL     OW14989   1.114   3.830   1.536
 4697SOL    HW114990   1.184   3.901   1.522
 4697SOL    HW214991   1.054   3.857   1.611
 4698SOL     OW14992   4.111   6.022   3.023
 4698SOL    HW114993   4.188   6.060   3.074
 4698SOL    HW214994   4.145   5.962   2.951
 4699SOL     OW14995   0.602   6.435   2.539
 4699SOL    HW114996   0.587   6.338   2.556
 4699SOL    HW214997   0.651   6.447   2.452
 4700SOL     OW14998   6.601   1.945   2.547
 4700SOL    HW114999   6.633   1.999   2.469
 4700SOL    HW215000   6.517   1.986   2.584
 4701SOL     OW15001   3.450   2.375   0.087
 4701SOL    HW115002   3.401   2.361   0.001
 4701SOL    HW215003   3.544   2.403   0.068
 4702SOL     OW15004   4.769   5.030   0.418
 4702SOL    HW115005   4.748   4.993   0.509
 4702SOL    HW215006   4.715   4.981   0.349
 4703SOL     OW15007   0.777   0.433   2.526
 4703SOL    HW115008   0.705   0.406   2.590
 4703SOL    HW215009   0.746   0.512   2.472
 4704SOL     OW15010   6.222   6.159   6.261
 4704SOL    HW115011   6.169   6.222   6.205
 4704SOL    HW215012   6.213   6.066   6.225
 4705SOL     OW15013   4.154   2.144   1.048
 4705SOL    HW115014   4.086   2.217   1.053
 4705SOL    HW215015   4.211   2.145   1.131
 4706SOL     OW15016   1.994   0.533   0.340
 4706SOL    HW115017   2.060   0.550   0.267
 4706SOL    HW215018   1.945   0.618   0.361
 4707SOL     OW15019   0.951   6.674   1.239
 4707SOL    HW115020   0.888   6.615   1.290
 4707SOL    HW215021   0.907   6.762   1.221
 4708SOL     OW15022   1.100   1.970   5.734
 4708SOL    HW115023   1.155   1.966   5.650
 4708SOL    HW215024   1.132   2.046   5.791
 4709SOL     OW15025   4.818   5.658   5.325
 4709SOL    HW115026   4.901   5.693   5.367
 4709SOL    HW215027   4.751   5.732   5.314
 4710SOL     OW15028   5.473   0.294   5.923
 4710SOL    HW115029   5.395   0.263   5.976
 4710SOL    HW215030   5.546   0.323   5.985
 4711SOL     OW15031   6.202   1.405   1.529
 4711SOL    HW115032   6.223   1.424   1.433
 4711SOL    HW215033   6.169   1.311   1.537
 4712SOL     OW15034   3.272   4.933   6.631
 4712SOL    HW115035   3.198   4.995   6.603
 4712SOL    HW215036   3.313   4.891   6.550
 4713SOL     OW15037   3.549   4.570   0.768
 4713SOL    HW115038   3.504   4.637   0.826
 4713SOL    HW215039   3.588   4.615   0.688
 4714SOL     OW15040   0.871   1.329   6.153
 4714SOL    HW115041   0.967   1.329   6.179
 4714SOL    HW215042   0.862   1.361   6.059
 4715SOL     OW15043   5.996   3.490   1.245
 4715SOL    HW115044   5.984   3.500   1.146
 4715SOL    HW215045   5.907   3.502   1.290
 4716SOL     OW15046   4.024   6.545   5.581
 4716SOL    HW115047   4.066   6.608   5.646
 4716SOL    HW215048   3.929   6.572   5.565
 4717SOL     OW15049   0.806   6.141   4.341
 4717SOL    HW115050   0.866   6.222   4.343
 4717SOL    HW215051   0.839   6.077   4.272
 4718SOL     OW15052   5.796   1.619   1.156
 4718SOL    HW115053   5.874   1.589   1.101
 4718SOL    HW215054   5.718   1.560   1.138
 4719SOL     OW15055   4.928   3.253   2.191
 4719SOL    HW115056   4.878   3.182   2.142
 4719SOL    HW215057   4.939   3.333   2.131
 4720SOL     OW15058   2.431   5.394   5.427
 4720SOL    HW115059   2.482   5.312   5.401
 4720SOL    HW215060   2.340   5.391   5.385
 4721SOL     OW15061   6.638   1.763   1.993
 4721SOL    HW115062   6.643   1.813   1.907
 4721SOL    HW215063   6.590   1.818   2.061
 4722SOL     OW15064   1.074   5.883   0.013
 4722SOL    HW115065   0.995   5.853   6.982
 4722SOL    HW215066   1.053   5.876   0.111
 4723SOL     OW15067   2.533   3.507   5.394
 4723SOL    HW115068   2.630   3.482   5.405
 4723SOL    HW215069   2.480   3.424   5.373
 4724SOL     OW15070   6.695   0.032   4.569
 4724SOL    HW115071   6.680   6.983   4.636
 4724SOL    HW215072   6.663   0.002   4.479
 4725SOL     OW15073   6.309   5.365   0.437
 4725SOL    HW115074   6.357   5.425   0.374
 4725SOL    HW215075   6.321   5.398   0.530
 4726SOL     OW15076   1.607   3.319   6.509
 4726SOL    HW115077   1.702   3.294   6.489
 4726SOL    HW215078   1.562   3.351   6.426
 4727SOL     OW15079   0.563   6.413   1.180
 4727SOL    HW115080   0.612   6.408   1.093
 4727SOL    HW215081   0.498   6.337   1.186
 4728SOL     OW15082   5.369   1.368   2.578
 4728SOL    HW115083   5.379   1.428   2.499
 4728SOL    HW215084   5.431   1.290   2.569
 4729SOL     OW15085   5.013   1.087   0.598
 4729SOL    HW115086   5.105   1.125   0.609
 4729SOL    HW215087   5.004   1.004   0.653
 4730SOL     OW15088   3.216   5.718   4.955
 4730SOL    HW115089   3.219   5.619   4.973
 4730SOL    HW215090   3.130   5.755   4.991
 4731SOL     OW15091   3.146   0.891   0.250
 4731SOL    HW115092   3.080   0.883   0.324
 4731SOL    HW215093   3.238   0.904   0.287
 4732SOL     OW15094   0.936   3.570   5.298
 4732SOL    HW115095   0.982   3.588   5.211
 4732SOL    HW215096   0.946   3.649   5.359
 4733SOL     OW15097   1.649   3.765   3.750
 4733SOL    HW115098   1.620   3.728   3.662
 4733SOL    HW215099   1.736   3.814   3.739
 4734SOL     OW15100   4.173   3.107   0.496
 4734SOL    HW115101   4.257   3.093   0.443
 4734SOL    HW215102   4.170   3.202   0.529
 4735SOL     OW15103   6.939   5.814   4.238
 4735SOL    HW115104   0.012   5.788   4.224
 4735SOL    HW215105   6.882   5.766   4.172
 4736SOL     OW15106   6.103   1.422   6.051
 4736SOL    HW115107   6.066   1.370   6.129
 4736SOL    HW215108   6.105   1.519   6.074
 4737SOL     OW15109   2.803   4.215   1.177
 4737SOL    HW115110   2.783   4.136   1.119
 4737SOL    HW215111   2.860   4.187   1.254
 4738SOL     OW15112   2.635   6.771   2.982
 4738SOL    HW115113   2.708   6.747   2.918
 4738SOL    HW215114   2.547   6.769   2.934
 4739SOL     OW15115   5.077   1.587   2.948
 4739SOL    HW115116   5.053   1.495   2.977
 4739SOL    HW215117   5.146   1.583   2.876
 4740SOL     OW15118   0.498   1.456   1.075
 4740SOL    HW115119   0.496   1.534   1.138
 4740SOL    HW215120   0.412   1.454   1.023
 4741SOL     OW15121   4.505   3.365   1.368
 4741SOL    HW115122   4.508   3.313   1.284
 4741SOL    HW215123   4.595   3.405   1.386
 4742SOL     OW15124   2.650   6.779   0.701
 4742SOL    HW115125   2.697   6.782   0.613
 4742SOL    HW215126   2.707   6.731   0.768
 4743SOL     OW15127   1.692   3.144   5.062
 4743SOL    HW115128   1.731   3.234   5.078
 4743SOL    HW215129   1.766   3.077   5.051
 4744SOL     OW15130   2.836   4.094   6.119
 4744SOL    HW115131   2.789   4.178   6.148
 4744SOL    HW215132   2.770   4.025   6.092
 4745SOL     OW15133   2.993   5.339   5.258
 4745SOL    HW115134   2.967   5.386   5.343
 4745SOL    HW215135   2.943   5.380   5.182
 4746SOL     OW15136   5.757   6.813   2.305
 4746SOL    HW115137   5.848   6.844   2.335
 4746SOL    HW215138   5.752   6.713   2.313
 4747SOL     OW15139   1.413   4.159   0.029
 4747SOL    HW115140   1.398   4.158   0.127
 4747SOL    HW215141   1.426   4.253   7.020
 4748SOL     OW15142   0.880   5.103   0.687
 4748SOL    HW115143   0.918   5.044   0.759
 4748SOL    HW215144   0.831   5.047   0.620
 4749SOL     OW15145   2.876   6.209   5.203
 4749SOL    HW115146   2.803   6.198   5.135
 4749SOL    HW215147   2.964   6.183   5.162
 4750SOL     OW15148   0.142   3.280   3.941
 4750SOL    HW115149   0.197   3.217   3.885
 4750SOL    HW215150   0.172   3.374   3.924
 4751SOL     OW15151   2.699   2.448   0.855
 4751SOL    HW115152   2.604   2.418   0.863
 4751SOL    HW215153   2.757   2.386   0.908
 4752SOL     OW15154   2.560   0.302   0.029
 4752SOL    HW115155   2.618   0.222   0.047
 4752SOL    HW215156   2.597   0.381   0.078
 4753SOL     OW15157   5.580   0.502   4.508
 4753SOL    HW115158   5.645   0.532   4.577
 4753SOL    HW215159   5.542   0.414   4.533
 4754SOL     OW15160   5.977   0.643   4.783
 4754SOL    HW115161   6.004   0.609   4.873
 4754SOL    HW215162   5.979   0.743   4.784
 4755SOL     OW15163   2.729   0.868   1.036
 4755SOL    HW115164   2.787   0.828   1.107
 4755SOL    HW215165   2.717   0.966   1.054
 4756SOL     OW15166   5.621   2.989   1.397
 4756SOL    HW115167   5.634   3.088   1.402
 4756SOL    HW215168   5.527   2.968   1.370
 4757SOL     OW15169   1.619   2.425   1.681
 4757SOL    HW115170   1.712   2.460   1.696
 4757SOL    HW215171   1.587   2.453   1.591
 4758SOL     OW15172   2.527   6.266   4.173
 4758SOL    HW115173   2.431   6.237   4.176
 4758SOL    HW215174   2.553   6.286   4.078
 4759SOL     OW15175   5.069   5.547   4.568
 4759SOL    HW115176   5.010   5.510   4.639
 4759SOL    HW215177   5.089   5.475   4.501
 4760SOL     OW15178   3.902   1.981   0.565
 4760SOL    HW115179   3.926   1.997   0.469
 4760SOL    HW215180   3.964   1.912   0.604
 4761SOL     OW15181   0.847   6.407   6.485
 4761SOL    HW115182   0.754   6.412   6.450
 4761SOL    HW215183   0.851   6.343   6.562
 4762SOL     OW15184   2.073   5.370   2.990
 4762SOL    HW115185   2.088   5.465   2.961
 4762SOL    HW215186   2.040   5.369   3.085
 4763SOL     OW15187   5.994   6.544   3.825
 4763SOL    HW115188   5.955   6.557   3.734
 4763SOL    HW215189   6.090   6.569   3.824
 4764SOL     OW15190   5.275   4.409   5.358
 4764SOL    HW115191   5.318   4.474   5.295
 4764SOL    HW215192   5.202   4.359   5.310
 4765SOL     OW15193   5.670   0.893   4.609
 4765SOL    HW115194   5.672   0.857   4.515
 4765SOL    HW215195   5.660   0.992   4.606
 4766SOL     OW15196   4.586   6.787   3.981
 4766SOL    HW115197   4.555   6.880   3.965
 4766SOL    HW215198   4.681   6.778   3.950
 4767SOL     OW15199   3.783   4.811   5.956
 4767SOL    HW115200   3.713   4.792   5.887
 4767SOL    HW215201   3.740   4.839   6.041
 4768SOL     OW15202   4.632   2.053   5.364
 4768SOL    HW115203   4.700   1.994   5.321
 4768SOL    HW215204   4.572   1.997   5.423
 4769SOL     OW15205   4.992   4.683   0.123
 4769SOL    HW115206   4.928   4.692   0.200
 4769SOL    HW215207   4.951   4.626   0.052
 4770SOL     OW15208   1.085   0.758   4.479
 4770SOL    HW115209   1.137   0.842   4.466
 4770SOL    HW215210   1.055   0.751   4.574
 4771SOL     OW15211   3.162   5.484   5.861
 4771SOL    HW115212   3.257   5.458   5.879
 4771SOL    HW215213   3.154   5.513   5.766
 4772SOL     OW15214   3.147   4.878   1.235
 4772SOL    HW115215   3.142   4.951   1.167
 4772SOL    HW215216   3.211   4.807   1.204
 4773SOL     OW15217   6.699   5.806   4.841
 4773SOL    HW115218   6.642   5.838   4.916
 4773SOL    HW215219   6.669   5.715   4.813
 4774SOL     OW15220   1.231   2.565   1.605
 4774SOL    HW115221   1.267   2.503   1.675
 4774SOL    HW215222   1.216   2.515   1.520
 4775SOL     OW15223   4.814   6.596   2.310
 4775SOL    HW115224   4.832   6.631   2.402
 4775SOL    HW215225   4.896   6.550   2.275
 4776SOL     OW15226   1.114   6.363   5.103
 4776SOL    HW115227   1.102   6.373   5.202
 4776SOL    HW215228   1.052   6.426   5.055
 4777SOL     OW15229   2.936   4.132   1.383
 4777SOL    HW115230   2.884   4.048   1.395
 4777SOL    HW215231   2.935   4.185   1.468
 4778SOL     OW15232   6.326   2.649   2.444
 4778SOL    HW115233   6.416   2.608   2.428
 4778SOL    HW215234   6.302   2.640   2.541
 4779SOL     OW15235   6.222   6.417   2.467
 4779SOL    HW115236   6.143   6.468   2.435
 4779SOL    HW215237   6.192   6.343   2.528
 4780SOL     OW15238   6.747   0.989   0.403
 4780SOL    HW115239   6.731   0.890   0.398
 4780SOL    HW215240   6.820   1.008   0.469
 4781SOL     OW15241   2.790   5.882   2.169
 4781SOL    HW115242   2.826   5.940   2.097
 4781SOL    HW215243   2.698   5.913   2.194
 4782SOL     OW15244   4.230   6.172   6.962
 4782SOL    HW115245   4.320   6.208   6.936
 4782SOL    HW215246   4.199   6.217   0.023
 4783SOL     OW15247   4.814   4.563   6.731
 4783SOL    HW115248   4.847   4.503   6.805
 4783SOL    HW215249   4.855   4.654   6.742
 4784SOL     OW15250   5.901   4.194   6.373
 4784SOL    HW115251   5.917   4.268   6.309
 4784SOL    HW215252   5.958   4.207   6.454
 4785SOL     OW15253   5.781   5.938   1.887
 4785SOL    HW115254   5.755   5.861   1.828
 4785SOL    HW215255   5.775   6.023   1.836
 4786SOL     OW15256   2.727   1.964   0.996
 4786SOL    HW115257   2.789   2.042   1.007
 4786SOL    HW215258   2.752   1.912   0.914
 4787SOL     OW15259   3.557   1.869   3.181
 4787SOL    HW115260   3.612   1.786   3.172
 4787SOL    HW215261   3.575   1.929   3.104
 4788SOL     OW15262   1.430   4.907   5.520
 4788SOL    HW115263   1.470   4.815   5.515
 4788SOL    HW215264   1.446   4.945   5.611
 4789SOL     OW15265   5.111   0.814   0.680
 4789SOL    HW115266   5.198   0.844   0.721
 4789SOL    HW215267   5.042   0.807   0.751
 4790SOL     OW15268   0.153   3.086   5.700
 4790SOL    HW115269   0.169   2.988   5.686
 4790SOL    HW215270   0.228   3.125   5.754
 4791SOL     OW15271   6.219   1.831   0.872
 4791SOL    HW115272   6.236   1.930   0.872
 4791SOL    HW215273   6.305   1.783   0.890
 4792SOL     OW15274   2.220   3.085   2.775
 4792SOL    HW115275   2.198   3.066   2.871
 4792SOL    HW215276   2.173   3.019   2.716
 4793SOL     OW15277   2.112   3.126   5.931
 4793SOL    HW115278   2.148   3.167   6.016
 4793SOL    HW215279   2.016   3.153   5.920
 4794SOL     OW15280   4.623   0.471   3.156
 4794SOL    HW115281   4.658   0.527   3.231
 4794SOL    HW215282   4.546   0.416   3.189
 4795SOL     OW15283   6.773   2.001   3.789
 4795SOL    HW115284   6.819   1.972   3.706
 4795SOL    HW215285   6.821   2.080   3.828
 4796SOL     OW15286   5.131   1.777   5.944
 4796SOL    HW115287   5.067   1.854   5.947
 4796SOL    HW215288   5.086   1.698   5.902
 4797SOL     OW15289   1.952   6.190   5.660
 4797SOL    HW115290   1.934   6.287   5.677
 4797SOL    HW215291   2.050   6.172   5.671
 4798SOL     OW15292   6.980   3.114   4.855
 4798SOL    HW115293   6.884   3.091   4.843
 4798SOL    HW215294   6.996   3.143   4.949
 4799SOL     OW15295   4.916   2.554   6.748
 4799SOL    HW115296   4.846   2.524   6.814
 4799SOL    HW215297   4.892   2.519   6.657
 4800SOL     OW15298   2.970   3.404   6.164
 4800SOL    HW115299   2.918   3.328   6.124
 4800SOL    HW215300   2.985   3.474   6.094
 4801SOL     OW15301   3.056   1.963   1.134
 4801SOL    HW115302   3.070   2.060   1.154
 4801SOL    HW215303   3.005   1.921   1.208
 4802SOL     OW15304   0.781   6.238   2.279
 4802SOL    HW115305   0.796   6.255   2.182
 4802SOL    HW215306   0.862   6.191   2.317
 4803SOL     OW15307   1.449   5.628   1.040
 4803SOL    HW115308   1.476   5.645   0.945
 4803SOL    HW215309   1.530   5.609   1.095
 4804SOL     OW15310   4.979   5.936   6.675
 4804SOL    HW115311   4.919   5.929   6.755
 4804SOL    HW215312   4.947   6.011   6.617
 4805SOL     OW15313   5.651   6.902   1.368
 4805SOL    HW115314   5.672   6.953   1.451
 4805SOL    HW215315   5.554   6.881   1.364
 4806SOL     OW15316   0.984   4.865   3.218
 4806SOL    HW115317   0.954   4.777   3.182
 4806SOL    HW215318   1.037   4.851   3.301
 4807SOL     OW15319   0.845   4.849   0.190
 4807SOL    HW115320   0.831   4.884   0.282
 4807SOL    HW215321   0.762   4.802   0.159
 4808SOL     OW15322   6.198   3.525   6.550
 4808SOL    HW115323   6.152   3.444   6.513
 4808SOL    HW215324   6.238   3.503   6.639
 4809SOL     OW15325   3.338   4.297   6.963
 4809SOL    HW115326   3.357   4.326   6.869
 4809SOL    HW215327   3.374   4.365   0.004
 4810SOL     OW15328   0.918   5.197   2.570
 4810SOL    HW115329   0.983   5.128   2.540
 4810SOL    HW215330   0.885   5.249   2.492
 4811SOL     OW15331   2.005   4.482   2.150
 4811SOL    HW115332   2.055   4.491   2.063
 4811SOL    HW215333   2.022   4.391   2.189
 4812SOL     OW15334   6.691   4.985   4.644
 4812SOL    HW115335   6.721   5.065   4.696
 4812SOL    HW215336   6.694   4.904   4.702
 4813SOL     OW15337   5.417   2.007   0.719
 4813SOL    HW115338   5.365   1.934   0.675
 4813SOL    HW215339   5.477   1.968   0.789
 4814SOL     OW15340   5.867   4.228   0.353
 4814SOL    HW115341   5.817   4.289   0.292
 4814SOL    HW215342   5.962   4.258   0.360
 4815SOL     OW15343   5.739   4.200   3.128
 4815SOL    HW115344   5.751   4.102   3.112
 4815SOL    HW215345   5.807   4.230   3.196
 4816SOL     OW15346   0.955   5.016   1.468
 4816SOL    HW115347   0.937   5.035   1.371
 4816SOL    HW215348   0.932   5.096   1.523
 4817SOL     OW15349   0.460   2.285   6.861
 4817SOL    HW115350   0.379   2.253   6.811
 4817SOL    HW215351   0.541   2.272   6.805
 4818SOL     OW15352   1.181   0.698   5.025
 4818SOL    HW115353   1.142   0.623   5.078
 4818SOL    HW215354   1.265   0.730   5.069
 4819SOL     OW15355   0.851   2.078   0.211
 4819SOL    HW115356   0.771   2.051   0.158
 4819SOL    HW215357   0.914   2.131   0.154
 4820SOL     OW15358   6.329   2.715   1.179
 4820SOL    HW115359   6.337   2.813   1.160
 4820SOL    HW215360   6.266   2.702   1.256
 4821SOL     OW15361   1.132   5.877   2.541
 4821SOL    HW115362   1.032   5.871   2.532
 4821SOL    HW215363   1.155   5.906   2.633
 4822SOL     OW15364   2.252   2.867   4.395
 4822SOL    HW115365   2.256   2.960   4.429
 4822SOL    HW215366   2.159   2.848   4.362
 4823SOL     OW15367   1.895   1.082   4.360
 4823SOL    HW115368   1.863   1.013   4.297
 4823SOL    HW215369   1.993   1.070   4.376
 4824SOL     OW15370   4.951   2.991   5.099
 4824SOL    HW115371   5.043   2.955   5.117
 4824SOL    HW215372   4.900   2.996   5.184
 4825SOL     OW15373   1.492   2.832   4.316
 4825SOL    HW115374   1.454   2.918   4.349
 4825SOL    HW215375   1.501   2.835   4.217
 4826SOL     OW15376   5.812   1.000   6.984
 4826SOL    HW115377   5.815   0.910   0.006
 4826SOL    HW215378   5.720   1.038   6.993
 4827SOL     OW15379   6.260   1.408   0.943
 4827SOL    HW115380   6.349   1.413   0.988
 4827SOL    HW215381   6.227   1.313   0.945
 4828SOL     OW15382   5.164   1.621   0.730
 4828SOL    HW115383   5.065   1.621   0.744
 4828SOL    HW215384   5.210   1.586   0.811
 4829SOL     OW15385   3.829   0.416   5.325
 4829SOL    HW115386   3.848   0.318   5.324
 4829SOL    HW215387   3.892   0.462   5.388
 4830SOL     OW15388   4.026   5.772   4.423
 4830SOL    HW115389   4.067   5.767   4.514
 4830SOL    HW215390   4.017   5.680   4.385
 4831SOL     OW15391   1.009   4.674   5.570
 4831SOL    HW115392   1.103   4.658   5.541
 4831SOL    HW215393   0.987   4.616   5.649
 4832SOL     OW15394   3.265   4.134   3.519
 4832SOL    HW115395   3.224   4.058   3.469
 4832SOL    HW215396   3.223   4.220   3.489
 4833SOL     OW15397   6.537   1.073   3.201
 4833SOL    HW115398   6.461   1.120   3.247
 4833SOL    HW215399   6.534   1.093   3.103
 4834SOL     OW15400   2.685   5.730   1.911
 4834SOL    HW115401   2.752   5.663   1.945
 4834SOL    HW215402   2.730   5.793   1.848
 4835SOL     OW15403   5.533   2.597   5.708
 4835SOL    HW115404   5.488   2.654   5.639
 4835SOL    HW215405   5.607   2.546   5.665
 4836SOL     OW15406   5.374   1.922   4.679
 4836SOL    HW115407   5.367   1.970   4.591
 4836SOL    HW215408   5.430   1.976   4.742
 4837SOL     OW15409   7.020   3.349   3.226
 4837SOL    HW115410   0.017   3.375   3.132
 4837SOL    HW215411   0.069   3.287   3.259
 4838SOL     OW15412   2.364   6.037   0.328
 4838SOL    HW115413   2.385   5.939   0.333
 4838SOL    HW215414   2.291   6.059   0.393
 4839SOL     OW15415   1.040   3.790   0.261
 4839SOL    HW115416   1.003   3.847   0.335
 4839SOL    HW215417   1.128   3.752   0.288
 4840SOL     OW15418   6.865   4.681   6.332
 4840SOL    HW115419   6.806   4.653   6.408
 4840SOL    HW215420   6.809   4.710   6.255
 4841SOL     OW15421   2.420   5.289   3.044
 4841SOL    HW115422   2.353   5.229   3.087
 4841SOL    HW215423   2.410   5.285   2.945
 4842SOL     OW15424   2.568   5.034   3.071
 4842SOL    HW115425   2.646   5.041   3.134
 4842SOL    HW215426   2.485   5.015   3.124
 4843SOL     OW15427   6.188   2.774   1.410
 4843SOL    HW115428   6.147   2.713   1.478
 4843SOL    HW215429   6.202   2.865   1.450
 4844SOL     OW15430   0.108   3.617   6.084
 4844SOL    HW115431   0.149   3.631   5.994
 4844SOL    HW215432   0.179   3.588   6.149
 4845SOL     OW15433   4.798   4.807   6.220
 4845SOL    HW115434   4.819   4.713   6.247
 4845SOL    HW215435   4.699   4.819   6.214
 4846SOL     OW15436   0.460   2.452   3.494
 4846SOL    HW115437   0.467   2.527   3.429
 4846SOL    HW215438   0.383   2.393   3.469
 4847SOL     OW15439   1.950   1.320   6.137
 4847SOL    HW115440   1.977   1.236   6.090
 4847SOL    HW215441   2.032   1.368   6.168
 4848SOL     OW15442   2.185   1.020   4.933
 4848SOL    HW115443   2.132   0.938   4.911
 4848SOL    HW215444   2.275   1.014   4.890
 4849SOL     OW15445   1.433   5.521   0.729
 4849SOL    HW115446   1.488   5.461   0.788
 4849SOL    HW215447   1.494   5.582   0.678
 4850SOL     OW15448   4.603   1.174   1.408
 4850SOL    HW115449   4.513   1.196   1.371
 4850SOL    HW215450   4.654   1.119   1.342
 4851SOL     OW15451   3.438   5.776   5.523
 4851SOL    HW115452   3.511   5.832   5.562
 4851SOL    HW215453   3.354   5.830   5.518
 4852SOL     OW15454   2.022   5.897   4.683
 4852SOL    HW115455   1.933   5.937   4.663
 4852SOL    HW215456   2.021   5.799   4.660
 4853SOL     OW15457   4.387   1.125   3.518
 4853SOL    HW115458   4.465   1.188   3.511
 4853SOL    HW215459   4.367   1.087   3.428
 4854SOL     OW15460   5.071   6.895   2.028
 4854SOL    HW115461   5.128   6.814   2.039
 4854SOL    HW215462   4.984   6.882   2.076
 4855SOL     OW15463   6.212   2.858   5.678
 4855SOL    HW115464   6.126   2.844   5.629
 4855SOL    HW215465   6.269   2.776   5.669
 4856SOL     OW15466   1.804   3.061   2.703
 4856SOL    HW115467   1.747   3.050   2.621
 4856SOL    HW215468   1.899   3.040   2.680
 4857SOL     OW15469   2.823   2.081   3.310
 4857SOL    HW115470   2.893   2.125   3.368
 4857SOL    HW215471   2.787   2.149   3.245
 4858SOL     OW15472   6.891   6.280   5.037
 4858SOL    HW115473   6.923   6.374   5.049
 4858SOL    HW215474   6.960   6.217   5.073
 4859SOL     OW15475   0.482   4.716   2.367
 4859SOL    HW115476   0.467   4.732   2.465
 4859SOL    HW215477   0.425   4.638   2.338
 4860SOL     OW15478   4.526   4.266   7.013
 4860SOL    HW115479   4.508   4.205   6.936
 4860SOL    HW215480   4.517   4.214   0.076
 4861SOL     OW15481   5.763   5.580   6.637
 4861SOL    HW115482   5.749   5.672   6.601
 4861SOL    HW215483   5.697   5.563   6.710
 4862SOL     OW15484   2.427   4.844   4.844
 4862SOL    HW115485   2.456   4.802   4.929
 4862SOL    HW215486   2.473   4.800   4.767
 4863SOL     OW15487   5.103   3.121   2.358
 4863SOL    HW115488   5.170   3.062   2.313
 4863SOL    HW215489   5.050   3.171   2.290
 4864SOL     OW15490   3.104   1.034   1.816
 4864SOL    HW115491   3.086   1.132   1.806
 4864SOL    HW215492   3.029   0.992   1.868
 4865SOL     OW15493   2.051   6.031   4.375
 4865SOL    HW115494   2.028   6.088   4.454
 4865SOL    HW215495   2.034   6.083   4.290
 4866SOL     OW15496   5.866   4.787   1.332
 4866SOL    HW115497   5.773   4.783   1.295
 4866SOL    HW215498   5.880   4.874   1.378
 4867SOL     OW15499   5.129   5.894   3.091
 4867SOL    HW115500   5.138   5.992   3.106
 4867SOL    HW215501   5.219   5.853   3.081
 4868SOL     OW15502   0.075   5.547   1.650
 4868SOL    HW115503   0.121   5.476   1.597
 4868SOL    HW215504   0.134   5.576   1.725
 4869SOL     OW15505   6.898   2.477   1.260
 4869SOL    HW115506   6.977   2.417   1.267
 4869SOL    HW215507   6.929   2.572   1.257
 4870SOL     OW15508   5.516   5.423   1.742
 4870SOL    HW115509   5.603   5.453   1.702
 4870SOL    HW215510   5.527   5.407   1.840
 4871SOL     OW15511   0.370   1.315   4.483
 4871SOL    HW115512   0.380   1.216   4.487
 4871SOL    HW215513   0.362   1.351   4.576
 4872SOL     OW15514   0.218   5.956   4.138
 4872SOL    HW115515   0.296   5.932   4.195
 4872SOL    HW215516   0.184   6.047   4.164
 4873SOL     OW15517   6.601   4.779   4.040
 4873SOL    HW115518   6.654   4.830   3.973
 4873SOL    HW215519   6.572   4.840   4.114
 4874SOL     OW15520   6.143   4.411   2.582
 4874SOL    HW115521   6.169   4.506   2.562
 4874SOL    HW215522   6.056   4.410   2.632
 4875SOL     OW15523   4.838   2.465   1.192
 4875SOL    HW115524   4.931   2.438   1.217
 4875SOL    HW215525   4.823   2.444   1.095
 4876SOL     OW15526   6.219   1.190   4.753
 4876SOL    HW115527   6.127   1.228   4.757
 4876SOL    HW215528   6.213   1.090   4.745
 4877SOL     OW15529   6.706   1.642   0.742
 4877SOL    HW115530   6.801   1.668   0.730
 4877SOL    HW215531   6.697   1.543   0.739
 4878SOL     OW15532   6.371   1.641   2.099
 4878SOL    HW115533   6.460   1.686   2.100
 4878SOL    HW215534   6.323   1.660   2.185
 4879SOL     OW15535   4.190   5.289   3.694
 4879SOL    HW115536   4.109   5.348   3.682
 4879SOL    HW215537   4.261   5.318   3.630
 4880SOL     OW15538   5.851   2.937   6.533
 4880SOL    HW115539   5.821   2.851   6.574
 4880SOL    HW215540   5.827   3.013   6.594
 4881SOL     OW15541   2.242   5.984   6.955
 4881SOL    HW115542   2.181   6.035   7.015
 4881SOL    HW215543   2.310   6.045   6.915
 4882SOL     OW15544   5.601   1.327   4.312
 4882SOL    HW115545   5.589   1.248   4.252
 4882SOL    HW215546   5.516   1.380   4.316
 4883SOL     OW15547   5.251   4.679   2.861
 4883SOL    HW115548   5.225   4.591   2.823
 4883SOL    HW215549   5.346   4.700   2.835
 4884SOL     OW15550   4.235   0.127   0.929
 4884SOL    HW115551   4.267   0.069   1.004
 4884SOL    HW215552   4.287   0.212   0.928
 4885SOL     OW15553   2.560   6.667   2.389
 4885SOL    HW115554   2.537   6.734   2.459
 4885SOL    HW215555   2.480   6.612   2.367
 4886SOL     OW15556   6.966   5.636   5.710
 4886SOL    HW115557   0.016   5.691   5.670
 4886SOL    HW215558   6.995   5.540   5.712
 4887SOL     OW15559   0.356   1.540   2.781
 4887SOL    HW115560   0.438   1.499   2.741
 4887SOL    HW215561   0.287   1.553   2.710
 4888SOL     OW15562   1.951   6.582   4.063
 4888SOL    HW115563   1.996   6.539   3.985
 4888SOL    HW215564   1.896   6.514   4.111
 4889SOL     OW15565   0.015   1.415   6.794
 4889SOL    HW115566   0.049   1.508   6.782
 4889SOL    HW215567   0.091   1.350   6.787
 4890SOL     OW15568   0.328   2.384   5.312
 4890SOL    HW115569   0.418   2.340   5.317
 4890SOL    HW215570   0.257   2.314   5.304
 4891SOL     OW15571   1.259   5.881   0.590
 4891SOL    HW115572   1.174   5.837   0.563
 4891SOL    HW215573   1.316   5.896   0.509
 4892SOL     OW15574   2.554   5.974   2.221
 4892SOL    HW115575   2.522   5.986   2.127
 4892SOL    HW215576   2.476   5.978   2.283
 4893SOL     OW15577   6.091   4.658   0.002
 4893SOL    HW115578   6.139   4.724   0.060
 4893SOL    HW215579   6.157   4.614   6.964
 4894SOL     OW15580   2.541   0.913   1.653
 4894SOL    HW115581   2.606   0.972   1.702
 4894SOL    HW215582   2.583   0.880   1.569
 4895SOL     OW15583   0.125   5.055   1.547
 4895SOL    HW115584   0.182   5.002   1.485
 4895SOL    HW215585   0.087   5.134   1.499
 4896SOL     OW15586   2.567   5.213   2.418
 4896SOL    HW115587   2.483   5.245   2.374
 4896SOL    HW215588   2.646   5.247   2.367
 4897SOL     OW15589   2.578   5.555   6.256
 4897SOL    HW115590   2.506   5.486   6.247
 4897SOL    HW215591   2.648   5.522   6.319
 4898SOL     OW15592   6.027   1.564   5.327
 4898SOL    HW115593   6.075   1.476   5.324
 4898SOL    HW215594   5.936   1.554   5.286
 4899SOL     OW15595   6.257   4.556   2.841
 4899SOL    HW115596   6.302   4.486   2.896
 4899SOL    HW215597   6.208   4.513   2.766
 4900SOL     OW15598   1.889   6.067   5.439
 4900SOL    HW115599   1.928   6.109   5.522
 4900SOL    HW215600   1.935   5.980   5.422
 4901SOL     OW15601   2.690   6.667   5.370
 4901SOL    HW115602   2.629   6.637   5.296
 4901SOL    HW215603   2.641   6.731   5.429
 4902SOL     OW15604   2.281   2.211   4.693
 4902SOL    HW115605   2.379   2.234   4.687
 4902SOL    HW215606   2.240   2.264   4.768
 4903SOL     OW15607   3.295   6.777   6.978
 4903SOL    HW115608   3.365   6.764   6.908
 4903SOL    HW215609   3.213   6.724   6.955
 4904SOL     OW15610   1.510   6.886   3.814
 4904SOL    HW115611   1.471   6.794   3.809
 4904SOL    HW215612   1.548   6.911   3.725
 4905SOL     OW15613   4.496   1.999   2.518
 4905SOL    HW115614   4.444   1.978   2.435
 4905SOL    HW215615   4.468   2.089   2.553
 4906SOL     OW15616   3.553   1.131   6.373
 4906SOL    HW115617   3.501   1.195   6.429
 4906SOL    HW215618   3.639   1.174   6.344
 4907SOL     OW15619   4.492   6.296   2.086
 4907SOL    HW115620   4.533   6.313   1.996
 4907SOL    HW215621   4.477   6.383   2.133
 4908SOL     OW15622   4.351   5.014   6.958
 4908SOL    HW115623   4.443   5.034   6.925
 4908SOL    HW215624   4.333   4.915   6.950
 4909SOL     OW15625   6.296   0.177   6.121
 4909SOL    HW115626   6.286   0.255   6.182
 4909SOL    HW215627   6.370   0.194   6.056
 4910SOL     OW15628   5.833   6.867   4.813
 4910SOL    HW115629   5.758   6.826   4.760
 4910SOL    HW215630   5.794   6.927   4.883
 4911SOL     OW15631   6.782   2.526   6.059
 4911SOL    HW115632   6.881   2.512   6.054
 4911SOL    HW215633   6.761   2.623   6.051
 4912SOL     OW15634   5.492   1.942   1.271
 4912SOL    HW115635   5.589   1.917   1.262
 4912SOL    HW215636   5.480   1.996   1.354
 4913SOL     OW15637   3.663   3.268   3.739
 4913SOL    HW115638   3.742   3.278   3.678
 4913SOL    HW215639   3.580   3.258   3.684
 4914SOL     OW15640   3.813   0.505   4.559
 4914SOL    HW115641   3.774   0.458   4.638
 4914SOL    HW215642   3.909   0.478   4.550
 4915SOL     OW15643   4.971   0.456   4.931
 4915SOL    HW115644   4.897   0.446   4.865
 4915SOL    HW215645   5.059   0.449   4.883
 4916SOL     OW15646   2.050   1.323   3.492
 4916SOL    HW115647   2.033   1.264   3.413
 4916SOL    HW215648   2.062   1.417   3.460
 4917SOL     OW15649   1.629   4.170   0.653
 4917SOL    HW115650   1.540   4.210   0.634
 4917SOL    HW215651   1.642   4.162   0.752
 4918SOL     OW15652   3.109   6.810   2.297
 4918SOL    HW115653   3.114   6.821   2.396
 4918SOL    HW215654   3.112   6.712   2.274
 4919SOL     OW15655   2.383   1.713   1.268
 4919SOL    HW115656   2.469   1.754   1.237
 4919SOL    HW215657   2.400   1.653   1.346
 4920SOL     OW15658   4.248   0.512   6.770
 4920SOL    HW115659   4.199   0.483   6.688
 4920SOL    HW215660   4.186   0.510   6.848
 4921SOL     OW15661   2.013   3.990   1.172
 4921SOL    HW115662   1.999   3.919   1.104
 4921SOL    HW215663   1.993   3.954   1.263
 4922SOL     OW15664   1.198   3.406   5.131
 4922SOL    HW115665   1.162   3.341   5.197
 4922SOL    HW215666   1.288   3.439   5.162
 4923SOL     OW15667   4.311   1.111   1.355
 4923SOL    HW115668   4.247   1.038   1.381
 4923SOL    HW215669   4.298   1.190   1.416
 4924SOL     OW15670   2.276   2.915   5.854
 4924SOL    HW115671   2.345   2.907   5.926
 4924SOL    HW215672   2.212   2.988   5.878
 4925SOL     OW15673   6.332   6.372   0.896
 4925SOL    HW115674   6.300   6.447   0.953
 4925SOL    HW215675   6.383   6.409   0.818
 4926SOL     OW15676   5.100   3.049   1.412
 4926SOL    HW115677   5.120   2.989   1.489
 4926SOL    HW215678   5.004   3.039   1.385
 4927SOL     OW15679   4.048   3.463   4.111
 4927SOL    HW115680   3.956   3.468   4.072
 4927SOL    HW215681   4.053   3.523   4.191
 4928SOL     OW15682   0.370   7.002   6.826
 4928SOL    HW115683   0.467   6.987   6.847
 4928SOL    HW215684   0.338   0.061   6.875
 4929SOL     OW15685   1.159   4.034   5.377
 4929SOL    HW115686   1.212   4.020   5.293
 4929SOL    HW215687   1.220   4.033   5.456
 4930SOL     OW15688   6.502   0.431   1.359
 4930SOL    HW115689   6.537   0.484   1.282
 4930SOL    HW215690   6.577   0.405   1.420
 4931SOL     OW15691   0.303   6.754   0.719
 4931SOL    HW115692   0.243   6.818   0.766
 4931SOL    HW215693   0.294   6.663   0.761
 4932SOL     OW15694   2.140   3.184   1.804
 4932SOL    HW115695   2.148   3.224   1.895
 4932SOL    HW215696   2.085   3.244   1.745
 4933SOL     OW15697   2.822   6.960   4.439
 4933SOL    HW115698   2.840   0.032   4.463
 4933SOL    HW215699   2.909   6.910   4.436
 4934SOL     OW15700   1.499   5.238   3.434
 4934SOL    HW115701   1.459   5.245   3.525
 4934SOL    HW215702   1.521   5.330   3.400
 4935SOL     OW15703   0.963   1.304   0.053
 4935SOL    HW115704   1.010   1.226   0.094
 4935SOL    HW215705   0.926   1.279   6.986
 4936SOL     OW15706   1.866   4.952   2.117
 4936SOL    HW115707   1.931   4.889   2.073
 4936SOL    HW215708   1.793   4.974   2.053
 4937SOL     OW15709   0.599   3.858   6.010
 4937SOL    HW115710   0.572   3.904   6.095
 4937SOL    HW215711   0.549   3.898   5.934
 4938SOL     OW15712   3.019   5.073   1.409
 4938SOL    HW115713   3.013   5.045   1.504
 4938SOL    HW215714   3.070   5.005   1.357
 4939SOL     OW15715   1.194   2.005   3.364
 4939SOL    HW115716   1.141   2.044   3.289
 4939SOL    HW215717   1.134   1.947   3.420
 4940SOL     OW15718   0.407   1.764   5.569
 4940SOL    HW115719   0.408   1.664   5.559
 4940SOL    HW215720   0.321   1.800   5.531
 4941SOL     OW15721   4.257   2.679   5.393
 4941SOL    HW115722   4.182   2.746   5.395
 4941SOL    HW215723   4.242   2.615   5.317
 4942SOL     OW15724   5.404   3.331   4.557
 4942SOL    HW115725   5.356   3.262   4.612
 4942SOL    HW215726   5.386   3.422   4.593
 4943SOL     OW15727   5.226   4.056   5.893
 4943SOL    HW115728   5.177   4.096   5.815
 4943SOL    HW215729   5.176   4.075   5.977
 4944SOL     OW15730   2.147   4.385   1.902
 4944SOL    HW115731   2.113   4.291   1.915
 4944SOL    HW215732   2.110   4.422   1.817
 4945SOL     OW15733   1.183   6.958   5.027
 4945SOL    HW115734   1.235   0.020   5.044
 4945SOL    HW215735   1.111   6.950   5.095
 4946SOL     OW15736   0.961   5.626   0.159
 4946SOL    HW115737   0.986   5.612   0.063
 4946SOL    HW215738   1.044   5.645   0.212
 4947SOL     OW15739   2.426   1.069   0.852
 4947SOL    HW115740   2.525   1.070   0.871
 4947SOL    HW215741   2.391   1.163   0.858
 4948SOL     OW15742   2.296   2.643   2.720
 4948SOL    HW115743   2.253   2.687   2.799
 4948SOL    HW215744   2.321   2.712   2.652
 4949SOL     OW15745   0.056   3.966   4.990
 4949SOL    HW115746   0.042   4.051   5.039
 4949SOL    HW215747   7.018   3.963   4.911
 4950SOL     OW15748   2.409   4.103   5.529
 4950SOL    HW115749   2.495   4.053   5.524
 4950SOL    HW215750   2.382   4.134   5.438
 4951SOL     OW15751   6.129   0.216   4.733
 4951SOL    HW115752   6.140   0.116   4.735
 4951SOL    HW215753   6.154   0.254   4.822
 4952SOL     OW15754   0.419   6.682   6.072
 4952SOL    HW115755   0.326   6.718   6.065
 4952SOL    HW215756   0.445   6.640   5.985
 4953SOL     OW15757   1.272   6.688   2.987
 4953SOL    HW115758   1.229   6.692   2.896
 4953SOL    HW215759   1.370   6.700   2.977
 4954SOL     OW15760   3.362   3.563   0.044
 4954SOL    HW115761   3.411   3.595   0.125
 4954SOL    HW215762   3.293   3.631   0.018
 4955SOL     OW15763   2.848   6.418   6.789
 4955SOL    HW115764   2.879   6.324   6.807
 4955SOL    HW215765   2.922   6.468   6.743
 4956SOL     OW15766   2.946   0.294   4.814
 4956SOL    HW115767   3.000   0.301   4.898
 4956SOL    HW215768   3.007   0.297   4.735
 4957SOL     OW15769   5.269   2.846   0.871
 4957SOL    HW115770   5.357   2.807   0.895
 4957SOL    HW215771   5.196   2.782   0.894
 4958SOL     OW15772   1.637   5.609   5.872
 4958SOL    HW115773   1.608   5.600   5.777
 4958SOL    HW215774   1.595   5.690   5.912
 4959SOL     OW15775   6.136   1.036   1.134
 4959SOL    HW115776   6.065   0.966   1.122
 4959SOL    HW215777   6.223   1.001   1.099
 4960SOL     OW15778   4.482   4.795   4.299
 4960SOL    HW115779   4.568   4.825   4.340
 4960SOL    HW215780   4.418   4.770   4.371
 4961SOL     OW15781   2.953   0.136   6.455
 4961SOL    HW115782   2.857   0.111   6.465
 4961SOL    HW215783   3.007   0.091   6.526
 4962SOL     OW15784   5.672   2.539   0.527
 4962SOL    HW115785   5.739   2.518   0.456
 4962SOL    HW215786   5.682   2.476   0.603
 4963SOL     OW15787   0.789   5.547   0.831
 4963SOL    HW115788   0.795   5.579   0.736
 4963SOL    HW215789   0.875   5.567   0.878
 4964SOL     OW15790   2.152   0.155   4.546
 4964SOL    HW115791   2.242   0.126   4.514
 4964SOL    HW215792   2.154   0.253   4.567
 4965SOL     OW15793   1.013   6.159   2.447
 4965SOL    HW115794   1.025   6.146   2.546
 4965SOL    HW215795   1.084   6.221   2.413
 4966SOL     OW15796   3.216   6.637   4.920
 4966SOL    HW115797   3.236   6.630   5.018
 4966SOL    HW215798   3.153   6.564   4.894
 4967SOL     OW15799   2.966   5.110   5.952
 4967SOL    HW115800   2.887   5.051   5.939
 4967SOL    HW215801   2.937   5.198   5.991
 4968SOL     OW15802   0.470   1.402   3.297
 4968SOL    HW115803   0.497   1.437   3.387
 4968SOL    HW215804   0.398   1.460   3.259
 4969SOL     OW15805   1.636   6.202   2.664
 4969SOL    HW115806   1.614   6.109   2.696
 4969SOL    HW215807   1.631   6.265   2.742
 4970SOL     OW15808   2.685   1.477   1.300
 4970SOL    HW115809   2.661   1.437   1.212
 4970SOL    HW215810   2.602   1.505   1.348
 4971SOL     OW15811   6.170   5.747   3.020
 4971SOL    HW115812   6.187   5.829   3.076
 4971SOL    HW215813   6.185   5.666   3.076
 4972SOL     OW15814   0.561   3.965   0.879
 4972SOL    HW115815   0.506   4.045   0.905
 4972SOL    HW215816   0.643   3.996   0.830
 4973SOL     OW15817   0.688   6.916   1.873
 4973SOL    HW115818   0.713   6.997   1.926
 4973SOL    HW215819   0.646   6.945   1.787
 4974SOL     OW15820   6.268   5.024   0.864
 4974SOL    HW115821   6.176   5.004   0.830
 4974SOL    HW215822   6.296   5.115   0.834
 4975SOL     OW15823   5.702   3.947   6.488
 4975SOL    HW115824   5.736   4.034   6.453
 4975SOL    HW215825   5.637   3.964   6.562
 4976SOL     OW15826   1.638   1.508   4.625
 4976SOL    HW115827   1.546   1.539   4.651
 4976SOL    HW215828   1.649   1.515   4.526
 4977SOL     OW15829   4.551   5.265   0.126
 4977SOL    HW115830   4.538   5.204   0.204
 4977SOL    HW215831   4.465   5.308   0.102
 4978SOL     OW15832   5.930   4.972   4.876
 4978SOL    HW115833   5.979   4.888   4.900
 4978SOL    HW215834   5.929   5.034   4.955
 4979SOL     OW15835   6.719   6.606   6.018
 4979SOL    HW115836   6.758   6.687   5.975
 4979SOL    HW215837   6.641   6.633   6.075
 4980SOL     OW15838   5.166   5.474   3.805
 4980SOL    HW115839   5.069   5.473   3.780
 4980SOL    HW215840   5.182   5.405   3.876
 4981SOL     OW15841   3.913   5.305   1.609
 4981SOL    HW115842   3.875   5.274   1.696
 4981SOL    HW215843   3.917   5.229   1.545
 4982SOL     OW15844   3.247   2.272   5.777
 4982SOL    HW115845   3.195   2.352   5.805
 4982SOL    HW215846   3.316   2.299   5.709
 4983SOL     OW15847   5.348   3.816   5.290
 4983SOL    HW115848   5.430   3.844   5.241
 4983SOL    HW215849   5.372   3.753   5.364
 4984SOL     OW15850   4.877   3.671   2.921
 4984SOL    HW115851   4.876   3.596   2.986
 4984SOL    HW215852   4.887   3.635   2.828
 4985SOL     OW15853   6.107   7.016   3.188
 4985SOL    HW115854   6.024   6.976   3.151
 4985SOL    HW215855   6.179   7.015   3.118
 4986SOL     OW15856   6.644   5.214   0.538
 4986SOL    HW115857   6.647   5.306   0.499
 4986SOL    HW215858   6.572   5.162   0.493
 4987SOL     OW15859   0.843   6.653   2.517
 4987SOL    HW115860   0.816   6.731   2.573
 4987SOL    HW215861   0.762   6.612   2.475
 4988SOL     OW15862   5.127   1.270   2.629
 4988SOL    HW115863   5.068   1.314   2.696
 4988SOL    HW215864   5.221   1.298   2.644
 4989SOL     OW15865   5.221   6.546   1.255
 4989SOL    HW115866   5.168   6.597   1.187
 4989SOL    HW215867   5.195   6.576   1.347
 4990SOL     OW15868   2.973   2.096   6.148
 4990SOL    HW115869   2.884   2.135   6.128
 4990SOL    HW215870   2.965   1.996   6.152
 4991SOL     OW15871   6.105   5.527   4.241
 4991SOL    HW115872   6.155   5.605   4.205
 4991SOL    HW215873   6.037   5.497   4.174
 4992SOL     OW15874   4.862   0.333   1.972
 4992SOL    HW115875   4.825   0.335   2.065
 4992SOL    HW215876   4.911   0.419   1.955
 4993SOL     OW15877   3.756   6.274   5.310
 4993SOL    HW115878   3.700   6.344   5.264
 4993SOL    HW215879   3.851   6.305   5.312
 4994SOL     OW15880   1.834   6.814   4.444
 4994SOL    HW115881   1.903   6.757   4.398
 4994SOL    HW215882   1.877   6.866   4.518
 4995SOL     OW15883   0.766   2.213   5.370
 4995SOL    HW115884   0.818   2.264   5.301
 4995SOL    HW215885   0.672   2.201   5.339
 4996SOL     OW15886   0.043   1.139   3.705
 4996SOL    HW115887   0.057   1.069   3.635
 4996SOL    HW215888   6.969   1.146   3.727
 4997SOL     OW15889   4.427   2.208   2.225
 4997SOL    HW115890   4.487   2.242   2.153
 4997SOL    HW215891   4.465   2.234   2.314
 4998SOL     OW15892   2.137   3.602   4.401
 4998SOL    HW115893   2.154   3.603   4.500
 4998SOL    HW215894   2.059   3.544   4.381
 4999SOL     OW15895   6.844   3.420   4.940
 4999SOL    HW115896   6.919   3.403   4.876
 4999SOL    HW215897   6.831   3.340   4.998
 5000SOL     OW15898   3.378   0.269   3.391
 5000SOL    HW115899   3.467   0.314   3.391
 5000SOL    HW215900   3.306   0.337   3.384
 5001SOL     OW15901   0.992   4.844   1.819
 5001SOL    HW115902   0.933   4.800   1.751
 5001SOL    HW215903   0.936   4.902   1.879
 5002SOL     OW15904   0.763   3.750   2.276
 5002SOL    HW115905   0.787   3.682   2.346
 5002SOL    HW215906   0.830   3.745   2.201
 5003SOL     OW15907   3.552   5.627   3.119
 5003SOL    HW115908   3.488   5.606   3.193
 5003SOL    HW215909   3.633   5.671   3.156
 5004SOL     OW15910   2.344   4.781   5.324
 5004SOL    HW115911   2.419   4.788   5.258
 5004SOL    HW215912   2.357   4.699   5.379
 5005SOL     OW15913   3.555   2.947   0.182
 5005SOL    HW115914   3.628   2.982   0.241
 5005SOL    HW215915   3.475   3.007   0.188
 5006SOL     OW15916   5.290   0.941   1.957
 5006SOL    HW115917   5.204   0.987   1.938
 5006SOL    HW215918   5.344   0.996   2.021
 5007SOL     OW15919   0.260   6.762   1.597
 5007SOL    HW115920   0.302   6.816   1.524
 5007SOL    HW215921   0.259   6.666   1.570
 5008SOL     OW15922   5.297   6.243   2.141
 5008SOL    HW115923   5.269   6.215   2.049
 5008SOL    HW215924   5.299   6.164   2.201
 5009SOL     OW15925   6.898   2.164   0.526
 5009SOL    HW115926   6.895   2.209   0.437
 5009SOL    HW215927   6.884   2.066   0.514
 5010SOL     OW15928   3.829   2.829   1.547
 5010SOL    HW115929   3.873   2.843   1.635
 5010SOL    HW215930   3.876   2.756   1.497
 5011SOL     OW15931   1.630   4.961   1.969
 5011SOL    HW115932   1.583   5.009   2.044
 5011SOL    HW215933   1.567   4.948   1.893
 5012SOL     OW15934   5.527   3.146   5.001
 5012SOL    HW115935   5.531   3.046   5.005
 5012SOL    HW215936   5.526   3.183   5.094
 5013SOL     OW15937   5.156   1.312   6.661
 5013SOL    HW115938   5.143   1.411   6.651
 5013SOL    HW215939   5.133   1.285   6.755
 5014SOL     OW15940   5.648   4.451   1.316
 5014SOL    HW115941   5.697   4.421   1.234
 5014SOL    HW215942   5.709   4.505   1.374
 5015SOL     OW15943   5.270   1.645   4.937
 5015SOL    HW115944   5.360   1.685   4.950
 5015SOL    HW215945   5.224   1.691   4.861
 5016SOL     OW15946   1.856   2.892   5.518
 5016SOL    HW115947   1.866   2.990   5.534
 5016SOL    HW215948   1.800   2.851   5.590
 5017SOL     OW15949   2.543   2.092   1.181
 5017SOL    HW115950   2.500   2.069   1.094
 5017SOL    HW215951   2.635   2.053   1.183
 5018SOL     OW15952   1.130   4.785   2.903
 5018SOL    HW115953   1.151   4.840   2.985
 5018SOL    HW215954   1.079   4.703   2.929
 5019SOL     OW15955   1.117   5.368   5.741
 5019SOL    HW115956   1.022   5.375   5.770
 5019SOL    HW215957   1.167   5.307   5.803
 5020SOL     OW15958   5.489   0.061   6.260
 5020SOL    HW115959   5.555   0.111   6.204
 5020SOL    HW215960   5.526   6.993   6.282
 5021SOL     OW15961   0.744   1.305   0.243
 5021SOL    HW115962   0.787   1.243   0.309
 5021SOL    HW215963   0.802   1.313   0.162
 5022SOL     OW15964   2.680   1.621   0.937
 5022SOL    HW115965   2.654   1.677   1.016
 5022SOL    HW215966   2.745   1.672   0.881
 5023SOL     OW15967   0.194   3.309   1.671
 5023SOL    HW115968   0.146   3.323   1.758
 5023SOL    HW215969   0.152   3.366   1.600
 5024SOL     OW15970   6.020   5.519   1.667
 5024SOL    HW115971   6.033   5.516   1.568
 5024SOL    HW215972   5.922   5.524   1.687
 5025SOL     OW15973   4.235   1.883   3.836
 5025SOL    HW115974   4.263   1.789   3.851
 5025SOL    HW215975   4.175   1.888   3.756
 5026SOL     OW15976   6.276   6.220   5.500
 5026SOL    HW115977   6.366   6.192   5.535
 5026SOL    HW215978   6.222   6.139   5.480
 5027SOL     OW15979   6.610   6.404   1.917
 5027SOL    HW115980   6.542   6.365   1.855
 5027SOL    HW215981   6.606   6.358   2.005
 5028SOL     OW15982   0.208   2.308   2.047
 5028SOL    HW115983   0.224   2.405   2.068
 5028SOL    HW215984   0.275   2.277   1.979
 5029SOL     OW15985   6.316   2.212   2.384
 5029SOL    HW115986   6.339   2.195   2.480
 5029SOL    HW215987   6.245   2.148   2.355
 5030SOL     OW15988   0.310   5.869   6.574
 5030SOL    HW115989   0.222   5.916   6.566
 5030SOL    HW215990   0.381   5.923   6.528
 5031SOL     OW15991   6.325   0.889   6.427
 5031SOL    HW115992   6.387   0.846   6.493
 5031SOL    HW215993   6.341   0.988   6.427
 5032SOL     OW15994   2.342   2.677   6.240
 5032SOL    HW115995   2.347   2.599   6.178
 5032SOL    HW215996   2.433   2.717   6.251
 5033SOL     OW15997   2.114   6.871   5.804
 5033SOL    HW115998   2.102   6.788   5.750
 5033SOL    HW215999   2.046   6.874   5.877
 5034SOL     OW16000   5.933   7.003   3.719
 5034SOL    HW116001   5.954   6.913   3.680
 5034SOL    HW216002   5.962   0.052   3.656
 5035SOL     OW16003   0.350   4.137   5.909
 5035SOL    HW116004   0.387   4.060   5.857
 5035SOL    HW216005   0.252   4.146   5.890
 5036SOL     OW16006   0.402   4.921   6.676
 5036SOL    HW116007   0.333   4.918   6.748
 5036SOL    HW216008   0.420   4.829   6.643
 5037SOL     OW16009   5.304   3.991   1.799
 5037SOL    HW116010   5.316   4.051   1.719
 5037SOL    HW216011   5.256   4.042   1.871
 5038SOL     OW16012   3.537   3.626   5.781
 5038SOL    HW116013   3.494   3.658   5.697
 5038SOL    HW216014   3.516   3.689   5.856
 5039SOL     OW16015   2.441   4.528   5.826
 5039SOL    HW116016   2.403   4.445   5.785
 5039SOL    HW216017   2.367   4.583   5.865
 5040SOL     OW16018   1.551   6.686   5.866
 5040SOL    HW116019   1.511   6.706   5.777
 5040SOL    HW216020   1.478   6.669   5.932
 5041SOL     OW16021   1.703   1.819   2.649
 5041SOL    HW116022   1.640   1.791   2.721
 5041SOL    HW216023   1.749   1.738   2.612
 5042SOL     OW16024   6.357   3.206   6.887
 5042SOL    HW116025   6.437   3.148   6.905
 5042SOL    HW216026   6.282   3.178   6.947
 5043SOL     OW16027   3.366   6.977   6.089
 5043SOL    HW116028   3.450   7.022   6.119
 5043SOL    HW216029   3.290   7.006   6.146
 5044SOL     OW16030   0.779   6.331   0.184
 5044SOL    HW116031   0.787   6.423   0.222
 5044SOL    HW216032   0.736   6.335   0.094
 5045SOL     OW16033   5.780   0.027   6.264
 5045SOL    HW116034   5.833   0.040   6.180
 5045SOL    HW216035   5.763   6.953   6.278
 5046SOL     OW16036   3.371   4.109   2.734
 5046SOL    HW116037   3.353   4.148   2.824
 5046SOL    HW216038   3.307   4.033   2.718
 5047SOL     OW16039   0.927   3.872   2.879
 5047SOL    HW116040   0.963   3.810   2.949
 5047SOL    HW216041   0.870   3.942   2.922
 5048SOL     OW16042   1.102   1.287   2.808
 5048SOL    HW116043   1.127   1.379   2.780
 5048SOL    HW216044   1.004   1.284   2.829
 5049SOL     OW16045   5.192   1.828   6.559
 5049SOL    HW116046   5.134   1.893   6.609
 5049SOL    HW216047   5.213   1.865   6.469
 5050SOL     OW16048   2.317   0.640   1.518
 5050SOL    HW116049   2.412   0.608   1.520
 5050SOL    HW216050   2.278   0.624   1.427
 5051SOL     OW16051   4.061   4.551   0.916
 5051SOL    HW116052   4.036   4.602   0.833
 5051SOL    HW216053   4.141   4.495   0.897
 5052SOL     OW16054   2.500   0.732   6.013
 5052SOL    HW116055   2.575   0.798   6.015
 5052SOL    HW216056   2.413   0.781   6.005
 5053SOL     OW16057   1.887   3.604   4.049
 5053SOL    HW116058   1.843   3.674   4.106
 5053SOL    HW216059   1.955   3.647   3.991
 5054SOL     OW16060   3.363   5.011   4.451
 5054SOL    HW116061   3.367   5.111   4.460
 5054SOL    HW216062   3.358   4.970   4.542
 5055SOL     OW16063   1.732   2.329   5.385
 5055SOL    HW116064   1.796   2.305   5.458
 5055SOL    HW216065   1.640   2.338   5.422
 5056SOL     OW16066   5.484   4.173   6.489
 5056SOL    HW116067   5.389   4.186   6.458
 5056SOL    HW216068   5.483   4.130   6.580
 5057SOL     OW16069   6.713   6.301   3.630
 5057SOL    HW116070   6.620   6.310   3.666
 5057SOL    HW216071   6.778   6.317   3.704
 5058SOL     OW16072   3.189   4.020   5.496
 5058SOL    HW116073   3.241   4.079   5.434
 5058SOL    HW216074   3.141   3.950   5.444
 5059SOL     OW16075   6.934   1.350   3.226
 5059SOL    HW116076   6.992   1.336   3.147
 5059SOL    HW216077   6.989   1.345   3.310
 5060SOL     OW16078   0.745   2.064   5.762
 5060SOL    HW116079   0.781   1.975   5.735
 5060SOL    HW216080   0.654   2.077   5.721
 5061SOL     OW16081   4.515   2.831   1.554
 5061SOL    HW116082   4.543   2.927   1.546
 5061SOL    HW216083   4.564   2.789   1.631
 5062SOL     OW16084   5.951   0.610   3.412
 5062SOL    HW116085   5.909   0.530   3.370
 5062SOL    HW216086   6.049   0.594   3.424
 5063SOL     OW16087   0.898   0.165   2.439
 5063SOL    HW116088   0.989   0.185   2.475
 5063SOL    HW216089   0.841   0.125   2.510
 5064SOL     OW16090   5.085   3.697   1.608
 5064SOL    HW116091   5.045   3.612   1.641
 5064SOL    HW216092   5.151   3.677   1.535
 5065SOL     OW16093   2.281   0.844   4.018
 5065SOL    HW116094   2.314   0.829   3.925
 5065SOL    HW216095   2.357   0.870   4.076
 5066SOL     OW16096   4.944   4.887   2.630
 5066SOL    HW116097   4.965   4.939   2.713
 5066SOL    HW216098   4.859   4.836   2.643
 5067SOL     OW16099   4.542   1.273   1.898
 5067SOL    HW116100   4.580   1.246   1.986
 5067SOL    HW216101   4.592   1.352   1.863
 5068SOL     OW16102   3.124   4.118   0.923
 5068SOL    HW116103   3.223   4.122   0.905
 5068SOL    HW216104   3.108   4.131   1.021
 5069SOL     OW16105   1.857   3.870   5.944
 5069SOL    HW116106   1.842   3.872   6.043
 5069SOL    HW216107   1.929   3.935   5.920
 5070SOL     OW16108   5.224   3.992   4.305
 5070SOL    HW116109   5.132   3.957   4.326
 5070SOL    HW216110   5.292   3.931   4.345
 5071SOL     OW16111   4.378   2.375   3.837
 5071SOL    HW116112   4.362   2.421   3.749
 5071SOL    HW216113   4.462   2.410   3.878
 5072SOL     OW16114   1.070   0.248   1.181
 5072SOL    HW116115   1.162   0.243   1.143
 5072SOL    HW216116   1.003   0.246   1.107
 5073SOL     OW16117   0.046   5.869   2.340
 5073SOL    HW116118   0.136   5.881   2.299
 5073SOL    HW216119   0.000   5.958   2.346
 5074SOL     OW16120   3.009   3.163   1.170
 5074SOL    HW116121   2.969   3.124   1.253
 5074SOL    HW216122   3.062   3.244   1.194
 5075SOL     OW16123   1.275   2.334   6.848
 5075SOL    HW116124   1.204   2.339   6.919
 5075SOL    HW216125   1.235   2.303   6.762
 5076SOL     OW16126   3.796   1.370   0.772
 5076SOL    HW116127   3.835   1.283   0.742
 5076SOL    HW216128   3.869   1.429   0.806
 5077SOL     OW16129   0.880   4.093   5.365
 5077SOL    HW116130   0.975   4.070   5.382
 5077SOL    HW216131   0.869   4.120   5.269
 5078SOL     OW16132   2.121   1.798   3.913
 5078SOL    HW116133   2.110   1.812   4.012
 5078SOL    HW216134   2.034   1.769   3.874
 5079SOL     OW16135   2.299   3.755   5.804
 5079SOL    HW116136   2.304   3.826   5.734
 5079SOL    HW216137   2.314   3.665   5.763
 5080SOL     OW16138   6.122   6.371   6.112
 5080SOL    HW116139   6.091   6.462   6.138
 5080SOL    HW216140   6.075   6.342   6.029
 5081SOL     OW16141   3.537   2.893   4.301
 5081SOL    HW116142   3.558   2.813   4.244
 5081SOL    HW216143   3.621   2.927   4.342
 5082SOL     OW16144   5.237   5.979   6.702
 5082SOL    HW116145   5.246   5.950   6.797
 5082SOL    HW216146   5.140   5.983   6.677
 5083SOL     OW16147   2.764   0.069   3.131
 5083SOL    HW116148   2.805   0.129   3.062
 5083SOL    HW216149   2.801   0.092   3.221
 5084SOL     OW16150   0.585   4.354   4.279
 5084SOL    HW116151   0.530   4.437   4.287
 5084SOL    HW216152   0.525   4.275   4.266
 5085SOL     OW16153   4.658   3.499   6.376
 5085SOL    HW116154   4.609   3.420   6.410
 5085SOL    HW216155   4.593   3.569   6.345
 5086SOL     OW16156   0.281   5.343   3.360
 5086SOL    HW116157   0.372   5.302   3.354
 5086SOL    HW216158   0.284   5.423   3.421
 5087SOL     OW16159   0.458   5.002   2.835
 5087SOL    HW116160   0.516   4.924   2.858
 5087SOL    HW216161   0.417   5.039   2.919
 5088SOL     OW16162   6.281   1.485   5.017
 5088SOL    HW116163   6.277   1.584   4.999
 5088SOL    HW216164   6.356   1.445   4.965
 5089SOL     OW16165   5.331   3.183   3.758
 5089SOL    HW116166   5.330   3.093   3.803
 5089SOL    HW216167   5.238   3.215   3.743
 5090SOL     OW16168   1.795   3.949   2.832
 5090SOL    HW116169   1.812   3.859   2.790
 5090SOL    HW216170   1.703   3.951   2.871
 5091SOL     OW16171   1.129   0.089   2.614
 5091SOL    HW116172   1.203   0.106   2.678
 5091SOL    HW216173   1.166   0.052   2.529
 5092SOL     OW16174   3.596   3.113   1.655
 5092SOL    HW116175   3.539   3.086   1.577
 5092SOL    HW216176   3.685   3.144   1.622
 5093SOL     OW16177   2.965   1.412   0.950
 5093SOL    HW116178   2.963   1.348   1.027
 5093SOL    HW216179   3.019   1.493   0.976
 5094SOL     OW16180   1.648   5.971   5.311
 5094SOL    HW116181   1.720   5.988   5.379
 5094SOL    HW216182   1.560   5.964   5.358
 5095SOL     OW16183   0.175   2.660   4.626
 5095SOL    HW116184   0.187   2.751   4.666
 5095SOL    HW216185   0.099   2.662   4.561
 5096SOL     OW16186   4.216   3.741   0.942
 5096SOL    HW116187   4.213   3.835   0.974
 5096SOL    HW216188   4.232   3.679   1.020
 5097SOL     OW16189   1.097   0.470   6.833
 5097SOL    HW116190   1.187   0.515   6.837
 5097SOL    HW216191   1.064   0.471   6.738
 5098SOL     OW16192   1.484   0.885   1.596
 5098SOL    HW116193   1.472   0.935   1.682
 5098SOL    HW216194   1.525   0.945   1.528
 5099SOL     OW16195   0.703   6.264   6.886
 5099SOL    HW116196   0.614   6.308   6.890
 5099SOL    HW216197   0.693   6.173   6.846
 5100SOL     OW16198   4.126   6.049   5.321
 5100SOL    HW116199   4.101   6.002   5.237
 5100SOL    HW216200   4.044   6.084   5.366
 5101SOL     OW16201   4.038   6.957   0.588
 5101SOL    HW116202   3.969   6.967   0.660
 5101SOL    HW216203   4.002   6.993   0.502
 5102SOL     OW16204   6.471   0.965   4.698
 5102SOL    HW116205   6.510   1.058   4.700
 5102SOL    HW216206   6.461   0.932   4.792
 5103SOL     OW16207   0.446   0.782   4.204
 5103SOL    HW116208   0.481   0.850   4.139
 5103SOL    HW216209   0.496   0.791   4.290
 5104SOL     OW16210   2.151   6.599   2.545
 5104SOL    HW116211   2.095   6.614   2.464
 5104SOL    HW216212   2.225   6.666   2.547
 5105SOL     OW16213   3.483   2.680   0.121
 5105SOL    HW116214   3.397   2.671   0.070
 5105SOL    HW216215   3.501   2.777   0.138
 5106SOL     OW16216   3.431   0.973   0.938
 5106SOL    HW116217   3.391   1.040   0.876
 5106SOL    HW216218   3.366   0.953   1.011
 5107SOL     OW16219   4.358   0.798   0.978
 5107SOL    HW116220   4.395   0.832   0.891
 5107SOL    HW216221   4.300   0.868   1.020
 5108SOL     OW16222   2.916   3.653   4.360
 5108SOL    HW116223   2.936   3.750   4.375
 5108SOL    HW216224   2.956   3.599   4.434
 5109SOL     OW16225   1.442   0.654   1.079
 5109SOL    HW116226   1.435   0.604   1.165
 5109SOL    HW216227   1.457   0.751   1.099
 5110SOL     OW16228   0.491   0.530   6.545
 5110SOL    HW116229   0.475   0.519   6.447
 5110SOL    HW216230   0.460   0.448   6.594
 5111SOL     OW16231   2.326   0.989   5.471
 5111SOL    HW116232   2.245   0.999   5.412
 5111SOL    HW216233   2.407   1.017   5.421
 5112SOL     OW16234   0.695   0.072   2.664
 5112SOL    HW116235   0.643   0.056   2.580
 5112SOL    HW216236   0.659   0.152   2.710
 5113SOL     OW16237   2.283   0.199   2.060
 5113SOL    HW116238   2.278   0.154   1.971
 5113SOL    HW216239   2.338   0.144   2.122
 5114SOL     OW16240   3.484   2.499   0.374
 5114SOL    HW116241   3.386   2.517   0.380
 5114SOL    HW216242   3.519   2.534   0.286
 5115SOL     OW16243   2.157   4.974   4.790
 5115SOL    HW116244   2.151   4.971   4.691
 5115SOL    HW216245   2.245   4.936   4.819
 5116SOL     OW16246   5.853   6.346   6.539
 5116SOL    HW116247   5.813   6.259   6.509
 5116SOL    HW216248   5.781   6.403   6.579
 5117SOL     OW16249   2.058   4.543   4.768
 5117SOL    HW116250   2.065   4.481   4.690
 5117SOL    HW216251   2.072   4.491   4.853
 5118SOL     OW16252   4.604   0.288   0.638
 5118SOL    HW116253   4.657   0.333   0.566
 5118SOL    HW216254   4.523   0.343   0.658
 5119SOL     OW16255   5.378   1.067   1.699
 5119SOL    HW116256   5.334   1.156   1.707
 5119SOL    HW216257   5.382   1.024   1.789
 5120SOL     OW16258   4.133   1.201   3.658
 5120SOL    HW116259   4.206   1.237   3.599
 5120SOL    HW216260   4.078   1.277   3.692
 5121SOL     OW16261   2.225   2.471   0.016
 5121SOL    HW116262   2.320   2.463   7.009
 5121SOL    HW216263   2.167   2.413   6.981
 5122SOL     OW16264   3.091   0.312   3.994
 5122SOL    HW116265   3.157   0.353   4.057
 5122SOL    HW216266   3.125   0.322   3.900
 5123SOL     OW16267   5.991   2.410   4.952
 5123SOL    HW116268   6.059   2.419   5.024
 5123SOL    HW216269   6.036   2.404   4.863
 5124SOL     OW16270   2.794   5.409   4.764
 5124SOL    HW116271   2.882   5.392   4.720
 5124SOL    HW216272   2.783   5.347   4.842
 5125SOL     OW16273   6.207   2.859   4.225
 5125SOL    HW116274   6.155   2.848   4.309
 5125SOL    HW216275   6.204   2.955   4.196
 5126SOL     OW16276   6.094   5.199   6.132
 5126SOL    HW116277   6.041   5.264   6.077
 5126SOL    HW216278   6.082   5.107   6.095
 5127SOL     OW16279   6.619   4.050   0.327
 5127SOL    HW116280   6.710   4.090   0.342
 5127SOL    HW216281   6.563   4.064   0.409
 5128SOL     OW16282   0.075   6.709   6.668
 5128SOL    HW116283   0.170   6.737   6.655
 5128SOL    HW216284   0.035   6.762   6.743
 5129SOL     OW16285   4.349   0.421   2.751
 5129SOL    HW116286   4.283   0.453   2.820
 5129SOL    HW216287   4.434   0.395   2.796
 5130SOL     OW16288   1.446   6.170   4.529
 5130SOL    HW116289   1.439   6.267   4.509
 5130SOL    HW216290   1.389   6.147   4.608
 5131SOL     OW16291   2.844   4.721   3.715
 5131SOL    HW116292   2.786   4.728   3.796
 5131SOL    HW216293   2.787   4.708   3.634
 5132SOL     OW16294   3.563   0.930   6.174
 5132SOL    HW116295   3.640   0.866   6.175
 5132SOL    HW216296   3.576   0.999   6.245
 5133SOL     OW16297   2.390   5.432   6.665
 5133SOL    HW116298   2.464   5.443   6.732
 5133SOL    HW216299   2.424   5.382   6.585
 5134SOL     OW16300   6.914   0.018   2.303
 5134SOL    HW116301   6.946   0.050   2.213
 5134SOL    HW216302   6.846   0.081   2.339
 5135SOL     OW16303   5.355   3.505   4.034
 5135SOL    HW116304   5.265   3.530   3.999
 5135SOL    HW216305   5.347   3.424   4.092
 5136SOL     OW16306   5.677   0.729   5.818
 5136SOL    HW116307   5.705   0.687   5.732
 5136SOL    HW216308   5.700   0.668   5.894
 5137SOL     OW16309   5.281   3.421   5.096
 5137SOL    HW116310   5.216   3.493   5.070
 5137SOL    HW216311   5.304   3.367   5.015
 5138SOL     OW16312   3.476   4.127   4.652
 5138SOL    HW116313   3.428   4.110   4.566
 5138SOL    HW216314   3.409   4.149   4.723
 5139SOL     OW16315   0.931   0.205   4.426
 5139SOL    HW116316   0.972   0.222   4.515
 5139SOL    HW216317   0.832   0.215   4.432
 5140SOL     OW16318   4.014   2.445   5.748
 5140SOL    HW116319   3.935   2.459   5.687
 5140SOL    HW216320   4.098   2.473   5.701
 5141SOL     OW16321   6.805   3.737   1.040
 5141SOL    HW116322   6.833   3.777   0.953
 5141SOL    HW216323   6.851   3.786   1.115
 5142SOL     OW16324   5.260   6.891   4.933
 5142SOL    HW116325   5.194   6.837   4.985
 5142SOL    HW216326   5.349   6.845   4.934
 5143SOL     OW16327   0.645   4.126   4.764
 5143SOL    HW116328   0.564   4.151   4.817
 5143SOL    HW216329   0.686   4.209   4.726
 5144SOL     OW16330   1.813   4.445   5.860
 5144SOL    HW116331   1.833   4.543   5.863
 5144SOL    HW216332   1.897   4.394   5.844
 5145SOL     OW16333   4.140   6.029   6.137
 5145SOL    HW116334   4.057   6.024   6.082
 5145SOL    HW216335   4.116   6.025   6.234
 5146SOL     OW16336   3.826   4.311   5.204
 5146SOL    HW116337   3.817   4.361   5.118
 5146SOL    HW216338   3.920   4.322   5.239
 5147SOL     OW16339   6.136   5.132   3.568
 5147SOL    HW116340   6.223   5.114   3.523
 5147SOL    HW216341   6.152   5.166   3.661
 5148SOL     OW16342   0.299   1.211   1.969
 5148SOL    HW116343   0.360   1.274   2.017
 5148SOL    HW216344   0.226   1.181   2.032
 5149SOL     OW16345   5.942   5.682   4.771
 5149SOL    HW116346   5.924   5.702   4.675
 5149SOL    HW216347   5.907   5.590   4.792
 5150SOL     OW16348   1.786   4.356   4.142
 5150SOL    HW116349   1.820   4.436   4.191
 5150SOL    HW216350   1.717   4.384   4.075
 5151SOL     OW16351   6.715   3.969   2.195
 5151SOL    HW116352   6.717   4.069   2.191
 5151SOL    HW216353   6.662   3.933   2.119
 5152SOL     OW16354   2.211   5.619   6.723
 5152SOL    HW116355   2.177   5.666   6.642
 5152SOL    HW216356   2.283   5.554   6.697
 5153SOL     OW16357   0.539   2.125   0.876
 5153SOL    HW116358   0.440   2.129   0.863
 5153SOL    HW216359   0.583   2.195   0.819
 5154SOL     OW16360   1.281   2.811   5.923
 5154SOL    HW116361   1.336   2.863   5.988
 5154SOL    HW216362   1.200   2.864   5.897
 5155SOL     OW16363   3.868   0.720   1.767
 5155SOL    HW116364   3.809   0.775   1.826
 5155SOL    HW216365   3.926   0.661   1.823
 5156SOL     OW16366   5.802   4.823   5.154
 5156SOL    HW116367   5.889   4.774   5.143
 5156SOL    HW216368   5.732   4.780   5.097
 5157SOL     OW16369   3.210   2.139   2.290
 5157SOL    HW116370   3.236   2.230   2.259
 5157SOL    HW216371   3.111   2.135   2.304
 5158SOL     OW16372   4.325   2.505   0.843
 5158SOL    HW116373   4.250   2.555   0.886
 5158SOL    HW216374   4.289   2.435   0.782
 5159SOL     OW16375   5.664   3.506   6.053
 5159SOL    HW116376   5.610   3.437   6.004
 5159SOL    HW216377   5.742   3.462   6.096
 5160SOL     OW16378   0.019   5.280   3.308
 5160SOL    HW116379   6.978   5.354   3.326
 5160SOL    HW216380   0.113   5.312   3.325
 5161SOL     OW16381   1.276   3.686   0.381
 5161SOL    HW116382   1.311   3.672   0.473
 5161SOL    HW216383   1.253   3.598   0.340
 5162SOL     OW16384   1.084   5.413   2.649
 5162SOL    HW116385   1.001   5.357   2.645
 5162SOL    HW216386   1.154   5.364   2.701
 5163SOL     OW16387   3.795   6.255   0.414
 5163SOL    HW116388   3.777   6.352   0.403
 5163SOL    HW216389   3.732   6.215   0.480
 5164SOL     OW16390   3.333   3.267   6.753
 5164SOL    HW116391   3.261   3.316   6.705
 5164SOL    HW216392   3.381   3.208   6.688
 5165SOL     OW16393   0.578   4.278   5.863
 5165SOL    HW116394   0.590   4.276   5.763
 5165SOL    HW216395   0.494   4.230   5.887
 5166SOL     OW16396   2.104   5.102   2.551
 5166SOL    HW116397   2.034   5.134   2.615
 5166SOL    HW216398   2.130   5.178   2.490
 5167SOL     OW16399   6.312   4.230   4.759
 5167SOL    HW116400   6.238   4.179   4.801
 5167SOL    HW216401   6.378   4.167   4.718
 5168SOL     OW16402   5.325   3.153   2.905
 5168SOL    HW116403   5.304   3.129   3.000
 5168SOL    HW216404   5.261   3.224   2.874
 5169SOL     OW16405   4.287   2.159   3.618
 5169SOL    HW116406   4.215   2.165   3.687
 5169SOL    HW216407   4.247   2.171   3.527
 5170SOL     OW16408   1.417   3.527   5.225
 5170SOL    HW116409   1.412   3.446   5.283
 5170SOL    HW216410   1.494   3.518   5.162
 5171SOL     OW16411   6.752   4.624   5.923
 5171SOL    HW116412   6.669   4.568   5.932
 5171SOL    HW216413   6.832   4.564   5.920
 5172SOL     OW16414   1.491   4.321   3.003
 5172SOL    HW116415   1.465   4.236   2.959
 5172SOL    HW216416   1.477   4.313   3.102
 5173SOL     OW16417   4.504   5.211   5.245
 5173SOL    HW116418   4.555   5.295   5.228
 5173SOL    HW216419   4.504   5.155   5.161
 5174SOL     OW16420   2.251   4.994   3.836
 5174SOL    HW116421   2.271   5.059   3.909
 5174SOL    HW216422   2.268   5.036   3.747
 5175SOL     OW16423   2.458   3.785   6.968
 5175SOL    HW116424   2.514   3.730   0.007
 5175SOL    HW216425   2.439   3.874   7.008
 5176SOL     OW16426   4.840   4.553   6.270
 5176SOL    HW116427   4.806   4.509   6.352
 5176SOL    HW216428   4.850   4.486   6.197
 5177SOL     OW16429   4.690   6.638   0.679
 5177SOL    HW116430   4.625   6.688   0.623
 5177SOL    HW216431   4.739   6.701   0.739
 5178SOL     OW16432   1.363   4.582   1.927
 5178SOL    HW116433   1.443   4.601   1.983
 5178SOL    HW216434   1.283   4.625   1.967
 5179SOL     OW16435   5.021   4.350   4.270
 5179SOL    HW116436   4.959   4.335   4.193
 5179SOL    HW216437   4.970   4.339   4.356
 5180SOL     OW16438   3.588   1.014   1.311
 5180SOL    HW116439   3.551   1.070   1.238
 5180SOL    HW216440   3.516   0.992   1.377
 5181SOL     OW16441   6.299   0.455   1.794
 5181SOL    HW116442   6.333   0.541   1.755
 5181SOL    HW216443   6.320   0.453   1.892
 5182SOL     OW16444   4.601   4.412   2.180
 5182SOL    HW116445   4.654   4.484   2.135
 5182SOL    HW216446   4.553   4.358   2.111
 5183SOL     OW16447   3.684   1.901   2.534
 5183SOL    HW116448   3.725   1.891   2.443
 5183SOL    HW216449   3.757   1.906   2.603
 5184SOL     OW16450   2.135   2.011   3.484
 5184SOL    HW116451   2.101   2.018   3.578
 5184SOL    HW216452   2.193   1.930   3.476
 5185SOL     OW16453   5.185   0.692   2.890
 5185SOL    HW116454   5.178   0.638   2.806
 5185SOL    HW216455   5.274   0.675   2.932
 5186SOL     OW16456   6.132   2.445   6.704
 5186SOL    HW116457   6.194   2.413   6.633
 5186SOL    HW216458   6.123   2.544   6.698
 5187SOL     OW16459   1.040   5.629   5.365
 5187SOL    HW116460   0.974   5.703   5.350
 5187SOL    HW216461   1.050   5.577   5.280
 5188SOL     OW16462   6.125   6.249   2.002
 5188SOL    HW116463   6.076   6.234   1.916
 5188SOL    HW216464   6.122   6.346   2.026
 5189SOL     OW16465   4.710   6.093   0.309
 5189SOL    HW116466   4.795   6.122   0.354
 5189SOL    HW216467   4.645   6.168   0.310
 5190SOL     OW16468   0.684   3.788   3.664
 5190SOL    HW116469   0.765   3.816   3.612
 5190SOL    HW216470   0.602   3.825   3.621
 5191SOL     OW16471   3.434   6.063   2.289
 5191SOL    HW116472   3.399   5.970   2.299
 5191SOL    HW216473   3.392   6.122   2.359
 5192SOL     OW16474   1.585   5.927   1.236
 5192SOL    HW116475   1.624   5.838   1.214
 5192SOL    HW216476   1.503   5.915   1.292
 5193SOL     OW16477   4.958   5.881   5.902
 5193SOL    HW116478   4.973   5.930   5.816
 5193SOL    HW216479   4.861   5.885   5.925
 5194SOL     OW16480   3.737   2.408   6.821
 5194SOL    HW116481   3.831   2.398   6.786
 5194SOL    HW216482   3.731   2.490   6.876
 5195SOL     OW16483   0.507   0.574   4.636
 5195SOL    HW116484   0.459   0.580   4.723
 5195SOL    HW216485   0.442   0.586   4.561
 5196SOL     OW16486   4.872   6.848   2.199
 5196SOL    HW116487   4.846   6.764   2.246
 5196SOL    HW216488   4.790   6.896   2.168
 5197SOL     OW16489   1.830   3.811   6.783
 5197SOL    HW116490   1.929   3.794   6.780
 5197SOL    HW216491   1.785   3.752   6.716
 5198SOL     OW16492   4.696   5.716   3.161
 5198SOL    HW116493   4.613   5.748   3.208
 5198SOL    HW216494   4.748   5.657   3.223
 5199SOL     OW16495   0.875   5.876   0.808
 5199SOL    HW116496   0.882   5.800   0.873
 5199SOL    HW216497   0.781   5.882   0.774
 5200SOL     OW16498   0.014   3.684   5.015
 5200SOL    HW116499   6.965   3.653   5.077
 5200SOL    HW216500   0.033   3.781   5.031
 5201SOL     OW16501   0.797   6.674   2.879
 5201SOL    HW116502   0.780   6.770   2.858
 5201SOL    HW216503   0.710   6.626   2.890
 5202SOL     OW16504   5.024   2.776   6.295
 5202SOL    HW116505   4.972   2.843   6.243
 5202SOL    HW216506   5.113   2.814   6.319
 5203SOL     OW16507   2.185   2.061   6.432
 5203SOL    HW116508   2.190   2.027   6.526
 5203SOL    HW216509   2.097   2.038   6.393
 5204SOL     OW16510   3.611   5.069   0.397
 5204SOL    HW116511   3.543   5.062   0.324
 5204SOL    HW216512   3.568   5.048   0.485
 5205SOL     OW16513   1.425   6.629   0.893
 5205SOL    HW116514   1.518   6.654   0.919
 5205SOL    HW216515   1.421   6.610   0.795
 5206SOL     OW16516   0.378   4.497   4.948
 5206SOL    HW116517   0.384   4.449   4.860
 5206SOL    HW216518   0.455   4.559   4.957
 5207SOL     OW16519   0.903   6.132   3.714
 5207SOL    HW116520   0.851   6.212   3.745
 5207SOL    HW216521   0.845   6.051   3.717
 5208SOL     OW16522   3.659   1.958   6.751
 5208SOL    HW116523   3.646   2.057   6.749
 5208SOL    HW216524   3.755   1.937   6.735
 5209SOL     OW16525   5.319   5.947   3.687
 5209SOL    HW116526   5.340   5.965   3.783
 5209SOL    HW216527   5.260   5.867   3.679
 5210SOL     OW16528   5.902   2.632   5.427
 5210SOL    HW116529   5.867   2.554   5.375
 5210SOL    HW216530   5.829   2.698   5.441
 5211SOL     OW16531   3.742   3.067   4.996
 5211SOL    HW116532   3.816   3.036   5.056
 5211SOL    HW216533   3.774   3.141   4.938
 5212SOL     OW16534   6.356   1.411   0.694
 5212SOL    HW116535   6.324   1.415   0.788
 5212SOL    HW216536   6.354   1.316   0.662
 5213SOL     OW16537   5.206   4.111   6.760
 5213SOL    HW116538   5.149   4.061   6.695
 5213SOL    HW216539   5.303   4.095   6.738
 5214SOL     OW16540   4.859   1.561   6.146
 5214SOL    HW116541   4.830   1.485   6.088
 5214SOL    HW216542   4.824   1.546   6.239
 5215SOL     OW16543   5.982   4.904   3.541
 5215SOL    HW116544   6.023   4.996   3.538
 5215SOL    HW216545   5.971   4.875   3.636
 5216SOL     OW16546   4.238   5.061   1.591
 5216SOL    HW116547   4.193   5.127   1.651
 5216SOL    HW216548   4.217   4.968   1.620
 5217SOL     OW16549   3.477   5.431   3.937
 5217SOL    HW116550   3.520   5.422   4.027
 5217SOL    HW216551   3.384   5.393   3.941
 5218SOL     OW16552   1.113   0.462   3.391
 5218SOL    HW116553   1.055   0.543   3.395
 5218SOL    HW216554   1.201   0.482   3.434
 5219SOL     OW16555   3.988   0.549   5.513
 5219SOL    HW116556   4.032   0.487   5.579
 5219SOL    HW216557   4.055   0.576   5.444
 5220SOL     OW16558   1.574   5.926   2.697
 5220SOL    HW116559   1.638   5.912   2.622
 5220SOL    HW216560   1.548   5.837   2.736
 5221SOL     OW16561   5.340   1.954   3.942
 5221SOL    HW116562   5.265   1.896   3.972
 5221SOL    HW216563   5.367   1.929   3.849
 5222SOL     OW16564   2.553   6.728   3.234
 5222SOL    HW116565   2.527   6.634   3.257
 5222SOL    HW216566   2.599   6.730   3.145
 5223SOL     OW16567   5.430   0.789   0.878
 5223SOL    HW116568   5.500   0.722   0.901
 5223SOL    HW216569   5.462   0.880   0.904
 5224SOL     OW16570   0.152   2.276   4.063
 5224SOL    HW116571   0.227   2.217   4.091
 5224SOL    HW216572   0.066   2.224   4.064
 5225SOL     OW16573   6.664   0.129   3.417
 5225SOL    HW116574   6.713   0.200   3.366
 5225SOL    HW216575   6.646   0.163   3.510
 5226SOL     OW16576   0.565   5.980   5.230
 5226SOL    HW116577   0.662   5.993   5.211
 5226SOL    HW216578   0.533   6.050   5.293
 5227SOL     OW16579   1.705   4.638   3.881
 5227SOL    HW116580   1.756   4.588   3.811
 5227SOL    HW216581   1.607   4.622   3.869
 5228SOL     OW16582   6.422   2.255   1.129
 5228SOL    HW116583   6.508   2.204   1.121
 5228SOL    HW216584   6.432   2.344   1.086
 5229SOL     OW16585   1.655   3.959   0.205
 5229SOL    HW116586   1.751   3.947   0.231
 5229SOL    HW216587   1.625   3.880   0.152
 5230SOL     OW16588   0.477   6.607   1.362
 5230SOL    HW116589   0.533   6.544   1.307
 5230SOL    HW216590   0.440   6.679   1.304
 5231SOL     OW16591   4.004   3.508   4.892
 5231SOL    HW116592   3.929   3.558   4.848
 5231SOL    HW216593   4.079   3.571   4.911
 5232SOL     OW16594   3.327   1.973   5.831
 5232SOL    HW116595   3.247   1.913   5.831
 5232SOL    HW216596   3.298   2.068   5.841
 5233SOL     OW16597   5.613   0.235   1.641
 5233SOL    HW116598   5.616   0.284   1.729
 5233SOL    HW216599   5.578   0.297   1.570
 5234SOL     OW16600   2.124   0.225   6.838
 5234SOL    HW116601   2.170   0.187   6.918
 5234SOL    HW216602   2.036   0.265   6.866
 5235SOL     OW16603   2.220   2.811   1.182
 5235SOL    HW116604   2.188   2.830   1.275
 5235SOL    HW216605   2.208   2.893   1.126
 5236SOL     OW16606   5.849   3.655   2.187
 5236SOL    HW116607   5.935   3.702   2.208
 5236SOL    HW216608   5.793   3.712   2.127
 5237SOL     OW16609   2.706   0.905   5.585
 5237SOL    HW116610   2.761   0.926   5.666
 5237SOL    HW216611   2.753   0.937   5.503
 5238SOL     OW16612   1.217   4.616   0.625
 5238SOL    HW116613   1.314   4.596   0.644
 5238SOL    HW216614   1.199   4.713   0.642
 5239SOL     OW16615   4.059   3.821   4.502
 5239SOL    HW116616   4.011   3.899   4.460
 5239SOL    HW216617   4.035   3.816   4.599
 5240SOL     OW16618   2.771   1.653   6.469
 5240SOL    HW116619   2.703   1.720   6.441
 5240SOL    HW216620   2.857   1.670   6.421
 5241SOL     OW16621   1.318   5.273   6.437
 5241SOL    HW116622   1.218   5.271   6.434
 5241SOL    HW216623   1.349   5.368   6.444
 5242SOL     OW16624   0.235   6.952   5.518
 5242SOL    HW116625   0.151   6.901   5.500
 5242SOL    HW216626   0.310   6.887   5.533
 5243SOL     OW16627   1.221   5.785   1.615
 5243SOL    HW116628   1.203   5.859   1.681
 5243SOL    HW216629   1.242   5.701   1.665
 5244SOL     OW16630   3.398   3.879   5.870
 5244SOL    HW116631   3.299   3.863   5.863
 5244SOL    HW216632   3.415   3.958   5.929
 5245SOL     OW16633   4.580   4.511   0.155
 5245SOL    HW116634   4.549   4.455   0.077
 5245SOL    HW216635   4.519   4.496   0.233
 5246SOL     OW16636   5.967   4.594   2.747
 5246SOL    HW116637   5.989   4.617   2.842
 5246SOL    HW216638   6.025   4.648   2.686
 5247SOL     OW16639   1.402   5.982   0.807
 5247SOL    HW116640   1.373   5.957   0.714
 5247SOL    HW216641   1.386   6.080   0.821
 5248SOL     OW16642   5.869   0.273   4.671
 5248SOL    HW116643   5.867   0.229   4.582
 5248SOL    HW216644   5.954   0.249   4.719
 5249SOL     OW16645   0.687   4.987   4.784
 5249SOL    HW116646   0.695   5.083   4.810
 5249SOL    HW216647   0.737   4.930   4.850
 5250SOL     OW16648   0.838   0.940   5.691
 5250SOL    HW116649   0.817   0.991   5.775
 5250SOL    HW216650   0.933   0.956   5.665
 5251SOL     OW16651   0.577   3.405   0.797
 5251SOL    HW116652   0.581   3.492   0.846
 5251SOL    HW216653   0.620   3.333   0.851
 5252SOL     OW16654   2.011   5.638   1.124
 5252SOL    HW116655   2.019   5.565   1.056
 5252SOL    HW216656   2.034   5.726   1.081
 5253SOL     OW16657   6.123   4.180   4.990
 5253SOL    HW116658   6.049   4.128   5.031
 5253SOL    HW216659   6.211   4.136   5.011
 5254SOL     OW16660   5.489   0.787   3.883
 5254SOL    HW116661   5.412   0.742   3.837
 5254SOL    HW216662   5.464   0.882   3.903
 5255SOL     OW16663   4.299   0.160   6.162
 5255SOL    HW116664   4.347   0.212   6.232
 5255SOL    HW216665   4.321   0.062   6.172
 5256SOL     OW16666   4.651   0.597   3.404
 5256SOL    HW116667   4.627   0.692   3.424
 5256SOL    HW216668   4.601   0.537   3.467
 5257SOL     OW16669   4.671   0.005   2.188
 5257SOL    HW116670   4.578   6.991   2.181
 5257SOL    HW216671   4.667   0.103   2.207
 5258SOL     OW16672   4.968   3.470   1.249
 5258SOL    HW116673   4.914   3.389   1.227
 5258SOL    HW216674   5.063   3.456   1.221
 5259SOL     OW16675   4.361   5.756   1.288
 5259SOL    HW116676   4.307   5.825   1.337
 5259SOL    HW216677   4.300   5.704   1.228
 5260SOL     OW16678   5.748   3.645   1.384
 5260SOL    HW116679   5.674   3.596   1.338
 5260SOL    HW216680   5.713   3.691   1.465
 5261SOL     OW16681   1.709   3.144   6.085
 5261SOL    HW116682   1.730   3.218   6.022
 5261SOL    HW216683   1.644   3.081   6.041
 5262SOL     OW16684   3.051   0.071   2.551
 5262SOL    HW116685   3.105   0.101   2.630
 5262SOL    HW216686   3.112   0.061   2.472
 5263SOL     OW16687   0.995   1.027   5.179
 5263SOL    HW116688   0.940   0.972   5.116
 5263SOL    HW216689   0.935   1.072   5.245
 5264SOL     OW16690   6.503   0.509   2.633
 5264SOL    HW116691   6.420   0.499   2.578
 5264SOL    HW216692   6.524   0.607   2.644
 5265SOL     OW16693   4.934   4.469   3.131
 5265SOL    HW116694   4.992   4.551   3.139
 5265SOL    HW216695   4.912   4.435   3.222
 5266SOL     OW16696   2.614   0.449   2.259
 5266SOL    HW116697   2.540   0.434   2.193
 5266SOL    HW216698   2.591   0.405   2.345
 5267SOL     OW16699   4.613   4.553   5.961
 5267SOL    HW116700   4.528   4.512   5.995
 5267SOL    HW216701   4.628   4.641   6.006
 5268SOL     OW16702   5.972   6.379   5.861
 5268SOL    HW116703   5.930   6.371   5.771
 5268SOL    HW216704   6.020   6.467   5.868
 5269SOL     OW16705   2.151   6.943   4.209
 5269SOL    HW116706   2.123   6.848   4.222
 5269SOL    HW216707   2.092   6.986   4.141
 5270SOL     OW16708   5.109   1.572   2.114
 5270SOL    HW116709   5.152   1.490   2.153
 5270SOL    HW216710   5.073   1.629   2.187
 5271SOL     OW16711   4.816   5.127   4.831
 5271SOL    HW116712   4.860   5.167   4.912
 5271SOL    HW216713   4.880   5.127   4.755
 5272SOL     OW16714   1.826   5.813   3.016
 5272SOL    HW116715   1.844   5.907   2.989
 5272SOL    HW216716   1.817   5.807   3.115
 5273SOL     OW16717   0.114   3.195   3.430
 5273SOL    HW116718   0.025   3.182   3.472
 5273SOL    HW216719   0.158   3.106   3.417
 5274SOL     OW16720   6.083   5.704   2.346
 5274SOL    HW116721   6.052   5.733   2.436
 5274SOL    HW216722   6.152   5.768   2.312
 5275SOL     OW16723   3.938   1.407   6.198
 5275SOL    HW116724   3.887   1.381   6.116
 5275SOL    HW216725   3.899   1.361   6.278
 5276SOL     OW16726   1.356   0.059   1.280
 5276SOL    HW116727   1.370   6.986   1.304
 5276SOL    HW216728   1.404   0.078   1.194
 5277SOL     OW16729   1.985   2.643   2.825
 5277SOL    HW116730   1.953   2.564   2.876
 5277SOL    HW216731   2.040   2.701   2.886
 5278SOL     OW16732   5.105   7.007   4.033
 5278SOL    HW116733   5.130   0.034   3.950
 5278SOL    HW216734   5.183   7.005   4.096
 5279SOL     OW16735   1.711   5.425   6.618
 5279SOL    HW116736   1.802   5.412   6.578
 5279SOL    HW216737   1.682   5.339   6.662
 5280SOL     OW16738   2.705   5.860   5.767
 5280SOL    HW116739   2.615   5.862   5.724
 5280SOL    HW216740   2.699   5.894   5.861
 5281SOL     OW16741   0.939   1.603   3.301
 5281SOL    HW116742   0.951   1.702   3.289
 5281SOL    HW216743   0.850   1.576   3.266
 5282SOL     OW16744   1.995   1.285   2.857
 5282SOL    HW116745   2.005   1.279   2.757
 5282SOL    HW216746   2.063   1.349   2.893
 5283SOL     OW16747   2.881   0.110   2.157
 5283SOL    HW116748   2.824   0.088   2.078
 5283SOL    HW216749   2.896   0.209   2.162
 5284SOL     OW16750   5.019   2.997   2.760
 5284SOL    HW116751   4.963   3.075   2.784
 5284SOL    HW216752   4.963   2.914   2.761
 5285SOL     OW16753   1.335   4.330   4.307
 5285SOL    HW116754   1.243   4.294   4.322
 5285SOL    HW216755   1.401   4.256   4.318
 5286SOL     OW16756   0.027   4.037   1.325
 5286SOL    HW116757   0.122   4.051   1.297
 5286SOL    HW216758   0.014   4.073   1.418
 5287SOL     OW16759   1.395   5.816   1.904
 5287SOL    HW116760   1.470   5.821   1.838
 5287SOL    HW216761   1.415   5.875   1.982
 5288SOL     OW16762   3.967   1.292   2.235
 5288SOL    HW116763   3.886   1.335   2.194
 5288SOL    HW216764   3.990   1.339   2.320
 5289SOL     OW16765   2.048   4.965   6.311
 5289SOL    HW116766   2.007   4.874   6.309
 5289SOL    HW216767   2.003   5.023   6.243
 5290SOL     OW16768   1.284   4.219   5.900
 5290SOL    HW116769   1.245   4.215   5.992
 5290SOL    HW216770   1.355   4.289   5.897
 5291SOL     OW16771   2.751   4.765   6.017
 5291SOL    HW116772   2.710   4.763   6.108
 5291SOL    HW216773   2.823   4.695   6.012
 5292SOL     OW16774   6.242   4.903   6.533
 5292SOL    HW116775   6.317   4.863   6.481
 5292SOL    HW216776   6.183   4.955   6.470
 5293SOL     OW16777   1.345   0.196   4.353
 5293SOL    HW116778   1.314   0.269   4.292
 5293SOL    HW216779   1.435   0.164   4.323
 5294SOL     OW16780   5.895   2.880   4.910
 5294SOL    HW116781   5.884   2.973   4.874
 5294SOL    HW216782   5.836   2.868   4.990
 5295SOL     OW16783   3.923   1.102   2.906
 5295SOL    HW116784   3.866   1.167   2.957
 5295SOL    HW216785   3.933   1.133   2.812
 5296SOL     OW16786   3.023   5.378   6.907
 5296SOL    HW116787   3.053   5.412   6.818
 5296SOL    HW216788   2.953   5.438   6.944
 5297SOL     OW16789   2.393   2.320   0.636
 5297SOL    HW116790   2.311   2.365   0.600
 5297SOL    HW216791   2.474   2.359   0.592
 5298SOL     OW16792   1.106   5.856   0.286
 5298SOL    HW116793   1.153   5.768   0.281
 5298SOL    HW216794   1.034   5.851   0.356
 5299SOL     OW16795   2.120   2.860   0.640
 5299SOL    HW116796   2.117   2.763   0.664
 5299SOL    HW216797   2.058   2.877   0.563
 5300SOL     OW16798   0.873   6.013   1.327
 5300SOL    HW116799   0.915   6.062   1.403
 5300SOL    HW216800   0.936   6.016   1.248
 5301SOL     OW16801   3.417   2.486   6.560
 5301SOL    HW116802   3.339   2.445   6.606
 5301SOL    HW216803   3.447   2.426   6.485
 5302SOL     OW16804   5.829   5.670   4.118
 5302SOL    HW116805   5.751   5.653   4.178
 5302SOL    HW216806   5.868   5.582   4.089
 5303SOL     OW16807   6.718   5.695   3.601
 5303SOL    HW116808   6.722   5.790   3.632
 5303SOL    HW216809   6.674   5.691   3.511
 5304SOL     OW16810   5.339   1.240   7.003
 5304SOL    HW116811   5.240   1.249   6.990
 5304SOL    HW216812   5.361   1.252   0.077
 5305SOL     OW16813   1.032   5.189   2.932
 5305SOL    HW116814   0.971   5.162   3.006
 5305SOL    HW216815   0.994   5.268   2.884
 5306SOL     OW16816   1.008   4.158   4.713
 5306SOL    HW116817   1.005   4.252   4.745
 5306SOL    HW216818   1.009   4.096   4.791
 5307SOL     OW16819   4.766   1.725   0.138
 5307SOL    HW116820   4.848   1.762   0.094
 5307SOL    HW216821   4.723   1.796   0.194
 5308SOL     OW16822   0.671   5.940   3.769
 5308SOL    HW116823   0.737   5.942   3.844
 5308SOL    HW216824   0.596   5.877   3.792
 5309SOL     OW16825   4.414   4.366   1.304
 5309SOL    HW116826   4.356   4.448   1.305
 5309SOL    HW216827   4.494   4.382   1.362
 5310SOL     OW16828   6.369   3.762   2.243
 5310SOL    HW116829   6.459   3.799   2.266
 5310SOL    HW216830   6.355   3.676   2.291
 5311SOL     OW16831   6.321   5.795   6.948
 5311SOL    HW116832   6.222   5.788   6.938
 5311SOL    HW216833   6.363   5.705   6.940
 5312SOL     OW16834   0.014   5.288   1.888
 5312SOL    HW116835   6.968   5.239   1.834
 5312SOL    HW216836   0.097   5.302   1.832
 5313SOL     OW16837   1.641   3.788   7.006
 5313SOL    HW116838   1.738   3.793   6.980
 5313SOL    HW216839   1.618   3.694   0.009
 5314SOL     OW16840   3.380   6.382   0.538
 5314SOL    HW116841   3.445   6.440   0.588
 5314SOL    HW216842   3.314   6.343   0.603
 5315SOL     OW16843   4.771   3.412   1.458
 5315SOL    HW116844   4.769   3.478   1.532
 5315SOL    HW216845   4.850   3.429   1.399
 5316SOL     OW16846   0.811   3.991   4.934
 5316SOL    HW116847   0.890   3.930   4.923
 5316SOL    HW216848   0.770   4.009   4.844
 5317SOL     OW16849   6.554   6.820   4.810
 5317SOL    HW116850   6.592   6.749   4.868
 5317SOL    HW216851   6.542   6.785   4.717
 5318SOL     OW16852   0.199   2.708   6.463
 5318SOL    HW116853   0.244   2.754   6.387
 5318SOL    HW216854   0.239   2.739   6.549
 5319SOL     OW16855   3.675   6.866   0.173
 5319SOL    HW116856   3.607   6.887   0.243
 5319SOL    HW216857   3.658   6.924   0.093
 5320SOL     OW16858   5.951   4.982   6.926
 5320SOL    HW116859   5.982   5.069   6.887
 5320SOL    HW216860   5.989   4.971   7.018
 5321SOL     OW16861   1.418   4.927   3.961
 5321SOL    HW116862   1.471   4.951   4.042
 5321SOL    HW216863   1.411   4.828   3.954
 5322SOL     OW16864   4.989   6.343   6.602
 5322SOL    HW116865   5.002   6.253   6.562
 5322SOL    HW216866   4.906   6.343   6.658
 5323SOL     OW16867   3.836   1.717   6.851
 5323SOL    HW116868   3.813   1.663   6.770
 5323SOL    HW216869   3.935   1.729   6.857
 5324SOL     OW16870   4.264   2.316   0.659
 5324SOL    HW116871   4.311   2.228   0.665
 5324SOL    HW216872   4.183   2.307   0.602
 5325SOL     OW16873   4.692   0.732   4.583
 5325SOL    HW116874   4.784   0.770   4.595
 5325SOL    HW216875   4.661   0.694   4.670
 5326SOL     OW16876   0.447   4.943   3.367
 5326SOL    HW116877   0.544   4.951   3.391
 5326SOL    HW216878   0.391   4.955   3.449
 5327SOL     OW16879   5.843   3.179   5.590
 5327SOL    HW116880   5.883   3.243   5.656
 5327SOL    HW216881   5.747   3.163   5.613
 5328SOL     OW16882   4.614   2.799   5.148
 5328SOL    HW116883   4.671   2.813   5.067
 5328SOL    HW216884   4.583   2.888   5.182
 5329SOL     OW16885   7.004   4.788   6.713
 5329SOL    HW116886   0.027   4.832   6.635
 5329SOL    HW216887   6.907   4.780   6.694
 5330SOL     OW16888   3.320   4.221   5.648
 5330SOL    HW116889   3.407   4.200   5.694
 5330SOL    HW216890   3.283   4.137   5.608
 5331SOL     OW16891   5.277   1.172   0.690
 5331SOL    HW116892   5.337   1.242   0.652
 5331SOL    HW216893   5.237   1.206   0.775
 5332SOL     OW16894   0.688   3.780   1.642
 5332SOL    HW116895   0.627   3.855   1.617
 5332SOL    HW216896   0.654   3.695   1.602
 5333SOL     OW16897   1.086   0.737   3.793
 5333SOL    HW116898   1.073   0.719   3.890
 5333SOL    HW216899   1.025   0.678   3.740
 5334SOL     OW16900   4.198   0.161   4.260
 5334SOL    HW116901   4.204   0.261   4.253
 5334SOL    HW216902   4.172   0.124   4.170
 5335SOL     OW16903   5.675   5.861   2.354
 5335SOL    HW116904   5.636   5.849   2.445
 5335SOL    HW216905   5.684   5.958   2.333
 5336SOL     OW16906   2.834   1.767   3.286
 5336SOL    HW116907   2.809   1.852   3.331
 5336SOL    HW216908   2.870   1.702   3.353
 5337SOL     OW16909   5.319   3.728   1.804
 5337SOL    HW116910   5.328   3.827   1.801
 5337SOL    HW216911   5.252   3.698   1.737
 5338SOL     OW16912   5.511   1.451   6.044
 5338SOL    HW116913   5.556   1.376   5.996
 5338SOL    HW216914   5.579   1.503   6.095
 5339SOL     OW16915   6.871   2.277   3.842
 5339SOL    HW116916   6.834   2.279   3.749
 5339SOL    HW216917   6.970   2.288   3.840
 5340SOL     OW16918   5.506   2.667   0.892
 5340SOL    HW116919   5.442   2.597   0.858
 5340SOL    HW216920   5.596   2.626   0.906
 5341SOL     OW16921   3.200   4.383   6.639
 5341SOL    HW116922   3.297   4.357   6.632
 5341SOL    HW216923   3.178   4.451   6.570
 5342SOL     OW16924   3.739   0.172   3.593
 5342SOL    HW116925   3.645   0.186   3.622
 5342SOL    HW216926   3.783   0.103   3.651
 5343SOL     OW16927   3.798   3.583   4.713
 5343SOL    HW116928   3.806   3.667   4.659
 5343SOL    HW216929   3.789   3.505   4.652
 5344SOL     OW16930   2.424   2.059   2.048
 5344SOL    HW116931   2.385   1.973   2.017
 5344SOL    HW216932   2.521   2.063   2.023
 5345SOL     OW16933   3.896   6.632   1.123
 5345SOL    HW116934   3.882   6.711   1.063
 5345SOL    HW216935   3.826   6.632   1.195
 5346SOL     OW16936   3.524   5.763   4.254
 5346SOL    HW116937   3.613   5.719   4.263
 5346SOL    HW216938   3.537   5.858   4.225
 5347SOL     OW16939   6.824   2.585   1.621
 5347SOL    HW116940   6.749   2.620   1.564
 5347SOL    HW216941   6.911   2.599   1.573
 5348SOL     OW16942   6.660   2.148   1.049
 5348SOL    HW116943   6.617   2.122   0.962
 5348SOL    HW216944   6.722   2.225   1.034
 5349SOL     OW16945   2.179   2.576   0.255
 5349SOL    HW116946   2.095   2.631   0.253
 5349SOL    HW216947   2.200   2.544   0.163
 5350SOL     OW16948   1.835   6.687   5.458
 5350SOL    HW116949   1.869   6.598   5.428
 5350SOL    HW216950   1.819   6.685   5.557
 5351SOL     OW16951   6.852   5.182   2.336
 5351SOL    HW116952   6.890   5.211   2.249
 5351SOL    HW216953   6.893   5.235   2.410
 5352SOL     OW16954   2.586   5.298   3.424
 5352SOL    HW116955   2.567   5.372   3.359
 5352SOL    HW216956   2.522   5.305   3.501
 5353SOL     OW16957   3.979   5.065   4.042
 5353SOL    HW116958   3.958   5.058   4.139
 5353SOL    HW216959   4.059   5.123   4.029
 5354SOL     OW16960   2.588   5.222   2.024
 5354SOL    HW116961   2.601   5.125   2.003
 5354SOL    HW216962   2.627   5.242   2.114
 5355SOL     OW16963   0.069   4.140   4.216
 5355SOL    HW116964   0.052   4.230   4.255
 5355SOL    HW216965   0.137   4.147   4.143
 5356SOL     OW16966   5.928   4.724   2.097
 5356SOL    HW116967   5.944   4.626   2.092
 5356SOL    HW216968   5.957   4.759   2.187
 5357SOL     OW16969   3.131   6.012   0.674
 5357SOL    HW116970   3.227   6.042   0.682
 5357SOL    HW216971   3.097   5.987   0.765
 5358SOL     OW16972   4.776   1.277   6.986
 5358SOL    HW116973   4.814   1.317   0.047
 5358SOL    HW216974   4.733   1.190   7.008
 5359SOL     OW16975   1.255   1.359   5.463
 5359SOL    HW116976   1.344   1.319   5.442
 5359SOL    HW216977   1.238   1.437   5.403
 5360SOL     OW16978   3.659   6.608   4.723
 5360SOL    HW116979   3.729   6.678   4.739
 5360SOL    HW216980   3.695   6.537   4.662
 5361SOL     OW16981   2.591   1.270   5.505
 5361SOL    HW116982   2.532   1.307   5.576
 5361SOL    HW216983   2.687   1.284   5.530
 5362SOL     OW16984   6.972   6.042   3.361
 5362SOL    HW116985   6.966   5.943   3.355
 5362SOL    HW216986   0.019   6.075   3.297
 5363SOL     OW16987   0.493   0.322   6.090
 5363SOL    HW116988   0.412   0.352   6.040
 5363SOL    HW216989   0.557   0.399   6.099
 5364SOL     OW16990   6.688   6.481   2.357
 5364SOL    HW116991   6.761   6.487   2.425
 5364SOL    HW216992   6.726   6.454   2.268
 5365SOL     OW16993   3.852   2.789   0.053
 5365SOL    HW116994   3.793   2.838   7.011
 5365SOL    HW216995   3.868   2.846   0.134
 5366SOL     OW16996   5.330   5.628   1.790
 5366SOL    HW116997   5.406   5.566   1.771
 5366SOL    HW216998   5.337   5.660   1.885
 5367SOL     OW16999   0.791   6.553   0.937
 5367SOL    HW117000   0.839   6.471   0.904
 5367SOL    HW217001   0.844   6.597   1.008
 5368SOL     OW17002   5.505   0.490   2.703
 5368SOL    HW117003   5.411   0.503   2.735
 5368SOL    HW217004   5.569   0.520   2.774
 5369SOL     OW17005   2.776   7.020   1.721
 5369SOL    HW117006   2.701   6.961   1.689
 5369SOL    HW217007   2.864   6.974   1.704
 5370SOL     OW17008   4.756   2.490   1.665
 5370SOL    HW117009   4.696   2.437   1.605
 5370SOL    HW217010   4.701   2.557   1.716
 5371SOL     OW17011   0.727   3.699   5.137
 5371SOL    HW117012   0.661   3.768   5.164
 5371SOL    HW217013   0.771   3.661   5.219
 5372SOL     OW17014   1.895   6.226   3.678
 5372SOL    HW117015   1.835   6.185   3.610
 5372SOL    HW217016   1.972   6.165   3.695
 5373SOL     OW17017   3.787   6.664   4.328
 5373SOL    HW117018   3.867   6.723   4.319
 5373SOL    HW217019   3.815   6.573   4.356
 5374SOL     OW17020   1.689   4.248   0.196
 5374SOL    HW117021   1.669   4.151   0.183
 5374SOL    HW217022   1.773   4.257   0.249
 5375SOL     OW17023   0.749   5.748   4.741
 5375SOL    HW117024   0.659   5.713   4.766
 5375SOL    HW217025   0.790   5.688   4.672
 5376SOL     OW17026   1.890   2.693   0.898
 5376SOL    HW117027   1.959   2.674   0.968
 5376SOL    HW217028   1.801   2.656   0.927
 5377SOL     OW17029   6.664   6.876   2.471
 5377SOL    HW117030   6.704   6.864   2.562
 5377SOL    HW217031   6.702   6.808   2.408
 5378SOL     OW17032   6.594   0.643   2.407
 5378SOL    HW117033   6.667   0.626   2.340
 5378SOL    HW217034   6.604   0.579   2.483
 5379SOL     OW17035   1.289   4.713   4.874
 5379SOL    HW117036   1.370   4.675   4.830
 5379SOL    HW217037   1.288   4.813   4.862
 5380SOL     OW17038   2.699   1.439   2.795
 5380SOL    HW117039   2.607   1.409   2.768
 5380SOL    HW217040   2.694   1.485   2.884
 5381SOL     OW17041   6.648   4.909   1.942
 5381SOL    HW117042   6.659   4.860   2.028
 5381SOL    HW217043   6.569   4.873   1.893
 5382SOL     OW17044   2.723   1.103   1.763
 5382SOL    HW117045   2.784   1.176   1.734
 5382SOL    HW217046   2.762   1.056   1.842
 5383SOL     OW17047   2.478   2.228   5.206
 5383SOL    HW117048   2.397   2.259   5.157
 5383SOL    HW217049   2.453   2.200   5.298
 5384SOL     OW17050   6.241   6.711   5.608
 5384SOL    HW117051   6.224   6.623   5.562
 5384SOL    HW217052   6.156   6.765   5.608
 5385SOL     OW17053   3.368   3.271   4.200
 5385SOL    HW117054   3.328   3.363   4.189
 5385SOL    HW217055   3.295   3.203   4.195
 5386SOL     OW17056   5.128   1.702   4.518
 5386SOL    HW117057   5.136   1.604   4.497
 5386SOL    HW217058   5.074   1.747   4.447
 5387SOL     OW17059   2.303   0.574   3.705
 5387SOL    HW117060   2.256   0.495   3.745
 5387SOL    HW217061   2.236   0.642   3.677
 5388SOL     OW17062   0.047   1.637   3.916
 5388SOL    HW117063   0.037   1.731   3.948
 5388SOL    HW217064   0.144   1.614   3.911
 5389SOL     OW17065   4.330   1.464   3.582
 5389SOL    HW117066   4.351   1.422   3.671
 5389SOL    HW217067   4.415   1.487   3.535
 5390SOL     OW17068   5.012   3.850   3.616
 5390SOL    HW117069   5.098   3.839   3.666
 5390SOL    HW217070   5.006   3.781   3.544
 5391SOL     OW17071   2.136   1.815   0.566
 5391SOL    HW117072   2.162   1.784   0.657
 5391SOL    HW217073   2.193   1.770   0.497
 5392SOL     OW17074   5.319   3.637   1.418
 5392SOL    HW117075   5.397   3.616   1.478
 5392SOL    HW217076   5.323   3.733   1.391
 5393SOL     OW17077   4.409   6.760   5.755
 5393SOL    HW117078   4.394   6.663   5.771
 5393SOL    HW217079   4.501   6.774   5.718
 5394SOL     OW17080   0.342   4.937   0.285
 5394SOL    HW117081   0.314   5.010   0.348
 5394SOL    HW217082   0.273   4.926   0.214
 5395SOL     OW17083   4.547   0.925   1.132
 5395SOL    HW117084   4.456   0.964   1.121
 5395SOL    HW217085   4.540   0.825   1.138
 5396SOL     OW17086   5.068   4.180   1.763
 5396SOL    HW117087   5.076   4.090   1.719
 5396SOL    HW217088   4.984   4.183   1.817
 5397SOL     OW17089   0.275   2.884   1.366
 5397SOL    HW117090   0.228   2.906   1.281
 5397SOL    HW217091   0.243   2.944   1.439
 5398SOL     OW17092   3.459   1.782   3.437
 5398SOL    HW117093   3.372   1.830   3.453
 5398SOL    HW217094   3.502   1.818   3.354
 5399SOL     OW17095   2.751   5.848   1.018
 5399SOL    HW117096   2.673   5.906   1.042
 5399SOL    HW217097   2.748   5.764   1.074
 5400SOL     OW17098   3.186   3.763   7.015
 5400SOL    HW117099   3.095   3.792   0.019
 5400SOL    HW217100   3.235   3.839   6.972
 5401SOL     OW17101   5.972   4.233   1.346
 5401SOL    HW117102   5.889   4.245   1.292
 5401SOL    HW217103   5.965   4.286   1.430
 5402SOL     OW17104   2.781   5.359   1.898
 5402SOL    HW117105   2.798   5.270   1.856
 5402SOL    HW217106   2.703   5.352   1.960
 5403SOL     OW17107   5.639   2.620   5.964
 5403SOL    HW117108   5.599   2.623   5.873
 5403SOL    HW217109   5.670   2.712   5.990
 5404SOL     OW17110   1.008   0.632   2.353
 5404SOL    HW117111   1.038   0.567   2.423
 5404SOL    HW217112   1.074   0.631   2.277
 5405SOL     OW17113   6.050   6.114   0.166
 5405SOL    HW117114   6.080   6.020   0.186
 5405SOL    HW217115   5.999   6.150   0.245
 5406SOL     OW17116   2.200   0.146   6.167
 5406SOL    HW117117   2.228   0.240   6.150
 5406SOL    HW217118   2.213   0.091   6.084
 5407SOL     OW17119   4.144   1.821   1.479
 5407SOL    HW117120   4.232   1.816   1.431
 5407SOL    HW217121   4.159   1.855   1.572
 5408SOL     OW17122   3.499   0.976   5.570
 5408SOL    HW117123   3.502   1.008   5.665
 5408SOL    HW217124   3.422   0.914   5.558
 5409SOL     OW17125   6.535   1.948   3.684
 5409SOL    HW117126   6.598   1.989   3.750
 5409SOL    HW217127   6.502   2.019   3.620
 5410SOL     OW17128   0.813   2.592   0.115
 5410SOL    HW117129   0.765   2.622   0.197
 5410SOL    HW217130   0.748   2.550   0.051
 5411SOL     OW17131   5.981   5.047   5.164
 5411SOL    HW117132   5.894   4.998   5.168
 5411SOL    HW217133   6.047   5.002   5.224
 5412SOL     OW17134   4.201   0.431   0.070
 5412SOL    HW117135   4.180   0.504   0.135
 5412SOL    HW217136   4.296   0.403   0.080
 5413SOL     OW17137   0.834   0.224   1.330
 5413SOL    HW117138   0.930   0.222   1.302
 5413SOL    HW217139   0.828   0.213   1.429
 5414SOL     OW17140   0.186   3.241   5.236
 5414SOL    HW117141   0.164   3.304   5.161
 5414SOL    HW217142   0.101   3.205   5.275
 5415SOL     OW17143   1.196   6.279   1.719
 5415SOL    HW117144   1.278   6.301   1.666
 5415SOL    HW217145   1.205   6.317   1.811
 5416SOL     OW17146   3.431   4.844   6.409
 5416SOL    HW117147   3.513   4.901   6.418
 5416SOL    HW217148   3.422   4.812   6.315
 5417SOL     OW17149   4.501   6.877   4.472
 5417SOL    HW117150   4.481   6.969   4.437
 5417SOL    HW217151   4.520   6.816   4.395
 5418SOL     OW17152   5.331   0.611   4.452
 5418SOL    HW117153   5.402   0.541   4.466
 5418SOL    HW217154   5.357   0.670   4.376
 5419SOL     OW17155   3.025   5.573   0.676
 5419SOL    HW117156   3.119   5.585   0.645
 5419SOL    HW217157   3.025   5.528   0.766
 5420SOL     OW17158   2.016   2.806   1.764
 5420SOL    HW117159   2.046   2.729   1.820
 5420SOL    HW217160   2.094   2.842   1.712
 5421SOL     OW17161   2.361   4.510   3.038
 5421SOL    HW117162   2.424   4.586   3.057
 5421SOL    HW217163   2.355   4.496   2.939
 5422SOL     OW17164   1.172   6.060   5.619
 5422SOL    HW117165   1.123   6.122   5.679
 5422SOL    HW217166   1.127   6.058   5.529
 5423SOL     OW17167   5.627   3.445   6.962
 5423SOL    HW117168   5.617   3.443   6.863
 5423SOL    HW217169   5.583   3.365   7.002
 5424SOL     OW17170   6.228   3.342   4.425
 5424SOL    HW117171   6.243   3.436   4.396
 5424SOL    HW217172   6.208   3.285   4.345
 5425SOL     OW17173   5.340   1.295   3.903
 5425SOL    HW117174   5.362   1.393   3.904
 5425SOL    HW217175   5.242   1.283   3.886
 5426SOL     OW17176   6.809   5.236   3.911
 5426SOL    HW117177   6.874   5.300   3.950
 5426SOL    HW217178   6.842   5.142   3.924
 5427SOL     OW17179   5.211   5.237   0.953
 5427SOL    HW117180   5.197   5.234   0.854
 5427SOL    HW217181   5.198   5.145   0.991
 5428SOL     OW17182   6.960   0.152   2.042
 5428SOL    HW117183   7.010   0.116   1.963
 5428SOL    HW217184   6.923   0.242   2.020
 5429SOL     OW17185   1.410   0.861   4.995
 5429SOL    HW117186   1.370   0.889   4.908
 5429SOL    HW217187   1.367   0.911   5.070
 5430SOL     OW17188   2.208   2.565   5.267
 5430SOL    HW117189   2.275   2.614   5.211
 5430SOL    HW217190   2.121   2.614   5.265
 5431SOL     OW17191   3.610   4.949   6.887
 5431SOL    HW117192   3.510   4.953   6.883
 5431SOL    HW217193   3.638   4.860   6.924
 5432SOL     OW17194   3.934   6.216   5.820
 5432SOL    HW117195   3.907   6.144   5.883
 5432SOL    HW217196   3.997   6.279   5.866
 5433SOL     OW17197   6.877   2.076   3.237
 5433SOL    HW117198   6.950   2.009   3.224
 5433SOL    HW217199   6.797   2.032   3.277
 5434SOL     OW17200   4.225   1.243   5.203
 5434SOL    HW117201   4.190   1.259   5.110
 5434SOL    HW217202   4.160   1.281   5.269
 5435SOL     OW17203   5.978   1.904   1.030
 5435SOL    HW117204   6.007   1.999   1.026
 5435SOL    HW217205   6.058   1.844   1.017
 5436SOL     OW17206   5.668   4.384   4.796
 5436SOL    HW117207   5.658   4.287   4.773
 5436SOL    HW217208   5.596   4.436   4.750
 5437SOL     OW17209   2.752   5.051   5.668
 5437SOL    HW117210   2.748   4.955   5.639
 5437SOL    HW217211   2.734   5.057   5.766
 5438SOL     OW17212   5.534   3.982   2.506
 5438SOL    HW117213   5.498   3.895   2.471
 5438SOL    HW217214   5.616   4.006   2.454
 5439SOL     OW17215   0.006   2.479   0.404
 5439SOL    HW117216   6.948   2.500   0.459
 5439SOL    HW217217   7.001   2.437   0.318
 5440SOL     OW17218   0.045   6.999   2.548
 5440SOL    HW117219   7.017   6.952   2.476
 5440SOL    HW217220   0.093   6.931   2.604
 5441SOL     OW17221   4.738   2.849   3.594
 5441SOL    HW117222   4.667   2.779   3.600
 5441SOL    HW217223   4.816   2.823   3.652
 5442SOL     OW17224   2.890   6.873   3.375
 5442SOL    HW117225   2.800   6.865   3.417
 5442SOL    HW217226   2.938   6.785   3.379
 5443SOL     OW17227   2.816   6.076   3.827
 5443SOL    HW117228   2.906   6.034   3.819
 5443SOL    HW217229   2.826   6.174   3.844
 5444SOL     OW17230   0.452   0.920   3.060
 5444SOL    HW117231   0.448   0.827   3.097
 5444SOL    HW217232   0.444   0.917   2.961
 5445SOL     OW17233   6.674   4.318   3.578
 5445SOL    HW117234   6.654   4.220   3.578
 5445SOL    HW217235   6.607   4.365   3.522
 5446SOL     OW17236   5.534   5.258   4.845
 5446SOL    HW117237   5.501   5.349   4.872
 5446SOL    HW217238   5.474   5.188   4.882
 5447SOL     OW17239   1.282   2.106   1.026
 5447SOL    HW117240   1.316   2.165   1.099
 5447SOL    HW217241   1.351   2.038   1.002
 5448SOL     OW17242   6.042   4.373   4.538
 5448SOL    HW117243   6.105   4.429   4.592
 5448SOL    HW217244   6.027   4.415   4.449
 5449SOL     OW17245   1.614   1.786   0.232
 5449SOL    HW117246   1.673   1.845   0.287
 5449SOL    HW217247   1.621   1.692   0.263
 5450SOL     OW17248   2.712   0.153   1.342
 5450SOL    HW117249   2.756   0.239   1.315
 5450SOL    HW217250   2.666   0.165   1.430
 5451SOL     OW17251   1.798   5.887   3.279
 5451SOL    HW117252   1.713   5.883   3.333
 5451SOL    HW217253   1.859   5.814   3.308
 5452SOL     OW17254   2.273   3.604   0.753
 5452SOL    HW117255   2.223   3.607   0.666
 5452SOL    HW217256   2.208   3.585   0.828
 5453SOL     OW17257   5.373   4.202   1.123
 5453SOL    HW117258   5.443   4.241   1.063
 5453SOL    HW217259   5.378   4.245   1.213
 5454SOL     OW17260   6.057   4.937   5.628
 5454SOL    HW117261   5.975   4.912   5.576
 5454SOL    HW217262   6.134   4.881   5.598
 5455SOL     OW17263   6.439   2.509   2.080
 5455SOL    HW117264   6.447   2.441   2.006
 5455SOL    HW217265   6.467   2.467   2.166
 5456SOL     OW17266   2.720   0.585   0.523
 5456SOL    HW117267   2.773   0.501   0.516
 5456SOL    HW217268   2.664   0.583   0.606
 5457SOL     OW17269   0.238   2.485   1.217
 5457SOL    HW117270   0.169   2.555   1.201
 5457SOL    HW217271   0.293   2.510   1.297
 5458SOL     OW17272   0.508   4.794   0.448
 5458SOL    HW117273   0.441   4.781   0.521
 5458SOL    HW217274   0.471   4.859   0.381
 5459SOL     OW17275   2.783   3.310   6.798
 5459SOL    HW117276   2.737   3.350   6.718
 5459SOL    HW217277   2.869   3.358   6.814
 5460SOL     OW17278   3.697   0.027   3.113
 5460SOL    HW117279   3.669   0.096   3.180
 5460SOL    HW217280   3.709   0.070   3.024
 5461SOL     OW17281   0.583   0.080   6.278
 5461SOL    HW117282   0.595   7.010   6.243
 5461SOL    HW217283   0.530   0.134   6.213
 5462SOL     OW17284   6.125   6.732   1.143
 5462SOL    HW117285   6.052   6.720   1.209
 5462SOL    HW217286   6.144   6.830   1.132
 5463SOL     OW17287   0.300   1.529   0.193
 5463SOL    HW117288   0.321   1.501   0.287
 5463SOL    HW217289   0.209   1.571   0.191
 5464SOL     OW17290   6.253   0.301   4.508
 5464SOL    HW117291   6.209   0.265   4.590
 5464SOL    HW217292   6.317   0.374   4.533
 5465SOL     OW17293   4.688   0.939   4.797
 5465SOL    HW117294   4.737   0.856   4.826
 5465SOL    HW217295   4.613   0.957   4.860
 5466SOL     OW17296   5.616   2.765   4.828
 5466SOL    HW117297   5.589   2.671   4.850
 5466SOL    HW217298   5.599   2.823   4.907
 5467SOL     OW17299   4.823   4.081   3.530
 5467SOL    HW117300   4.878   3.998   3.543
 5467SOL    HW217301   4.749   4.083   3.597
 5468SOL     OW17302   6.990   2.641   3.624
 5468SOL    HW117303   0.027   2.573   3.583
 5468SOL    HW217304   6.894   2.613   3.611
 5469SOL     OW17305   2.810   5.620   5.676
 5469SOL    HW117306   2.787   5.705   5.724
 5469SOL    HW217307   2.729   5.561   5.673
 5470SOL     OW17308   3.740   5.157   3.202
 5470SOL    HW117309   3.798   5.203   3.269
 5470SOL    HW217310   3.715   5.066   3.236
 5471SOL     OW17311   5.728   6.813   3.345
 5471SOL    HW117312   5.654   6.746   3.345
 5471SOL    HW217313   5.782   6.802   3.262
 5472SOL     OW17314   2.564   4.250   7.004
 5472SOL    HW117315   2.601   4.337   0.014
 5472SOL    HW217316   2.470   4.263   6.974
 5473SOL     OW17317   0.705   3.535   2.054
 5473SOL    HW117318   0.753   3.595   2.118
 5473SOL    HW217319   0.771   3.475   2.009
 5474SOL     OW17320   1.077   4.541   3.559
 5474SOL    HW117321   1.145   4.475   3.529
 5474SOL    HW217322   1.067   4.537   3.659
 5475SOL     OW17323   2.441   2.707   0.835
 5475SOL    HW117324   2.495   2.745   0.910
 5475SOL    HW217325   2.422   2.610   0.854
 5476SOL     OW17326   2.596   4.379   5.441
 5476SOL    HW117327   2.533   4.322   5.390
 5476SOL    HW217328   2.564   4.389   5.535
 5477SOL     OW17329   2.193   4.393   2.494
 5477SOL    HW117330   2.222   4.434   2.407
 5477SOL    HW217331   2.250   4.313   2.513
 5478SOL     OW17332   2.761   5.967   4.158
 5478SOL    HW117333   2.722   6.012   4.239
 5478SOL    HW217334   2.796   5.877   4.184
 5479SOL     OW17335   5.248   1.176   6.440
 5479SOL    HW117336   5.183   1.103   6.460
 5479SOL    HW217337   5.251   1.240   6.517
 5480SOL     OW17338   5.351   5.114   4.382
 5480SOL    HW117339   5.419   5.053   4.422
 5480SOL    HW217340   5.290   5.062   4.323
 5481SOL     OW17341   4.418   1.408   4.599
 5481SOL    HW117342   4.347   1.476   4.580
 5481SOL    HW217343   4.376   1.325   4.637
 5482SOL     OW17344   3.649   4.244   1.728
 5482SOL    HW117345   3.729   4.204   1.774
 5482SOL    HW217346   3.680   4.309   1.659
 5483SOL     OW17347   0.274   2.122   5.180
 5483SOL    HW117348   0.189   2.174   5.186
 5483SOL    HW217349   0.257   2.026   5.198
 5484SOL     OW17350   4.087   1.070   4.563
 5484SOL    HW117351   4.180   1.106   4.560
 5484SOL    HW217352   4.089   0.973   4.587
 5485SOL     OW17353   4.075   0.548   4.717
 5485SOL    HW117354   4.148   0.583   4.659
 5485SOL    HW217355   4.114   0.502   4.797
 5486SOL     OW17356   2.459   6.083   5.340
 5486SOL    HW117357   2.554   6.112   5.352
 5486SOL    HW217358   2.447   5.992   5.378
 5487SOL     OW17359   5.438   2.497   6.681
 5487SOL    HW117360   5.348   2.519   6.720
 5487SOL    HW217361   5.459   2.562   6.608
 5488SOL     OW17362   6.254   0.429   0.859
 5488SOL    HW117363   6.199   0.377   0.794
 5488SOL    HW217364   6.262   0.524   0.829
 5489SOL     OW17365   0.112   4.299   1.784
 5489SOL    HW117366   0.160   4.386   1.788
 5489SOL    HW217367   0.177   4.225   1.804
 5490SOL     OW17368   3.162   0.300   1.774
 5490SOL    HW117369   3.122   0.332   1.860
 5490SOL    HW217370   3.091   0.259   1.717
 5491SOL     OW17371   0.916   3.510   0.223
 5491SOL    HW117372   0.832   3.457   0.230
 5491SOL    HW217373   0.910   3.591   0.281
 5492SOL     OW17374   0.518   3.381   6.086
 5492SOL    HW117375   0.423   3.411   6.101
 5492SOL    HW217376   0.570   3.457   6.047
 5493SOL     OW17377   2.992   3.915   4.401
 5493SOL    HW117378   3.060   3.898   4.473
 5493SOL    HW217379   2.907   3.947   4.442
 5494SOL     OW17380   0.294   3.442   6.243
 5494SOL    HW117381   0.354   3.463   6.321
 5494SOL    HW217382   0.221   3.381   6.273
 5495SOL     OW17383   4.845   1.332   1.150
 5495SOL    HW117384   4.789   1.364   1.226
 5495SOL    HW217385   4.933   1.379   1.151
 5496SOL     OW17386   4.085   0.922   3.307
 5496SOL    HW117387   4.133   0.854   3.363
 5496SOL    HW217388   3.994   0.937   3.345
 5497SOL     OW17389   0.002   1.240   4.868
 5497SOL    HW117390   7.017   1.153   4.820
 5497SOL    HW217391   7.002   1.315   4.805
 5498SOL     OW17392   6.736   5.976   1.607
 5498SOL    HW117393   6.805   5.917   1.651
 5498SOL    HW217394   6.742   6.068   1.645
 5499SOL     OW17395   0.139   0.530   4.710
 5499SOL    HW117396   0.172   0.620   4.682
 5499SOL    HW217397   0.214   0.464   4.704
 5500SOL     OW17398   0.998   0.588   0.204
 5500SOL    HW117399   1.077   0.582   0.143
 5500SOL    HW217400   0.914   0.572   0.153
 5501SOL     OW17401   3.430   2.023   7.002
 5501SOL    HW117402   3.498   1.955   0.007
 5501SOL    HW217403   3.460   2.068   6.918
 5502SOL     OW17404   4.640   3.472   0.609
 5502SOL    HW117405   4.689   3.555   0.636
 5502SOL    HW217406   4.558   3.463   0.666
 5503SOL     OW17407   6.821   4.296   1.420
 5503SOL    HW117408   6.726   4.266   1.416
 5503SOL    HW217409   6.856   4.309   1.327
 5504SOL     OW17410   4.787   1.634   5.435
 5504SOL    HW117411   4.781   1.709   5.369
 5504SOL    HW217412   4.845   1.561   5.399
 5505SOL     OW17413   2.115   5.235   4.235
 5505SOL    HW117414   2.035   5.241   4.295
 5505SOL    HW217415   2.157   5.145   4.245
 5506SOL     OW17416   0.330   3.340   0.702
 5506SOL    HW117417   0.270   3.345   0.781
 5506SOL    HW217418   0.420   3.376   0.725
 5507SOL     OW17419   4.328   1.191   4.747
 5507SOL    HW117420   4.377   1.143   4.673
 5507SOL    HW217421   4.298   1.124   4.815
 5508SOL     OW17422   1.287   1.133   0.019
 5508SOL    HW117423   1.356   1.067   7.011
 5508SOL    HW217424   1.236   1.167   6.963
 5509SOL     OW17425   0.595   6.352   6.441
 5509SOL    HW117426   0.517   6.385   6.495
 5509SOL    HW217427   0.569   6.270   6.390
 5510SOL     OW17428   4.410   5.578   0.371
 5510SOL    HW117429   4.504   5.610   0.363
 5510SOL    HW217430   4.382   5.535   0.286
 5511SOL     OW17431   1.313   0.551   3.833
 5511SOL    HW117432   1.236   0.610   3.809
 5511SOL    HW217433   1.318   0.543   3.933
 5512SOL     OW17434   5.389   2.387   0.681
 5512SOL    HW117435   5.320   2.347   0.620
 5512SOL    HW217436   5.475   2.337   0.671
 5513SOL     OW17437   3.702   4.870   6.229
 5513SOL    HW117438   3.782   4.915   6.267
 5513SOL    HW217439   3.698   4.776   6.262
 5514SOL     OW17440   4.028   0.392   4.425
 5514SOL    HW117441   4.086   0.340   4.487
 5514SOL    HW217442   3.946   0.340   4.404
 5515SOL     OW17443   0.615   5.885   1.961
 5515SOL    HW117444   0.621   5.827   1.880
 5515SOL    HW217445   0.651   5.976   1.939
 5516SOL     OW17446   1.784   3.504   6.301
 5516SOL    HW117447   1.843   3.500   6.220
 5516SOL    HW217448   1.693   3.535   6.274
 5517SOL     OW17449   2.055   3.249   2.103
 5517SOL    HW117450   1.958   3.226   2.089
 5517SOL    HW217451   2.069   3.347   2.090
 5518SOL     OW17452   5.726   5.785   0.130
 5518SOL    HW117453   5.690   5.783   0.037
 5518SOL    HW217454   5.684   5.861   0.180
 5519SOL     OW17455   5.419   3.587   3.068
 5519SOL    HW117456   5.444   3.563   3.162
 5519SOL    HW217457   5.470   3.669   3.040
 5520SOL     OW17458   6.335   6.718   2.564
 5520SOL    HW117459   6.272   6.780   2.517
 5520SOL    HW217460   6.304   6.703   2.658
 5521SOL     OW17461   4.923   6.362   2.017
 5521SOL    HW117462   5.001   6.343   2.077
 5521SOL    HW217463   4.937   6.449   1.970
 5522SOL     OW17464   6.002   4.949   0.813
 5522SOL    HW117465   6.026   4.875   0.877
 5522SOL    HW217466   5.913   4.986   0.838
 5523SOL     OW17467   3.763   1.358   1.890
 5523SOL    HW117468   3.740   1.262   1.875
 5523SOL    HW217469   3.722   1.413   1.817
 5524SOL     OW17470   4.548   0.501   4.150
 5524SOL    HW117471   4.474   0.567   4.163
 5524SOL    HW217472   4.600   0.493   4.235
 5525SOL     OW17473   0.461   1.975   6.843
 5525SOL    HW117474   0.468   2.075   6.841
 5525SOL    HW217475   0.424   1.946   6.932
 5526SOL     OW17476   4.590   5.119   2.977
 5526SOL    HW117477   4.555   5.209   2.954
 5526SOL    HW217478   4.524   5.071   3.035
 5527SOL     OW17479   4.871   3.557   4.090
 5527SOL    HW117480   4.789   3.542   4.034
 5527SOL    HW217481   4.868   3.648   4.130
 5528SOL     OW17482   1.586   0.727   0.118
 5528SOL    HW117483   1.553   0.775   0.199
 5528SOL    HW217484   1.677   0.690   0.136
 5529SOL     OW17485   3.785   6.863   4.544
 5529SOL    HW117486   3.843   6.841   4.623
 5529SOL    HW217487   3.765   6.779   4.494
 5530SOL     OW17488   5.528   2.078   1.021
 5530SOL    HW117489   5.577   2.074   1.108
 5530SOL    HW217490   5.560   2.004   0.961
 5531SOL     OW17491   3.650   3.492   1.951
 5531SOL    HW117492   3.684   3.400   1.966
 5531SOL    HW217493   3.717   3.544   1.897
 5532SOL     OW17494   1.044   3.074   1.085
 5532SOL    HW117495   1.129   3.103   1.042
 5532SOL    HW217496   1.007   2.995   1.035
 5533SOL     OW17497   3.920   1.914   3.039
 5533SOL    HW117498   4.004   1.880   3.082
 5533SOL    HW217499   3.884   1.991   3.092
 5534SOL     OW17500   0.793   1.878   6.901
 5534SOL    HW117501   0.753   1.969   6.914
 5534SOL    HW217502   0.825   1.843   6.988
 5535SOL     OW17503   0.819   1.999   3.568
 5535SOL    HW117504   0.776   2.052   3.495
 5535SOL    HW217505   0.787   1.905   3.565
 5536SOL     OW17506   3.864   1.190   4.069
 5536SOL    HW117507   3.854   1.289   4.056
 5536SOL    HW217508   3.899   1.172   4.160
 5537SOL     OW17509   2.864   0.971   1.960
 5537SOL    HW117510   2.865   0.876   1.991
 5537SOL    HW217511   2.859   1.032   2.039
 5538SOL     OW17512   2.987   5.486   5.498
 5538SOL    HW117513   3.083   5.504   5.516
 5538SOL    HW217514   2.930   5.543   5.558
 5539SOL     OW17515   0.927   3.739   1.781
 5539SOL    HW117516   0.959   3.646   1.760
 5539SOL    HW217517   0.838   3.754   1.739
 5540SOL     OW17518   4.649   4.427   4.014
 5540SOL    HW117519   4.585   4.462   3.945
 5540SOL    HW217520   4.614   4.448   4.105
 5541SOL     OW17521   5.300   6.965   6.692
 5541SOL    HW117522   5.378   6.967   6.630
 5541SOL    HW217523   5.223   7.013   6.651
 5542SOL     OW17524   4.965   3.392   5.948
 5542SOL    HW117525   5.031   3.466   5.963
 5542SOL    HW217526   4.889   3.402   6.012
 5543SOL     OW17527   3.699   4.103   6.166
 5543SOL    HW117528   3.669   4.017   6.208
 5543SOL    HW217529   3.659   4.180   6.216
 5544SOL     OW17530   5.078   5.379   6.895
 5544SOL    HW117531   5.018   5.444   6.849
 5544SOL    HW217532   5.173   5.400   6.873
 5545SOL     OW17533   4.339   1.065   2.365
 5545SOL    HW117534   4.410   0.996   2.357
 5545SOL    HW217535   4.370   1.137   2.427
 5546SOL     OW17536   0.457   4.401   4.622
 5546SOL    HW117537   0.554   4.420   4.606
 5546SOL    HW217538   0.440   4.304   4.610
 5547SOL     OW17539   2.965   6.770   5.323
 5547SOL    HW117540   2.942   6.704   5.251
 5547SOL    HW217541   2.934   6.861   5.296
 5548SOL     OW17542   6.200   2.347   5.386
 5548SOL    HW117543   6.130   2.277   5.399
 5548SOL    HW217544   6.196   2.379   5.291
 5549SOL     OW17545   4.753   4.985   6.589
 5549SOL    HW117546   4.800   5.051   6.530
 5549SOL    HW217547   4.820   4.938   6.647
 5550SOL     OW17548   3.008   5.283   2.722
 5550SOL    HW117549   3.051   5.365   2.759
 5550SOL    HW217550   3.069   5.240   2.655
 5551SOL     OW17551   2.510   0.977   2.759
 5551SOL    HW117552   2.562   0.891   2.756
 5551SOL    HW217553   2.560   1.048   2.710
 5552SOL     OW17554   0.130   1.128   6.990
 5552SOL    HW117555   0.151   1.034   7.014
 5552SOL    HW217556   0.125   1.184   0.049
 5553SOL     OW17557   3.754   6.513   0.351
 5553SOL    HW117558   3.814   6.591   0.333
 5553SOL    HW217559   3.680   6.541   0.412
 5554SOL     OW17560   3.141   1.695   5.113
 5554SOL    HW117561   3.179   1.603   5.121
 5554SOL    HW217562   3.204   1.753   5.061
 5555SOL     OW17563   0.657   4.607   3.761
 5555SOL    HW117564   0.683   4.514   3.736
 5555SOL    HW217565   0.625   4.607   3.856
 5556SOL     OW17566   0.411   2.666   4.457
 5556SOL    HW117567   0.398   2.583   4.512
 5556SOL    HW217568   0.507   2.693   4.462
 5557SOL     OW17569   3.656   4.868   3.003
 5557SOL    HW117570   3.624   4.939   3.066
 5557SOL    HW217571   3.603   4.784   3.018
 5558SOL     OW17572   5.285   3.302   5.795
 5558SOL    HW117573   5.259   3.369   5.865
 5558SOL    HW217574   5.221   3.307   5.718
 5559SOL     OW17575   2.516   6.764   2.038
 5559SOL    HW117576   2.521   6.671   2.003
 5559SOL    HW217577   2.609   6.800   2.050
 5560SOL     OW17578   0.443   6.696   3.186
 5560SOL    HW117579   0.445   6.739   3.277
 5560SOL    HW217580   0.379   6.746   3.128
 5561SOL     OW17581   2.137   1.876   4.185
 5561SOL    HW117582   2.149   1.812   4.261
 5561SOL    HW217583   2.207   1.947   4.191
 5562SOL     OW17584   2.406   2.434   6.814
 5562SOL    HW117585   2.440   2.340   6.812
 5562SOL    HW217586   2.463   2.492   6.756
 5563SOL     OW17587   4.572   6.507   2.598
 5563SOL    HW117588   4.523   6.559   2.527
 5563SOL    HW217589   4.638   6.567   2.643
 5564SOL     OW17590   5.185   2.050   1.572
 5564SOL    HW117591   5.154   2.142   1.596
 5564SOL    HW217592   5.121   2.008   1.508
 5565SOL     OW17593   4.234   1.634   5.996
 5565SOL    HW117594   4.268   1.609   6.087
 5565SOL    HW217595   4.211   1.731   5.994
 5566SOL     OW17596   1.755   5.269   1.463
 5566SOL    HW117597   1.657   5.283   1.475
 5566SOL    HW217598   1.774   5.247   1.367
 5567SOL     OW17599   0.773   4.971   1.064
 5567SOL    HW117600   0.713   4.916   1.122
 5567SOL    HW217601   0.738   4.973   0.971
 5568SOL     OW17602   5.054   2.214   2.283
 5568SOL    HW117603   5.131   2.272   2.254
 5568SOL    HW217604   5.059   2.127   2.234
 5569SOL     OW17605   3.856   1.890   1.834
 5569SOL    HW117606   3.860   1.990   1.834
 5569SOL    HW217607   3.938   1.854   1.789
 5570SOL     OW17608   6.027   4.833   4.582
 5570SOL    HW117609   5.982   4.919   4.562
 5570SOL    HW217610   5.959   4.765   4.609
 5571SOL     OW17611   0.141   6.424   0.186
 5571SOL    HW117612   0.060   6.445   0.241
 5571SOL    HW217613   0.182   6.338   0.218
 5572SOL     OW17614   2.634   2.720   6.275
 5572SOL    HW117615   2.701   2.795   6.272
 5572SOL    HW217616   2.671   2.641   6.227
 5573SOL     OW17617   1.046   2.747   0.379
 5573SOL    HW117618   1.058   2.709   0.288
 5573SOL    HW217619   1.118   2.713   0.439
 5574SOL     OW17620   6.938   1.408   4.245
 5574SOL    HW117621   0.014   1.420   4.240
 5574SOL    HW217622   6.905   1.442   4.334
 5575SOL     OW17623   1.340   0.733   1.837
 5575SOL    HW117624   1.270   0.797   1.805
 5575SOL    HW217625   1.428   0.779   1.844
 5576SOL     OW17626   6.106   5.405   1.901
 5576SOL    HW117627   6.081   5.467   1.826
 5576SOL    HW217628   6.028   5.348   1.924
 5577SOL     OW17629   2.533   3.016   5.740
 5577SOL    HW117630   2.505   3.108   5.769
 5577SOL    HW217631   2.471   2.949   5.780
 5578SOL     OW17632   3.937   2.837   1.020
 5578SOL    HW117633   3.972   2.750   0.987
 5578SOL    HW217634   3.877   2.821   1.099
 5579SOL     OW17635   6.127   3.698   6.256
 5579SOL    HW117636   6.214   3.746   6.270
 5579SOL    HW217637   6.142   3.600   6.265
 5580SOL     OW17638   5.010   1.863   0.145
 5580SOL    HW117639   5.042   1.846   0.052
 5580SOL    HW217640   4.932   1.925   0.143
 5581SOL     OW17641   2.762   0.128   1.024
 5581SOL    HW117642   2.751   0.221   1.057
 5581SOL    HW217643   2.860   0.107   1.015
 5582SOL     OW17644   3.255   3.406   3.766
 5582SOL    HW117645   3.254   3.314   3.805
 5582SOL    HW217646   3.178   3.459   3.803
 5583SOL     OW17647   4.233   0.125   2.464
 5583SOL    HW117648   4.286   0.049   2.429
 5583SOL    HW217649   4.147   0.091   2.503
 5584SOL     OW17650   5.394   4.032   3.766
 5584SOL    HW117651   5.377   3.961   3.698
 5584SOL    HW217652   5.353   4.005   3.853
 5585SOL     OW17653   5.527   0.482   4.224
 5585SOL    HW117654   5.555   0.405   4.168
 5585SOL    HW217655   5.551   0.464   4.320
 5586SOL     OW17656   1.465   2.565   6.651
 5586SOL    HW117657   1.426   2.504   6.583
 5586SOL    HW217658   1.485   2.513   6.734
 5587SOL     OW17659   3.805   6.709   2.467
 5587SOL    HW117660   3.797   6.792   2.412
 5587SOL    HW217661   3.862   6.727   2.547
 5588SOL     OW17662   1.408   6.771   4.080
 5588SOL    HW117663   1.357   6.838   4.135
 5588SOL    HW217664   1.504   6.770   4.109
 5589SOL     OW17665   5.001   2.953   5.825
 5589SOL    HW117666   4.965   2.891   5.755
 5589SOL    HW217667   4.983   3.047   5.798
 5590SOL     OW17668   6.603   5.411   3.039
 5590SOL    HW117669   6.623   5.498   2.994
 5590SOL    HW217670   6.644   5.411   3.130
 5591SOL     OW17671   5.854   0.447   6.777
 5591SOL    HW117672   5.859   0.352   6.745
 5591SOL    HW217673   5.925   0.502   6.732
 5592SOL     OW17674   2.062   3.779   3.219
 5592SOL    HW117675   2.059   3.697   3.162
 5592SOL    HW217676   1.969   3.811   3.236
 5593SOL     OW17677   6.896   2.838   5.851
 5593SOL    HW117678   6.885   2.926   5.896
 5593SOL    HW217679   6.972   2.788   5.893
 5594SOL     OW17680   2.422   1.472   6.777
 5594SOL    HW117681   2.422   1.563   6.818
 5594SOL    HW217682   2.465   1.407   6.840
 5595SOL     OW17683   6.600   0.746   5.145
 5595SOL    HW117684   6.688   0.716   5.184
 5595SOL    HW217685   6.531   0.675   5.159
 5596SOL     OW17686   5.626   0.169   2.929
 5596SOL    HW117687   5.618   0.085   2.983
 5596SOL    HW217688   5.638   0.145   2.833
 5597SOL     OW17689   5.255   2.935   5.141
 5597SOL    HW117690   5.254   3.006   5.211
 5597SOL    HW217691   5.247   2.845   5.185
 5598SOL     OW17692   5.480   2.181   3.576
 5598SOL    HW117693   5.446   2.155   3.486
 5598SOL    HW217694   5.417   2.149   3.646
 5599SOL     OW17695   5.629   4.245   1.805
 5599SOL    HW117696   5.568   4.307   1.756
 5599SOL    HW217697   5.576   4.186   1.865
 5600SOL     OW17698   2.586   0.047   2.850
 5600SOL    HW117699   2.526   0.081   2.923
 5600SOL    HW217700   2.624   6.981   2.877
 5601SOL     OW17701   4.924   2.728   5.381
 5601SOL    HW117702   4.931   2.703   5.285
 5601SOL    HW217703   4.840   2.689   5.420
 5602SOL     OW17704   7.017   1.624   3.346
 5602SOL    HW117705   6.995   1.591   3.438
 5602SOL    HW217706   6.933   1.626   3.291
 5603SOL     OW17707   4.506   2.562   5.063
 5603SOL    HW117708   4.534   2.653   5.093
 5603SOL    HW217709   4.547   2.543   4.974
 5604SOL     OW17710   0.718   1.086   4.353
 5604SOL    HW117711   0.785   1.042   4.293
 5604SOL    HW217712   0.717   1.184   4.336
 5605SOL     OW17713   1.113   0.338   5.114
 5605SOL    HW117714   1.057   0.420   5.106
 5605SOL    HW217715   1.054   0.259   5.134
 5606SOL     OW17716   4.575   1.431   0.385
 5606SOL    HW117717   4.541   1.400   0.474
 5606SOL    HW217718   4.658   1.486   0.399
 5607SOL     OW17719   6.091   2.220   3.125
 5607SOL    HW117720   6.077   2.219   3.026
 5607SOL    HW217721   6.154   2.146   3.150
 5608SOL     OW17722   6.224   0.747   3.281
 5608SOL    HW117723   6.259   0.668   3.230
 5608SOL    HW217724   6.170   0.805   3.221
 5609SOL     OW17725   4.688   6.525   0.436
 5609SOL    HW117726   4.616   6.457   0.444
 5609SOL    HW217727   4.691   6.580   0.520
 5610SOL     OW17728   5.426   3.931   0.106
 5610SOL    HW117729   5.513   3.929   0.057
 5610SOL    HW217730   5.369   3.853   0.078
 5611SOL     OW17731   0.291   4.528   2.309
 5611SOL    HW117732   0.244   4.468   2.374
 5611SOL    HW217733   0.283   4.490   2.217
 5612SOL     OW17734   2.990   2.954   0.772
 5612SOL    HW117735   3.062   2.939   0.840
 5612SOL    HW217736   2.901   2.936   0.814
 5613SOL     OW17737   6.786   4.847   4.431
 5613SOL    HW117738   6.739   4.895   4.505
 5613SOL    HW217739   6.793   4.749   4.453
 5614SOL     OW17740   6.525   2.196   4.377
 5614SOL    HW117741   6.426   2.197   4.393
 5614SOL    HW217742   6.546   2.138   4.299
 5615SOL     OW17743   6.924   1.992   2.185
 5615SOL    HW117744   6.900   1.998   2.088
 5615SOL    HW217745   7.021   2.013   2.197
 5616SOL     OW17746   2.355   1.474   4.877
 5616SOL    HW117747   2.419   1.494   4.803
 5616SOL    HW217748   2.268   1.519   4.858
 5617SOL     OW17749   1.846   4.993   4.811
 5617SOL    HW117750   1.826   5.091   4.806
 5617SOL    HW217751   1.939   4.975   4.778
 5618SOL     OW17752   6.111   5.581   3.595
 5618SOL    HW117753   6.038   5.625   3.541
 5618SOL    HW217754   6.167   5.652   3.637
 5619SOL     OW17755   3.295   2.905   3.829
 5619SOL    HW117756   3.258   2.813   3.815
 5619SOL    HW217757   3.390   2.899   3.857
 5620SOL     OW17758   4.410   4.062   6.179
 5620SOL    HW117759   4.438   3.981   6.127
 5620SOL    HW217760   4.426   4.144   6.124
 5621SOL     OW17761   1.694   2.965   6.458
 5621SOL    HW117762   1.729   3.050   6.497
 5621SOL    HW217763   1.711   2.890   6.522
 5622SOL     OW17764   4.155   6.020   4.949
 5622SOL    HW117765   4.121   5.956   5.019
 5622SOL    HW217766   4.254   6.012   4.942
 5623SOL     OW17767   4.935   6.919   4.734
 5623SOL    HW117768   4.990   7.002   4.728
 5623SOL    HW217769   4.966   6.864   4.811
 5624SOL     OW17770   1.042   5.302   3.282
 5624SOL    HW117771   1.002   5.364   3.215
 5624SOL    HW217772   1.131   5.270   3.249
 5625SOL     OW17773   1.146   5.616   4.346
 5625SOL    HW117774   1.090   5.660   4.417
 5625SOL    HW217775   1.148   5.673   4.264
 5626SOL     OW17776   2.123   4.418   4.550
 5626SOL    HW117777   2.158   4.469   4.472
 5626SOL    HW217778   2.119   4.321   4.528
 5627SOL     OW17779   0.316   5.554   5.976
 5627SOL    HW117780   0.248   5.591   6.039
 5627SOL    HW217781   0.388   5.623   5.960
 5628SOL     OW17782   2.931   2.928   0.504
 5628SOL    HW117783   2.895   2.841   0.467
 5628SOL    HW217784   2.932   2.924   0.603
 5629SOL     OW17785   3.498   3.271   1.265
 5629SOL    HW117786   3.510   3.227   1.175
 5629SOL    HW217787   3.583   3.316   1.291
 5630SOL     OW17788   1.368   3.890   6.351
 5630SOL    HW117789   1.358   3.986   6.380
 5630SOL    HW217790   1.299   3.868   6.283
 5631SOL     OW17791   4.954   1.203   2.169
 5631SOL    HW117792   5.009   1.238   2.093
 5631SOL    HW217793   4.977   1.253   2.252
 5632SOL     OW17794   4.944   1.217   6.237
 5632SOL    HW117795   5.000   1.145   6.197
 5632SOL    HW217796   4.867   1.177   6.286
 5633SOL     OW17797   0.347   5.122   4.390
 5633SOL    HW117798   0.381   5.043   4.443
 5633SOL    HW217799   0.399   5.204   4.415
 5634SOL     OW17800   2.257   5.495   4.796
 5634SOL    HW117801   2.244   5.586   4.835
 5634SOL    HW217802   2.299   5.436   4.864
 5635SOL     OW17803   3.068   6.557   6.658
 5635SOL    HW117804   3.018   6.535   6.574
 5635SOL    HW217805   3.163   6.579   6.636
 5636SOL     OW17806   6.236   1.405   5.542
 5636SOL    HW117807   6.273   1.448   5.624
 5636SOL    HW217808   6.293   1.429   5.464
 5637SOL     OW17809   5.534   6.765   4.275
 5637SOL    HW117810   5.440   6.797   4.260
 5637SOL    HW217811   5.592   6.795   4.199
 5638SOL     OW17812   5.277   5.890   1.590
 5638SOL    HW117813   5.323   5.816   1.638
 5638SOL    HW217814   5.288   5.878   1.492
 5639SOL     OW17815   1.274   0.917   1.406
 5639SOL    HW117816   1.308   0.926   1.499
 5639SOL    HW217817   1.329   0.973   1.344
 5640SOL     OW17818   2.585   6.833   2.616
 5640SOL    HW117819   2.577   6.771   2.694
 5640SOL    HW217820   2.679   6.832   2.582
 5641SOL     OW17821   0.740   4.691   5.704
 5641SOL    HW117822   0.720   4.696   5.606
 5641SOL    HW217823   0.654   4.677   5.754
 5642SOL     OW17824   0.977   5.190   5.952
 5642SOL    HW117825   0.949   5.095   5.936
 5642SOL    HW217826   0.896   5.248   5.959
 5643SOL     OW17827   3.352   1.192   4.705
 5643SOL    HW117828   3.316   1.261   4.767
 5643SOL    HW217829   3.289   1.114   4.701
 5644SOL     OW17830   5.208   0.820   4.026
 5644SOL    HW117831   5.159   0.771   4.098
 5644SOL    HW217832   5.149   0.831   3.947
 5645SOL     OW17833   6.437   4.594   2.548
 5645SOL    HW117834   6.514   4.608   2.610
 5645SOL    HW217835   6.432   4.498   2.522
 5646SOL     OW17836   1.715   5.528   3.667
 5646SOL    HW117837   1.631   5.512   3.719
 5646SOL    HW217838   1.724   5.626   3.648
 5647SOL     OW17839   6.531   6.326   6.583
 5647SOL    HW117840   6.434   6.325   6.558
 5647SOL    HW217841   6.584   6.365   6.507
 5648SOL     OW17842   2.096   1.099   3.023
 5648SOL    HW117843   2.192   1.088   2.999
 5648SOL    HW217844   2.054   1.167   2.962
 5649SOL     OW17845   1.267   6.388   5.602
 5649SOL    HW117846   1.341   6.322   5.595
 5649SOL    HW217847   1.245   6.405   5.698
 5650SOL     OW17848   0.465   5.229   1.246
 5650SOL    HW117849   0.505   5.250   1.336
 5650SOL    HW217850   0.459   5.130   1.234
 5651SOL     OW17851   0.043   1.872   1.763
 5651SOL    HW117852   7.017   1.802   1.815
 5651SOL    HW217853   7.008   1.905   1.689
 5652SOL     OW17854   4.863   6.034   2.097
 5652SOL    HW117855   4.933   5.992   2.039
 5652SOL    HW217856   4.800   6.086   2.040
 5653SOL     OW17857   0.406   6.508   6.530
 5653SOL    HW117858   0.317   6.503   6.486
 5653SOL    HW217859   0.423   6.603   6.558
 5654SOL     OW17860   0.162   6.739   6.059
 5654SOL    HW117861   0.166   6.811   5.990
 5654SOL    HW217862   0.081   6.753   6.116
 5655SOL     OW17863   0.881   3.388   4.433
 5655SOL    HW117864   0.935   3.305   4.447
 5655SOL    HW217865   0.792   3.378   4.477
 5656SOL     OW17866   2.648   4.584   0.624
 5656SOL    HW117867   2.679   4.530   0.701
 5656SOL    HW217868   2.612   4.523   0.553
 5657SOL     OW17869   4.837   6.850   1.423
 5657SOL    HW117870   4.811   6.825   1.330
 5657SOL    HW217871   4.828   6.949   1.434
 5658SOL     OW17872   3.166   6.454   5.880
 5658SOL    HW117873   3.082   6.408   5.850
 5658SOL    HW217874   3.202   6.510   5.805
 5659SOL     OW17875   2.953   3.785   2.950
 5659SOL    HW117876   3.051   3.770   2.941
 5659SOL    HW217877   2.913   3.798   2.860
 5660SOL     OW17878   5.266   0.529   5.934
 5660SOL    HW117879   5.341   0.464   5.944
 5660SOL    HW217880   5.302   0.622   5.930
 5661SOL     OW17881   0.161   4.980   6.286
 5661SOL    HW117882   0.108   4.973   6.370
 5661SOL    HW217883   0.108   4.944   6.209
 5662SOL     OW17884   2.671   4.848   4.315
 5662SOL    HW117885   2.758   4.828   4.359
 5662SOL    HW217886   2.677   4.933   4.265
 5663SOL     OW17887   1.174   4.343   6.854
 5663SOL    HW117888   1.241   4.414   6.830
 5663SOL    HW217889   1.142   4.360   6.948
 5664SOL     OW17890   0.135   3.785   4.333
 5664SOL    HW117891   0.065   3.722   4.296
 5664SOL    HW217892   0.107   3.879   4.315
 5665SOL     OW17893   1.819   1.462   6.563
 5665SOL    HW117894   1.797   1.482   6.467
 5665SOL    HW217895   1.742   1.489   6.621
 5666SOL     OW17896   4.821   6.028   0.957
 5666SOL    HW117897   4.853   5.953   0.898
 5666SOL    HW217898   4.849   6.115   0.918
 5667SOL     OW17899   0.815   5.192   3.718
 5667SOL    HW117900   0.778   5.102   3.696
 5667SOL    HW217901   0.826   5.245   3.634
 5668SOL     OW17902   5.012   2.344   6.123
 5668SOL    HW117903   5.049   2.330   6.031
 5668SOL    HW217904   4.999   2.255   6.167
 5669SOL     OW17905   6.943   3.496   6.357
 5669SOL    HW117906   6.937   3.572   6.293
 5669SOL    HW217907   6.994   3.421   6.316
 5670SOL     OW17908   0.654   3.199   3.111
 5670SOL    HW117909   0.652   3.194   3.011
 5670SOL    HW217910   0.571   3.244   3.143
 5671SOL     OW17911   1.089   6.534   6.476
 5671SOL    HW117912   0.992   6.509   6.473
 5671SOL    HW217913   1.098   6.630   6.501
 5672SOL     OW17914   4.256   5.015   6.645
 5672SOL    HW117915   4.343   5.054   6.674
 5672SOL    HW217916   4.212   5.077   6.580
 5673SOL     OW17917   0.994   6.931   1.879
 5673SOL    HW117918   1.047   6.858   1.835
 5673SOL    HW217919   0.901   6.899   1.895
 5674SOL     OW17920   6.727   3.642   3.165
 5674SOL    HW117921   6.699   3.726   3.119
 5674SOL    HW217922   6.649   3.581   3.174
 5675SOL     OW17923   4.153   2.225   6.361
 5675SOL    HW117924   4.071   2.236   6.416
 5675SOL    HW217925   4.145   2.280   6.277
 5676SOL     OW17926   1.855   1.823   1.410
 5676SOL    HW117927   1.786   1.761   1.374
 5676SOL    HW217928   1.946   1.792   1.381
 5677SOL     OW17929   0.474   1.897   2.457
 5677SOL    HW117930   0.530   1.861   2.533
 5677SOL    HW217931   0.526   1.967   2.408
 5678SOL     OW17932   3.007   6.862   3.087
 5678SOL    HW117933   2.969   6.864   3.179
 5678SOL    HW217934   2.950   6.918   3.026
 5679SOL     OW17935   1.358   0.274   3.701
 5679SOL    HW117936   1.371   0.337   3.778
 5679SOL    HW217937   1.264   0.283   3.667
 5680SOL     OW17938   1.250   5.181   0.995
 5680SOL    HW117939   1.229   5.185   0.897
 5680SOL    HW217940   1.276   5.088   1.020
 5681SOL     OW17941   0.577   3.739   6.700
 5681SOL    HW117942   0.576   3.777   6.607
 5681SOL    HW217943   0.607   3.810   6.764
 5682SOL     OW17944   2.009   4.893   5.479
 5682SOL    HW117945   1.916   4.895   5.442
 5682SOL    HW217946   2.074   4.925   5.410
 5683SOL     OW17947   4.708   2.300   6.529
 5683SOL    HW117948   4.610   2.298   6.551
 5683SOL    HW217949   4.723   2.359   6.450
 5684SOL     OW17950   4.113   3.418   4.651
 5684SOL    HW117951   4.066   3.406   4.738
 5684SOL    HW217952   4.187   3.485   4.662
 5685SOL     OW17953   0.906   4.375   2.058
 5685SOL    HW117954   0.913   4.409   1.965
 5685SOL    HW217955   0.946   4.442   2.121
 5686SOL     OW17956   3.269   0.582   6.906
 5686SOL    HW117957   3.294   0.679   6.908
 5686SOL    HW217958   3.345   0.529   6.871
 5687SOL     OW17959   6.947   3.955   4.749
 5687SOL    HW117960   0.003   3.971   4.689
 5687SOL    HW217961   6.904   4.042   4.772
 5688SOL     OW17962   6.712   1.361   0.191
 5688SOL    HW117963   6.624   1.363   0.240
 5688SOL    HW217964   6.728   1.450   0.148
 5689SOL     OW17965   4.346   1.115   0.010
 5689SOL    HW117966   4.273   1.083   0.071
 5689SOL    HW217967   4.310   1.125   6.940
 5690SOL     OW17968   2.587   6.390   0.900
 5690SOL    HW117969   2.601   6.435   0.988
 5690SOL    HW217970   2.675   6.364   0.861
 5691SOL     OW17971   2.798   6.467   1.832
 5691SOL    HW117972   2.820   6.495   1.926
 5691SOL    HW217973   2.828   6.372   1.818
 5692SOL     OW17974   6.634   3.198   5.944
 5692SOL    HW117975   6.723   3.237   5.968
 5692SOL    HW217976   6.566   3.228   6.010
 5693SOL     OW17977   5.560   3.097   2.215
 5693SOL    HW117978   5.498   3.152   2.159
 5693SOL    HW217979   5.558   3.130   2.310
 5694SOL     OW17980   0.344   1.253   4.035
 5694SOL    HW117981   0.372   1.262   4.131
 5694SOL    HW217982   0.264   1.194   4.029
 5695SOL     OW17983   0.757   2.610   2.949
 5695SOL    HW117984   0.752   2.512   2.968
 5695SOL    HW217985   0.827   2.627   2.879
 5696SOL     OW17986   1.956   0.332   2.777
 5696SOL    HW117987   1.932   0.316   2.873
 5696SOL    HW217988   1.942   0.247   2.725
 5697SOL     OW17989   5.862   1.895   0.769
 5697SOL    HW117990   5.927   1.940   0.709
 5697SOL    HW217991   5.889   1.910   0.865
 5698SOL     OW17992   0.417   2.980   1.657
 5698SOL    HW117993   0.354   2.961   1.582
 5698SOL    HW217994   0.365   3.006   1.738
 5699SOL     OW17995   6.275   2.426   3.167
 5699SOL    HW117996   6.218   2.344   3.174
 5699SOL    HW217997   6.289   2.464   3.258
 5700SOL     OW17998   6.719   6.477   4.729
 5700SOL    HW117999   6.700   6.514   4.638
 5700SOL    HW218000   6.817   6.479   4.746
 5701SOL     OW18001   1.154   5.915   3.202
 5701SOL    HW118002   1.082   5.906   3.271
 5701SOL    HW218003   1.199   6.004   3.214
 5702SOL     OW18004   1.998   0.262   5.588
 5702SOL    HW118005   2.015   0.360   5.586
 5702SOL    HW218006   1.997   0.227   5.494
 5703SOL     OW18007   4.993   4.502   0.565
 5703SOL    HW118008   5.058   4.433   0.597
 5703SOL    HW218009   4.989   4.577   0.631
 5704SOL     OW18010   4.175   5.340   2.275
 5704SOL    HW118011   4.123   5.411   2.228
 5704SOL    HW218012   4.112   5.268   2.306
 5705SOL     OW18013   5.536   0.881   0.434
 5705SOL    HW118014   5.527   0.806   0.499
 5705SOL    HW218015   5.586   0.957   0.477
 5706SOL     OW18016   1.040   1.994   0.753
 5706SOL    HW118017   1.059   2.093   0.754
 5706SOL    HW218018   0.941   1.980   0.752
 5707SOL     OW18019   0.607   6.583   0.512
 5707SOL    HW118020   0.684   6.593   0.448
 5707SOL    HW218021   0.630   6.628   0.598
 5708SOL     OW18022   5.287   6.049   1.158
 5708SOL    HW118023   5.234   6.128   1.127
 5708SOL    HW218024   5.385   6.071   1.152
 5709SOL     OW18025   1.067   0.008   3.188
 5709SOL    HW118026   1.096   6.936   3.203
 5709SOL    HW218027   1.127   0.051   3.120
 5710SOL     OW18028   2.587   3.511   5.984
 5710SOL    HW118029   2.609   3.524   5.888
 5710SOL    HW218030   2.491   3.486   5.994
 5711SOL     OW18031   4.843   0.568   2.875
 5711SOL    HW118032   4.862   0.549   2.779
 5711SOL    HW218033   4.930   0.583   2.923
 5712SOL     OW18034   0.664   6.108   6.058
 5712SOL    HW118035   0.675   6.137   6.153
 5712SOL    HW218036   0.689   6.011   6.050
 5713SOL     OW18037   0.995   1.943   1.307
 5713SOL    HW118038   0.897   1.921   1.304
 5713SOL    HW218039   1.034   1.930   1.216
 5714SOL     OW18040   1.287   6.296   6.966
 5714SOL    HW118041   1.320   6.218   7.020
 5714SOL    HW218042   1.334   6.379   6.997
 5715SOL     OW18043   1.223   6.185   3.256
 5715SOL    HW118044   1.285   6.223   3.324
 5715SOL    HW218045   1.157   6.255   3.228
 5716SOL     OW18046   1.150   3.884   6.133
 5716SOL    HW118047   1.139   3.976   6.097
 5716SOL    HW218048   1.080   3.866   6.202
 5717SOL     OW18049   1.725   5.515   0.488
 5717SOL    HW118050   1.768   5.546   0.403
 5717SOL    HW218051   1.676   5.430   0.471
 5718SOL     OW18052   1.014   3.886   6.498
 5718SOL    HW118053   1.038   3.983   6.502
 5718SOL    HW218054   1.038   3.842   6.584
 5719SOL     OW18055   2.663   1.243   6.165
 5719SOL    HW118056   2.620   1.332   6.178
 5719SOL    HW218057   2.599   1.171   6.189
 5720SOL     OW18058   1.036   4.753   4.186
 5720SOL    HW118059   1.132   4.731   4.168
 5720SOL    HW218060   1.019   4.848   4.158
 5721SOL     OW18061   7.021   3.787   0.848
 5721SOL    HW118062   0.081   3.811   0.898
 5721SOL    HW218063   6.981   3.870   0.809
 5722SOL     OW18064   5.716   2.007   5.218
 5722SOL    HW118065   5.729   1.908   5.213
 5722SOL    HW218066   5.785   2.052   5.163
 5723SOL     OW18067   4.203   3.817   7.011
 5723SOL    HW118068   4.146   3.737   0.005
 5723SOL    HW218069   4.232   3.856   0.075
 5724SOL     OW18070   4.031   2.418   5.392
 5724SOL    HW118071   4.086   2.432   5.474
 5724SOL    HW218072   4.078   2.457   5.313
 5725SOL     OW18073   5.651   5.743   3.494
 5725SOL    HW118074   5.707   5.684   3.435
 5725SOL    HW218075   5.595   5.686   3.554
 5726SOL     OW18076   6.354   3.212   3.522
 5726SOL    HW118077   6.342   3.257   3.611
 5726SOL    HW218078   6.265   3.192   3.482
 5727SOL     OW18079   0.524   2.759   3.836
 5727SOL    HW118080   0.603   2.817   3.814
 5727SOL    HW218081   0.441   2.815   3.840
 5728SOL     OW18082   4.569   1.385   6.095
 5728SOL    HW118083   4.607   1.459   6.152
 5728SOL    HW218084   4.587   1.406   5.998
 5729SOL     OW18085   0.991   1.488   0.469
 5729SOL    HW118086   1.052   1.460   0.395
 5729SOL    HW218087   1.045   1.514   0.549
 5730SOL     OW18088   3.887   5.063   6.046
 5730SOL    HW118089   3.878   4.979   5.993
 5730SOL    HW218090   3.885   5.142   5.985
 5731SOL     OW18091   1.924   6.474   3.547
 5731SOL    HW118092   1.968   6.550   3.595
 5731SOL    HW218093   1.929   6.391   3.603
 5732SOL     OW18094   6.531   4.501   4.987
 5732SOL    HW118095   6.524   4.558   4.905
 5732SOL    HW218096   6.550   4.406   4.960
 5733SOL     OW18097   3.002   0.236   5.730
 5733SOL    HW118098   3.056   0.257   5.812
 5733SOL    HW218099   3.052   0.171   5.673
 5734SOL     OW18100   1.536   6.364   6.248
 5734SOL    HW118101   1.620   6.317   6.276
 5734SOL    HW218102   1.483   6.389   6.330
 5735SOL     OW18103   3.999   1.384   3.075
 5735SOL    HW118104   4.024   1.390   3.171
 5735SOL    HW218105   4.071   1.336   3.024
 5736SOL     OW18106   5.505   4.689   0.453
 5736SOL    HW118107   5.409   4.668   0.468
 5736SOL    HW218108   5.561   4.610   0.479
 5737SOL     OW18109   5.542   6.068   0.471
 5737SOL    HW118110   5.634   6.032   0.480
 5737SOL    HW218111   5.525   6.094   0.375
 5738SOL     OW18112   3.616   1.830   7.023
 5738SOL    HW118113   3.644   1.745   0.043
 5738SOL    HW218114   3.661   1.839   6.934
 5739SOL     OW18115   1.067   6.372   5.381
 5739SOL    HW118116   0.991   6.315   5.409
 5739SOL    HW218117   1.138   6.371   5.452
 5740SOL     OW18118   4.562   3.674   1.121
 5740SOL    HW118119   4.528   3.748   1.179
 5740SOL    HW218120   4.661   3.666   1.131
 5741SOL     OW18121   0.377   3.691   4.293
 5741SOL    HW118122   0.283   3.722   4.282
 5741SOL    HW218123   0.427   3.757   4.349
 5742SOL     OW18124   4.584   6.077   3.085
 5742SOL    HW118125   4.535   5.996   3.051
 5742SOL    HW218126   4.683   6.061   3.078
 5743SOL     OW18127   2.396   5.903   5.095
 5743SOL    HW118128   2.334   5.978   5.116
 5743SOL    HW218129   2.454   5.885   5.174
 5744SOL     OW18130   5.219   1.345   2.212
 5744SOL    HW118131   5.294   1.281   2.194
 5744SOL    HW218132   5.184   1.330   2.304
 5745SOL     OW18133   2.556   0.889   4.153
 5745SOL    HW118134   2.610   0.959   4.107
 5745SOL    HW218135   2.496   0.932   4.220
 5746SOL     OW18136   4.846   6.565   1.452
 5746SOL    HW118137   4.764   6.558   1.509
 5746SOL    HW218138   4.857   6.659   1.420
 5747SOL     OW18139   0.798   5.060   1.869
 5747SOL    HW118140   0.813   5.125   1.794
 5747SOL    HW218141   0.833   5.099   1.954
 5748SOL     OW18142   1.381   6.565   1.258
 5748SOL    HW118143   1.384   6.466   1.276
 5748SOL    HW218144   1.459   6.590   1.200
 5749SOL     OW18145   1.698   6.589   4.952
 5749SOL    HW118146   1.750   6.526   4.894
 5749SOL    HW218147   1.601   6.584   4.926
 5750SOL     OW18148   5.937   6.385   5.403
 5750SOL    HW118149   5.878   6.466   5.399
 5750SOL    HW218150   5.930   6.334   5.318
 5751SOL     OW18151   2.518   2.490   4.862
 5751SOL    HW118152   2.496   2.582   4.829
 5751SOL    HW218153   2.536   2.493   4.960
 5752SOL     OW18154   5.701   0.168   0.252
 5752SOL    HW118155   5.727   0.262   0.232
 5752SOL    HW218156   5.647   0.131   0.176
 5753SOL     OW18157   3.535   3.983   4.932
 5753SOL    HW118158   3.513   3.886   4.917
 5753SOL    HW218159   3.520   4.034   4.848
 5754SOL     OW18160   0.639   5.283   1.495
 5754SOL    HW118161   0.732   5.320   1.499
 5754SOL    HW218162   0.642   5.184   1.509
 5755SOL     OW18163   1.463   2.288   6.145
 5755SOL    HW118164   1.396   2.232   6.098
 5755SOL    HW218165   1.432   2.383   6.147
 5756SOL     OW18166   0.374   0.857   2.675
 5756SOL    HW118167   0.295   0.799   2.655
 5756SOL    HW218168   0.441   0.805   2.728
 5757SOL     OW18169   0.791   5.389   3.898
 5757SOL    HW118170   0.779   5.312   3.836
 5757SOL    HW218171   0.713   5.394   3.961
 5758SOL     OW18172   2.477   1.334   2.712
 5758SOL    HW118173   2.504   1.292   2.625
 5758SOL    HW218174   2.393   1.386   2.699
 5759SOL     OW18175   4.958   0.754   0.120
 5759SOL    HW118176   5.030   0.748   0.050
 5759SOL    HW218177   4.994   0.722   0.207
 5760SOL     OW18178   6.108   2.296   0.723
 5760SOL    HW118179   6.080   2.391   0.736
 5760SOL    HW218180   6.076   2.263   0.635
 5761SOL     OW18181   5.964   5.013   5.903
 5761SOL    HW118182   5.944   4.943   5.972
 5761SOL    HW218183   5.947   4.976   5.812
 5762SOL     OW18184   5.122   4.179   0.978
 5762SOL    HW118185   5.197   4.194   1.042
 5762SOL    HW218186   5.055   4.252   0.987
 5763SOL     OW18187   5.837   5.768   0.811
 5763SOL    HW118188   5.894   5.828   0.868
 5763SOL    HW218189   5.762   5.731   0.866
 5764SOL     OW18190   4.598   4.629   4.685
 5764SOL    HW118191   4.666   4.556   4.679
 5764SOL    HW218192   4.643   4.717   4.698
 5765SOL     OW18193   6.242   3.274   0.282
 5765SOL    HW118194   6.256   3.180   0.250
 5765SOL    HW218195   6.277   3.338   0.214
 5766SOL     OW18196   1.426   1.765   5.357
 5766SOL    HW118197   1.378   1.746   5.271
 5766SOL    HW218198   1.525   1.766   5.341
 5767SOL     OW18199   2.318   0.351   0.879
 5767SOL    HW118200   2.322   0.343   0.779
 5767SOL    HW218201   2.385   0.290   0.920
 5768SOL     OW18202   0.737   0.008   4.029
 5768SOL    HW118203   0.696   0.082   4.082
 5768SOL    HW218204   0.682   7.014   3.947
 5769SOL     OW18205   2.606   5.288   4.085
 5769SOL    HW118206   2.615   5.370   4.142
 5769SOL    HW218207   2.513   5.251   4.095
 5770SOL     OW18208   6.818   6.076   6.123
 5770SOL    HW118209   6.859   6.015   6.055
 5770SOL    HW218210   6.718   6.069   6.118
 5771SOL     OW18211   1.279   6.937   4.301
 5771SOL    HW118212   1.269   6.875   4.379
 5771SOL    HW218213   1.304   0.006   4.334
 5772SOL     OW18214   5.244   1.213   1.210
 5772SOL    HW118215   5.288   1.189   1.296
 5772SOL    HW218216   5.190   1.136   1.177
 5773SOL     OW18217   4.319   1.030   3.218
 5773SOL    HW118218   4.229   1.025   3.263
 5773SOL    HW218219   4.309   1.073   3.128
 5774SOL     OW18220   3.163   6.892   3.957
 5774SOL    HW118221   3.222   6.875   4.036
 5774SOL    HW218222   3.131   6.805   3.920
 5775SOL     OW18223   1.607   0.268   2.196
 5775SOL    HW118224   1.603   0.168   2.207
 5775SOL    HW218225   1.701   0.299   2.209
 5776SOL     OW18226   0.654   0.379   3.907
 5776SOL    HW118227   0.645   0.478   3.892
 5776SOL    HW218228   0.730   0.362   3.970
 5777SOL     OW18229   6.658   6.992   4.991
 5777SOL    HW118230   6.639   6.942   4.907
 5777SOL    HW218231   6.629   0.064   4.981
 5778SOL     OW18232   1.384   0.432   0.289
 5778SOL    HW118233   1.458   0.402   0.229
 5778SOL    HW218234   1.422   0.485   0.365
 5779SOL     OW18235   4.593   2.229   1.096
 5779SOL    HW118236   4.515   2.199   1.042
 5779SOL    HW218237   4.569   2.310   1.149
 5780SOL     OW18238   6.202   6.245   3.906
 5780SOL    HW118239   6.261   6.256   3.826
 5780SOL    HW218240   6.192   6.148   3.928
 5781SOL     OW18241   6.962   5.127   4.401
 5781SOL    HW118242   7.016   5.152   4.482
 5781SOL    HW218243   6.942   5.030   4.403
 5782SOL     OW18244   1.762   1.508   0.897
 5782SOL    HW118245   1.745   1.605   0.910
 5782SOL    HW218246   1.756   1.485   0.800
 5783SOL     OW18247   1.017   0.924   1.379
 5783SOL    HW118248   1.117   0.925   1.382
 5783SOL    HW218249   0.982   0.862   1.450
 5784SOL     OW18250   0.036   6.192   5.637
 5784SOL    HW118251   0.080   6.264   5.583
 5784SOL    HW218252   7.000   6.234   5.706
 5785SOL     OW18253   2.384   2.117   6.957
 5785SOL    HW118254   2.479   2.149   6.957
 5785SOL    HW218255   2.338   2.145   0.018
 5786SOL     OW18256   0.589   4.546   0.388
 5786SOL    HW118257   0.676   4.541   0.437
 5786SOL    HW218258   0.565   4.642   0.373
 5787SOL     OW18259   3.113   1.840   4.495
 5787SOL    HW118260   3.077   1.855   4.587
 5787SOL    HW218261   3.039   1.846   4.428
 5788SOL     OW18262   2.956   1.543   1.299
 5788SOL    HW118263   3.020   1.544   1.222
 5788SOL    HW218264   2.881   1.480   1.278
 5789SOL     OW18265   3.101   4.587   0.200
 5789SOL    HW118266   3.128   4.605   0.106
 5789SOL    HW218267   3.092   4.488   0.213
 5790SOL     OW18268   1.529   4.074   5.249
 5790SOL    HW118269   1.453   4.022   5.211
 5790SOL    HW218270   1.536   4.057   5.347
 5791SOL     OW18271   3.733   1.822   2.272
 5791SOL    HW118272   3.654   1.864   2.227
 5791SOL    HW218273   3.802   1.799   2.203
 5792SOL     OW18274   5.845   3.404   2.251
 5792SOL    HW118275   5.854   3.495   2.209
 5792SOL    HW218276   5.819   3.415   2.346
 5793SOL     OW18277   5.089   1.179   3.838
 5793SOL    HW118278   5.053   1.095   3.880
 5793SOL    HW218279   5.023   1.253   3.851
 5794SOL     OW18280   2.525   1.523   0.471
 5794SOL    HW118281   2.443   1.553   0.422
 5794SOL    HW218282   2.555   1.595   0.533
 5795SOL     OW18283   6.492   0.162   6.919
 5795SOL    HW118284   6.422   0.234   6.917
 5795SOL    HW218285   6.466   0.089   6.856
 5796SOL     OW18286   4.511   1.362   6.585
 5796SOL    HW118287   4.541   1.390   6.494
 5796SOL    HW218288   4.450   1.432   6.622
 5797SOL     OW18289   4.701   2.826   6.071
 5797SOL    HW118290   4.728   2.737   6.034
 5797SOL    HW218291   4.777   2.891   6.060
 5798SOL     OW18292   0.672   4.731   5.435
 5798SOL    HW118293   0.758   4.764   5.398
 5798SOL    HW218294   0.600   4.797   5.417
 5799SOL     OW18295   0.644   0.554   3.047
 5799SOL    HW118296   0.628   0.466   3.092
 5799SOL    HW218297   0.719   0.546   2.983
 5800SOL     OW18298   6.046   6.510   2.105
 5800SOL    HW118299   6.026   6.564   2.187
 5800SOL    HW218300   6.119   6.555   2.053
 5801SOL     OW18301   2.089   2.397   3.543
 5801SOL    HW118302   2.150   2.358   3.612
 5801SOL    HW218303   2.004   2.345   3.540
 5802SOL     OW18304   1.056   4.136   2.549
 5802SOL    HW118305   1.024   4.055   2.598
 5802SOL    HW218306   1.154   4.129   2.530
 5803SOL     OW18307   2.289   4.737   2.547
 5803SOL    HW118308   2.324   4.830   2.534
 5803SOL    HW218309   2.358   4.681   2.592
 5804SOL     OW18310   0.529   5.390   4.033
 5804SOL    HW118311   0.508   5.424   3.942
 5804SOL    HW218312   0.458   5.326   4.063
 5805SOL     OW18313   3.001   3.462   6.906
 5805SOL    HW118314   3.023   3.438   7.000
 5805SOL    HW218315   3.085   3.483   6.856
 5806SOL     OW18316   0.228   5.819   4.815
 5806SOL    HW118317   0.277   5.859   4.893
 5806SOL    HW218318   0.132   5.849   4.818
 5807SOL     OW18319   0.690   4.026   2.285
 5807SOL    HW118320   0.689   3.930   2.312
 5807SOL    HW218321   0.736   4.036   2.196
 5808SOL     OW18322   5.729   5.655   5.054
 5808SOL    HW118323   5.684   5.741   5.077
 5808SOL    HW218324   5.679   5.609   4.980
 5809SOL     OW18325   5.276   1.682   4.221
 5809SOL    HW118326   5.342   1.695   4.295
 5809SOL    HW218327   5.196   1.739   4.238
 5810SOL     OW18328   3.707   1.821   4.833
 5810SOL    HW118329   3.744   1.814   4.925
 5810SOL    HW218330   3.610   1.844   4.838
 5811SOL     OW18331   2.913   0.915   5.071
 5811SOL    HW118332   2.894   0.823   5.104
 5811SOL    HW218333   2.988   0.955   5.123
 5812SOL     OW18334   6.644   2.783   3.974
 5812SOL    HW118335   6.619   2.774   4.071
 5812SOL    HW218336   6.742   2.771   3.963
 5813SOL     OW18337   2.065   2.063   0.627
 5813SOL    HW118338   2.107   1.986   0.579
 5813SOL    HW218339   2.019   2.029   0.709
 5814SOL     OW18340   6.610   4.579   1.239
 5814SOL    HW118341   6.647   4.565   1.331
 5814SOL    HW218342   6.585   4.675   1.227
 5815SOL     OW18343   3.938   1.997   4.173
 5815SOL    HW118344   3.842   2.021   4.187
 5815SOL    HW218345   3.992   2.081   4.163
 5816SOL     OW18346   4.286   5.485   0.066
 5816SOL    HW118347   4.281   5.534   7.002
 5816SOL    HW218348   4.262   5.389   0.052
 5817SOL     OW18349   5.555   3.265   5.965
 5817SOL    HW118350   5.465   3.308   5.975
 5817SOL    HW218351   5.544   3.168   5.946
 5818SOL     OW18352   6.371   6.193   4.940
 5818SOL    HW118353   6.324   6.187   4.852
 5818SOL    HW218354   6.433   6.271   4.940
 5819SOL     OW18355   3.672   6.669   6.989
 5819SOL    HW118356   3.673   6.693   0.064
 5819SOL    HW218357   3.712   6.578   6.977
 5820SOL     OW18358   3.917   5.373   3.759
 5820SOL    HW118359   3.839   5.312   3.746
 5820SOL    HW218360   3.892   5.466   3.729
 5821SOL     OW18361   0.269   6.879   1.335
 5821SOL    HW118362   0.341   6.948   1.332
 5821SOL    HW218363   0.202   6.899   1.263
 5822SOL     OW18364   1.300   2.180   1.727
 5822SOL    HW118365   1.264   2.271   1.745
 5822SOL    HW218366   1.400   2.185   1.717
 5823SOL     OW18367   1.780   1.009   5.696
 5823SOL    HW118368   1.840   1.054   5.630
 5823SOL    HW218369   1.742   1.076   5.759
 5824SOL     OW18370   6.435   5.456   2.272
 5824SOL    HW118371   6.519   5.488   2.315
 5824SOL    HW218372   6.444   5.463   2.172
 5825SOL     OW18373   1.506   1.547   5.864
 5825SOL    HW118374   1.506   1.553   5.764
 5825SOL    HW218375   1.599   1.559   5.898
 5826SOL     OW18376   6.854   4.877   5.255
 5826SOL    HW118377   6.870   4.786   5.217
 5826SOL    HW218378   6.770   4.876   5.310
 5827SOL     OW18379   2.108   4.361   4.949
 5827SOL    HW118380   2.023   4.330   4.992
 5827SOL    HW218381   2.144   4.288   4.890
 5828SOL     OW18382   6.460   1.932   1.170
 5828SOL    HW118383   6.508   2.016   1.142
 5828SOL    HW218384   6.477   1.861   1.102
 5829SOL     OW18385   1.583   0.982   3.440
 5829SOL    HW118386   1.646   1.056   3.419
 5829SOL    HW218387   1.489   1.011   3.419
 5830SOL     OW18388   5.262   6.622   5.422
 5830SOL    HW118389   5.345   6.623   5.479
 5830SOL    HW218390   5.212   6.708   5.436
 5831SOL     OW18391   0.746   0.831   5.471
 5831SOL    HW118392   0.827   0.815   5.415
 5831SOL    HW218393   0.773   0.855   5.564
 5832SOL     OW18394   3.063   4.519   6.834
 5832SOL    HW118395   3.033   4.603   6.787
 5832SOL    HW218396   3.112   4.461   6.769
 5833SOL     OW18397   3.282   3.602   4.546
 5833SOL    HW118398   3.313   3.630   4.637
 5833SOL    HW218399   3.346   3.534   4.509
 5834SOL     OW18400   0.305   3.290   6.875
 5834SOL    HW118401   0.359   3.371   6.851
 5834SOL    HW218402   0.228   3.318   6.933
 5835SOL     OW18403   5.077   3.019   4.091
 5835SOL    HW118404   5.176   3.020   4.079
 5835SOL    HW218405   5.032   3.032   4.003
 5836SOL     OW18406   2.817   6.560   2.525
 5836SOL    HW118407   2.854   6.467   2.520
 5836SOL    HW218408   2.772   6.582   2.439
 5837SOL     OW18409   3.968   4.305   6.183
 5837SOL    HW118410   4.037   4.336   6.248
 5837SOL    HW218411   3.878   4.337   6.212
 5838SOL     OW18412   3.189   2.527   0.173
 5838SOL    HW118413   3.212   2.581   0.254
 5838SOL    HW218414   3.268   2.472   0.145
 5839SOL     OW18415   0.716   1.616   2.306
 5839SOL    HW118416   0.719   1.713   2.282
 5839SOL    HW218417   0.801   1.571   2.278
 5840SOL     OW18418   0.716   5.454   6.531
 5840SOL    HW118419   0.701   5.515   6.609
 5840SOL    HW218420   0.809   5.466   6.496
 5841SOL     OW18421   5.272   2.167   2.661
 5841SOL    HW118422   5.305   2.231   2.592
 5841SOL    HW218423   5.323   2.081   2.653
 5842SOL     OW18424   4.565   3.112   1.522
 5842SOL    HW118425   4.524   3.183   1.465
 5842SOL    HW218426   4.657   3.092   1.489
 5843SOL     OW18427   1.742   4.099   3.205
 5843SOL    HW118428   1.835   4.096   3.166
 5843SOL    HW218429   1.704   4.007   3.207
 5844SOL     OW18430   1.998   6.485   6.197
 5844SOL    HW118431   1.942   6.503   6.277
 5844SOL    HW218432   2.053   6.566   6.176
 5845SOL     OW18433   0.369   0.846   1.945
 5845SOL    HW118434   0.426   0.925   1.922
 5845SOL    HW218435   0.275   0.876   1.960
 5846SOL     OW18436   0.233   2.372   4.321
 5846SOL    HW118437   0.249   2.469   4.342
 5846SOL    HW218438   0.185   2.364   4.233
 5847SOL     OW18439   2.541   2.336   1.833
 5847SOL    HW118440   2.584   2.424   1.814
 5847SOL    HW218441   2.558   2.272   1.758
 5848SOL     OW18442   2.306   5.658   3.400
 5848SOL    HW118443   2.264   5.668   3.310
 5848SOL    HW218444   2.392   5.608   3.391
 5849SOL     OW18445   0.186   6.978   6.347
 5849SOL    HW118446   0.092   6.950   6.367
 5849SOL    HW218447   0.197   0.053   6.365
 5850SOL     OW18448   6.864   2.514   1.910
 5850SOL    HW118449   6.869   2.551   1.817
 5850SOL    HW218450   6.780   2.545   1.954
 5851SOL     OW18451   4.994   3.924   3.267
 5851SOL    HW118452   4.915   3.959   3.217
 5851SOL    HW218453   4.965   3.852   3.330
 5852SOL     OW18454   6.714   5.938   3.161
 5852SOL    HW118455   6.653   5.965   3.086
 5852SOL    HW218456   6.699   5.999   3.239
 5853SOL     OW18457   3.708   6.034   4.278
 5853SOL    HW118458   3.799   6.073   4.295
 5853SOL    HW218459   3.678   6.061   4.187
 5854SOL     OW18460   5.389   4.958   5.851
 5854SOL    HW118461   5.406   5.020   5.928
 5854SOL    HW218462   5.440   4.873   5.864
 5855SOL     OW18463   0.253   1.294   4.984
 5855SOL    HW118464   0.287   1.204   4.958
 5855SOL    HW218465   0.163   1.308   4.943
 5856SOL     OW18466   1.741   5.805   3.631
 5856SOL    HW118467   1.695   5.881   3.676
 5856SOL    HW218468   1.840   5.815   3.640
 5857SOL     OW18469   6.580   1.987   5.988
 5857SOL    HW118470   6.612   1.892   5.983
 5857SOL    HW218471   6.604   2.034   5.903
 5858SOL     OW18472   2.470   2.055   2.326
 5858SOL    HW118473   2.467   2.096   2.235
 5858SOL    HW218474   2.392   2.088   2.380
 5859SOL     OW18475   5.829   6.439   1.589
 5859SOL    HW118476   5.741   6.464   1.628
 5859SOL    HW218477   5.879   6.522   1.563
 5860SOL     OW18478   1.322   4.104   2.145
 5860SOL    HW118479   1.389   4.104   2.220
 5860SOL    HW218480   1.314   4.197   2.109
 5861SOL     OW18481   4.634   1.756   4.577
 5861SOL    HW118482   4.653   1.722   4.485
 5861SOL    HW218483   4.566   1.696   4.621
 5862SOL     OW18484   5.472   5.108   1.530
 5862SOL    HW118485   5.383   5.084   1.568
 5862SOL    HW218486   5.461   5.142   1.437
 5863SOL     OW18487   2.995   1.523   4.904
 5863SOL    HW118488   3.007   1.601   4.843
 5863SOL    HW218489   2.964   1.555   4.993
 5864SOL     OW18490   3.979   3.656   1.991
 5864SOL    HW118491   3.988   3.561   1.960
 5864SOL    HW218492   3.952   3.656   2.088
 5865SOL     OW18493   5.994   0.630   5.315
 5865SOL    HW118494   5.970   0.727   5.311
 5865SOL    HW218495   6.067   0.616   5.382
 5866SOL     OW18496   3.921   4.324   0.685
 5866SOL    HW118497   3.876   4.278   0.608
 5866SOL    HW218498   3.933   4.421   0.663
 5867SOL     OW18499   1.151   3.661   0.818
 5867SOL    HW118500   1.234   3.636   0.867
 5867SOL    HW218501   1.086   3.585   0.821
 5868SOL     OW18502   0.854   1.524   5.437
 5868SOL    HW118503   0.808   1.611   5.422
 5868SOL    HW218504   0.788   1.449   5.426
 5869SOL     OW18505   1.965   6.382   3.896
 5869SOL    HW118506   1.951   6.330   3.812
 5869SOL    HW218507   1.876   6.404   3.937
 5870SOL     OW18508   5.277   6.042   4.848
 5870SOL    HW118509   5.185   6.008   4.865
 5870SOL    HW218510   5.287   6.067   4.751
 5871SOL     OW18511   3.798   2.769   1.247
 5871SOL    HW118512   3.761   2.707   1.178
 5871SOL    HW218513   3.723   2.814   1.295
 5872SOL     OW18514   3.903   6.129   1.412
 5872SOL    HW118515   3.916   6.031   1.392
 5872SOL    HW218516   3.843   6.139   1.491
 5873SOL     OW18517   2.893   1.815   1.333
 5873SOL    HW118518   2.902   1.716   1.342
 5873SOL    HW218519   2.828   1.849   1.401
 5874SOL     OW18520   2.672   3.988   0.023
 5874SOL    HW118521   2.600   3.946   0.079
 5874SOL    HW218522   2.651   4.085   0.009
 5875SOL     OW18523   4.482   0.833   6.377
 5875SOL    HW118524   4.560   0.811   6.320
 5875SOL    HW218525   4.456   0.752   6.430
 5876SOL     OW18526   3.237   3.519   0.785
 5876SOL    HW118527   3.284   3.528   0.698
 5876SOL    HW218528   3.167   3.448   0.778
 5877SOL     OW18529   0.523   0.507   0.901
 5877SOL    HW118530   0.451   0.565   0.939
 5877SOL    HW218531   0.510   0.497   0.803
 5878SOL     OW18532   5.820   5.190   4.115
 5878SOL    HW118533   5.785   5.201   4.207
 5878SOL    HW218534   5.906   5.139   4.117
 5879SOL     OW18535   1.213   3.527   6.925
 5879SOL    HW118536   1.150   3.481   6.862
 5879SOL    HW218537   1.167   3.603   6.969
 5880SOL     OW18538   5.241   4.435   6.629
 5880SOL    HW118539   5.324   4.484   6.601
 5880SOL    HW218540   5.227   4.356   6.571
 5881SOL     OW18541   1.289   0.025   1.859
 5881SOL    HW118542   1.300   6.991   1.940
 5881SOL    HW218543   1.196   0.014   1.823
 5882SOL     OW18544   0.998   6.124   6.081
 5882SOL    HW118545   1.068   6.103   6.149
 5882SOL    HW218546   0.957   6.213   6.103
 5883SOL     OW18547   0.771   1.247   6.877
 5883SOL    HW118548   0.724   1.170   6.920
 5883SOL    HW218549   0.705   1.304   6.827
 5884SOL     OW18550   4.476   0.812   4.414
 5884SOL    HW118551   4.502   0.890   4.357
 5884SOL    HW218552   4.556   0.780   4.464
 5885SOL     OW18553   0.405   5.630   2.718
 5885SOL    HW118554   0.467   5.626   2.640
 5885SOL    HW218555   0.444   5.579   2.795
 5886SOL     OW18556   0.977   1.960   3.970
 5886SOL    HW118557   0.904   2.014   3.928
 5886SOL    HW218558   1.015   2.011   4.048
 5887SOL     OW18559   2.436   2.059   1.433
 5887SOL    HW118560   2.363   1.994   1.410
 5887SOL    HW218561   2.484   2.086   1.350
 5888SOL     OW18562   2.210   6.909   1.050
 5888SOL    HW118563   2.180   6.979   0.985
 5888SOL    HW218564   2.177   6.933   1.141
 5889SOL     OW18565   6.717   1.842   6.381
 5889SOL    HW118566   6.675   1.752   6.385
 5889SOL    HW218567   6.798   1.844   6.439
 5890SOL     OW18568   2.661   0.267   2.723
 5890SOL    HW118569   2.625   0.192   2.778
 5890SOL    HW218570   2.712   0.230   2.645
 5891SOL     OW18571   2.491   3.886   0.348
 5891SOL    HW118572   2.481   3.787   0.335
 5891SOL    HW218573   2.570   3.904   0.406
 5892SOL     OW18574   0.742   5.436   1.969
 5892SOL    HW118575   0.762   5.517   1.915
 5892SOL    HW218576   0.711   5.463   2.060
 5893SOL     OW18577   2.180   4.115   1.955
 5893SOL    HW118578   2.131   4.060   2.023
 5893SOL    HW218579   2.258   4.063   1.921
 5894SOL     OW18580   0.717   6.247   4.852
 5894SOL    HW118581   0.666   6.218   4.772
 5894SOL    HW218582   0.655   6.260   4.929
 5895SOL     OW18583   5.798   3.684   3.576
 5895SOL    HW118584   5.714   3.698   3.630
 5895SOL    HW218585   5.785   3.604   3.517
 5896SOL     OW18586   4.818   1.665   1.368
 5896SOL    HW118587   4.882   1.634   1.438
 5896SOL    HW218588   4.770   1.586   1.329
 5897SOL     OW18589   3.803   1.018   1.467
 5897SOL    HW118590   3.799   1.089   1.537
 5897SOL    HW218591   3.717   1.018   1.415
 5898SOL     OW18592   2.400   0.455   4.668
 5898SOL    HW118593   2.409   0.494   4.759
 5898SOL    HW218594   2.362   0.523   4.605
 5899SOL     OW18595   6.063   6.120   6.883
 5899SOL    HW118596   6.022   6.092   6.970
 5899SOL    HW218597   6.151   6.165   6.901
 5900SOL     OW18598   6.804   4.720   3.050
 5900SOL    HW118599   6.879   4.735   2.986
 5900SOL    HW218600   6.716   4.737   3.004
 5901SOL     OW18601   3.241   0.516   1.124
 5901SOL    HW118602   3.195   0.587   1.071
 5901SOL    HW218603   3.337   0.542   1.138
 5902SOL     OW18604   5.934   3.333   5.792
 5902SOL    HW118605   5.980   3.422   5.791
 5902SOL    HW218606   5.959   3.284   5.875
 5903SOL     OW18607   4.445   4.049   6.457
 5903SOL    HW118608   4.444   4.053   6.357
 5903SOL    HW218609   4.357   4.013   6.489
 5904SOL     OW18610   0.666   4.310   1.253
 5904SOL    HW118611   0.568   4.308   1.233
 5904SOL    HW218612   0.703   4.400   1.230
 5905SOL     OW18613   6.788   0.259   3.190
 5905SOL    HW118614   6.795   0.332   3.123
 5905SOL    HW218615   6.880   0.225   3.211
 5906SOL     OW18616   4.605   1.612   4.244
 5906SOL    HW118617   4.569   1.581   4.156
 5906SOL    HW218618   4.574   1.706   4.261
 5907SOL     OW18619   1.099   6.564   0.783
 5907SOL    HW118620   1.142   6.655   0.785
 5907SOL    HW218621   1.143   6.505   0.850
 5908SOL     OW18622   6.343   4.162   0.144
 5908SOL    HW118623   6.403   4.232   0.183
 5908SOL    HW218624   6.384   4.072   0.157
 5909SOL     OW18625   6.395   5.168   6.128
 5909SOL    HW118626   6.415   5.166   6.030
 5909SOL    HW218627   6.296   5.172   6.142
 5910SOL     OW18628   0.365   4.433   1.543
 5910SOL    HW118629   0.352   4.485   1.627
 5910SOL    HW218630   0.424   4.354   1.562
 5911SOL     OW18631   6.611   5.265   6.499
 5911SOL    HW118632   6.666   5.259   6.582
 5911SOL    HW218633   6.514   5.253   6.522
 5912SOL     OW18634   6.162   2.975   6.955
 5912SOL    HW118635   6.083   2.951   7.012
 5912SOL    HW218636   6.130   3.015   6.869
 5913SOL     OW18637   3.316   3.059   6.363
 5913SOL    HW118638   3.308   3.145   6.313
 5913SOL    HW218639   3.358   2.990   6.304
 5914SOL     OW18640   3.005   5.754   6.124
 5914SOL    HW118641   2.950   5.691   6.070
 5914SOL    HW218642   3.069   5.703   6.182
 5915SOL     OW18643   5.865   4.379   1.798
 5915SOL    HW118644   5.776   4.334   1.781
 5915SOL    HW218645   5.857   4.476   1.777
 5916SOL     OW18646   4.466   6.064   5.540
 5916SOL    HW118647   4.469   5.974   5.495
 5916SOL    HW218648   4.412   6.127   5.484
 5917SOL     OW18649   3.831   3.608   3.858
 5917SOL    HW118650   3.923   3.646   3.851
 5917SOL    HW218651   3.831   3.530   3.921
 5918SOL     OW18652   2.108   3.569   5.449
 5918SOL    HW118653   2.162   3.512   5.388
 5918SOL    HW218654   2.122   3.665   5.424
 5919SOL     OW18655   4.000   2.572   0.969
 5919SOL    HW118656   3.997   2.562   0.869
 5919SOL    HW218657   3.959   2.491   1.011
 5920SOL     OW18658   3.611   0.059   0.441
 5920SOL    HW118659   3.532   0.016   0.397
 5920SOL    HW218660   3.602   0.159   0.437
 5921SOL     OW18661   3.414   5.367   5.850
 5921SOL    HW118662   3.437   5.285   5.797
 5921SOL    HW218663   3.498   5.415   5.875
 5922SOL     OW18664   6.928   5.474   3.444
 5922SOL    HW118665   6.833   5.485   3.415
 5922SOL    HW218666   6.947   5.535   3.521
 5923SOL     OW18667   5.224   0.060   0.935
 5923SOL    HW118668   5.223   0.018   0.844
 5923SOL    HW218669   5.134   0.101   0.953
 5924SOL     OW18670   6.617   1.988   4.799
 5924SOL    HW118671   6.683   1.927   4.755
 5924SOL    HW218672   6.644   2.003   4.895
 5925SOL     OW18673   4.514   5.378   2.910
 5925SOL    HW118674   4.438   5.400   2.971
 5925SOL    HW218675   4.566   5.461   2.891
 5926SOL     OW18676   4.141   4.905   1.902
 5926SOL    HW118677   4.096   4.866   1.822
 5926SOL    HW218678   4.216   4.847   1.931
 5927SOL     OW18679   1.519   4.230   3.261
 5927SOL    HW118680   1.609   4.195   3.236
 5927SOL    HW218681   1.458   4.154   3.284
 5928SOL     OW18682   3.270   0.356   1.353
 5928SOL    HW118683   3.314   0.389   1.437
 5928SOL    HW218684   3.306   0.406   1.275
 5929SOL     OW18685   0.684   6.367   5.971
 5929SOL    HW118686   0.681   6.394   6.067
 5929SOL    HW218687   0.706   6.270   5.963
 5930SOL     OW18688   7.013   2.248   3.385
 5930SOL    HW118689   0.065   2.282   3.329
 5930SOL    HW218690   6.964   2.176   3.336
 5931SOL     OW18691   6.183   5.568   3.252
 5931SOL    HW118692   6.257   5.573   3.319
 5931SOL    HW218693   6.098   5.600   3.294
 5932SOL     OW18694   2.475   6.790   1.036
 5932SOL    HW118695   2.462   6.730   0.957
 5932SOL    HW218696   2.404   6.860   1.037
 5933SOL     OW18697   0.571   5.776   3.134
 5933SOL    HW118698   0.497   5.836   3.161
 5933SOL    HW218699   0.614   5.736   3.215
 5934SOL     OW18700   3.788   3.798   4.194
 5934SOL    HW118701   3.755   3.863   4.125
 5934SOL    HW218702   3.821   3.849   4.274
 5935SOL     OW18703   4.111   3.450   5.437
 5935SOL    HW118704   4.070   3.525   5.490
 5935SOL    HW218705   4.041   3.407   5.381
 5936SOL     OW18706   4.216   3.698   0.571
 5936SOL    HW118707   4.289   3.753   0.613
 5936SOL    HW218708   4.141   3.688   0.637
 5937SOL     OW18709   0.921   4.687   2.747
 5937SOL    HW118710   0.938   4.786   2.744
 5937SOL    HW218711   0.857   4.662   2.675
 5938SOL     OW18712   1.218   5.529   3.990
 5938SOL    HW118713   1.270   5.450   4.021
 5938SOL    HW218714   1.218   5.530   3.890
 5939SOL     OW18715   3.343   0.057   3.166
 5939SOL    HW118716   3.346   6.983   3.141
 5939SOL    HW218717   3.351   0.066   3.265
 5940SOL     OW18718   4.270   5.277   1.360
 5940SOL    HW118719   4.274   5.363   1.411
 5940SOL    HW218720   4.271   5.296   1.262
 5941SOL     OW18721   6.285   3.243   1.662
 5941SOL    HW118722   6.272   3.325   1.718
 5941SOL    HW218723   6.381   3.236   1.634
 5942SOL     OW18724   4.544   2.938   7.010
 5942SOL    HW118725   4.599   2.866   0.030
 5942SOL    HW218726   4.454   2.941   0.031
 5943SOL     OW18727   3.240   5.233   0.790
 5943SOL    HW118728   3.187   5.316   0.807
 5943SOL    HW218729   3.337   5.251   0.808
 5944SOL     OW18730   5.909   2.363   1.295
 5944SOL    HW118731   5.932   2.459   1.314
 5944SOL    HW218732   5.991   2.313   1.269
 5945SOL     OW18733   6.254   5.327   5.325
 5945SOL    HW118734   6.325   5.284   5.268
 5945SOL    HW218735   6.257   5.426   5.311
 5946SOL     OW18736   3.143   3.335   5.912
 5946SOL    HW118737   3.070   3.267   5.910
 5946SOL    HW218738   3.187   3.339   5.822
 5947SOL     OW18739   4.051   3.275   2.362
 5947SOL    HW118740   4.047   3.311   2.455
 5947SOL    HW218741   4.128   3.315   2.314
 5948SOL     OW18742   4.151   5.071   3.518
 5948SOL    HW118743   4.177   5.120   3.601
 5948SOL    HW218744   4.223   5.007   3.493
 5949SOL     OW18745   3.855   3.237   1.751
 5949SOL    HW118746   3.850   3.181   1.833
 5949SOL    HW218747   3.946   3.227   1.709
 5950SOL     OW18748   5.187   2.808   5.422
 5950SOL    HW118749   5.095   2.788   5.388
 5950SOL    HW218750   5.212   2.741   5.492
 5951SOL     OW18751   0.105   5.598   4.633
 5951SOL    HW118752   0.070   5.512   4.670
 5951SOL    HW218753   0.135   5.657   4.708
 5952SOL     OW18754   5.510   5.200   4.086
 5952SOL    HW118755   5.556   5.253   4.157
 5952SOL    HW218756   5.574   5.137   4.043
 5953SOL     OW18757   6.646   2.924   5.199
 5953SOL    HW118758   6.556   2.891   5.226
 5953SOL    HW218759   6.640   3.020   5.172
 5954SOL     OW18760   7.015   4.267   5.850
 5954SOL    HW118761   7.005   4.297   5.756
 5954SOL    HW218762   6.998   4.344   5.912
 5955SOL     OW18763   4.917   5.513   2.775
 5955SOL    HW118764   4.957   5.602   2.799
 5955SOL    HW218765   4.911   5.505   2.676
 5956SOL     OW18766   3.526   1.056   5.918
 5956SOL    HW118767   3.615   1.054   5.871
 5956SOL    HW218768   3.538   1.028   6.013
 5957SOL     OW18769   4.245   0.660   6.007
 5957SOL    HW118770   4.288   0.649   5.918
 5957SOL    HW218771   4.256   0.575   6.060
 5958SOL     OW18772   6.207   6.098   2.553
 5958SOL    HW118773   6.185   6.036   2.478
 5958SOL    HW218774   6.303   6.124   2.547
 5959SOL     OW18775   3.822   2.046   5.757
 5959SOL    HW118776   3.890   1.972   5.758
 5959SOL    HW218777   3.853   2.121   5.815
 5960SOL     OW18778   4.384   6.254   4.870
 5960SOL    HW118779   4.382   6.160   4.904
 5960SOL    HW218780   4.307   6.269   4.808
 5961SOL     OW18781   5.021   1.571   3.365
 5961SOL    HW118782   5.025   1.472   3.352
 5961SOL    HW218783   5.069   1.616   3.290
 5962SOL     OW18784   4.512   5.576   1.413
 5962SOL    HW118785   4.445   5.515   1.456
 5962SOL    HW218786   4.464   5.648   1.363
 5963SOL     OW18787   3.352   2.861   4.991
 5963SOL    HW118788   3.285   2.812   4.936
 5963SOL    HW218789   3.311   2.945   5.027
 5964SOL     OW18790   0.255   5.317   5.449
 5964SOL    HW118791   0.315   5.271   5.384
 5964SOL    HW218792   0.160   5.299   5.425
 5965SOL     OW18793   1.307   2.625   0.014
 5965SOL    HW118794   1.254   2.558   0.067
 5965SOL    HW218795   1.256   2.710   0.006
 5966SOL     OW18796   2.304   6.168   4.855
 5966SOL    HW118797   2.216   6.128   4.883
 5966SOL    HW218798   2.354   6.197   4.936
 5967SOL     OW18799   4.034   6.047   0.633
 5967SOL    HW118800   4.092   6.120   0.669
 5967SOL    HW218801   4.090   5.983   0.581
 5968SOL     OW18802   4.799   1.075   1.859
 5968SOL    HW118803   4.731   1.141   1.826
 5968SOL    HW218804   4.766   0.982   1.843
 5969SOL     OW18805   6.633   0.741   6.390
 5969SOL    HW118806   6.537   0.731   6.365
 5969SOL    HW218807   6.669   0.652   6.418
 5970SOL     OW18808   0.857   3.831   2.592
 5970SOL    HW118809   0.888   3.822   2.687
 5970SOL    HW218810   0.768   3.786   2.582
 5971SOL     OW18811   1.772   1.571   3.259
 5971SOL    HW118812   1.730   1.483   3.238
 5971SOL    HW218813   1.703   1.633   3.295
 5972SOL     OW18814   5.702   6.598   6.977
 5972SOL    HW118815   5.653   6.596   6.890
 5972SOL    HW218816   5.765   6.521   6.983
 5973SOL     OW18817   1.586   3.760   2.484
 5973SOL    HW118818   1.652   3.787   2.414
 5973SOL    HW218819   1.497   3.744   2.442
 5974SOL     OW18820   5.467   4.578   6.582
 5974SOL    HW118821   5.526   4.521   6.525
 5974SOL    HW218822   5.523   4.646   6.629
 5975SOL     OW18823   3.431   1.942   0.867
 5975SOL    HW118824   3.490   1.878   0.818
 5975SOL    HW218825   3.450   2.035   0.835
 5976SOL     OW18826   3.231   3.779   5.037
 5976SOL    HW118827   3.267   3.731   5.117
 5976SOL    HW218828   3.132   3.763   5.031
 5977SOL     OW18829   2.196   4.595   1.110
 5977SOL    HW118830   2.189   4.658   1.032
 5977SOL    HW218831   2.106   4.582   1.151
 5978SOL     OW18832   4.896   6.014   3.383
 5978SOL    HW118833   4.940   5.930   3.416
 5978SOL    HW218834   4.959   6.065   3.326
 5979SOL     OW18835   6.170   6.964   2.761
 5979SOL    HW118836   6.219   0.010   2.706
 5979SOL    HW218837   6.076   6.956   2.727
 5980SOL     OW18838   3.957   3.510   0.423
 5980SOL    HW118839   4.005   3.471   0.344
 5980SOL    HW218840   3.941   3.608   0.406
 5981SOL     OW18841   6.240   0.840   2.350
 5981SOL    HW118842   6.338   0.846   2.367
 5981SOL    HW218843   6.204   0.930   2.327
 5982SOL     OW18844   6.538   2.861   1.016
 5982SOL    HW118845   6.573   2.898   1.103
 5982SOL    HW218846   6.478   2.928   0.973
 5983SOL     OW18847   1.234   1.089   4.475
 5983SOL    HW118848   1.233   1.078   4.574
 5983SOL    HW218849   1.317   1.139   4.448
 5984SOL     OW18850   6.430   6.867   5.336
 5984SOL    HW118851   6.373   6.787   5.351
 5984SOL    HW218852   6.516   6.839   5.292
 5985SOL     OW18853   6.331   3.466   4.148
 5985SOL    HW118854   6.395   3.542   4.159
 5985SOL    HW218855   6.379   3.387   4.109
 5986SOL     OW18856   3.405   3.304   4.517
 5986SOL    HW118857   3.361   3.249   4.446
 5986SOL    HW218858   3.399   3.256   4.605
 5987SOL     OW18859   4.733   0.746   5.194
 5987SOL    HW118860   4.752   0.839   5.226
 5987SOL    HW218861   4.762   0.737   5.099
 5988SOL     OW18862   4.744   6.689   5.468
 5988SOL    HW118863   4.676   6.615   5.476
 5988SOL    HW218864   4.805   6.670   5.392
 5989SOL     OW18865   2.939   5.828   0.602
 5989SOL    HW118866   2.983   5.739   0.613
 5989SOL    HW218867   3.003   5.901   0.625
 5990SOL     OW18868   3.914   4.600   0.675
 5990SOL    HW118869   3.829   4.643   0.705
 5990SOL    HW218870   3.945   4.643   0.590
 5991SOL     OW18871   3.906   5.287   5.879
 5991SOL    HW118872   3.991   5.330   5.910
 5991SOL    HW218873   3.831   5.353   5.883
 5992SOL     OW18874   3.088   0.789   3.465
 5992SOL    HW118875   3.038   0.704   3.483
 5992SOL    HW218876   3.106   0.796   3.367
 5993SOL     OW18877   3.381   6.164   5.641
 5993SOL    HW118878   3.367   6.187   5.738
 5993SOL    HW218879   3.477   6.181   5.617
 5994SOL     OW18880   6.420   2.205   1.922
 5994SOL    HW118881   6.456   2.215   2.015
 5994SOL    HW218882   6.495   2.192   1.858
 5995SOL     OW18883   5.821   4.970   2.591
 5995SOL    HW118884   5.910   4.997   2.553
 5995SOL    HW218885   5.803   4.874   2.570
 5996SOL     OW18886   1.149   6.149   0.617
 5996SOL    HW118887   1.186   6.071   0.568
 5996SOL    HW218888   1.052   6.160   0.595
 5997SOL     OW18889   1.036   6.107   2.733
 5997SOL    HW118890   0.939   6.105   2.755
 5997SOL    HW218891   1.089   6.095   2.817
 5998SOL     OW18892   6.225   2.099   1.671
 5998SOL    HW118893   6.241   2.050   1.757
 5998SOL    HW218894   6.301   2.084   1.609
 5999SOL     OW18895   1.854   1.557   2.541
 5999SOL    HW118896   1.945   1.527   2.567
 5999SOL    HW218897   1.787   1.518   2.604
 6000SOL     OW18898   3.943   6.720   2.002
 6000SOL    HW118899   3.857   6.694   1.959
 6000SOL    HW218900   3.957   6.819   1.990
 6001SOL     OW18901   0.197   3.976   6.196
 6001SOL    HW118902   0.140   3.904   6.235
 6001SOL    HW218903   0.232   3.947   6.107
 6002SOL     OW18904   6.699   0.480   0.841
 6002SOL    HW118905   6.636   0.450   0.913
 6002SOL    HW218906   6.789   0.499   0.882
 6003SOL     OW18907   0.207   1.861   4.188
 6003SOL    HW118908   0.137   1.824   4.126
 6003SOL    HW218909   0.172   1.863   4.281
 6004SOL     OW18910   0.246   4.625   3.021
 6004SOL    HW118911   0.196   4.539   3.036
 6004SOL    HW218912   0.222   4.689   3.094
 6005SOL     OW18913   4.893   5.457   4.779
 6005SOL    HW118914   4.801   5.489   4.802
 6005SOL    HW218915   4.917   5.379   4.836
 6006SOL     OW18916   2.393   0.643   6.725
 6006SOL    HW118917   2.434   0.716   6.779
 6006SOL    HW218918   2.457   0.565   6.722
 6007SOL     OW18919   4.906   3.799   4.827
 6007SOL    HW118920   4.950   3.846   4.904
 6007SOL    HW218921   4.871   3.711   4.857
 6008SOL     OW18922   2.147   5.156   5.626
 6008SOL    HW118923   2.232   5.159   5.573
 6008SOL    HW218924   2.080   5.100   5.577
 6009SOL     OW18925   4.223   1.002   4.922
 6009SOL    HW118926   4.192   0.989   5.016
 6009SOL    HW218927   4.308   0.951   4.908
 6010SOL     OW18928   1.302   3.805   3.479
 6010SOL    HW118929   1.247   3.727   3.448
 6010SOL    HW218930   1.286   3.820   3.576
 6011SOL     OW18931   4.702   2.731   3.023
 6011SOL    HW118932   4.639   2.710   3.098
 6011SOL    HW218933   4.790   2.688   3.042
 6012SOL     OW18934   5.750   1.181   0.222
 6012SOL    HW118935   5.836   1.129   0.217
 6012SOL    HW218936   5.681   1.136   0.165
 6013SOL     OW18937   5.866   2.534   2.659
 6013SOL    HW118938   5.944   2.585   2.621
 6013SOL    HW218939   5.834   2.467   2.592
 6014SOL     OW18940   4.409   2.569   0.570
 6014SOL    HW118941   4.492   2.590   0.623
 6014SOL    HW218942   4.365   2.488   0.609
 6015SOL     OW18943   5.536   2.219   5.166
 6015SOL    HW118944   5.526   2.127   5.204
 6015SOL    HW218945   5.585   2.214   5.079
 6016SOL     OW18946   0.128   1.622   6.368
 6016SOL    HW118947   0.174   1.666   6.445
 6016SOL    HW218948   0.138   1.523   6.376
 6017SOL     OW18949   0.011   4.738   2.910
 6017SOL    HW118950   0.100   4.706   2.942
 6017SOL    HW218951   0.023   4.816   2.849
 6018SOL     OW18952   3.583   1.155   6.887
 6018SOL    HW118953   3.593   1.070   6.835
 6018SOL    HW218954   3.495   1.197   6.867
 6019SOL     OW18955   6.448   1.968   4.197
 6019SOL    HW118956   6.369   2.029   4.197
 6019SOL    HW218957   6.427   1.886   4.145
 6020SOL     OW18958   2.373   5.152   1.752
 6020SOL    HW118959   2.346   5.216   1.824
 6020SOL    HW218960   2.376   5.200   1.664
 6021SOL     OW18961   3.963   1.020   2.559
 6021SOL    HW118962   3.899   1.097   2.557
 6021SOL    HW218963   3.963   0.974   2.470
 6022SOL     OW18964   4.606   1.639   4.999
 6022SOL    HW118965   4.590   1.542   5.018
 6022SOL    HW218966   4.683   1.648   4.936
 6023SOL     OW18967   5.800   1.144   2.097
 6023SOL    HW118968   5.868   1.218   2.102
 6023SOL    HW218969   5.783   1.122   2.001
 6024SOL     OW18970   0.435   4.442   3.339
 6024SOL    HW118971   0.496   4.432   3.260
 6024SOL    HW218972   0.473   4.509   3.402
 6025SOL     OW18973   3.733   1.492   2.391
 6025SOL    HW118974   3.675   1.553   2.445
 6025SOL    HW218975   3.828   1.504   2.419
 6026SOL     OW18976   0.062   4.379   4.365
 6026SOL    HW118977   0.105   4.431   4.439
 6026SOL    HW218978   0.042   4.441   4.289
 6027SOL     OW18979   1.361   3.737   6.024
 6027SOL    HW118980   1.281   3.797   6.030
 6027SOL    HW218981   1.332   3.641   6.030
 6028SOL     OW18982   0.854   4.301   0.183
 6028SOL    HW118983   0.792   4.362   0.135
 6028SOL    HW218984   0.912   4.253   0.117
 6029SOL     OW18985   1.869   6.496   5.202
 6029SOL    HW118986   1.835   6.410   5.165
 6029SOL    HW218987   1.871   6.565   5.129
 6030SOL     OW18988   4.060   6.412   3.136
 6030SOL    HW118989   4.107   6.448   3.055
 6030SOL    HW218990   4.128   6.391   3.206
 6031SOL     OW18991   3.547   4.933   3.239
 6031SOL    HW118992   3.620   4.888   3.291
 6031SOL    HW218993   3.478   4.968   3.302
 6032SOL     OW18994   2.221   4.012   3.119
 6032SOL    HW118995   2.135   4.059   3.095
 6032SOL    HW218996   2.200   3.926   3.164
 6033SOL     OW18997   3.038   1.699   2.029
 6033SOL    HW118998   3.083   1.615   2.061
 6033SOL    HW218999   2.939   1.685   2.028
 6034SOL     OW19000   1.540   5.776   4.656
 6034SOL    HW119001   1.515   5.807   4.747
 6034SOL    HW219002   1.465   5.795   4.592
 6035SOL     OW19003   0.162   0.701   2.706
 6035SOL    HW119004   0.170   0.602   2.703
 6035SOL    HW219005   0.074   0.729   2.666
 6036SOL     OW19006   6.486   6.211   4.174
 6036SOL    HW119007   6.386   6.218   4.183
 6036SOL    HW219008   6.524   6.171   4.257
 6037SOL     OW19009   4.185   4.920   5.948
 6037SOL    HW119010   4.218   5.008   5.980
 6037SOL    HW219011   4.128   4.933   5.867
 6038SOL     OW19012   1.451   2.950   6.327
 6038SOL    HW119013   1.396   2.897   6.392
 6038SOL    HW219014   1.542   2.963   6.365
 6039SOL     OW19015   3.210   2.975   2.601
 6039SOL    HW119016   3.248   2.912   2.533
 6039SOL    HW219017   3.251   2.956   2.690
 6040SOL     OW19018   0.505   2.059   6.415
 6040SOL    HW119019   0.439   2.130   6.390
 6040SOL    HW219020   0.468   2.005   6.491
 6041SOL     OW19021   2.187   0.385   4.990
 6041SOL    HW119022   2.236   0.409   5.074
 6041SOL    HW219023   2.200   0.287   4.971
 6042SOL     OW19024   5.053   5.865   2.465
 6042SOL    HW119025   5.068   5.949   2.414
 6042SOL    HW219026   4.978   5.813   2.423
 6043SOL     OW19027   0.907   4.440   5.263
 6043SOL    HW119028   0.989   4.483   5.300
 6043SOL    HW219029   0.899   4.347   5.298
 6044SOL     OW19030   1.670   2.325   1.220
 6044SOL    HW119031   1.739   2.336   1.149
 6044SOL    HW219032   1.715   2.315   1.309
 6045SOL     OW19033   6.173   5.095   1.124
 6045SOL    HW119034   6.208   5.026   1.188
 6045SOL    HW219035   6.205   5.074   1.032
 6046SOL     OW19036   3.267   2.046   0.201
 6046SOL    HW119037   3.233   2.139   0.181
 6046SOL    HW219038   3.331   2.018   0.130
 6047SOL     OW19039   6.091   2.119   2.234
 6047SOL    HW119040   6.093   2.033   2.183
 6047SOL    HW219041   6.079   2.195   2.170
 6048SOL     OW19042   4.451   6.447   3.666
 6048SOL    HW119043   4.458   6.538   3.707
 6048SOL    HW219044   4.521   6.437   3.595
 6049SOL     OW19045   6.111   3.563   5.788
 6049SOL    HW119046   6.082   3.640   5.845
 6049SOL    HW219047   6.093   3.583   5.692
 6050SOL     OW19048   2.967   4.931   5.297
 6050SOL    HW119049   3.013   5.003   5.244
 6050SOL    HW219050   2.871   4.925   5.269
 6051SOL     OW19051   1.886   1.748   4.405
 6051SOL    HW119052   1.982   1.741   4.379
 6051SOL    HW219053   1.866   1.842   4.432
 6052SOL     OW19054   6.364   6.321   0.500
 6052SOL    HW119055   6.377   6.394   0.433
 6052SOL    HW219056   6.266   6.311   0.520
 6053SOL     OW19057   2.957   0.814   6.179
 6053SOL    HW119058   2.965   0.750   6.103
 6053SOL    HW219059   2.966   0.908   6.145
 6054SOL     OW19060   2.628   3.709   0.622
 6054SOL    HW119061   2.673   3.797   0.610
 6054SOL    HW219062   2.553   3.719   0.688
 6055SOL     OW19063   5.278   1.493   5.892
 6055SOL    HW119064   5.372   1.491   5.927
 6055SOL    HW219065   5.214   1.505   5.968
 6056SOL     OW19066   5.275   3.071   4.696
 6056SOL    HW119067   5.288   3.110   4.787
 6056SOL    HW219068   5.179   3.081   4.669
 6057SOL     OW19069   5.347   2.894   4.509
 6057SOL    HW119070   5.351   2.802   4.549
 6057SOL    HW219071   5.320   2.960   4.579
 6058SOL     OW19072   5.037   2.780   1.982
 6058SOL    HW119073   5.096   2.725   2.042
 6058SOL    HW219074   5.048   2.877   2.004
 6059SOL     OW19075   4.637   5.522   4.843
 6059SOL    HW119076   4.590   5.435   4.852
 6059SOL    HW219077   4.593   5.590   4.902
 6060SOL     OW19078   3.039   4.175   6.567
 6060SOL    HW119079   3.099   4.254   6.578
 6060SOL    HW219080   2.943   4.204   6.570
 6061SOL     OW19081   4.237   1.707   1.179
 6061SOL    HW119082   4.296   1.692   1.099
 6061SOL    HW219083   4.292   1.745   1.253
 6062SOL     OW19084   1.568   1.272   4.875
 6062SOL    HW119085   1.599   1.191   4.925
 6062SOL    HW219086   1.633   1.347   4.890
 6063SOL     OW19087   3.453   1.461   6.574
 6063SOL    HW119088   3.452   1.362   6.583
 6063SOL    HW219089   3.444   1.503   6.665
 6064SOL     OW19090   2.492   5.952   1.955
 6064SOL    HW119091   2.563   5.882   1.952
 6064SOL    HW219092   2.402   5.910   1.940
 6065SOL     OW19093   5.671   6.810   1.788
 6065SOL    HW119094   5.639   6.743   1.721
 6065SOL    HW219095   5.730   6.877   1.744
 6066SOL     OW19096   4.473   1.904   6.570
 6066SOL    HW119097   4.561   1.878   6.530
 6066SOL    HW219098   4.490   1.965   6.648
 6067SOL     OW19099   5.345   1.713   6.195
 6067SOL    HW119100   5.393   1.714   6.107
 6067SOL    HW219101   5.411   1.697   6.268
 6068SOL     OW19102   5.797   2.477   4.467
 6068SOL    HW119103   5.782   2.503   4.562
 6068SOL    HW219104   5.716   2.499   4.413
 6069SOL     OW19105   0.127   3.455   5.087
 6069SOL    HW119106   0.225   3.469   5.072
 6069SOL    HW219107   0.076   3.529   5.043
 6070SOL     OW19108   2.633   1.825   6.233
 6070SOL    HW119109   2.556   1.862   6.285
 6070SOL    HW219110   2.609   1.820   6.136
 6071SOL     OW19111   5.536   5.012   4.529
 6071SOL    HW119112   5.596   5.067   4.587
 6071SOL    HW219113   5.534   4.918   4.562
 6072SOL     OW19114   0.087   0.239   2.499
 6072SOL    HW119115   0.006   0.280   2.458
 6072SOL    HW219116   0.067   0.144   2.525
 6073SOL     OW19117   6.129   4.286   0.276
 6073SOL    HW119118   6.193   4.218   0.238
 6073SOL    HW219119   6.157   4.377   0.247
 6074SOL     OW19120   0.877   6.675   4.351
 6074SOL    HW119121   0.885   6.708   4.445
 6074SOL    HW219122   0.809   6.729   4.302
 6075SOL     OW19123   6.851   1.969   7.008
 6075SOL    HW119124   6.805   1.896   0.036
 6075SOL    HW219125   6.793   1.998   6.932
 6076SOL     OW19126   2.534   5.803   4.428
 6076SOL    HW119127   2.549   5.900   4.411
 6076SOL    HW219128   2.442   5.790   4.465
 6077SOL     OW19129   4.670   5.867   2.260
 6077SOL    HW119130   4.728   5.931   2.210
 6077SOL    HW219131   4.595   5.836   2.201
 6078SOL     OW19132   3.927   4.632   1.650
 6078SOL    HW119133   3.962   4.544   1.683
 6078SOL    HW219134   3.829   4.625   1.634
 6079SOL     OW19135   3.405   2.866   6.179
 6079SOL    HW119136   3.379   2.883   6.084
 6079SOL    HW219137   3.343   2.799   6.219
 6080SOL     OW19138   6.625   0.869   1.611
 6080SOL    HW119139   6.598   0.861   1.515
 6080SOL    HW219140   6.611   0.963   1.642
 6081SOL     OW19141   6.191   3.192   4.988
 6081SOL    HW119142   6.257   3.116   4.986
 6081SOL    HW219143   6.240   3.278   4.972
 6082SOL     OW19144   2.742   1.828   3.017
 6082SOL    HW119145   2.758   1.812   3.114
 6082SOL    HW219146   2.829   1.830   2.968
 6083SOL     OW19147   0.570   5.255   6.435
 6083SOL    HW119148   0.616   5.333   6.478
 6083SOL    HW219149   0.635   5.204   6.379
 6084SOL     OW19150   0.043   5.390   3.814
 6084SOL    HW119151   6.971   5.411   3.790
 6084SOL    HW219152   0.062   5.294   3.793
 6085SOL     OW19153   0.464   4.288   0.201
 6085SOL    HW119154   0.403   4.229   0.253
 6085SOL    HW219155   0.554   4.291   0.245
 6086SOL     OW19156   2.914   1.305   5.226
 6086SOL    HW119157   2.988   1.247   5.260
 6086SOL    HW219158   2.846   1.248   5.179
 6087SOL     OW19159   4.065   5.416   0.214
 6087SOL    HW119160   4.138   5.470   0.171
 6087SOL    HW219161   3.993   5.399   0.147
 6088SOL     OW19162   6.066   6.581   4.717
 6088SOL    HW119163   6.062   6.484   4.694
 6088SOL    HW219164   6.149   6.621   4.678
 6089SOL     OW19165   0.010   3.243   1.329
 6089SOL    HW119166   6.933   3.245   1.326
 6089SOL    HW219167   0.043   3.310   1.396
 6090SOL     OW19168   1.989   6.470   5.753
 6090SOL    HW119169   1.910   6.530   5.763
 6090SOL    HW219170   2.019   6.439   5.843
 6091SOL     OW19171   2.024   1.826   1.950
 6091SOL    HW119172   1.972   1.910   1.964
 6091SOL    HW219173   2.122   1.847   1.952
 6092SOL     OW19174   2.856   0.642   3.273
 6092SOL    HW119175   2.857   0.741   3.258
 6092SOL    HW219176   2.807   0.622   3.357
 6093SOL     OW19177   0.855   2.809   2.548
 6093SOL    HW119178   0.852   2.906   2.525
 6093SOL    HW219179   0.874   2.756   2.466
 6094SOL     OW19180   4.137   0.886   1.423
 6094SOL    HW119181   4.188   0.916   1.504
 6094SOL    HW219182   4.061   0.828   1.451
 6095SOL     OW19183   4.618   3.454   6.839
 6095SOL    HW119184   4.674   3.535   6.820
 6095SOL    HW219185   4.567   3.468   6.924
 6096SOL     OW19186   5.876   0.363   4.011
 6096SOL    HW119187   5.958   0.407   3.973
 6096SOL    HW219188   5.879   0.369   4.111
 6097SOL     OW19189   1.876   0.274   2.234
 6097SOL    HW119190   1.901   0.352   2.177
 6097SOL    HW219191   1.948   0.259   2.302
 6098SOL     OW19192   1.561   2.202   6.816
 6098SOL    HW119193   1.639   2.251   6.778
 6098SOL    HW219194   1.505   2.264   6.871
 6099SOL     OW19195   0.065   6.046   0.636
 6099SOL    HW119196   0.044   6.028   0.540
 6099SOL    HW219197   0.158   6.014   0.656
 6100SOL     OW19198   4.755   3.549   0.284
 6100SOL    HW119199   4.777   3.453   0.270
 6100SOL    HW219200   4.679   3.558   0.348
 6101SOL     OW19201   6.396   1.921   5.098
 6101SOL    HW119202   6.428   1.959   5.185
 6101SOL    HW219203   6.362   1.995   5.040
 6102SOL     OW19204   3.596   0.479   4.058
 6102SOL    HW119205   3.558   0.432   3.978
 6102SOL    HW219206   3.650   0.557   4.029
 6103SOL     OW19207   0.583   2.138   2.328
 6103SOL    HW119208   0.609   2.173   2.418
 6103SOL    HW219209   0.494   2.176   2.303
 6104SOL     OW19210   6.129   2.015   5.869
 6104SOL    HW119211   6.108   2.010   5.967
 6104SOL    HW219212   6.177   2.100   5.850
 6105SOL     OW19213   2.091   0.536   5.641
 6105SOL    HW119214   2.160   0.504   5.577
 6105SOL    HW219215   2.090   0.636   5.643
 6106SOL     OW19216   1.475   3.980   5.943
 6106SOL    HW119217   1.396   4.035   5.917
 6106SOL    HW219218   1.446   3.890   5.973
 6107SOL     OW19219   2.481   4.544   4.353
 6107SOL    HW119220   2.440   4.453   4.348
 6107SOL    HW219221   2.580   4.536   4.364
 6108SOL     OW19222   0.655   2.828   2.252
 6108SOL    HW119223   0.685   2.915   2.212
 6108SOL    HW219224   0.627   2.765   2.179
 6109SOL     OW19225   4.947   2.958   6.090
 6109SOL    HW119226   4.978   3.036   6.143
 6109SOL    HW219227   5.001   2.951   6.006
 6110SOL     OW19228   3.696   2.564   0.029
 6110SOL    HW119229   3.615   2.604   0.071
 6110SOL    HW219230   3.770   2.631   0.028
 6111SOL     OW19231   2.055   4.215   2.238
 6111SOL    HW119232   2.129   4.164   2.194
 6111SOL    HW219233   2.071   4.218   2.337
 6112SOL     OW19234   3.441   0.373   3.853
 6112SOL    HW119235   3.470   0.321   3.773
 6112SOL    HW219236   3.356   0.422   3.832
 6113SOL     OW19237   0.790   1.040   5.933
 6113SOL    HW119238   0.823   1.004   6.020
 6113SOL    HW219239   0.695   1.071   5.944
 6114SOL     OW19240   5.029   4.866   0.929
 6114SOL    HW119241   5.113   4.918   0.915
 6114SOL    HW219242   4.997   4.878   1.023
 6115SOL     OW19243   5.572   6.582   3.099
 6115SOL    HW119244   5.631   6.660   3.083
 6115SOL    HW219245   5.559   6.569   3.197
 6116SOL     OW19246   2.606   1.240   0.484
 6116SOL    HW119247   2.606   1.337   0.508
 6116SOL    HW219248   2.693   1.217   0.440
 6117SOL     OW19249   6.565   0.680   6.089
 6117SOL    HW119250   6.474   0.706   6.121
 6117SOL    HW219251   6.590   0.737   6.010
 6118SOL     OW19252   6.902   0.430   1.232
 6118SOL    HW119253   6.833   0.411   1.303
 6118SOL    HW219254   6.970   0.356   1.232
 6119SOL     OW19255   0.740   3.656   4.845
 6119SOL    HW119256   0.823   3.635   4.793
 6119SOL    HW219257   0.764   3.673   4.941
 6120SOL     OW19258   4.338   0.089   3.651
 6120SOL    HW119259   4.257   0.040   3.619
 6120SOL    HW219260   4.314   0.184   3.672
 6121SOL     OW19261   0.126   3.254   4.667
 6121SOL    HW119262   0.058   3.230   4.736
 6121SOL    HW219263   0.194   3.182   4.660
 6122SOL     OW19264   3.604   6.646   1.637
 6122SOL    HW119265   3.598   6.746   1.641
 6122SOL    HW219266   3.694   6.619   1.604
 6123SOL     OW19267   6.939   0.287   6.490
 6123SOL    HW119268   7.013   0.266   6.555
 6123SOL    HW219269   6.855   0.241   6.520
 6124SOL     OW19270   2.492   1.028   6.544
 6124SOL    HW119271   2.444   1.107   6.582
 6124SOL    HW219272   2.573   1.008   6.600
 6125SOL     OW19273   3.036   5.647   0.304
 6125SOL    HW119274   3.086   5.640   0.218
 6125SOL    HW219275   3.099   5.671   0.378
 6126SOL     OW19276   6.780   6.670   4.152
 6126SOL    HW119277   6.757   6.575   4.173
 6126SOL    HW219278   6.720   6.704   4.080
 6127SOL     OW19279   2.821   0.186   2.500
 6127SOL    HW119280   2.846   0.253   2.430
 6127SOL    HW219281   2.901   0.130   2.522
 6128SOL     OW19282   6.191   3.593   0.445
 6128SOL    HW119283   6.181   3.507   0.494
 6128SOL    HW219284   6.121   3.599   0.374
 6129SOL     OW19285   6.177   4.050   3.227
 6129SOL    HW119286   6.131   4.138   3.242
 6129SOL    HW219287   6.232   4.027   3.307
 6130SOL     OW19288   6.190   2.112   4.144
 6130SOL    HW119289   6.180   2.187   4.209
 6130SOL    HW219290   6.157   2.027   4.186
 6131SOL     OW19291   6.538   1.549   5.244
 6131SOL    HW119292   6.601   1.471   5.251
 6131SOL    HW219293   6.470   1.530   5.173
 6132SOL     OW19294   5.099   1.341   0.474
 6132SOL    HW119295   5.198   1.326   0.466
 6132SOL    HW219296   5.083   1.422   0.531
 6133SOL     OW19297   0.900   2.306   2.525
 6133SOL    HW119298   0.926   2.210   2.525
 6133SOL    HW219299   0.963   2.357   2.584
 6134SOL     OW19300   3.877   4.504   6.935
 6134SOL    HW119301   3.940   4.447   6.988
 6134SOL    HW219302   3.926   4.545   6.858
 6135SOL     OW19303   0.536   6.986   1.654
 6135SOL    HW119304   0.472   7.009   1.727
 6135SOL    HW219305   0.514   0.017   1.573
 6136SOL     OW19306   1.091   2.775   1.729
 6136SOL    HW119307   1.142   2.694   1.701
 6136SOL    HW219308   1.101   2.788   1.828
 6137SOL     OW19309   5.475   1.948   4.257
 6137SOL    HW119310   5.500   2.044   4.273
 6137SOL    HW219311   5.538   1.888   4.306
 6138SOL     OW19312   4.342   6.122   2.206
 6138SOL    HW119313   4.385   6.119   2.296
 6138SOL    HW219314   4.363   6.209   2.162
 6139SOL     OW19315   1.941   2.459   5.225
 6139SOL    HW119316   1.958   2.553   5.255
 6139SOL    HW219317   1.871   2.417   5.282
 6140SOL     OW19318   0.119   6.113   2.115
 6140SOL    HW119319   0.103   6.031   2.059
 6140SOL    HW219320   0.140   6.190   2.055
 6141SOL     OW19321   5.858   5.815   6.089
 6141SOL    HW119322   5.874   5.863   6.176
 6141SOL    HW219323   5.793   5.866   6.034
 6142SOL     OW19324   6.800   5.169   0.938
 6142SOL    HW119325   6.717   5.192   0.887
 6142SOL    HW219326   6.826   5.075   0.918
 6143SOL     OW19327   6.466   5.151   0.320
 6143SOL    HW119328   6.395   5.217   0.343
 6143SOL    HW219329   6.467   5.078   0.389
 6144SOL     OW19330   5.953   4.816   2.336
 6144SOL    HW119331   5.923   4.912   2.339
 6144SOL    HW219332   5.876   4.757   2.361
 6145SOL     OW19333   4.796   5.532   4.166
 6145SOL    HW119334   4.876   5.589   4.151
 6145SOL    HW219335   4.715   5.590   4.172
 6146SOL     OW19336   3.703   1.183   3.468
 6146SOL    HW119337   3.641   1.205   3.392
 6146SOL    HW219338   3.740   1.091   3.455
 6147SOL     OW19339   1.328   3.872   3.812
 6147SOL    HW119340   1.266   3.911   3.880
 6147SOL    HW219341   1.395   3.941   3.785
 6148SOL     OW19342   0.042   0.182   4.825
 6148SOL    HW119343   0.009   0.272   4.856
 6148SOL    HW219344   7.021   0.160   4.738
 6149SOL     OW19345   3.730   5.331   2.312
 6149SOL    HW119346   3.643   5.329   2.362
 6149SOL    HW219347   3.788   5.404   2.349
 6150SOL     OW19348   3.644   4.448   6.520
 6150SOL    HW119349   3.551   4.477   6.539
 6150SOL    HW219350   3.679   4.394   6.597
 6151SOL     OW19351   6.214   3.891   5.186
 6151SOL    HW119352   6.261   3.808   5.158
 6151SOL    HW219353   6.261   3.971   5.147
 6152SOL     OW19354   5.979   5.698   5.483
 6152SOL    HW119355   5.917   5.664   5.412
 6152SOL    HW219356   6.037   5.623   5.515
 6153SOL     OW19357   4.747   3.572   1.752
 6153SOL    HW119358   4.659   3.525   1.752
 6153SOL    HW219359   4.733   3.671   1.743
 6154SOL     OW19360   5.993   1.508   2.974
 6154SOL    HW119361   5.992   1.589   2.915
 6154SOL    HW219362   5.963   1.534   3.066
 6155SOL     OW19363   1.779   1.986   4.587
 6155SOL    HW119364   1.754   2.054   4.656
 6155SOL    HW219365   1.705   1.919   4.578
 6156SOL     OW19366   4.681   4.870   2.351
 6156SOL    HW119367   4.693   4.838   2.445
 6156SOL    HW219368   4.586   4.899   2.338
 6157SOL     OW19369   1.358   1.611   4.676
 6157SOL    HW119370   1.313   1.690   4.635
 6157SOL    HW219371   1.302   1.529   4.663
 6158SOL     OW19372   4.366   0.883   5.710
 6158SOL    HW119373   4.291   0.948   5.705
 6158SOL    HW219374   4.446   0.927   5.751
 6159SOL     OW19375   4.799   2.152   1.600
 6159SOL    HW119376   4.840   2.061   1.604
 6159SOL    HW219377   4.702   2.143   1.577
 6160SOL     OW19378   4.719   6.714   6.772
 6160SOL    HW119379   4.752   6.760   6.690
 6160SOL    HW219380   4.797   6.689   6.830
 6161SOL     OW19381   6.318   1.964   5.437
 6161SOL    HW119382   6.390   1.898   5.456
 6161SOL    HW219383   6.231   1.915   5.423
 6162SOL     OW19384   1.139   6.029   3.620
 6162SOL    HW119385   1.096   5.979   3.545
 6162SOL    HW219386   1.071   6.084   3.668
 6163SOL     OW19387   5.456   6.119   1.575
 6163SOL    HW119388   5.387   6.047   1.583
 6163SOL    HW219389   5.489   6.143   1.667
 6164SOL     OW19390   2.825   3.038   1.772
 6164SOL    HW119391   2.761   2.961   1.771
 6164SOL    HW219392   2.919   3.003   1.779
 6165SOL     OW19393   4.817   0.191   6.483
 6165SOL    HW119394   4.904   0.197   6.436
 6165SOL    HW219395   4.830   0.145   6.571
 6166SOL     OW19396   3.847   0.850   5.815
 6166SOL    HW119397   3.836   0.871   5.912
 6166SOL    HW219398   3.943   0.828   5.796
 6167SOL     OW19399   0.882   4.418   2.879
 6167SOL    HW119400   0.850   4.429   2.974
 6167SOL    HW219401   0.854   4.497   2.825
 6168SOL     OW19402   0.785   3.457   1.217
 6168SOL    HW119403   0.707   3.497   1.265
 6168SOL    HW219404   0.819   3.522   1.149
 6169SOL     OW19405   1.444   3.167   1.682
 6169SOL    HW119406   1.528   3.119   1.659
 6169SOL    HW219407   1.366   3.107   1.662
 6170SOL     OW19408   0.877   3.915   5.836
 6170SOL    HW119409   0.840   3.954   5.751
 6170SOL    HW219410   0.847   3.970   5.914
 6171SOL     OW19411   0.736   2.059   0.448
 6171SOL    HW119412   0.646   2.014   0.445
 6171SOL    HW219413   0.776   2.061   0.357
 6172SOL     OW19414   1.353   3.355   2.340
 6172SOL    HW119415   1.430   3.419   2.348
 6172SOL    HW219416   1.359   3.308   2.252
 6173SOL     OW19417   6.655   5.043   2.726
 6173SOL    HW119418   6.687   5.083   2.812
 6173SOL    HW219419   6.598   5.109   2.678
 6174SOL     OW19420   5.023   5.759   4.173
 6174SOL    HW119421   5.091   5.721   4.112
 6174SOL    HW219422   5.002   5.853   4.146
 6175SOL     OW19423   4.264   0.365   3.982
 6175SOL    HW119424   4.232   0.400   4.070
 6175SOL    HW219425   4.258   0.265   3.981
 6176SOL     OW19426   5.533   3.901   6.021
 6176SOL    HW119427   5.468   3.956   6.073
 6176SOL    HW219428   5.553   3.817   6.070
 6177SOL     OW19429   5.949   1.896   1.575
 6177SOL    HW119430   6.011   1.950   1.518
 6177SOL    HW219431   5.917   1.817   1.524
 6178SOL     OW19432   5.177   4.592   2.486
 6178SOL    HW119433   5.183   4.692   2.492
 6178SOL    HW219434   5.185   4.553   2.578
 6179SOL     OW19435   6.733   4.593   2.656
 6179SOL    HW119436   6.729   4.519   2.723
 6179SOL    HW219437   6.810   4.579   2.594
 6180SOL     OW19438   2.785   4.804   1.184
 6180SOL    HW119439   2.865   4.743   1.184
 6180SOL    HW219440   2.702   4.750   1.195
 6181SOL     OW19441   5.056   6.653   6.063
 6181SOL    HW119442   5.014   6.670   5.974
 6181SOL    HW219443   5.061   6.739   6.114
 6182SOL     OW19444   4.446   3.108   6.359
 6182SOL    HW119445   4.401   3.019   6.365
 6182SOL    HW219446   4.407   3.169   6.429
 6183SOL     OW19447   1.922   2.479   2.207
 6183SOL    HW119448   1.858   2.470   2.131
 6183SOL    HW219449   1.884   2.436   2.289
 6184SOL     OW19450   3.052   6.727   6.229
 6184SOL    HW119451   3.088   6.733   6.322
 6184SOL    HW219452   3.045   6.631   6.201
 6185SOL     OW19453   0.758   4.107   6.231
 6185SOL    HW119454   0.680   4.061   6.274
 6185SOL    HW219455   0.800   4.169   6.298
 6186SOL     OW19456   5.944   0.865   1.120
 6186SOL    HW119457   5.848   0.891   1.118
 6186SOL    HW219458   5.951   0.765   1.114
 6187SOL     OW19459   4.820   3.033   4.437
 6187SOL    HW119460   4.799   3.109   4.375
 6187SOL    HW219461   4.890   3.062   4.502
 6188SOL     OW19462   1.412   1.864   6.035
 6188SOL    HW119463   1.444   1.876   5.941
 6188SOL    HW219464   1.426   1.770   6.063
 6189SOL     OW19465   4.010   4.788   3.262
 6189SOL    HW119466   3.979   4.782   3.168
 6189SOL    HW219467   4.061   4.873   3.275
 6190SOL     OW19468   0.223   3.676   5.383
 6190SOL    HW119469   0.199   3.686   5.287
 6190SOL    HW219470   0.322   3.661   5.392
 6191SOL     OW19471   3.062   3.336   6.430
 6191SOL    HW119472   3.032   3.377   6.344
 6191SOL    HW219473   3.109   3.404   6.485
 6192SOL     OW19474   2.921   1.953   6.612
 6192SOL    HW119475   2.959   1.861   6.596
 6192SOL    HW219476   2.958   2.016   6.544
 6193SOL     OW19477   4.690   5.933   1.461
 6193SOL    HW119478   4.653   5.965   1.374
 6193SOL    HW219479   4.722   5.839   1.451
 6194SOL     OW19480   6.394   0.250   6.592
 6194SOL    HW119481   6.469   0.269   6.655
 6194SOL    HW219482   6.399   0.155   6.561
 6195SOL     OW19483   4.969   6.023   4.121
 6195SOL    HW119484   5.067   6.015   4.136
 6195SOL    HW219485   4.942   6.119   4.130
 6196SOL     OW19486   4.872   3.947   2.392
 6196SOL    HW119487   4.930   4.019   2.431
 6196SOL    HW219488   4.912   3.857   2.412
 6197SOL     OW19489   2.340   5.335   1.941
 6197SOL    HW119490   2.421   5.299   1.988
 6197SOL    HW219491   2.263   5.339   2.004
 6198SOL     OW19492   4.470   6.610   1.014
 6198SOL    HW119493   4.430   6.604   0.922
 6198SOL    HW219494   4.397   6.621   1.081
 6199SOL     OW19495   0.664   1.030   0.584
 6199SOL    HW119496   0.577   1.069   0.616
 6199SOL    HW219497   0.711   1.097   0.527
 6200SOL     OW19498   0.903   2.023   4.841
 6200SOL    HW119499   0.903   2.051   4.937
 6200SOL    HW219500   0.962   1.944   4.829
 6201SOL     OW19501   0.723   3.433   5.033
 6201SOL    HW119502   0.691   3.504   5.096
 6201SOL    HW219503   0.820   3.447   5.014
 6202SOL     OW19504   5.719   0.978   2.281
 6202SOL    HW119505   5.803   0.967   2.334
 6202SOL    HW219506   5.738   1.032   2.199
 6203SOL     OW19507   5.399   5.696   2.058
 6203SOL    HW119508   5.387   5.662   2.151
 6203SOL    HW219509   5.433   5.790   2.060
 6204SOL     OW19510   0.889   5.879   4.962
 6204SOL    HW119511   0.868   5.827   4.879
 6204SOL    HW219512   0.908   5.974   4.937
 6205SOL     OW19513   6.036   4.661   1.094
 6205SOL    HW119514   5.974   4.690   1.167
 6205SOL    HW219515   6.085   4.579   1.123
 6206SOL     OW19516   5.802   1.480   2.421
 6206SOL    HW119517   5.817   1.510   2.327
 6206SOL    HW219518   5.850   1.394   2.437
 6207SOL     OW19519   2.260   6.605   5.270
 6207SOL    HW119520   2.260   6.693   5.222
 6207SOL    HW219521   2.260   6.620   5.369
 6208SOL     OW19522   3.419   2.317   5.593
 6208SOL    HW119523   3.499   2.257   5.586
 6208SOL    HW219524   3.367   2.313   5.507
 6209SOL     OW19525   3.241   5.571   0.144
 6209SOL    HW119526   3.273   5.481   0.174
 6209SOL    HW219527   3.245   5.576   0.044
 6210SOL     OW19528   4.806   4.012   3.080
 6210SOL    HW119529   4.755   3.937   3.038
 6210SOL    HW219530   4.847   4.069   3.008
 6211SOL     OW19531   3.193   6.790   5.523
 6211SOL    HW119532   3.126   6.785   5.449
 6211SOL    HW219533   3.286   6.792   5.484
 6212SOL     OW19534   2.209   4.526   4.091
 6212SOL    HW119535   2.253   4.463   4.027
 6212SOL    HW219536   2.247   4.617   4.079
 6213SOL     OW19537   4.123   6.875   0.023
 6213SOL    HW119538   4.212   6.918   0.038
 6213SOL    HW219539   4.057   6.945   7.019
 6214SOL     OW19540   5.850   5.954   5.461
 6214SOL    HW119541   5.883   5.861   5.448
 6214SOL    HW219542   5.768   5.953   5.519
 6215SOL     OW19543   3.575   2.822   6.785
 6215SOL    HW119544   3.491   2.784   6.824
 6215SOL    HW219545   3.603   2.767   6.707
 6216SOL     OW19546   6.314   1.914   2.387
 6216SOL    HW119547   6.330   1.926   2.485
 6216SOL    HW219548   6.276   1.822   2.371
 6217SOL     OW19549   0.730   4.084   2.944
 6217SOL    HW119550   0.738   4.172   2.992
 6217SOL    HW219551   0.695   4.099   2.852
 6218SOL     OW19552   3.769   0.211   0.151
 6218SOL    HW119553   3.697   0.149   0.118
 6218SOL    HW219554   3.788   0.280   0.082
 6219SOL     OW19555   1.040   0.914   4.905
 6219SOL    HW119556   0.940   0.902   4.907
 6219SOL    HW219557   1.081   0.853   4.974
 6220SOL     OW19558   3.328   1.404   5.560
 6220SOL    HW119559   3.265   1.397   5.638
 6220SOL    HW219560   3.310   1.489   5.510
 6221SOL     OW19561   6.385   6.529   0.310
 6221SOL    HW119562   6.378   6.625   0.281
 6221SOL    HW219563   6.306   6.478   0.276
 6222SOL     OW19564   0.585   0.732   2.311
 6222SOL    HW119565   0.610   0.755   2.405
 6222SOL    HW219566   0.654   0.671   2.272
 6223SOL     OW19567   1.469   5.659   3.537
 6223SOL    HW119568   1.549   5.719   3.541
 6223SOL    HW219569   1.491   5.577   3.484
 6224SOL     OW19570   3.717   1.337   6.043
 6224SOL    HW119571   3.635   1.280   6.054
 6224SOL    HW219572   3.724   1.366   5.947
 6225SOL     OW19573   4.010   2.477   6.235
 6225SOL    HW119574   4.015   2.543   6.161
 6225SOL    HW219575   4.081   2.496   6.302
 6226SOL     OW19576   1.102   1.294   3.988
 6226SOL    HW119577   1.130   1.199   4.001
 6226SOL    HW219578   1.174   1.344   3.941
 6227SOL     OW19579   3.375   5.074   5.354
 6227SOL    HW119580   3.459   5.044   5.398
 6227SOL    HW219581   3.317   5.122   5.421
 6228SOL     OW19582   0.615   2.258   2.565
 6228SOL    HW119583   0.543   2.325   2.581
 6228SOL    HW219584   0.704   2.304   2.566
 6229SOL     OW19585   0.840   3.147   5.070
 6229SOL    HW119586   0.875   3.147   4.976
 6229SOL    HW219587   0.791   3.233   5.087
 6230SOL     OW19588   1.104   2.452   3.263
 6230SOL    HW119589   1.164   2.417   3.191
 6230SOL    HW219590   1.079   2.547   3.243
 6231SOL     OW19591   5.588   5.274   0.357
 6231SOL    HW119592   5.623   5.242   0.269
 6231SOL    HW219593   5.592   5.374   0.360
 6232SOL     OW19594   6.327   1.197   0.474
 6232SOL    HW119595   6.417   1.188   0.432
 6232SOL    HW219596   6.272   1.261   0.421
 6233SOL     OW19597   6.713   2.805   1.850
 6233SOL    HW119598   6.631   2.845   1.810
 6233SOL    HW219599   6.737   2.722   1.801
 6234SOL     OW19600   0.057   0.297   5.183
 6234SOL    HW119601   0.008   0.383   5.200
 6234SOL    HW219602   0.108   0.271   5.265
 6235SOL     OW19603   0.339   0.645   1.671
 6235SOL    HW119604   0.433   0.624   1.642
 6235SOL    HW219605   0.340   0.671   1.768
 6236SOL     OW19606   6.926   4.866   0.561
 6236SOL    HW119607   6.886   4.845   0.651
 6236SOL    HW219608   6.917   4.964   0.543
 6237SOL     OW19609   3.464   0.398   6.850
 6237SOL    HW119610   3.526   0.448   6.790
 6237SOL    HW219611   3.503   0.395   6.942
 6238SOL     OW19612   4.613   6.713   3.370
 6238SOL    HW119613   4.710   6.719   3.395
 6238SOL    HW219614   4.558   6.754   3.443
 6239SOL     OW19615   3.766   0.661   1.009
 6239SOL    HW119616   3.845   0.690   0.956
 6239SOL    HW219617   3.712   0.595   0.956
 6240SOL     OW19618   3.211   3.625   5.592
 6240SOL    HW119619   3.276   3.551   5.575
 6240SOL    HW219620   3.227   3.699   5.527
 6241SOL     OW19621   4.180   0.420   3.536
 6241SOL    HW119622   4.233   0.458   3.612
 6241SOL    HW219623   4.164   0.492   3.468
 6242SOL     OW19624   3.007   0.505   3.100
 6242SOL    HW119625   2.946   0.563   3.155
 6242SOL    HW219626   2.953   0.453   3.035
 6243SOL     OW19627   6.719   0.212   5.966
 6243SOL    HW119628   6.628   0.172   5.973
 6243SOL    HW219629   6.747   0.216   5.869
 6244SOL     OW19630   4.972   3.660   3.434
 6244SOL    HW119631   5.062   3.638   3.397
 6244SOL    HW219632   4.930   3.577   3.472
 6245SOL     OW19633   0.600   4.407   2.127
 6245SOL    HW119634   0.626   4.388   2.221
 6245SOL    HW219635   0.680   4.394   2.067
 6246SOL     OW19636   0.509   1.040   4.642
 6246SOL    HW119637   0.539   1.121   4.692
 6246SOL    HW219638   0.465   0.977   4.705
 6247SOL     OW19639   1.523   6.379   3.341
 6247SOL    HW119640   1.569   6.460   3.377
 6247SOL    HW219641   1.485   6.399   3.251
 6248SOL     OW19642   3.690   4.132   0.064
 6248SOL    HW119643   3.701   4.228   0.088
 6248SOL    HW219644   3.773   4.081   0.091
 6249SOL     OW19645   0.060   2.880   0.725
 6249SOL    HW119646   0.128   2.897   0.653
 6249SOL    HW219647   0.013   2.966   0.747
 6250SOL     OW19648   6.750   6.481   0.740
 6250SOL    HW119649   6.840   6.444   0.716
 6250SOL    HW219650   6.752   6.516   0.834
 6251SOL     OW19651   3.726   5.945   4.660
 6251SOL    HW119652   3.733   5.869   4.595
 6251SOL    HW219653   3.709   5.909   4.751
 6252SOL     OW19654   2.563   4.506   0.115
 6252SOL    HW119655   2.574   4.581   0.051
 6252SOL    HW219656   2.613   4.526   0.200
 6253SOL     OW19657   2.387   5.135   4.627
 6253SOL    HW119658   2.429   5.192   4.556
 6253SOL    HW219659   2.288   5.131   4.611
 6254SOL     OW19660   6.825   0.196   0.986
 6254SOL    HW119661   6.924   0.182   0.986
 6254SOL    HW219662   6.795   0.225   0.894
 6255SOL     OW19663   2.426   2.053   0.702
 6255SOL    HW119664   2.407   2.149   0.683
 6255SOL    HW219665   2.436   2.003   0.616
 6256SOL     OW19666   4.087   4.853   2.410
 6256SOL    HW119667   4.069   4.814   2.319
 6256SOL    HW219668   4.178   4.824   2.440
 6257SOL     OW19669   3.829   2.958   0.276
 6257SOL    HW119670   3.883   2.948   0.360
 6257SOL    HW219671   3.849   3.047   0.234
 6258SOL     OW19672   3.557   6.895   4.807
 6258SOL    HW119673   3.642   6.947   4.813
 6258SOL    HW219674   3.568   6.821   4.740
 6259SOL     OW19675   2.133   0.804   6.342
 6259SOL    HW119676   2.220   0.779   6.385
 6259SOL    HW219677   2.149   0.868   6.268
 6260SOL     OW19678   3.042   0.484   0.605
 6260SOL    HW119679   2.960   0.455   0.655
 6260SOL    HW219680   3.123   0.454   0.655
 6261SOL     OW19681   4.229   6.750   0.788
 6261SOL    HW119682   4.240   6.652   0.799
 6261SOL    HW219683   4.246   6.775   0.692
 6262SOL     OW19684   1.668   6.063   2.275
 6262SOL    HW119685   1.648   6.150   2.319
 6262SOL    HW219686   1.674   5.991   2.344
 6263SOL     OW19687   0.771   6.480   5.297
 6263SOL    HW119688   0.790   6.388   5.332
 6263SOL    HW219689   0.856   6.534   5.298
 6264SOL     OW19690   1.620   7.005   1.631
 6264SOL    HW119691   1.527   6.980   1.606
 6264SOL    HW219692   1.651   6.947   1.706
 6265SOL     OW19693   4.235   2.955   1.277
 6265SOL    HW119694   4.185   3.039   1.257
 6265SOL    HW219695   4.223   2.890   1.202
 6266SOL     OW19696   4.268   6.699   3.092
 6266SOL    HW119697   4.335   6.642   3.140
 6266SOL    HW219698   4.314   6.752   3.021
 6267SOL     OW19699   1.565   6.981   4.449
 6267SOL    HW119700   1.654   6.937   4.438
 6267SOL    HW219701   1.544   6.992   4.546
 6268SOL     OW19702   2.768   0.500   2.049
 6268SOL    HW119703   2.807   0.590   2.073
 6268SOL    HW219704   2.726   0.460   2.130
 6269SOL     OW19705   5.853   6.717   1.274
 6269SOL    HW119706   5.811   6.808   1.275
 6269SOL    HW219707   5.792   6.653   1.228
 6270SOL     OW19708   0.675   6.815   0.134
 6270SOL    HW119709   0.625   6.854   0.211
 6270SOL    HW219710   0.630   6.732   0.104
 6271SOL     OW19711   6.331   2.380   6.536
 6271SOL    HW119712   6.286   2.374   6.447
 6271SOL    HW219713   6.332   2.290   6.579
 6272SOL     OW19714   0.851   1.218   0.481
 6272SOL    HW119715   0.885   1.312   0.493
 6272SOL    HW219716   0.919   1.154   0.517
 6273SOL     OW19717   0.299   5.140   3.037
 6273SOL    HW119718   0.281   5.238   3.045
 6273SOL    HW219719   0.235   5.089   3.094
 6274SOL     OW19720   3.126   6.925   4.948
 6274SOL    HW119721   3.217   6.965   4.933
 6274SOL    HW219722   3.132   6.826   4.939
 6275SOL     OW19723   2.359   5.705   0.641
 6275SOL    HW119724   2.272   5.740   0.676
 6275SOL    HW219725   2.369   5.733   0.545
 6276SOL     OW19726   3.259   5.541   3.564
 6276SOL    HW119727   3.280   5.575   3.656
 6276SOL    HW219728   3.161   5.525   3.556
 6277SOL     OW19729   5.016   2.154   1.239
 6277SOL    HW119730   4.963   2.146   1.154
 6277SOL    HW219731   5.114   2.152   1.217
 6278SOL     OW19732   4.479   0.657   5.332
 6278SOL    HW119733   4.569   0.653   5.289
 6278SOL    HW219734   4.473   0.589   5.405
 6279SOL     OW19735   4.251   5.783   0.723
 6279SOL    HW119736   4.259   5.686   0.748
 6279SOL    HW219737   4.240   5.790   0.624
 6280SOL     OW19738   0.237   1.234   6.781
 6280SOL    HW119739   0.189   1.192   6.858
 6280SOL    HW219740   0.325   1.270   6.812
 6281SOL     OW19741   6.679   4.505   3.793
 6281SOL    HW119742   6.735   4.580   3.759
 6281SOL    HW219743   6.647   4.449   3.717
 6282SOL     OW19744   6.029   2.961   5.196
 6282SOL    HW119745   5.991   3.043   5.154
 6282SOL    HW219746   6.126   2.976   5.216
 6283SOL     OW19747   1.128   3.956   4.039
 6283SOL    HW119748   1.123   4.056   4.041
 6283SOL    HW219749   1.144   3.922   4.132
 6284SOL     OW19750   1.438   5.592   6.769
 6284SOL    HW119751   1.527   5.637   6.764
 6284SOL    HW219752   1.382   5.637   6.838
 6285SOL     OW19753   1.346   3.242   3.608
 6285SOL    HW119754   1.265   3.199   3.569
 6285SOL    HW219755   1.339   3.242   3.707
 6286SOL     OW19756   7.002   3.539   4.269
 6286SOL    HW119757   6.997   3.486   4.354
 6286SOL    HW219758   6.909   3.559   4.238
 6287SOL     OW19759   3.989   5.211   5.359
 6287SOL    HW119760   3.931   5.134   5.332
 6287SOL    HW219761   4.085   5.186   5.350
 6288SOL     OW19762   4.947   4.408   1.687
 6288SOL    HW119763   5.012   4.335   1.704
 6288SOL    HW219764   4.894   4.387   1.605
 6289SOL     OW19765   2.700   4.690   6.748
 6289SOL    HW119766   2.675   4.673   6.843
 6289SOL    HW219767   2.637   4.757   6.708
 6290SOL     OW19768   5.791   5.209   6.720
 6290SOL    HW119769   5.767   5.116   6.693
 6290SOL    HW219770   5.766   5.273   6.647
 6291SOL     OW19771   3.555   3.680   3.429
 6291SOL    HW119772   3.566   3.636   3.518
 6291SOL    HW219773   3.567   3.613   3.356
 6292SOL     OW19774   2.531   2.060   4.876
 6292SOL    HW119775   2.547   2.136   4.813
 6292SOL    HW219776   2.597   2.066   4.952
 6293SOL     OW19777   4.632   1.778   0.766
 6293SOL    HW119778   4.695   1.703   0.780
 6293SOL    HW219779   4.538   1.743   0.764
 6294SOL     OW19780   4.386   0.149   2.986
 6294SOL    HW119781   4.325   0.212   3.034
 6294SOL    HW219782   4.333   0.090   2.926
 6295SOL     OW19783   5.179   4.787   4.863
 6295SOL    HW119784   5.087   4.748   4.871
 6295SOL    HW219785   5.204   4.831   4.949
 6296SOL     OW19786   0.565   4.287   5.568
 6296SOL    HW119787   0.482   4.232   5.554
 6296SOL    HW219788   0.629   4.270   5.492
 6297SOL     OW19789   6.100   0.208   5.876
 6297SOL    HW119790   6.072   0.167   5.963
 6297SOL    HW219791   6.130   0.137   5.813
 6298SOL     OW19792   6.335   4.306   6.472
 6298SOL    HW119793   6.323   4.369   6.395
 6298SOL    HW219794   6.390   4.228   6.442
 6299SOL     OW19795   6.459   2.659   1.816
 6299SOL    HW119796   6.425   2.693   1.904
 6299SOL    HW219797   6.440   2.726   1.745
 6300SOL     OW19798   5.441   0.148   6.521
 6300SOL    HW119799   5.475   0.238   6.495
 6300SOL    HW219800   5.444   0.087   6.441
 6301SOL     OW19801   3.319   6.648   6.559
 6301SOL    HW119802   3.317   6.730   6.617
 6301SOL    HW219803   3.365   6.669   6.473
 6302SOL     OW19804   2.401   1.400   5.668
 6302SOL    HW119805   2.302   1.401   5.682
 6302SOL    HW219806   2.442   1.480   5.712
 6303SOL     OW19807   0.276   6.412   5.810
 6303SOL    HW119808   0.330   6.330   5.830
 6303SOL    HW219809   0.182   6.398   5.843
 6304SOL     OW19810   4.002   1.862   3.702
 6304SOL    HW119811   3.988   1.835   3.797
 6304SOL    HW219812   3.955   1.949   3.685
 6305SOL     OW19813   6.173   5.818   0.592
 6305SOL    HW119814   6.193   5.909   0.554
 6305SOL    HW219815   6.206   5.814   0.686
 6306SOL     OW19816   0.237   3.502   4.147
 6306SOL    HW119817   0.143   3.502   4.181
 6306SOL    HW219818   0.298   3.541   4.216
 6307SOL     OW19819   3.301   2.939   4.145
 6307SOL    HW119820   3.379   2.939   4.208
 6307SOL    HW219821   3.333   2.922   4.052
 6308SOL     OW19822   0.893   2.418   5.634
 6308SOL    HW119823   0.863   2.328   5.604
 6308SOL    HW219824   0.858   2.488   5.571
 6309SOL     OW19825   0.339   0.360   4.172
 6309SOL    HW119826   0.266   0.296   4.151
 6309SOL    HW219827   0.349   0.425   4.096
 6310SOL     OW19828   2.198   6.341   2.711
 6310SOL    HW119829   2.174   6.419   2.653
 6310SOL    HW219830   2.229   6.265   2.655
 6311SOL     OW19831   4.919   1.623   6.587
 6311SOL    HW119832   5.014   1.618   6.619
 6311SOL    HW219833   4.903   1.552   6.519
 6312SOL     OW19834   1.300   6.863   6.378
 6312SOL    HW119835   1.378   6.814   6.416
 6312SOL    HW219836   1.323   6.960   6.366
 6313SOL     OW19837   5.843   6.727   3.096
 6313SOL    HW119838   5.875   6.748   3.004
 6313SOL    HW219839   5.895   6.649   3.132
 6314SOL     OW19840   3.411   0.416   1.974
 6314SOL    HW119841   3.370   0.434   2.064
 6314SOL    HW219842   3.424   0.318   1.962
 6315SOL     OW19843   2.310   1.819   4.580
 6315SOL    HW119844   2.324   1.868   4.666
 6315SOL    HW219845   2.396   1.775   4.553
 6316SOL     OW19846   5.018   1.951   5.447
 6316SOL    HW119847   5.110   1.945   5.485
 6316SOL    HW219848   5.007   2.040   5.402
 6317SOL     OW19849   4.964   3.535   2.396
 6317SOL    HW119850   4.945   3.603   2.324
 6317SOL    HW219851   5.003   3.453   2.354
 6318SOL     OW19852   4.920   0.128   6.735
 6318SOL    HW119853   4.925   0.038   6.778
 6318SOL    HW219854   4.918   0.198   6.806
 6319SOL     OW19855   6.719   2.050   5.048
 6319SOL    HW119856   6.815   2.030   5.025
 6319SOL    HW219857   6.704   2.033   5.145
 6320SOL     OW19858   6.981   6.707   4.444
 6320SOL    HW119859   6.903   6.662   4.400
 6320SOL    HW219860   0.043   6.677   4.400
 6321SOL     OW19861   4.863   3.295   0.195
 6321SOL    HW119862   4.788   3.312   0.132
 6321SOL    HW219863   4.950   3.309   0.147
 6322SOL     OW19864   3.667   1.973   0.313
 6322SOL    HW119865   3.766   1.978   0.298
 6322SOL    HW219866   3.627   2.063   0.297
 6323SOL     OW19867   1.453   1.900   1.208
 6323SOL    HW119868   1.442   1.974   1.275
 6323SOL    HW219869   1.534   1.846   1.231
 6324SOL     OW19870   4.266   1.689   0.912
 6324SOL    HW119871   4.186   1.743   0.884
 6324SOL    HW219872   4.324   1.672   0.832
 6325SOL     OW19873   2.168   2.761   2.972
 6325SOL    HW119874   2.121   2.849   2.984
 6325SOL    HW219875   2.229   2.745   3.050
 6326SOL     OW19876   5.146   5.527   5.855
 6326SOL    HW119877   5.109   5.460   5.920
 6326SOL    HW219878   5.171   5.610   5.903
 6327SOL     OW19879   6.839   1.592   4.035
 6327SOL    HW119880   6.919   1.623   3.984
 6327SOL    HW219881   6.869   1.528   4.107
 6328SOL     OW19882   4.223   3.726   6.668
 6328SOL    HW119883   4.277   3.799   6.710
 6328SOL    HW219884   4.184   3.759   6.582
 6329SOL     OW19885   1.082   3.197   5.237
 6329SOL    HW119886   1.106   3.167   5.329
 6329SOL    HW219887   0.986   3.173   5.218
 6330SOL     OW19888   5.546   6.493   1.877
 6330SOL    HW119889   5.607   6.552   1.930
 6330SOL    HW219890   5.527   6.536   1.788
 6331SOL     OW19891   6.689   3.152   4.824
 6331SOL    HW119892   6.674   3.174   4.920
 6331SOL    HW219893   6.613   3.187   4.770
 6332SOL     OW19894   0.875   2.665   1.341
 6332SOL    HW119895   0.801   2.709   1.392
 6332SOL    HW219896   0.961   2.713   1.357
 6333SOL     OW19897   4.669   0.151   6.050
 6333SOL    HW119898   4.631   0.221   6.112
 6333SOL    HW219899   4.767   0.167   6.039
 6334SOL     OW19900   2.960   1.266   1.942
 6334SOL    HW119901   2.905   1.222   2.014
 6334SOL    HW219902   3.045   1.299   1.982
 6335SOL     OW19903   4.956   1.055   0.318
 6335SOL    HW119904   4.975   1.071   0.414
 6335SOL    HW219905   4.877   0.994   0.309
 6336SOL     OW19906   0.341   3.732   6.336
 6336SOL    HW119907   0.286   3.800   6.386
 6336SOL    HW219908   0.342   3.646   6.387
 6337SOL     OW19909   3.891   5.624   4.772
 6337SOL    HW119910   3.985   5.628   4.740
 6337SOL    HW219911   3.829   5.653   4.699
 6338SOL     OW19912   3.384   2.094   4.622
 6338SOL    HW119913   3.289   2.098   4.652
 6338SOL    HW219914   3.443   2.079   4.702
 6339SOL     OW19915   1.013   3.869   3.730
 6339SOL    HW119916   1.055   3.782   3.706
 6339SOL    HW219917   1.038   3.893   3.824
 6340SOL     OW19918   2.308   3.829   1.064
 6340SOL    HW119919   2.316   3.916   1.112
 6340SOL    HW219920   2.214   3.796   1.069
 6341SOL     OW19921   0.449   3.905   3.506
 6341SOL    HW119922   0.489   3.942   3.422
 6341SOL    HW219923   0.375   3.843   3.482
 6342SOL     OW19924   3.504   1.294   0.871
 6342SOL    HW119925   3.591   1.284   0.823
 6342SOL    HW219926   3.433   1.243   0.822
 6343SOL     OW19927   4.061   6.852   6.609
 6343SOL    HW119928   4.009   6.810   6.684
 6343SOL    HW219929   4.020   6.940   6.586
 6344SOL     OW19930   5.807   1.983   3.936
 6344SOL    HW119931   5.873   1.918   3.900
 6344SOL    HW219932   5.715   1.944   3.932
 6345SOL     OW19933   4.612   2.730   1.794
 6345SOL    HW119934   4.594   2.671   1.872
 6345SOL    HW219935   4.587   2.824   1.817
 6346SOL     OW19936   6.771   4.825   4.860
 6346SOL    HW119937   6.754   4.786   4.951
 6346SOL    HW219938   6.865   4.858   4.855
 6347SOL     OW19939   2.275   1.701   1.011
 6347SOL    HW119940   2.330   1.649   0.946
 6347SOL    HW219941   2.284   1.661   1.102
 6348SOL     OW19942   0.904   2.602   5.880
 6348SOL    HW119943   0.844   2.550   5.941
 6348SOL    HW219944   0.972   2.540   5.840
 6349SOL     OW19945   1.713   0.662   0.731
 6349SOL    HW119946   1.630   0.606   0.738
 6349SOL    HW219947   1.700   0.732   0.660
 6350SOL     OW19948   0.867   5.106   3.129
 6350SOL    HW119949   0.923   5.041   3.182
 6350SOL    HW219950   0.770   5.085   3.143
 6351SOL     OW19951   6.595   3.798   3.476
 6351SOL    HW119952   6.529   3.723   3.478
 6351SOL    HW219953   6.685   3.763   3.502
 6352SOL     OW19954   2.553   0.286   4.408
 6352SOL    HW119955   2.540   0.187   4.409
 6352SOL    HW219956   2.471   0.331   4.372
 6353SOL     OW19957   2.046   6.101   0.074
 6353SOL    HW119958   1.968   6.038   0.077
 6353SOL    HW219959   2.038   6.165   0.150
 6354SOL     OW19960   3.704   6.032   3.294
 6354SOL    HW119961   3.755   6.106   3.251
 6354SOL    HW219962   3.726   5.945   3.250
 6355SOL     OW19963   2.797   5.929   0.237
 6355SOL    HW119964   2.791   5.855   0.304
 6355SOL    HW219965   2.708   5.941   0.192
 6356SOL     OW19966   5.318   5.180   0.408
 6356SOL    HW119967   5.406   5.227   0.400
 6356SOL    HW219968   5.272   5.181   0.319
 6357SOL     OW19969   6.087   3.008   2.105
 6357SOL    HW119970   6.120   3.004   2.011
 6357SOL    HW219971   5.988   3.023   2.105
 6358SOL     OW19972   0.486   1.842   6.609
 6358SOL    HW119973   0.557   1.773   6.595
 6358SOL    HW219974   0.485   1.871   6.705
 6359SOL     OW19975   6.106   6.242   0.803
 6359SOL    HW119976   6.084   6.256   0.707
 6359SOL    HW219977   6.189   6.293   0.827
 6360SOL     OW19978   0.652   3.241   4.267
 6360SOL    HW119979   0.562   3.255   4.310
 6360SOL    HW219980   0.688   3.330   4.237
 6361SOL     OW19981   1.159   0.513   0.955
 6361SOL    HW119982   1.206   0.494   1.042
 6361SOL    HW219983   1.220   0.491   0.879
 6362SOL     OW19984   1.816   6.183   6.849
 6362SOL    HW119985   1.894   6.242   6.830
 6362SOL    HW219986   1.841   6.087   6.832
 6363SOL     OW19987   3.120   5.159   4.181
 6363SOL    HW119988   3.024   5.160   4.151
 6363SOL    HW219989   3.167   5.081   4.138
 6364SOL     OW19990   2.576   2.664   5.478
 6364SOL    HW119991   2.664   2.695   5.443
 6364SOL    HW219992   2.508   2.737   5.467
 6365SOL     OW19993   5.670   6.537   5.019
 6365SOL    HW119994   5.648   6.558   5.114
 6365SOL    HW219995   5.716   6.448   5.014
 6366SOL     OW19996   0.433   6.285   4.958
 6366SOL    HW119997   0.430   6.224   4.879
 6366SOL    HW219998   0.448   6.379   4.927
 6367SOL     OW19999   2.963   2.033   2.639
 6367SOL    HW120000   2.935   2.129   2.649
 6367SOL    HW220001   2.961   1.989   2.729
 6368SOL     OW20002   4.296   4.736   4.481
 6368SOL    HW120003   4.308   4.677   4.560
 6368SOL    HW220004   4.217   4.796   4.495
 6369SOL     OW20005   1.838   0.172   4.256
 6369SOL    HW120006   1.929   0.199   4.287
 6369SOL    HW220007   1.770   0.231   4.300
 6370SOL     OW20008   5.538   4.008   3.449
 6370SOL    HW120009   5.562   4.079   3.514
 6370SOL    HW220010   5.476   3.942   3.492
 6371SOL     OW20011   5.479   3.909   2.191
 6371SOL    HW120012   5.457   3.886   2.286
 6371SOL    HW220013   5.499   3.825   2.141
 6372SOL     OW20014   1.157   1.587   1.957
 6372SOL    HW120015   1.185   1.505   2.007
 6372SOL    HW220016   1.236   1.626   1.911
 6373SOL     OW20017   5.832   4.423   2.507
 6373SOL    HW120018   5.861   4.431   2.411
 6373SOL    HW220019   5.786   4.508   2.535
 6374SOL     OW20020   4.697   3.066   0.694
 6374SOL    HW120021   4.685   3.096   0.599
 6374SOL    HW220022   4.623   3.104   0.749
 6375SOL     OW20023   0.763   2.248   1.541
 6375SOL    HW120024   0.691   2.309   1.574
 6375SOL    HW220025   0.781   2.267   1.444
 6376SOL     OW20026   3.700   1.426   5.790
 6376SOL    HW120027   3.639   1.495   5.754
 6376SOL    HW220028   3.781   1.418   5.731
 6377SOL     OW20029   7.016   1.216   5.295
 6377SOL    HW120030   6.971   1.266   5.370
 6377SOL    HW220031   6.976   1.243   5.208
 6378SOL     OW20032   5.213   5.644   3.287
 6378SOL    HW120033   5.312   5.643   3.267
 6378SOL    HW220034   5.164   5.600   3.212
 6379SOL     OW20035   0.761   5.045   5.544
 6379SOL    HW120036   0.760   5.098   5.630
 6379SOL    HW220037   0.667   5.034   5.511
 6380SOL     OW20038   6.980   2.551   4.315
 6380SOL    HW120039   7.008   2.577   4.223
 6380SOL    HW220040   6.955   2.454   4.317
 6381SOL     OW20041   4.158   2.660   0.501
 6381SOL    HW120042   4.255   2.640   0.496
 6381SOL    HW220043   4.117   2.651   0.411
 6382SOL     OW20044   3.449   1.619   1.240
 6382SOL    HW120045   3.375   1.575   1.290
 6382SOL    HW220046   3.429   1.618   1.142
 6383SOL     OW20047   2.037   2.563   1.941
 6383SOL    HW120048   2.007   2.566   2.037
 6383SOL    HW220049   2.131   2.531   1.937
 6384SOL     OW20050   5.839   3.159   2.109
 6384SOL    HW120051   5.866   3.240   2.161
 6384SOL    HW220052   5.791   3.095   2.169
 6385SOL     OW20053   6.544   3.885   1.986
 6385SOL    HW120054   6.613   3.844   1.926
 6385SOL    HW220055   6.477   3.935   1.930
 6386SOL     OW20056   1.858   3.769   0.234
 6386SOL    HW120057   1.862   3.677   0.194
 6386SOL    HW220058   1.938   3.783   0.293
 6387SOL     OW20059   6.208   0.971   0.381
 6387SOL    HW120060   6.256   1.046   0.426
 6387SOL    HW220061   6.136   0.937   0.442
 6388SOL     OW20062   5.865   5.263   1.942
 6388SOL    HW120063   5.819   5.352   1.938
 6388SOL    HW220064   5.839   5.216   2.026
 6389SOL     OW20065   1.408   6.897   1.567
 6389SOL    HW120066   1.337   6.906   1.497
 6389SOL    HW220067   1.393   6.814   1.619
 6390SOL     OW20068   6.457   0.183   5.894
 6390SOL    HW120069   6.422   0.228   5.812
 6390SOL    HW220070   6.462   0.085   5.878
 6391SOL     OW20071   1.417   1.085   5.985
 6391SOL    HW120072   1.374   1.114   6.071
 6391SOL    HW220073   1.348   1.044   5.926
 6392SOL     OW20074   2.931   6.223   3.487
 6392SOL    HW120075   2.973   6.237   3.577
 6392SOL    HW220076   2.924   6.125   3.469
 6393SOL     OW20077   5.798   6.039   1.567
 6393SOL    HW120078   5.745   6.103   1.622
 6393SOL    HW220079   5.845   6.088   1.493
 6394SOL     OW20080   1.916   5.023   1.220
 6394SOL    HW120081   1.884   5.070   1.137
 6394SOL    HW220082   1.938   4.927   1.197
 6395SOL     OW20083   6.849   2.986   1.976
 6395SOL    HW120084   6.807   3.076   1.990
 6395SOL    HW220085   6.788   2.929   1.922
 6396SOL     OW20086   6.390   4.152   5.921
 6396SOL    HW120087   6.320   4.219   5.898
 6396SOL    HW220088   6.481   4.190   5.900
 6397SOL     OW20089   6.260   1.377   2.141
 6397SOL    HW120090   6.347   1.328   2.136
 6397SOL    HW220091   6.272   1.469   2.104
 6398SOL     OW20092   1.857   6.757   1.776
 6398SOL    HW120093   1.797   6.837   1.778
 6398SOL    HW220094   1.917   6.759   1.857
 6399SOL     OW20095   1.473   0.289   6.825
 6399SOL    HW120096   1.397   0.349   6.801
 6399SOL    HW220097   1.437   0.205   6.865
 6400SOL     OW20098   1.905   4.821   2.620
 6400SOL    HW120099   1.930   4.917   2.634
 6400SOL    HW220100   1.845   4.814   2.540
 6401SOL     OW20101   5.419   5.159   3.158
 6401SOL    HW120102   5.499   5.182   3.103
 6401SOL    HW220103   5.418   5.061   3.176
 6402SOL     OW20104   1.852   3.072   3.909
 6402SOL    HW120105   1.850   2.996   3.974
 6402SOL    HW220106   1.944   3.080   3.870
 6403SOL     OW20107   5.864   6.256   6.271
 6403SOL    HW120108   5.854   6.245   6.172
 6403SOL    HW220109   5.935   6.324   6.290
 6404SOL     OW20110   4.009   1.651   2.561
 6404SOL    HW120111   4.042   1.687   2.648
 6404SOL    HW220112   4.022   1.720   2.490
 6405SOL     OW20113   4.280   1.348   4.094
 6405SOL    HW120114   4.312   1.324   4.185
 6405SOL    HW220115   4.273   1.265   4.038
 6406SOL     OW20116   1.611   3.257   1.913
 6406SOL    HW120117   1.631   3.354   1.896
 6406SOL    HW220118   1.581   3.213   1.828
 6407SOL     OW20119   2.324   0.228   3.428
 6407SOL    HW120120   2.317   0.327   3.415
 6407SOL    HW220121   2.271   0.181   3.357
 6408SOL     OW20122   5.800   0.511   0.425
 6408SOL    HW120123   5.877   0.529   0.363
 6408SOL    HW220124   5.821   0.431   0.481
 6409SOL     OW20125   0.041   4.906   2.701
 6409SOL    HW120126   0.025   5.000   2.730
 6409SOL    HW220127   7.017   4.889   2.614
 6410SOL     OW20128   2.225   1.343   6.571
 6410SOL    HW120129   2.135   1.305   6.594
 6410SOL    HW220130   2.253   1.408   6.642
 6411SOL     OW20131   1.063   3.036   2.136
 6411SOL    HW120132   1.102   3.094   2.064
 6411SOL    HW220133   1.104   2.945   2.132
 6412SOL     OW20134   2.503   0.828   6.898
 6412SOL    HW120135   2.457   0.857   6.982
 6412SOL    HW220136   2.602   0.831   6.911
 6413SOL     OW20137   3.874   4.933   4.772
 6413SOL    HW120138   3.793   4.891   4.731
 6413SOL    HW220139   3.859   5.031   4.782
 6414SOL     OW20140   6.149   6.605   6.914
 6414SOL    HW120141   6.142   6.705   6.916
 6414SOL    HW220142   6.198   6.578   6.831
 6415SOL     OW20143   1.544   3.333   3.877
 6415SOL    HW120144   1.575   3.306   3.968
 6415SOL    HW220145   1.539   3.433   3.871
 6416SOL     OW20146   2.708   0.039   6.503
 6416SOL    HW120147   2.681   0.074   6.413
 6416SOL    HW220148   2.659   6.977   6.522
 6417SOL     OW20149   4.999   2.813   0.642
 6417SOL    HW120150   4.991   2.786   0.738
 6417SOL    HW220151   5.084   2.863   0.628
 6418SOL     OW20152   5.324   4.300   2.839
 6418SOL    HW120153   5.290   4.233   2.906
 6418SOL    HW220154   5.421   4.319   2.859
 6419SOL     OW20155   0.882   5.301   4.487
 6419SOL    HW120156   0.854   5.287   4.392
 6419SOL    HW220157   0.981   5.286   4.495
 6420SOL     OW20158   1.957   1.547   4.117
 6420SOL    HW120159   1.925   1.507   4.032
 6420SOL    HW220160   1.915   1.636   4.130
 6421SOL     OW20161   4.477   0.616   1.126
 6421SOL    HW120162   4.426   0.605   1.211
 6421SOL    HW220163   4.438   0.690   1.072
 6422SOL     OW20164   6.755   1.683   5.010
 6422SOL    HW120165   6.802   1.683   5.098
 6422SOL    HW220166   6.657   1.670   5.024
 6423SOL     OW20167   4.555   5.846   4.679
 6423SOL    HW120168   4.643   5.800   4.685
 6423SOL    HW220169   4.556   5.910   4.601
 6424SOL     OW20170   1.653   3.789   4.999
 6424SOL    HW120171   1.579   3.729   4.969
 6424SOL    HW220172   1.699   3.827   4.918
 6425SOL     OW20173   0.057   5.607   2.974
 6425SOL    HW120174   0.046   5.629   2.877
 6425SOL    HW220175   7.000   5.639   3.024
 6426SOL     OW20176   5.632   5.426   3.905
 6426SOL    HW120177   5.667   5.333   3.912
 6426SOL    HW220178   5.544   5.432   3.952
 6427SOL     OW20179   2.952   3.702   3.398
 6427SOL    HW120180   2.916   3.695   3.491
 6427SOL    HW220181   2.994   3.791   3.385
 6428SOL     OW20182   5.213   3.548   0.560
 6428SOL    HW120183   5.156   3.554   0.642
 6428SOL    HW220184   5.274   3.470   0.567
 6429SOL     OW20185   1.228   0.706   5.706
 6429SOL    HW120186   1.249   0.706   5.608
 6429SOL    HW220187   1.141   0.658   5.722
 6430SOL     OW20188   6.441   0.875   4.943
 6430SOL    HW120189   6.351   0.873   4.987
 6430SOL    HW220190   6.510   0.841   5.008
 6431SOL     OW20191   4.685   5.591   2.896
 6431SOL    HW120192   4.693   5.622   2.990
 6431SOL    HW220193   4.766   5.536   2.872
 6432SOL     OW20194   3.287   4.330   6.210
 6432SOL    HW120195   3.255   4.414   6.166
 6432SOL    HW220196   3.209   4.282   6.251
 6433SOL     OW20197   3.129   5.064   0.219
 6433SOL    HW120198   3.087   4.981   0.180
 6433SOL    HW220199   3.063   5.138   0.219
 6434SOL     OW20200   2.663   6.770   5.984
 6434SOL    HW120201   2.715   6.688   6.008
 6434SOL    HW220202   2.672   6.788   5.886
 6435SOL     OW20203   6.247   0.152   0.952
 6435SOL    HW120204   6.209   0.242   0.931
 6435SOL    HW220205   6.326   0.134   0.893
 6436SOL     OW20206   1.105   3.642   3.437
 6436SOL    HW120207   1.103   3.543   3.431
 6436SOL    HW220208   1.019   3.679   3.401
 6437SOL     OW20209   1.675   2.707   6.550
 6437SOL    HW120210   1.698   2.613   6.526
 6437SOL    HW220211   1.597   2.708   6.613
 6438SOL     OW20212   0.952   4.975   6.221
 6438SOL    HW120213   0.870   4.961   6.165
 6438SOL    HW220214   1.012   4.895   6.213
 6439SOL     OW20215   5.503   1.091   2.911
 6439SOL    HW120216   5.459   1.072   2.823
 6439SOL    HW220217   5.539   1.006   2.949
 6440SOL     OW20218   2.668   0.405   6.073
 6440SOL    HW120219   2.761   0.385   6.043
 6440SOL    HW220220   2.605   0.336   6.037
 6441SOL     OW20221   0.933   1.164   1.500
 6441SOL    HW120222   0.858   1.205   1.449
 6441SOL    HW220223   0.952   1.072   1.465
 6442SOL     OW20224   2.552   1.617   4.695
 6442SOL    HW120225   2.528   1.619   4.598
 6442SOL    HW220226   2.614   1.693   4.715
 6443SOL     OW20227   3.499   2.345   5.889
 6443SOL    HW120228   3.500   2.259   5.940
 6443SOL    HW220229   3.424   2.342   5.822
 6444SOL     OW20230   6.102   2.656   4.623
 6444SOL    HW120231   6.164   2.675   4.699
 6444SOL    HW220232   6.155   2.624   4.544
 6445SOL     OW20233   3.933   3.379   3.327
 6445SOL    HW120234   3.854   3.317   3.334
 6445SOL    HW220235   3.984   3.379   3.413
 6446SOL     OW20236   0.113   2.127   0.350
 6446SOL    HW120237   0.057   2.108   0.431
 6446SOL    HW220238   0.150   2.041   0.315
 6447SOL     OW20239   6.258   4.444   1.729
 6447SOL    HW120240   6.343   4.496   1.724
 6447SOL    HW220241   6.216   4.456   1.818
 6448SOL     OW20242   4.992   4.668   1.512
 6448SOL    HW120243   4.975   4.672   1.414
 6448SOL    HW220244   4.949   4.586   1.550
 6449SOL     OW20245   2.777   5.098   1.796
 6449SOL    HW120246   2.704   5.059   1.740
 6449SOL    HW220247   2.802   5.034   1.868
 6450SOL     OW20248   0.891   3.980   0.121
 6450SOL    HW120249   0.949   4.003   0.043
 6450SOL    HW220250   0.940   3.918   0.182
 6451SOL     OW20251   2.764   1.396   5.946
 6451SOL    HW120252   2.682   1.390   6.002
 6451SOL    HW220253   2.760   1.329   5.872
 6452SOL     OW20254   4.834   3.935   2.704
 6452SOL    HW120255   4.798   3.849   2.740
 6452SOL    HW220256   4.914   3.917   2.647
 6453SOL     OW20257   2.538   6.876   1.354
 6453SOL    HW120258   2.535   6.976   1.357
 6453SOL    HW220259   2.604   6.847   1.285
 6454SOL     OW20260   0.593   1.393   2.702
 6454SOL    HW120261   0.612   1.300   2.670
 6454SOL    HW220262   0.645   1.410   2.786
 6455SOL     OW20263   6.565   3.047   3.509
 6455SOL    HW120264   6.602   3.024   3.599
 6455SOL    HW220265   6.500   3.123   3.518
 6456SOL     OW20266   1.536   1.021   2.889
 6456SOL    HW120267   1.532   0.928   2.927
 6456SOL    HW220268   1.627   1.060   2.905
 6457SOL     OW20269   4.942   6.462   1.194
 6457SOL    HW120270   4.903   6.490   1.281
 6457SOL    HW220271   4.981   6.370   1.203
 6458SOL     OW20272   1.581   4.931   4.900
 6458SOL    HW120273   1.594   4.852   4.960
 6458SOL    HW220274   1.669   4.976   4.885
 6459SOL     OW20275   6.280   2.576   2.721
 6459SOL    HW120276   6.270   2.594   2.819
 6459SOL    HW220277   6.195   2.536   2.686
 6460SOL     OW20278   6.042   5.982   5.892
 6460SOL    HW120279   6.003   5.893   5.868
 6460SOL    HW220280   5.976   6.033   5.948
 6461SOL     OW20281   2.576   4.196   0.257
 6461SOL    HW120282   2.558   4.236   0.167
 6461SOL    HW220283   2.530   4.108   0.264
 6462SOL     OW20284   0.390   3.112   4.590
 6462SOL    HW120285   0.436   3.075   4.671
 6462SOL    HW220286   0.358   3.037   4.533
 6463SOL     OW20287   5.108   6.626   0.707
 6463SOL    HW120288   5.053   6.615   0.624
 6463SOL    HW220289   5.054   6.598   0.787
 6464SOL     OW20290   1.777   5.687   5.098
 6464SOL    HW120291   1.754   5.757   5.030
 6464SOL    HW220292   1.696   5.668   5.154
 6465SOL     OW20293   6.663   3.014   2.421
 6465SOL    HW120294   6.588   3.022   2.356
 6465SOL    HW220295   6.675   2.918   2.447
 6466SOL     OW20296   6.683   1.792   0.096
 6466SOL    HW120297   6.685   1.702   0.053
 6466SOL    HW220298   6.591   1.810   0.133
 6467SOL     OW20299   3.923   0.317   1.151
 6467SOL    HW120300   3.947   0.273   1.065
 6467SOL    HW220301   3.940   0.415   1.145
 6468SOL     OW20302   3.365   6.327   1.809
 6468SOL    HW120303   3.362   6.397   1.881
 6468SOL    HW220304   3.392   6.240   1.849
 6469SOL     OW20305   3.645   2.088   3.770
 6469SOL    HW120306   3.566   2.131   3.814
 6469SOL    HW220307   3.617   2.000   3.730
 6470SOL     OW20308   6.230   2.724   0.376
 6470SOL    HW120309   6.250   2.688   0.467
 6470SOL    HW220310   6.283   2.673   0.308
 6471SOL     OW20311   0.797   6.369   5.723
 6471SOL    HW120312   0.726   6.310   5.684
 6471SOL    HW220313   0.755   6.430   5.791
 6472SOL     OW20314   6.409   5.789   2.829
 6472SOL    HW120315   6.345   5.807   2.754
 6472SOL    HW220316   6.357   5.762   2.910
 6473SOL     OW20317   1.918   1.647   5.412
 6473SOL    HW120318   1.946   1.737   5.446
 6473SOL    HW220319   1.995   1.605   5.364
 6474SOL     OW20320   3.753   5.512   5.926
 6474SOL    HW120321   3.830   5.573   5.942
 6474SOL    HW220322   3.701   5.542   5.846
 6475SOL     OW20323   5.906   4.387   3.658
 6475SOL    HW120324   5.850   4.412   3.579
 6475SOL    HW220325   5.999   4.420   3.645
 6476SOL     OW20326   4.699   3.145   6.466
 6476SOL    HW120327   4.601   3.143   6.488
 6476SOL    HW220328   4.712   3.124   6.369
 6477SOL     OW20329   6.027   5.331   1.167
 6477SOL    HW120330   6.077   5.247   1.144
 6477SOL    HW220331   6.055   5.404   1.104
 6478SOL     OW20332   3.359   6.692   2.449
 6478SOL    HW120333   3.394   6.640   2.371
 6478SOL    HW220334   3.428   6.759   2.477
 6479SOL     OW20335   3.379   5.282   4.473
 6479SOL    HW120336   3.461   5.317   4.519
 6479SOL    HW220337   3.368   5.328   4.385
 6480SOL     OW20338   2.037   1.409   6.903
 6480SOL    HW120339   1.997   1.500   6.894
 6480SOL    HW220340   2.031   1.360   6.815
 6481SOL     OW20341   3.355   2.577   1.740
 6481SOL    HW120342   3.388   2.493   1.696
 6481SOL    HW220343   3.412   2.597   1.820
 6482SOL     OW20344   6.536   2.438   6.714
 6482SOL    HW120345   6.454   2.444   6.659
 6482SOL    HW220346   6.531   2.503   6.790
 6483SOL     OW20347   0.079   6.511   3.777
 6483SOL    HW120348   0.067   6.609   3.793
 6483SOL    HW220349   0.132   6.497   3.693
 6484SOL     OW20350   3.275   1.037   2.603
 6484SOL    HW120351   3.176   1.038   2.620
 6484SOL    HW220352   3.300   1.117   2.548
 6485SOL     OW20353   2.004   5.847   3.651
 6485SOL    HW120354   2.037   5.784   3.722
 6485SOL    HW220355   2.078   5.910   3.626
 6486SOL     OW20356   0.521   5.609   2.412
 6486SOL    HW120357   0.579   5.564   2.479
 6486SOL    HW220358   0.440   5.553   2.394
 6487SOL     OW20359   0.790   6.691   5.554
 6487SOL    HW120360   0.874   6.671   5.503
 6487SOL    HW220361   0.714   6.640   5.514
 6488SOL     OW20362   4.333   5.737   4.550
 6488SOL    HW120363   4.429   5.739   4.579
 6488SOL    HW220364   4.289   5.824   4.575
 6489SOL     OW20365   3.376   3.527   6.393
 6489SOL    HW120366   3.386   3.437   6.349
 6489SOL    HW220367   3.350   3.595   6.324
 6490SOL     OW20368   2.927   1.082   6.113
 6490SOL    HW120369   2.956   1.112   6.022
 6490SOL    HW220370   2.846   1.133   6.141
 6491SOL     OW20371   2.798   0.559   1.759
 6491SOL    HW120372   2.826   0.545   1.854
 6491SOL    HW220373   2.701   0.583   1.757
 6492SOL     OW20374   3.832   3.291   4.865
 6492SOL    HW120375   3.768   3.320   4.795
 6492SOL    HW220376   3.904   3.360   4.876
 6493SOL     OW20377   0.890   4.340   6.319
 6493SOL    HW120378   0.959   4.399   6.361
 6493SOL    HW220379   0.888   4.355   6.220
 6494SOL     OW20380   6.848   6.571   2.560
 6494SOL    HW120381   6.938   6.605   2.532
 6494SOL    HW220382   6.800   6.643   2.610
 6495SOL     OW20383   6.588   0.753   4.581
 6495SOL    HW120384   6.565   0.776   4.486
 6495SOL    HW220385   6.561   0.829   4.641
 6496SOL     OW20386   5.776   0.032   1.563
 6496SOL    HW120387   5.700   0.077   1.609
 6496SOL    HW220388   5.852   0.096   1.551
 6497SOL     OW20389   1.474   0.438   1.269
 6497SOL    HW120390   1.483   0.367   1.340
 6497SOL    HW220391   1.437   0.521   1.311
 6498SOL     OW20392   0.797   4.180   4.481
 6498SOL    HW120393   0.757   4.107   4.537
 6498SOL    HW220394   0.895   4.187   4.501
 6499SOL     OW20395   5.895   3.963   4.718
 6499SOL    HW120396   5.940   4.021   4.650
 6499SOL    HW220397   5.810   4.006   4.749
 6500SOL     OW20398   0.225   4.030   2.717
 6500SOL    HW120399   0.285   3.991   2.647
 6500SOL    HW220400   0.247   4.126   2.729
 6501SOL     OW20401   0.133   0.988   0.962
 6501SOL    HW120402   0.066   0.915   0.976
 6501SOL    HW220403   0.195   0.992   1.041
 6502SOL     OW20404   0.264   3.702   1.523
 6502SOL    HW120405   0.270   3.708   1.623
 6502SOL    HW220406   0.285   3.791   1.483
 6503SOL     OW20407   5.754   0.942   3.674
 6503SOL    HW120408   5.832   0.958   3.734
 6503SOL    HW220409   5.686   1.015   3.685
 6504SOL     OW20410   3.358   6.394   6.650
 6504SOL    HW120411   3.363   6.488   6.617
 6504SOL    HW220412   3.347   6.332   6.572
 6505SOL     OW20413   4.457   6.500   5.880
 6505SOL    HW120414   4.408   6.521   5.965
 6505SOL    HW220415   4.496   6.408   5.885
 6506SOL     OW20416   0.148   2.438   3.516
 6506SOL    HW120417   0.159   2.415   3.613
 6506SOL    HW220418   0.079   2.378   3.476
 6507SOL     OW20419   2.849   5.603   5.976
 6507SOL    HW120420   2.874   5.600   5.879
 6507SOL    HW220421   2.763   5.654   5.986
 6508SOL     OW20422   1.781   0.543   2.743
 6508SOL    HW120423   1.843   0.473   2.777
 6508SOL    HW220424   1.806   0.569   2.650
 6509SOL     OW20425   4.830   1.675   4.784
 6509SOL    HW120426   4.925   1.703   4.773
 6509SOL    HW220427   4.776   1.713   4.708
 6510SOL     OW20428   5.105   5.211   6.609
 6510SOL    HW120429   5.107   5.262   6.696
 6510SOL    HW220430   5.136   5.271   6.535
 6511SOL     OW20431   4.730   1.327   4.990
 6511SOL    HW120432   4.823   1.319   5.027
 6511SOL    HW220433   4.672   1.256   5.029
 6512SOL     OW20434   3.140   6.537   2.395
 6512SOL    HW120435   3.076   6.486   2.453
 6512SOL    HW220436   3.213   6.575   2.452
 6513SOL     OW20437   1.594   6.119   4.061
 6513SOL    HW120438   1.553   6.094   4.148
 6513SOL    HW220439   1.540   6.190   4.017
 6514SOL     OW20440   5.974   1.171   4.429
 6514SOL    HW120441   6.065   1.131   4.429
 6514SOL    HW220442   5.947   1.195   4.336
 6515SOL     OW20443   1.448   3.647   2.859
 6515SOL    HW120444   1.521   3.588   2.893
 6515SOL    HW220445   1.390   3.596   2.796
 6516SOL     OW20446   6.968   2.973   1.252
 6516SOL    HW120447   6.971   3.073   1.248
 6516SOL    HW220448   6.928   2.937   1.168
 6517SOL     OW20449   0.168   2.055   1.294
 6517SOL    HW120450   0.150   1.961   1.265
 6517SOL    HW220451   0.082   2.099   1.321
 6518SOL     OW20452   0.451   0.561   1.914
 6518SOL    HW120453   0.435   0.658   1.932
 6518SOL    HW220454   0.550   0.544   1.911
 6519SOL     OW20455   6.845   1.987   2.857
 6519SOL    HW120456   6.833   1.909   2.919
 6519SOL    HW220457   6.844   1.954   2.762
 6520SOL     OW20458   0.030   5.781   6.798
 6520SOL    HW120459   0.062   5.849   6.865
 6520SOL    HW220460   7.014   5.828   6.719
 6521SOL     OW20461   2.330   2.827   4.055
 6521SOL    HW120462   2.284   2.912   4.079
 6521SOL    HW220463   2.305   2.756   4.121
 6522SOL     OW20464   2.402   4.420   4.671
 6522SOL    HW120465   2.305   4.445   4.668
 6522SOL    HW220466   2.415   4.346   4.737
 6523SOL     OW20467   3.695   0.619   6.522
 6523SOL    HW120468   3.699   0.719   6.524
 6523SOL    HW220469   3.600   0.589   6.526
 6524SOL     OW20470   2.960   2.606   1.345
 6524SOL    HW120471   3.022   2.533   1.373
 6524SOL    HW220472   2.949   2.671   1.420
 6525SOL     OW20473   1.980   5.013   3.041
 6525SOL    HW120474   1.908   4.999   3.108
 6525SOL    HW220475   1.940   5.016   2.949
 6526SOL     OW20476   0.675   0.449   1.335
 6526SOL    HW120477   0.723   0.361   1.344
 6526SOL    HW220478   0.742   0.522   1.322
 6527SOL     OW20479   6.800   2.134   0.221
 6527SOL    HW120480   6.836   2.065   0.158
 6527SOL    HW220481   6.727   2.093   0.276
 6528SOL     OW20482   6.549   1.754   5.417
 6528SOL    HW120483   6.542   1.684   5.346
 6528SOL    HW220484   6.597   1.717   5.496
 6529SOL     OW20485   1.267   0.587   2.730
 6529SOL    HW120486   1.275   0.511   2.794
 6529SOL    HW220487   1.348   0.644   2.736
 6530SOL     OW20488   0.277   1.827   0.850
 6530SOL    HW120489   0.297   1.919   0.883
 6530SOL    HW220490   0.357   1.768   0.864
 6531SOL     OW20491   4.853   3.305   5.041
 6531SOL    HW120492   4.875   3.242   4.966
 6531SOL    HW220493   4.841   3.397   5.005
 6532SOL     OW20494   1.819   1.156   0.985
 6532SOL    HW120495   1.898   1.108   1.023
 6532SOL    HW220496   1.758   1.185   1.059
 6533SOL     OW20497   4.228   5.776   0.440
 6533SOL    HW120498   4.189   5.818   0.358
 6533SOL    HW220499   4.280   5.695   0.415
 6534SOL     OW20500   5.210   5.112   1.559
 6534SOL    HW120501   5.124   5.067   1.531
 6534SOL    HW220502   5.232   5.086   1.653
 6535SOL     OW20503   6.246   4.783   4.241
 6535SOL    HW120504   6.249   4.798   4.340
 6535SOL    HW220505   6.331   4.817   4.200
 6536SOL     OW20506   0.231   1.838   4.982
 6536SOL    HW120507   0.196   1.758   4.933
 6536SOL    HW220508   0.312   1.873   4.936
 6537SOL     OW20509   6.701   4.680   5.077
 6537SOL    HW120510   6.649   4.605   5.036
 6537SOL    HW220511   6.643   4.762   5.081
 6538SOL     OW20512   1.564   3.562   5.843
 6538SOL    HW120513   1.510   3.483   5.873
 6538SOL    HW220514   1.539   3.641   5.899
 6539SOL     OW20515   5.224   0.300   6.659
 6539SOL    HW120516   5.221   0.277   6.756
 6539SOL    HW220517   5.276   0.231   6.609
 6540SOL     OW20518   3.677   2.826   6.132
 6540SOL    HW120519   3.716   2.808   6.222
 6540SOL    HW220520   3.578   2.826   6.138
 6541SOL     OW20521   5.367   1.952   5.954
 6541SOL    HW120522   5.352   1.999   5.867
 6541SOL    HW220523   5.296   1.884   5.969
 6542SOL     OW20524   1.196   3.400   4.066
 6542SOL    HW120525   1.132   3.476   4.062
 6542SOL    HW220526   1.158   3.328   4.125
 6543SOL     OW20527   4.215   2.518   5.607
 6543SOL    HW120528   4.297   2.471   5.640
 6543SOL    HW220529   4.241   2.584   5.536
 6544SOL     OW20530   1.140   6.780   3.206
 6544SOL    HW120531   1.048   6.739   3.208
 6544SOL    HW220532   1.184   6.756   3.119
 6545SOL     OW20533   4.524   0.791   0.187
 6545SOL    HW120534   4.569   0.704   0.166
 6545SOL    HW220535   4.499   0.836   0.102
 6546SOL     OW20536   3.055   4.201   6.255
 6546SOL    HW120537   2.979   4.189   6.191
 6546SOL    HW220538   3.036   4.277   6.316
 6547SOL     OW20539   4.922   0.477   6.616
 6547SOL    HW120540   4.967   0.432   6.693
 6547SOL    HW220541   4.840   0.427   6.591
 6548SOL     OW20542   1.279   2.745   0.844
 6548SOL    HW120543   1.365   2.773   0.801
 6548SOL    HW220544   1.298   2.686   0.922
 6549SOL     OW20545   4.579   0.562   2.200
 6549SOL    HW120546   4.527   0.555   2.285
 6549SOL    HW220547   4.517   0.581   2.124
 6550SOL     OW20548   0.525   6.759   4.066
 6550SOL    HW120549   0.521   6.832   3.998
 6550SOL    HW220550   0.552   6.674   4.022
 6551SOL     OW20551   2.127   3.509   1.741
 6551SOL    HW120552   2.198   3.485   1.675
 6551SOL    HW220553   2.164   3.501   1.834
 6552SOL     OW20554   2.416   6.752   0.262
 6552SOL    HW120555   2.328   6.800   0.265
 6552SOL    HW220556   2.402   6.655   0.282
 6553SOL     OW20557   0.773   2.329   2.961
 6553SOL    HW120558   0.801   2.309   3.055
 6553SOL    HW220559   0.714   2.256   2.927
 6554SOL     OW20560   1.627   0.332   4.377
 6554SOL    HW120561   1.625   0.421   4.332
 6554SOL    HW220562   1.704   0.329   4.441
 6555SOL     OW20563   5.926   1.980   3.349
 6555SOL    HW120564   5.848   1.951   3.293
 6555SOL    HW220565   5.925   1.930   3.436
 6556SOL     OW20566   5.979   3.670   3.071
 6556SOL    HW120567   6.070   3.634   3.052
 6556SOL    HW220568   5.977   3.769   3.054
 6557SOL     OW20569   2.537   0.694   3.687
 6557SOL    HW120570   2.540   0.790   3.714
 6557SOL    HW220571   2.445   0.658   3.698
 6558SOL     OW20572   5.933   5.505   0.044
 6558SOL    HW120573   5.884   5.422   0.021
 6558SOL    HW220574   5.952   5.507   0.142
 6559SOL     OW20575   6.972   4.369   6.614
 6559SOL    HW120576   6.909   4.388   6.539
 6559SOL    HW220577   6.981   4.270   6.627
 6560SOL     OW20578   3.727   4.419   1.474
 6560SOL    HW120579   3.696   4.381   1.387
 6560SOL    HW220580   3.681   4.506   1.491
 6561SOL     OW20581   3.261   4.112   1.458
 6561SOL    HW120582   3.197   4.035   1.456
 6561SOL    HW220583   3.352   4.080   1.430
 6562SOL     OW20584   5.305   2.164   1.222
 6562SOL    HW120585   5.368   2.086   1.222
 6562SOL    HW220586   5.355   2.247   1.195
 6563SOL     OW20587   5.221   6.380   6.393
 6563SOL    HW120588   5.122   6.397   6.387
 6563SOL    HW220589   5.270   6.464   6.371
 6564SOL     OW20590   6.735   3.738   1.830
 6564SOL    HW120591   6.694   3.674   1.894
 6564SOL    HW220592   6.829   3.710   1.810
 6565SOL     OW20593   6.383   0.286   3.220
 6565SOL    HW120594   6.347   0.200   3.255
 6565SOL    HW220595   6.420   0.271   3.128
 6566SOL     OW20596   3.691   6.319   2.869
 6566SOL    HW120597   3.644   6.361   2.791
 6566SOL    HW220598   3.625   6.273   2.927
 6567SOL     OW20599   5.157   1.023   2.245
 6567SOL    HW120600   5.247   1.029   2.200
 6567SOL    HW220601   5.108   1.109   2.233
 6568SOL     OW20602   3.572   1.844   3.696
 6568SOL    HW120603   3.517   1.824   3.614
 6568SOL    HW220604   3.661   1.798   3.688
 6569SOL     OW20605   2.501   2.740   6.811
 6569SOL    HW120606   2.584   2.775   6.856
 6569SOL    HW220607   2.442   2.698   6.880
 6570SOL     OW20608   3.269   0.917   2.147
 6570SOL    HW120609   3.357   0.959   2.166
 6570SOL    HW220610   3.281   0.842   2.081
 6571SOL     OW20611   2.928   4.831   2.623
 6571SOL    HW120612   2.884   4.772   2.691
 6571SOL    HW220613   2.923   4.926   2.653
 6572SOL     OW20614   0.122   4.572   4.098
 6572SOL    HW120615   0.183   4.607   4.027
 6572SOL    HW220616   0.056   4.509   4.058
 6573SOL     OW20617   0.639   2.039   2.061
 6573SOL    HW120618   0.602   1.946   2.063
 6573SOL    HW220619   0.620   2.083   2.149
 6574SOL     OW20620   2.561   5.911   2.817
 6574SOL    HW120621   2.462   5.897   2.818
 6574SOL    HW220622   2.591   5.929   2.724
 6575SOL     OW20623   0.626   6.737   3.553
 6575SOL    HW120624   0.695   6.680   3.511
 6575SOL    HW220625   0.655   6.762   3.646
 6576SOL     OW20626   3.121   6.320   0.605
 6576SOL    HW120627   3.133   6.222   0.624
 6576SOL    HW220628   3.026   6.337   0.579
 6577SOL     OW20629   1.516   1.825   3.488
 6577SOL    HW120630   1.615   1.838   3.499
 6577SOL    HW220631   1.470   1.914   3.492
 6578SOL     OW20632   0.954   6.209   2.064
 6578SOL    HW120633   0.918   6.281   2.005
 6578SOL    HW220634   0.944   6.120   2.020
 6579SOL     OW20635   6.548   2.645   3.771
 6579SOL    HW120636   6.470   2.584   3.788
 6579SOL    HW220637   6.575   2.689   3.856
 6580SOL     OW20638   0.527   1.890   0.416
 6580SOL    HW120639   0.521   1.807   0.471
 6580SOL    HW220640   0.440   1.939   0.420
 6581SOL     OW20641   2.422   0.812   0.811
 6581SOL    HW120642   2.446   0.908   0.818
 6581SOL    HW220643   2.327   0.799   0.842
 6582SOL     OW20644   0.149   1.034   3.278
 6582SOL    HW120645   0.110   1.074   3.195
 6582SOL    HW220646   0.076   0.995   3.334
 6583SOL     OW20647   4.889   6.356   5.313
 6583SOL    HW120648   4.808   6.355   5.254
 6583SOL    HW220649   4.882   6.283   5.381
 6584SOL     OW20650   4.257   1.800   6.966
 6584SOL    HW120651   4.224   1.787   0.037
 6584SOL    HW220652   4.349   1.763   6.957
 6585SOL     OW20653   6.167   5.863   0.195
 6585SOL    HW120654   6.191   5.800   0.121
 6585SOL    HW220655   6.247   5.876   0.254
 6586SOL     OW20656   6.164   1.737   5.788
 6586SOL    HW120657   6.154   1.837   5.790
 6586SOL    HW220658   6.145   1.704   5.695
 6587SOL     OW20659   1.339   4.862   6.528
 6587SOL    HW120660   1.387   4.796   6.586
 6587SOL    HW220661   1.242   4.863   6.553
 6588SOL     OW20662   0.660   2.855   1.397
 6588SOL    HW120663   0.604   2.938   1.388
 6588SOL    HW220664   0.717   2.862   1.479
 6589SOL     OW20665   4.508   0.575   1.890
 6589SOL    HW120666   4.560   0.649   1.848
 6589SOL    HW220667   4.412   0.583   1.863
 6590SOL     OW20668   0.213   1.163   6.511
 6590SOL    HW120669   0.232   1.196   6.604
 6590SOL    HW220670   0.264   1.079   6.494
 6591SOL     OW20671   5.170   5.728   3.666
 6591SOL    HW120672   5.210   5.642   3.632
 6591SOL    HW220673   5.104   5.762   3.599
 6592SOL     OW20674   5.540   6.525   2.821
 6592SOL    HW120675   5.577   6.497   2.910
 6592SOL    HW220676   5.441   6.513   2.821
 6593SOL     OW20677   2.540   2.506   2.392
 6593SOL    HW120678   2.452   2.462   2.409
 6593SOL    HW220679   2.558   2.506   2.293
 6594SOL     OW20680   3.473   1.278   5.055
 6594SOL    HW120681   3.570   1.277   5.032
 6594SOL    HW220682   3.419   1.247   4.976
 6595SOL     OW20683   1.110   4.146   6.483
 6595SOL    HW120684   1.059   4.218   6.435
 6595SOL    HW220685   1.204   4.143   6.449
 6596SOL     OW20686   3.583   0.320   4.257
 6596SOL    HW120687   3.584   0.375   4.174
 6596SOL    HW220688   3.513   0.249   4.249
 6597SOL     OW20689   1.855   5.040   1.770
 6597SOL    HW120690   1.838   5.076   1.678
 6597SOL    HW220691   1.769   5.039   1.821
 6598SOL     OW20692   1.752   4.543   3.340
 6598SOL    HW120693   1.737   4.637   3.370
 6598SOL    HW220694   1.733   4.536   3.242
 6599SOL     OW20695   4.284   6.288   6.347
 6599SOL    HW120696   4.218   6.322   6.280
 6599SOL    HW220697   4.361   6.244   6.299
 6600SOL     OW20698   3.628   6.528   5.189
 6600SOL    HW120699   3.722   6.560   5.180
 6600SOL    HW220700   3.566   6.599   5.158
 6601SOL     OW20701   0.710   2.431   4.276
 6601SOL    HW120702   0.686   2.336   4.295
 6601SOL    HW220703   0.647   2.468   4.208
 6602SOL     OW20704   1.875   0.393   1.331
 6602SOL    HW120705   1.964   0.362   1.363
 6602SOL    HW220706   1.834   0.454   1.400
 6603SOL     OW20707   1.016   2.908   3.496
 6603SOL    HW120708   1.001   2.870   3.588
 6603SOL    HW220709   0.981   2.844   3.428
 6604SOL     OW20710   1.873   6.253   1.453
 6604SOL    HW120711   1.900   6.344   1.484
 6604SOL    HW220712   1.773   6.244   1.459
 6605SOL     OW20713   5.408   4.933   2.182
 6605SOL    HW120714   5.406   4.838   2.214
 6605SOL    HW220715   5.412   4.995   2.261
 6606SOL     OW20716   6.908   5.528   2.179
 6606SOL    HW120717   6.869   5.569   2.097
 6606SOL    HW220718   6.941   5.436   2.158
 6607SOL     OW20719   1.131   4.775   3.443
 6607SOL    HW120720   1.098   4.694   3.490
 6607SOL    HW220721   1.160   4.843   3.510
 6608SOL     OW20722   0.016   6.431   6.712
 6608SOL    HW120723   0.035   6.525   6.683
 6608SOL    HW220724   0.013   6.427   6.812
 6609SOL     OW20725   5.544   1.057   0.064
 6609SOL    HW120726   5.504   0.968   0.087
 6609SOL    HW220727   5.472   1.120   0.035
 6610SOL     OW20728   2.792   6.582   0.035
 6610SOL    HW120729   2.787   6.492   0.079
 6610SOL    HW220730   2.869   6.633   0.073
 6611SOL     OW20731   4.786   2.874   3.305
 6611SOL    HW120732   4.796   2.956   3.250
 6611SOL    HW220733   4.772   2.899   3.401
 6612SOL     OW20734   6.750   2.344   6.591
 6612SOL    HW120735   6.714   2.299   6.509
 6612SOL    HW220736   6.676   2.392   6.637
 6613SOL     OW20737   6.613   6.568   5.576
 6613SOL    HW120738   6.567   6.560   5.488
 6613SOL    HW220739   6.691   6.506   5.579
 6614SOL     OW20740   4.477   6.270   6.958
 6614SOL    HW120741   4.511   6.360   6.982
 6614SOL    HW220742   4.532   6.231   6.884
 6615SOL     OW20743   1.224   5.487   1.233
 6615SOL    HW120744   1.249   5.408   1.290
 6615SOL    HW220745   1.307   5.526   1.192
 6616SOL     OW20746   4.452   0.226   6.705
 6616SOL    HW120747   4.366   0.276   6.713
 6616SOL    HW220748   4.434   0.134   6.668
 6617SOL     OW20749   4.224   5.710   3.397
 6617SOL    HW120750   4.181   5.801   3.398
 6617SOL    HW220751   4.312   5.715   3.350
 6618SOL     OW20752   2.052   1.741   2.543
 6618SOL    HW120753   2.088   1.771   2.455
 6618SOL    HW220754   1.966   1.693   2.529
 6619SOL     OW20755   5.350   6.982   4.174
 6619SOL    HW120756   5.401   0.018   4.110
 6619SOL    HW220757   5.300   0.016   4.239
 6620SOL     OW20758   2.229   3.438   5.194
 6620SOL    HW120759   2.325   3.413   5.194
 6620SOL    HW220760   2.174   3.357   5.217
 6621SOL     OW20761   3.711   3.296   5.470
 6621SOL    HW120762   3.776   3.302   5.394
 6621SOL    HW220763   3.760   3.268   5.553
 6622SOL     OW20764   5.544   6.193   2.458
 6622SOL    HW120765   5.554   6.284   2.499
 6622SOL    HW220766   5.452   6.159   2.475
 6623SOL     OW20767   4.179   3.458   5.099
 6623SOL    HW120768   4.279   3.457   5.093
 6623SOL    HW220769   4.142   3.377   5.054
 6624SOL     OW20770   0.672   4.547   5.182
 6624SOL    HW120771   0.637   4.599   5.260
 6624SOL    HW220772   0.762   4.510   5.205
 6625SOL     OW20773   5.602   1.803   4.914
 6625SOL    HW120774   5.692   1.810   4.957
 6625SOL    HW220775   5.604   1.847   4.824
 6626SOL     OW20776   3.130   0.061   5.546
 6626SOL    HW120777   3.159   6.990   5.566
 6626SOL    HW220778   3.164   0.088   5.457
 6627SOL     OW20779   1.707   6.589   3.404
 6627SOL    HW120780   1.756   6.594   3.491
 6627SOL    HW220781   1.772   6.564   3.331
 6628SOL     OW20782   5.731   5.389   4.561
 6628SOL    HW120783   5.712   5.406   4.658
 6628SOL    HW220784   5.829   5.399   4.544
 6629SOL     OW20785   4.537   5.823   6.470
 6629SOL    HW120786   4.541   5.917   6.505
 6629SOL    HW220787   4.487   5.822   6.384
 6630SOL     OW20788   3.729   1.849   1.483
 6630SOL    HW120789   3.642   1.818   1.522
 6630SOL    HW220790   3.722   1.945   1.455
 6631SOL     OW20791   2.210   6.335   3.994
 6631SOL    HW120792   2.253   6.270   3.932
 6631SOL    HW220793   2.129   6.374   3.950
 6632SOL     OW20794   0.913   0.632   0.997
 6632SOL    HW120795   1.011   0.622   0.979
 6632SOL    HW220796   0.862   0.624   0.911
 6633SOL     OW20797   2.003   5.150   6.109
 6633SOL    HW120798   2.058   5.113   6.034
 6633SOL    HW220799   1.915   5.181   6.073
 6634SOL     OW20800   5.551   1.624   5.478
 6634SOL    HW120801   5.564   1.714   5.518
 6634SOL    HW220802   5.541   1.556   5.551
 6635SOL     OW20803   5.065   4.669   3.910
 6635SOL    HW120804   5.018   4.588   3.876
 6635SOL    HW220805   4.999   4.731   3.952
 6636SOL     OW20806   4.819   1.584   0.370
 6636SOL    HW120807   4.779   1.599   0.279
 6636SOL    HW220808   4.895   1.648   0.384
 6637SOL     OW20809   1.435   0.037   6.925
 6637SOL    HW120810   1.531   0.008   6.923
 6637SOL    HW220811   1.378   6.987   6.889
 6638SOL     OW20812   2.891   3.603   3.165
 6638SOL    HW120813   2.888   3.683   3.104
 6638SOL    HW220814   2.913   3.633   3.257
 6639SOL     OW20815   4.276   4.389   7.015
 6639SOL    HW120816   4.359   4.337   6.995
 6639SOL    HW220817   4.293   4.448   0.072
 6640SOL     OW20818   6.674   1.984   5.295
 6640SOL    HW120819   6.635   1.902   5.337
 6640SOL    HW220820   6.687   2.055   5.364
 6641SOL     OW20821   3.511   1.501   6.853
 6641SOL    HW120822   3.437   1.528   6.914
 6641SOL    HW220823   3.570   1.436   6.900
 6642SOL     OW20824   2.868   5.973   6.238
 6642SOL    HW120825   2.924   5.899   6.202
 6642SOL    HW220826   2.773   5.959   6.213
 6643SOL     OW20827   5.499   6.138   0.213
 6643SOL    HW120828   5.591   6.148   0.175
 6643SOL    HW220829   5.451   6.065   0.165
 6644SOL     OW20830   2.207   5.838   1.541
 6644SOL    HW120831   2.214   5.927   1.495
 6644SOL    HW220832   2.135   5.784   1.498
 6645SOL     OW20833   5.337   3.812   0.821
 6645SOL    HW120834   5.245   3.819   0.782
 6645SOL    HW220835   5.399   3.874   0.772
 6646SOL     OW20836   4.943   1.455   5.328
 6646SOL    HW120837   5.037   1.443   5.361
 6646SOL    HW220838   4.914   1.372   5.280
 6647SOL     OW20839   4.329   0.014   0.105
 6647SOL    HW120840   4.257   0.028   0.173
 6647SOL    HW220841   4.374   0.101   0.086
 6648SOL     OW20842   3.266   6.748   4.660
 6648SOL    HW120843   3.324   6.678   4.617
 6648SOL    HW220844   3.223   6.710   4.742
 6649SOL     OW20845   6.084   1.720   6.046
 6649SOL    HW120846   6.123   1.726   5.954
 6649SOL    HW220847   6.081   1.811   6.088
 6650SOL     OW20848   3.944   1.548   5.302
 6650SOL    HW120849   3.987   1.601   5.229
 6650SOL    HW220850   3.914   1.610   5.375
 6651SOL     OW20851   1.654   1.203   5.879
 6651SOL    HW120852   1.694   1.239   5.963
 6651SOL    HW220853   1.559   1.177   5.896
 6652SOL     OW20854   0.066   4.549   6.800
 6652SOL    HW120855   0.036   4.644   6.788
 6652SOL    HW220856   0.003   4.488   6.752
 6653SOL     OW20857   4.063   3.173   1.454
 6653SOL    HW120858   4.002   3.121   1.394
 6653SOL    HW220859   4.145   3.119   1.472
 6654SOL     OW20860   1.503   5.318   1.564
 6654SOL    HW120861   1.541   5.373   1.638
 6654SOL    HW220862   1.408   5.345   1.547
 6655SOL     OW20863   6.803   6.493   3.004
 6655SOL    HW120864   6.723   6.541   2.966
 6655SOL    HW220865   6.787   6.394   3.000
 6656SOL     OW20866   5.785   1.871   2.615
 6656SOL    HW120867   5.803   1.936   2.689
 6656SOL    HW220868   5.869   1.821   2.593
 6657SOL     OW20869   6.239   3.777   4.768
 6657SOL    HW120870   6.228   3.677   4.771
 6657SOL    HW220871   6.156   3.820   4.803
 6658SOL     OW20872   5.300   0.653   5.215
 6658SOL    HW120873   5.210   0.694   5.225
 6658SOL    HW220874   5.291   0.553   5.209
 6659SOL     OW20875   2.149   2.885   1.446
 6659SOL    HW120876   2.190   2.918   1.531
 6659SOL    HW220877   2.050   2.904   1.448
 6660SOL     OW20878   1.489   4.907   1.740
 6660SOL    HW120879   1.444   4.820   1.717
 6660SOL    HW220880   1.514   4.955   1.655
 6661SOL     OW20881   2.463   0.278   5.295
 6661SOL    HW120882   2.523   0.214   5.247
 6661SOL    HW220883   2.508   0.309   5.379
 6662SOL     OW20884   1.508   0.910   0.348
 6662SOL    HW120885   1.410   0.897   0.366
 6662SOL    HW220886   1.526   1.007   0.332
 6663SOL     OW20887   6.764   6.678   4.932
 6663SOL    HW120888   6.835   6.737   4.892
 6663SOL    HW220889   6.744   6.603   4.870
 6664SOL     OW20890   1.839   6.841   0.781
 6664SOL    HW120891   1.938   6.840   0.768
 6664SOL    HW220892   1.804   6.931   0.756
 6665SOL     OW20893   1.716   6.559   4.595
 6665SOL    HW120894   1.631   6.584   4.641
 6665SOL    HW220895   1.744   6.633   4.533
 6666SOL     OW20896   6.568   5.902   5.533
 6666SOL    HW120897   6.475   5.866   5.523
 6666SOL    HW220898   6.627   5.832   5.573
 6667SOL     OW20899   0.030   6.753   5.494
 6667SOL    HW120900   0.065   6.727   5.404
 6667SOL    HW220901   0.093   6.720   5.565
 6668SOL     OW20902   6.468   5.908   1.160
 6668SOL    HW120903   6.387   5.965   1.166
 6668SOL    HW220904   6.538   5.942   1.223
 6669SOL     OW20905   2.700   2.155   1.991
 6669SOL    HW120906   2.774   2.217   2.015
 6669SOL    HW220907   2.644   2.195   1.918
 6670SOL     OW20908   3.292   1.151   5.454
 6670SOL    HW120909   3.369   1.097   5.487
 6670SOL    HW220910   3.290   1.239   5.501
 6671SOL     OW20911   4.532   7.019   0.290
 6671SOL    HW120912   4.491   0.064   0.352
 6671SOL    HW220913   4.483   7.021   0.202
 6672SOL     OW20914   6.460   1.639   0.585
 6672SOL    HW120915   6.414   1.560   0.625
 6672SOL    HW220916   6.541   1.661   0.640
 6673SOL     OW20917   4.901   4.329   4.008
 6673SOL    HW120918   4.807   4.365   4.006
 6673SOL    HW220919   4.935   4.322   3.914
 6674SOL     OW20920   0.007   4.325   0.224
 6674SOL    HW120921   0.060   4.340   0.308
 6674SOL    HW220922   6.947   4.273   0.246
 6675SOL     OW20923   5.765   3.150   0.239
 6675SOL    HW120924   5.779   3.109   0.149
 6675SOL    HW220925   5.678   3.200   0.240
 6676SOL     OW20926   0.433   3.676   5.043
 6676SOL    HW120927   0.366   3.745   5.013
 6676SOL    HW220928   0.511   3.675   4.981
 6677SOL     OW20929   0.703   1.435   6.341
 6677SOL    HW120930   0.769   1.387   6.283
 6677SOL    HW220931   0.633   1.478   6.284
 6678SOL     OW20932   3.099   3.899   0.658
 6678SOL    HW120933   3.104   3.864   0.564
 6678SOL    HW220934   3.154   3.982   0.664
 6679SOL     OW20935   3.884   0.119   3.950
 6679SOL    HW120936   3.788   0.130   3.926
 6679SOL    HW220937   3.941   0.134   3.869
 6680SOL     OW20938   4.591   6.957   6.380
 6680SOL    HW120939   4.605   0.012   6.440
 6680SOL    HW220940   4.494   6.931   6.380
 6681SOL     OW20941   4.518   5.908   0.530
 6681SOL    HW120942   4.465   5.824   0.540
 6681SOL    HW220943   4.474   5.967   0.462
 6682SOL     OW20944   2.151   5.026   0.253
 6682SOL    HW120945   2.213   5.104   0.241
 6682SOL    HW220946   2.181   4.951   0.192
 6683SOL     OW20947   6.173   3.322   5.547
 6683SOL    HW120948   6.081   3.283   5.551
 6683SOL    HW220949   6.240   3.249   5.562
 6684SOL     OW20950   3.951   6.418   2.669
 6684SOL    HW120951   3.974   6.328   2.632
 6684SOL    HW220952   3.856   6.440   2.644
 6685SOL     OW20953   4.356   3.397   6.454
 6685SOL    HW120954   4.372   3.483   6.407
 6685SOL    HW220955   4.408   3.395   6.540
 6686SOL     OW20956   5.270   5.598   4.287
 6686SOL    HW120957   5.258   5.512   4.337
 6686SOL    HW220958   5.196   5.660   4.311
 6687SOL     OW20959   0.906   3.367   1.993
 6687SOL    HW120960   0.956   3.365   2.079
 6687SOL    HW220961   0.923   3.282   1.943
 6688SOL     OW20962   4.512   4.717   1.316
 6688SOL    HW120963   4.586   4.695   1.379
 6688SOL    HW220964   4.482   4.811   1.332
 6689SOL     OW20965   4.851   4.052   5.664
 6689SOL    HW120966   4.883   3.959   5.683
 6689SOL    HW220967   4.764   4.068   5.710
 6690SOL     OW20968   0.698   0.014   0.485
 6690SOL    HW120969   0.628   0.076   0.523
 6690SOL    HW220970   0.680   6.944   0.517
 6691SOL     OW20971   2.110   0.304   2.426
 6691SOL    HW120972   2.082   0.358   2.505
 6691SOL    HW220973   2.163   0.226   2.457
 6692SOL     OW20974   3.846   3.787   3.461
 6692SOL    HW120975   3.757   3.742   3.464
 6692SOL    HW220976   3.848   3.862   3.528
 6693SOL     OW20977   4.270   2.199   5.265
 6693SOL    HW120978   4.308   2.125   5.209
 6693SOL    HW220979   4.174   2.180   5.285
 6694SOL     OW20980   4.155   5.944   1.369
 6694SOL    HW120981   4.147   6.017   1.437
 6694SOL    HW220982   4.197   5.980   1.286
 6695SOL     OW20983   2.927   2.428   6.109
 6695SOL    HW120984   2.921   2.463   6.203
 6695SOL    HW220985   2.859   2.356   6.096
 6696SOL     OW20986   3.730   3.038   4.104
 6696SOL    HW120987   3.705   3.135   4.112
 6696SOL    HW220988   3.759   3.004   4.193
 6697SOL     OW20989   4.729   1.733   3.027
 6697SOL    HW120990   4.799   1.757   3.094
 6697SOL    HW220991   4.768   1.742   2.935
 6698SOL     OW20992   3.098   2.573   0.879
 6698SOL    HW120993   3.092   2.648   0.945
 6698SOL    HW220994   3.121   2.488   0.927
 6699SOL     OW20995   2.283   6.260   5.462
 6699SOL    HW120996   2.245   6.216   5.543
 6699SOL    HW220997   2.342   6.195   5.413
 6700SOL     OW20998   0.227   1.640   1.402
 6700SOL    HW120999   0.184   1.627   1.313
 6700SOL    HW221000   0.319   1.600   1.401
 6701SOL     OW21001   5.714   5.105   1.681
 6701SOL    HW121002   5.641   5.136   1.621
 6701SOL    HW221003   5.727   5.171   1.755
 6702SOL     OW21004   1.814   2.286   0.948
 6702SOL    HW121005   1.805   2.246   0.857
 6702SOL    HW221006   1.911   2.294   0.972
 6703SOL     OW21007   6.669   7.016   0.897
 6703SOL    HW121008   6.626   6.957   0.965
 6703SOL    HW221009   6.720   0.066   0.944
 6704SOL     OW21010   4.155   2.237   3.008
 6704SOL    HW121011   4.068   2.229   3.058
 6704SOL    HW221012   4.135   2.254   2.912
 6705SOL     OW21013   6.085   2.900   0.529
 6705SOL    HW121014   6.120   2.867   0.617
 6705SOL    HW221015   6.103   2.831   0.459
 6706SOL     OW21016   0.665   5.828   1.260
 6706SOL    HW121017   0.677   5.826   1.160
 6706SOL    HW221018   0.722   5.900   1.299
 6707SOL     OW21019   5.897   6.785   3.556
 6707SOL    HW121020   5.928   6.694   3.529
 6707SOL    HW221021   5.828   6.817   3.491
 6708SOL     OW21022   5.374   5.452   1.003
 6708SOL    HW121023   5.471   5.432   1.016
 6708SOL    HW221024   5.323   5.367   0.994
 6709SOL     OW21025   1.354   6.063   3.031
 6709SOL    HW121026   1.297   6.120   3.090
 6709SOL    HW221027   1.436   6.114   3.005
 6710SOL     OW21028   3.330   0.866   6.063
 6710SOL    HW121029   3.267   0.928   6.108
 6710SOL    HW221030   3.422   0.877   6.100
 6711SOL     OW21031   5.503   6.628   5.561
 6711SOL    HW121032   5.551   6.543   5.584
 6711SOL    HW221033   5.562   6.686   5.504
 6712SOL     OW21034   5.380   3.355   0.974
 6712SOL    HW121035   5.469   3.393   0.951
 6712SOL    HW221036   5.325   3.345   0.891
 6713SOL     OW21037   1.324   1.025   3.272
 6713SOL    HW121038   1.249   1.025   3.338
 6713SOL    HW221039   1.356   1.118   3.256
 6714SOL     OW21040   6.591   1.434   6.676
 6714SOL    HW121041   6.685   1.398   6.675
 6714SOL    HW221042   6.592   1.530   6.702
 6715SOL     OW21043   1.776   0.341   0.884
 6715SOL    HW121044   1.849   0.396   0.842
 6715SOL    HW221045   1.751   0.382   0.971
 6716SOL     OW21046   0.276   5.683   1.787
 6716SOL    HW121047   0.299   5.664   1.883
 6716SOL    HW221048   0.350   5.736   1.746
 6717SOL     OW21049   3.040   3.053   6.397
 6717SOL    HW121050   3.136   3.039   6.420
 6717SOL    HW221051   3.022   3.150   6.383
 6718SOL     OW21052   4.729   6.829   0.865
 6718SOL    HW121053   4.800   6.849   0.932
 6718SOL    HW221054   4.644   6.877   0.891
 6719SOL     OW21055   2.906   7.014   0.198
 6719SOL    HW121056   2.878   6.999   0.104
 6719SOL    HW221057   3.004   0.014   0.201
 6720SOL     OW21058   2.076   0.687   3.518
 6720SOL    HW121059   1.991   0.741   3.513
 6720SOL    HW221060   2.057   0.592   3.493
 6721SOL     OW21061   6.936   6.585   0.253
 6721SOL    HW121062   6.982   6.662   0.298
 6721SOL    HW221063   6.844   6.574   0.291
 6722SOL     OW21064   6.451   2.739   0.688
 6722SOL    HW121065   6.371   2.687   0.659
 6722SOL    HW221066   6.496   2.692   0.765
 6723SOL     OW21067   1.440   0.422   4.576
 6723SOL    HW121068   1.504   0.478   4.628
 6723SOL    HW221069   1.488   0.378   4.501
 6724SOL     OW21070   2.107   3.339   6.318
 6724SOL    HW121071   2.093   3.330   6.416
 6724SOL    HW221072   2.179   3.407   6.301
 6725SOL     OW21073   6.437   2.173   1.497
 6725SOL    HW121074   6.487   2.127   1.424
 6725SOL    HW221075   6.455   2.271   1.493
 6726SOL     OW21076   0.966   3.124   4.549
 6726SOL    HW121077   0.880   3.075   4.561
 6726SOL    HW221078   1.025   3.073   4.488
 6727SOL     OW21079   0.350   4.790   5.590
 6727SOL    HW121080   0.309   4.834   5.670
 6727SOL    HW221081   0.399   4.707   5.619
 6728SOL     OW21082   4.058   2.193   2.714
 6728SOL    HW121083   4.056   2.211   2.616
 6728SOL    HW221084   4.119   2.116   2.733
 6729SOL     OW21085   6.876   0.411   0.571
 6729SOL    HW121086   6.966   0.369   0.581
 6729SOL    HW221087   6.828   0.408   0.659
 6730SOL     OW21088   1.757   6.611   1.408
 6730SOL    HW121089   1.843   6.567   1.437
 6730SOL    HW221090   1.773   6.709   1.394
 6731SOL     OW21091   1.320   6.297   1.346
 6731SOL    HW121092   1.358   6.243   1.421
 6731SOL    HW221093   1.268   6.237   1.284
 6732SOL     OW21094   6.098   4.359   4.239
 6732SOL    HW121095   6.130   4.426   4.171
 6732SOL    HW221096   6.162   4.282   4.242
 6733SOL     OW21097   3.796   5.628   6.613
 6733SOL    HW121098   3.705   5.668   6.606
 6733SOL    HW221099   3.820   5.585   6.527
 6734SOL     OW21100   6.252   2.197   4.722
 6734SOL    HW121101   6.340   2.228   4.687
 6734SOL    HW221102   6.178   2.241   4.670
 6735SOL     OW21103   6.479   3.499   4.484
 6735SOL    HW121104   6.389   3.543   4.487
 6735SOL    HW221105   6.469   3.405   4.452
 6736SOL     OW21106   2.833   3.032   6.867
 6736SOL    HW121107   2.929   3.058   6.874
 6736SOL    HW221108   2.777   3.113   6.852
 6737SOL     OW21109   2.006   3.211   1.239
 6737SOL    HW121110   2.056   3.129   1.266
 6737SOL    HW221111   2.011   3.223   1.140
 6738SOL     OW21112   1.543   5.948   3.400
 6738SOL    HW121113   1.482   5.875   3.369
 6738SOL    HW221114   1.489   6.029   3.423
 6739SOL     OW21115   4.755   6.499   4.115
 6739SOL    HW121116   4.839   6.447   4.127
 6739SOL    HW221117   4.764   6.560   4.036
 6740SOL     OW21118   6.806   6.843   5.955
 6740SOL    HW121119   6.843   6.877   5.869
 6740SOL    HW221120   6.882   6.816   6.015
 6741SOL     OW21121   3.651   2.738   5.516
 6741SOL    HW121122   3.552   2.735   5.528
 6741SOL    HW221123   3.693   2.779   5.598
 6742SOL     OW21124   5.884   5.569   3.073
 6742SOL    HW121125   5.926   5.595   3.160
 6742SOL    HW221126   5.946   5.594   2.998
 6743SOL     OW21127   3.716   4.604   6.280
 6743SOL    HW121128   3.683   4.569   6.367
 6743SOL    HW221129   3.734   4.528   6.218
 6744SOL     OW21130   6.521   4.689   5.424
 6744SOL    HW121131   6.513   4.625   5.348
 6744SOL    HW221132   6.612   4.680   5.465
 6745SOL     OW21133   0.141   6.732   3.559
 6745SOL    HW121134   0.213   6.793   3.525
 6745SOL    HW221135   0.093   6.777   3.635
 6746SOL     OW21136   0.774   0.699   3.863
 6746SOL    HW121137   0.812   0.780   3.908
 6746SOL    HW221138   0.796   0.701   3.766
 6747SOL     OW21139   5.636   1.590   6.274
 6747SOL    HW121140   5.734   1.596   6.255
 6747SOL    HW221141   5.620   1.612   6.370
 6748SOL     OW21142   3.689   1.624   3.120
 6748SOL    HW121143   3.742   1.610   3.203
 6748SOL    HW221144   3.749   1.621   3.040
 6749SOL     OW21145   3.674   4.131   0.686
 6749SOL    HW121146   3.696   4.089   0.774
 6749SOL    HW221147   3.585   4.176   0.691
 6750SOL     OW21148   3.639   2.086   4.470
 6750SOL    HW121149   3.554   2.081   4.522
 6750SOL    HW221150   3.716   2.080   4.533
 6751SOL     OW21151   5.346   0.219   2.962
 6751SOL    HW121152   5.440   0.238   2.934
 6751SOL    HW221153   5.334   0.120   2.975
 6752SOL     OW21154   2.196   0.025   3.247
 6752SOL    HW121155   2.121   0.002   3.184
 6752SOL    HW221156   2.283   7.021   3.206
 6753SOL     OW21157   3.301   1.161   5.763
 6753SOL    HW121158   3.226   1.197   5.819
 6753SOL    HW221159   3.363   1.107   5.820
 6754SOL     OW21160   0.203   0.604   0.748
 6754SOL    HW121161   0.254   0.627   0.832
 6754SOL    HW221162   0.222   0.509   0.723
 6755SOL     OW21163   4.379   1.964   2.291
 6755SOL    HW121164   4.397   2.050   2.243
 6755SOL    HW221165   4.340   1.897   2.227
 6756SOL     OW21166   3.686   6.216   4.649
 6756SOL    HW121167   3.614   6.247   4.712
 6756SOL    HW221168   3.689   6.116   4.650
 6757SOL     OW21169   2.932   2.556   0.399
 6757SOL    HW121170   2.860   2.608   0.354
 6757SOL    HW221171   2.902   2.529   0.490
 6758SOL     OW21172   5.888   2.066   1.778
 6758SOL    HW121173   5.958   2.135   1.760
 6758SOL    HW221174   5.882   2.003   1.701
 6759SOL     OW21175   1.400   3.664   3.281
 6759SOL    HW121176   1.451   3.578   3.288
 6759SOL    HW221177   1.395   3.708   3.370
 6760SOL     OW21178   6.907   3.672   2.709
 6760SOL    HW121179   6.962   3.673   2.625
 6760SOL    HW221180   6.920   3.585   2.756
 6761SOL     OW21181   6.864   2.355   5.538
 6761SOL    HW121182   6.788   2.396   5.587
 6761SOL    HW221183   6.834   2.269   5.495
 6762SOL     OW21184   0.912   4.382   4.861
 6762SOL    HW121185   0.974   4.458   4.880
 6762SOL    HW221186   0.847   4.408   4.790
 6763SOL     OW21187   6.528   5.766   3.802
 6763SOL    HW121188   6.575   5.708   3.736
 6763SOL    HW221189   6.531   5.723   3.892
 6764SOL     OW21190   1.736   5.266   1.175
 6764SOL    HW121191   1.719   5.203   1.100
 6764SOL    HW221192   1.778   5.350   1.140
 6765SOL     OW21193   5.706   5.091   3.892
 6765SOL    HW121194   5.770   5.114   3.966
 6765SOL    HW221195   5.702   4.992   3.882
 6766SOL     OW21196   4.699   6.787   5.747
 6766SOL    HW121197   4.724   6.764   5.653
 6766SOL    HW221198   4.714   6.884   5.763
 6767SOL     OW21199   1.784   1.193   0.678
 6767SOL    HW121200   1.815   1.235   0.764
 6767SOL    HW221201   1.843   1.116   0.655
 6768SOL     OW21202   1.544   0.036   4.724
 6768SOL    HW121203   1.588   6.996   4.788
 6768SOL    HW221204   1.595   0.122   4.721
 6769SOL     OW21205   2.749   0.891   6.571
 6769SOL    HW121206   2.788   0.801   6.589
 6769SOL    HW221207   2.694   0.888   6.488
 6770SOL     OW21208   6.755   0.997   3.352
 6770SOL    HW121209   6.791   0.930   3.287
 6770SOL    HW221210   6.698   1.063   3.303
 6771SOL     OW21211   4.483   1.979   3.653
 6771SOL    HW121212   4.389   1.996   3.682
 6771SOL    HW221213   4.497   2.014   3.560
 6772SOL     OW21214   4.322   2.292   2.521
 6772SOL    HW121215   4.301   2.301   2.618
 6772SOL    HW221216   4.351   2.381   2.485
 6773SOL     OW21217   6.237   5.518   2.451
 6773SOL    HW121218   6.314   5.483   2.398
 6773SOL    HW221219   6.183   5.580   2.394
 6774SOL     OW21220   1.100   3.784   5.132
 6774SOL    HW121221   1.010   3.811   5.166
 6774SOL    HW221222   1.155   3.750   5.207
 6775SOL     OW21223   2.629   2.365   2.171
 6775SOL    HW121224   2.727   2.345   2.173
 6775SOL    HW221225   2.578   2.282   2.149
 6776SOL     OW21226   5.068   3.979   6.996
 6776SOL    HW121227   5.099   4.036   6.920
 6776SOL    HW221228   5.147   3.932   0.013
 6777SOL     OW21229   4.974   4.741   0.700
 6777SOL    HW121230   4.991   4.800   0.621
 6777SOL    HW221231   5.002   4.789   0.783
 6778SOL     OW21232   5.740   5.505   1.979
 6778SOL    HW121233   5.765   5.584   2.034
 6778SOL    HW221234   5.647   5.476   2.002
 6779SOL     OW21235   5.771   5.291   6.973
 6779SOL    HW121236   5.772   5.234   6.891
 6779SOL    HW221237   5.729   5.240   0.025
 6780SOL     OW21238   1.326   2.673   2.128
 6780SOL    HW121239   1.426   2.672   2.128
 6780SOL    HW221240   1.294   2.750   2.182
 6781SOL     OW21241   6.976   2.094   4.160
 6781SOL    HW121242   6.877   2.103   4.152
 6781SOL    HW221243   7.011   2.164   4.222
 6782SOL     OW21244   0.168   0.615   2.981
 6782SOL    HW121245   0.123   0.526   2.980
 6782SOL    HW221246   0.159   0.658   2.891
 6783SOL     OW21247   6.221   1.327   5.232
 6783SOL    HW121248   6.125   1.306   5.246
 6783SOL    HW221249   6.231   1.394   5.157
 6784SOL     OW21250   1.674   3.060   0.583
 6784SOL    HW121251   1.635   3.008   0.508
 6784SOL    HW221252   1.743   3.005   0.630
 6785SOL     OW21253   5.703   5.714   4.553
 6785SOL    HW121254   5.745   5.623   4.548
 6785SOL    HW221255   5.654   5.733   4.468
 6786SOL     OW21256   1.885   2.224   0.052
 6786SOL    HW121257   1.955   2.268   7.018
 6786SOL    HW221258   1.893   2.125   0.043
 6787SOL     OW21259   2.159   2.863   0.109
 6787SOL    HW121260   2.061   2.856   0.130
 6787SOL    HW221261   2.178   2.817   0.023
 6788SOL     OW21262   1.047   4.207   1.528
 6788SOL    HW121263   0.948   4.200   1.524
 6788SOL    HW221264   1.079   4.179   1.619
 6789SOL     OW21265   0.337   5.142   2.486
 6789SOL    HW121266   0.360   5.208   2.557
 6789SOL    HW221267   0.345   5.049   2.522
 6790SOL     OW21268   0.265   3.636   1.035
 6790SOL    HW121269   0.268   3.715   0.974
 6790SOL    HW221270   0.338   3.642   1.102
 6791SOL     OW21271   4.004   1.889   2.093
 6791SOL    HW121272   3.990   1.985   2.117
 6791SOL    HW221273   3.955   1.868   2.008
 6792SOL     OW21274   6.135   6.984   4.865
 6792SOL    HW121275   6.071   6.913   4.834
 6792SOL    HW221276   6.212   6.942   4.911
 6793SOL     OW21277   1.847   1.795   0.545
 6793SOL    HW121278   1.934   1.768   0.585
 6793SOL    HW221279   1.782   1.818   0.617
 6794SOL     OW21280   4.164   1.081   5.631
 6794SOL    HW121281   4.233   1.150   5.607
 6794SOL    HW221282   4.130   1.099   5.723
 6795SOL     OW21283   2.790   6.466   0.629
 6795SOL    HW121284   2.710   6.500   0.580
 6795SOL    HW221285   2.797   6.367   0.618
 6796SOL     OW21286   6.554   0.244   2.645
 6796SOL    HW121287   6.550   0.342   2.627
 6796SOL    HW221288   6.566   0.194   2.560
 6797SOL     OW21289   6.544   1.888   1.744
 6797SOL    HW121290   6.596   1.822   1.689
 6797SOL    HW221291   6.582   1.980   1.731
 6798SOL     OW21292   5.254   0.093   2.054
 6798SOL    HW121293   5.340   0.053   2.087
 6798SOL    HW221294   5.177   0.041   2.089
 6799SOL     OW21295   6.680   6.836   2.011
 6799SOL    HW121296   6.733   6.811   1.930
 6799SOL    HW221297   6.600   6.776   2.018
 6800SOL     OW21298   2.098   3.585   2.198
 6800SOL    HW121299   2.156   3.547   2.125
 6800SOL    HW221300   2.125   3.679   2.217
 6801SOL     OW21301   0.625   0.312   2.767
 6801SOL    HW121302   0.540   0.341   2.810
 6801SOL    HW221303   0.702   0.333   2.828
 6802SOL     OW21304   2.865   5.812   1.446
 6802SOL    HW121305   2.813   5.727   1.432
 6802SOL    HW221306   2.957   5.801   1.408
 6803SOL     OW21307   4.517   3.037   5.293
 6803SOL    HW121308   4.589   3.105   5.304
 6803SOL    HW221309   4.434   3.083   5.261
 6804SOL     OW21310   3.485   4.962   3.502
 6804SOL    HW121311   3.483   5.050   3.550
 6804SOL    HW221312   3.577   4.922   3.509
 6805SOL     OW21313   0.424   4.663   6.530
 6805SOL    HW121314   0.342   4.664   6.472
 6805SOL    HW221315   0.495   4.607   6.488
 6806SOL     OW21316   6.255   0.738   3.753
 6806SOL    HW121317   6.313   0.710   3.676
 6806SOL    HW221318   6.166   0.693   3.746
 6807SOL     OW21319   3.202   3.518   1.423
 6807SOL    HW121320   3.218   3.471   1.336
 6807SOL    HW221321   3.289   3.544   1.464
 6808SOL     OW21322   0.098   2.446   5.664
 6808SOL    HW121323   0.009   2.411   5.634
 6808SOL    HW221324   0.098   2.456   5.764
 6809SOL     OW21325   0.702   3.087   1.161
 6809SOL    HW121326   0.686   3.135   1.075
 6809SOL    HW221327   0.786   3.119   1.203
 6810SOL     OW21328   1.773   1.158   2.975
 6810SOL    HW121329   1.849   1.200   2.925
 6810SOL    HW221330   1.807   1.081   3.028
 6811SOL     OW21331   5.610   3.459   1.235
 6811SOL    HW121332   5.586   3.380   1.292
 6811SOL    HW221333   5.634   3.427   1.144
 6812SOL     OW21334   3.020   3.531   4.560
 6812SOL    HW121335   3.110   3.571   4.541
 6812SOL    HW221336   3.031   3.456   4.625
 6813SOL     OW21337   5.096   2.647   2.791
 6813SOL    HW121338   5.014   2.703   2.776
 6813SOL    HW221339   5.069   2.551   2.800
 6814SOL     OW21340   3.633   1.568   6.225
 6814SOL    HW121341   3.655   1.490   6.166
 6814SOL    HW221342   3.575   1.536   6.300
 6815SOL     OW21343   3.657   6.603   1.307
 6815SOL    HW121344   3.679   6.543   1.383
 6815SOL    HW221345   3.631   6.693   1.341
 6816SOL     OW21346   6.712   6.988   6.369
 6816SOL    HW121347   6.782   7.022   6.307
 6816SOL    HW221348   6.755   6.937   6.444
 6817SOL     OW21349   2.292   2.719   3.229
 6817SOL    HW121350   2.254   2.656   3.297
 6817SOL    HW221351   2.375   2.762   3.266
 6818SOL     OW21352   2.623   6.216   1.960
 6818SOL    HW121353   2.588   6.126   1.932
 6818SOL    HW221354   2.677   6.256   1.887
 6819SOL     OW21355   4.811   1.879   3.269
 6819SOL    HW121356   4.800   1.805   3.335
 6819SOL    HW221357   4.908   1.902   3.261
 6820SOL     OW21358   2.288   5.794   2.212
 6820SOL    HW121359   2.368   5.748   2.251
 6820SOL    HW221360   2.260   5.747   2.128
 6821SOL     OW21361   3.807   2.099   4.868
 6821SOL    HW121362   3.886   2.148   4.904
 6821SOL    HW221363   3.802   2.112   4.769
 6822SOL     OW21364   5.206   2.549   6.152
 6822SOL    HW121365   5.202   2.640   6.109
 6822SOL    HW221366   5.123   2.498   6.129
 6823SOL     OW21367   4.382   3.481   5.426
 6823SOL    HW121368   4.400   3.391   5.466
 6823SOL    HW221369   4.284   3.490   5.407
 6824SOL     OW21370   1.347   2.257   0.591
 6824SOL    HW121371   1.345   2.276   0.493
 6824SOL    HW221372   1.389   2.168   0.606
 6825SOL     OW21373   4.944   6.582   0.952
 6825SOL    HW121374   4.917   6.677   0.967
 6825SOL    HW221375   4.930   6.530   1.036
 6826SOL     OW21376   1.711   3.176   3.009
 6826SOL    HW121377   1.759   3.177   2.921
 6826SOL    HW221378   1.632   3.116   3.003
 6827SOL     OW21379   4.423   5.557   6.467
 6827SOL    HW121380   4.492   5.629   6.455
 6827SOL    HW221381   4.439   5.509   6.552
 6828SOL     OW21382   3.159   1.649   1.666
 6828SOL    HW121383   3.143   1.725   1.728
 6828SOL    HW221384   3.234   1.593   1.700
 6829SOL     OW21385   5.079   6.262   5.558
 6829SOL    HW121386   5.095   6.325   5.634
 6829SOL    HW221387   5.054   6.314   5.476
 6830SOL     OW21388   5.104   1.116   3.569
 6830SOL    HW121389   5.197   1.136   3.538
 6830SOL    HW221390   5.092   1.150   3.662
 6831SOL     OW21391   1.356   0.514   6.693
 6831SOL    HW121392   1.426   0.544   6.629
 6831SOL    HW221393   1.311   0.431   6.658
 6832SOL     OW21394   2.448   3.785   0.841
 6832SOL    HW121395   2.390   3.714   0.800
 6832SOL    HW221396   2.408   3.815   0.927
 6833SOL     OW21397   3.143   4.546   6.413
 6833SOL    HW121398   3.048   4.544   6.444
 6833SOL    HW221399   3.150   4.598   6.328
 6834SOL     OW21400   4.459   6.247   1.032
 6834SOL    HW121401   4.362   6.269   1.023
 6834SOL    HW221402   4.493   6.211   0.945
 6835SOL     OW21403   3.833   0.865   4.406
 6835SOL    HW121404   3.747   0.852   4.357
 6835SOL    HW221405   3.868   0.957   4.389
 6836SOL     OW21406   2.426   4.569   0.452
 6836SOL    HW121407   2.409   4.594   0.548
 6836SOL    HW221408   2.465   4.477   0.448
 6837SOL     OW21409   0.589   1.742   2.076
 6837SOL    HW121410   0.612   1.659   2.125
 6837SOL    HW221411   0.578   1.722   1.979
 6838SOL     OW21412   3.373   6.202   0.037
 6838SOL    HW121413   3.452   6.158   7.018
 6838SOL    HW221414   3.403   6.265   0.109
 6839SOL     OW21415   5.931   1.066   6.715
 6839SOL    HW121416   5.993   1.077   6.792
 6839SOL    HW221417   5.888   0.976   6.719
 6840SOL     OW21418   3.604   1.096   4.744
 6840SOL    HW121419   3.575   1.048   4.827
 6840SOL    HW221420   3.523   1.125   4.693
 6841SOL     OW21421   4.275   4.525   6.742
 6841SOL    HW121422   4.364   4.548   6.702
 6841SOL    HW221423   4.288   4.473   6.827
 6842SOL     OW21424   2.840   4.115   0.788
 6842SOL    HW121425   2.774   4.052   0.831
 6842SOL    HW221426   2.924   4.066   0.766
 6843SOL     OW21427   6.198   6.472   1.447
 6843SOL    HW121428   6.171   6.376   1.450
 6843SOL    HW221429   6.295   6.479   1.423
 6844SOL     OW21430   5.217   0.638   3.783
 6844SOL    HW121431   5.162   0.577   3.727
 6844SOL    HW221432   5.214   0.608   3.878
 6845SOL     OW21433   6.311   3.983   2.853
 6845SOL    HW121434   6.273   3.966   2.762
 6845SOL    HW221435   6.288   4.076   2.882
 6846SOL     OW21436   3.638   3.049   6.915
 6846SOL    HW121437   3.617   2.960   6.874
 6846SOL    HW221438   3.588   3.058   7.002
 6847SOL     OW21439   0.267   3.211   4.185
 6847SOL    HW121440   0.245   3.297   4.139
 6847SOL    HW221441   0.286   3.141   4.116
 6848SOL     OW21442   4.914   5.923   3.818
 6848SOL    HW121443   4.934   5.921   3.916
 6848SOL    HW221444   4.931   6.015   3.783
 6849SOL     OW21445   4.240   5.111   5.347
 6849SOL    HW121446   4.212   5.047   5.276
 6849SOL    HW221447   4.309   5.173   5.311
 6850SOL     OW21448   5.748   4.245   2.129
 6850SOL    HW121449   5.824   4.182   2.111
 6850SOL    HW221450   5.667   4.215   2.078
 6851SOL     OW21451   0.636   1.849   2.738
 6851SOL    HW121452   0.604   1.762   2.699
 6851SOL    HW221453   0.736   1.846   2.745
 6852SOL     OW21454   2.523   4.261   1.224
 6852SOL    HW121455   2.618   4.239   1.246
 6852SOL    HW221456   2.518   4.294   1.130
 6853SOL     OW21457   5.717   4.774   0.014
 6853SOL    HW121458   5.804   4.819   7.019
 6853SOL    HW221459   5.658   4.836   0.066
 6854SOL     OW21460   4.561   1.173   6.230
 6854SOL    HW121461   4.551   1.256   6.176
 6854SOL    HW221462   4.501   1.102   6.195
 6855SOL     OW21463   4.139   6.241   4.049
 6855SOL    HW121464   4.201   6.263   3.973
 6855SOL    HW221465   4.074   6.172   4.019
 6856SOL     OW21466   6.769   2.727   4.831
 6856SOL    HW121467   6.797   2.765   4.920
 6856SOL    HW221468   6.835   2.657   4.803
 6857SOL     OW21469   3.320   2.107   6.412
 6857SOL    HW121470   3.341   2.009   6.407
 6857SOL    HW221471   3.404   2.160   6.398
 6858SOL     OW21472   4.107   3.684   3.009
 6858SOL    HW121473   4.201   3.660   3.035
 6858SOL    HW221474   4.059   3.720   3.089
 6859SOL     OW21475   0.988   1.549   0.769
 6859SOL    HW121476   0.936   1.582   0.847
 6859SOL    HW221477   0.934   1.482   0.718
 6860SOL     OW21478   6.726   5.003   1.223
 6860SOL    HW121479   6.757   5.079   1.166
 6860SOL    HW221480   6.800   4.976   1.285
 6861SOL     OW21481   3.958   4.825   0.189
 6861SOL    HW121482   3.974   4.921   0.166
 6861SOL    HW221483   3.859   4.808   0.196
 6862SOL     OW21484   1.763   5.298   5.971
 6862SOL    HW121485   1.665   5.315   5.976
 6862SOL    HW221486   1.811   5.384   5.952
 6863SOL     OW21487   5.266   6.470   6.017
 6863SOL    HW121488   5.202   6.543   6.041
 6863SOL    HW221489   5.285   6.414   6.098
 6864SOL     OW21490   2.576   4.683   4.654
 6864SOL    HW121491   2.572   4.585   4.674
 6864SOL    HW221492   2.513   4.704   4.580
 6865SOL     OW21493   0.890   6.419   4.435
 6865SOL    HW121494   0.973   6.419   4.491
 6865SOL    HW221495   0.871   6.512   4.404
 6866SOL     OW21496   5.892   5.272   3.521
 6866SOL    HW121497   5.982   5.229   3.519
 6866SOL    HW221498   5.827   5.215   3.471
 6867SOL     OW21499   2.377   4.492   2.005
 6867SOL    HW121500   2.448   4.484   1.935
 6867SOL    HW221501   2.295   4.443   1.976
 6868SOL     OW21502   1.660   5.862   6.582
 6868SOL    HW121503   1.619   5.810   6.506
 6868SOL    HW221504   1.757   5.842   6.587
 6869SOL     OW21505   5.493   0.846   6.440
 6869SOL    HW121506   5.441   0.873   6.359
 6869SOL    HW221507   5.430   0.838   6.518
 6870SOL     OW21508   0.287   4.517   1.801
 6870SOL    HW121509   0.297   4.616   1.812
 6870SOL    HW221510   0.306   4.472   1.888
 6871SOL     OW21511   6.395   4.213   3.107
 6871SOL    HW121512   6.309   4.264   3.105
 6871SOL    HW221513   6.375   4.115   3.106
 6872SOL     OW21514   0.556   2.180   1.230
 6872SOL    HW121515   0.508   2.194   1.144
 6872SOL    HW221516   0.535   2.255   1.293
 6873SOL     OW21517   6.544   3.740   3.892
 6873SOL    HW121518   6.466   3.692   3.851
 6873SOL    HW221519   6.620   3.740   3.827
 6874SOL     OW21520   6.726   5.481   2.703
 6874SOL    HW121521   6.640   5.433   2.686
 6874SOL    HW221522   6.769   5.506   2.617
 6875SOL     OW21523   2.331   2.779   2.502
 6875SOL    HW121524   2.400   2.718   2.464
 6875SOL    HW221525   2.275   2.815   2.428
 6876SOL     OW21526   3.961   0.510   3.792
 6876SOL    HW121527   4.052   0.469   3.802
 6876SOL    HW221528   3.948   0.578   3.864
 6877SOL     OW21529   2.914   3.535   1.367
 6877SOL    HW121530   3.005   3.517   1.404
 6877SOL    HW221531   2.920   3.545   1.268
 6878SOL     OW21532   3.934   0.743   3.940
 6878SOL    HW121533   3.899   0.699   4.023
 6878SOL    HW221534   3.893   0.834   3.931
 6879SOL     OW21535   0.908   2.887   0.955
 6879SOL    HW121536   0.942   2.818   0.890
 6879SOL    HW221537   0.862   2.841   1.031
 6880SOL     OW21538   2.505   5.526   5.168
 6880SOL    HW121539   2.520   5.458   5.097
 6880SOL    HW221540   2.481   5.480   5.254
 6881SOL     OW21541   1.955   4.404   0.911
 6881SOL    HW121542   1.930   4.331   0.975
 6881SOL    HW221543   1.983   4.364   0.824
 6882SOL     OW21544   2.815   0.725   0.202
 6882SOL    HW121545   2.877   0.724   0.280
 6882SOL    HW221546   2.799   0.819   0.173
 6883SOL     OW21547   4.781   1.638   6.838
 6883SOL    HW121548   4.810   1.603   6.749
 6883SOL    HW221549   4.730   1.566   6.886
 6884SOL     OW21550   1.008   4.108   3.597
 6884SOL    HW121551   1.000   4.015   3.633
 6884SOL    HW221552   0.917   4.146   3.582
 6885SOL     OW21553   4.529   4.521   4.279
 6885SOL    HW121554   4.498   4.474   4.361
 6885SOL    HW221555   4.488   4.612   4.275
 6886SOL     OW21556   6.997   0.899   4.263
 6886SOL    HW121557   0.041   0.828   4.282
 6886SOL    HW221558   6.905   0.858   4.261
 6887SOL     OW21559   5.212   5.712   6.357
 6887SOL    HW121560   5.270   5.631   6.347
 6887SOL    HW221561   5.258   5.791   6.317
 6888SOL     OW21562   5.415   5.503   6.406
 6888SOL    HW121563   5.477   5.557   6.348
 6888SOL    HW221564   5.468   5.449   6.471
 6889SOL     OW21565   1.582   2.944   5.814
 6889SOL    HW121566   1.550   2.911   5.903
 6889SOL    HW221567   1.680   2.927   5.806
 6890SOL     OW21568   3.982   6.296   2.327
 6890SOL    HW121569   3.922   6.370   2.298
 6890SOL    HW221570   4.064   6.294   2.270
 6891SOL     OW21571   2.003   4.116   2.536
 6891SOL    HW121572   1.942   4.194   2.552
 6891SOL    HW221573   2.077   4.118   2.603
 6892SOL     OW21574   3.936   2.166   3.358
 6892SOL    HW121575   3.901   2.149   3.450
 6892SOL    HW221576   4.019   2.221   3.363
 6893SOL     OW21577   4.666   4.732   0.024
 6893SOL    HW121578   4.677   4.636   0.052
 6893SOL    HW221579   4.603   4.737   6.970
 6894SOL     OW21580   5.941   5.071   0.566
 6894SOL    HW121581   5.972   5.020   0.647
 6894SOL    HW221582   5.864   5.129   0.591
 6895SOL     OW21583   2.672   5.028   1.107
 6895SOL    HW121584   2.701   5.075   1.191
 6895SOL    HW221585   2.701   4.932   1.111
 6896SOL     OW21586   2.561   0.600   4.120
 6896SOL    HW121587   2.625   0.579   4.047
 6896SOL    HW221588   2.553   0.700   4.129
 6897SOL     OW21589   5.049   3.608   5.106
 6897SOL    HW121590   4.957   3.572   5.095
 6897SOL    HW221591   5.048   3.707   5.090
 6898SOL     OW21592   4.249   1.290   1.551
 6898SOL    HW121593   4.282   1.376   1.591
 6898SOL    HW221594   4.277   1.213   1.609
 6899SOL     OW21595   4.544   6.260   1.782
 6899SOL    HW121596   4.530   6.209   1.697
 6899SOL    HW221597   4.480   6.336   1.786
 6900SOL     OW21598   5.985   5.814   5.091
 6900SOL    HW121599   6.067   5.770   5.054
 6900SOL    HW221600   5.904   5.765   5.058
 6901SOL     OW21601   6.202   5.952   6.119
 6901SOL    HW121602   6.166   5.966   6.027
 6901SOL    HW221603   6.237   5.859   6.127
 6902SOL     OW21604   6.871   6.172   0.040
 6902SOL    HW121605   6.819   6.200   0.121
 6902SOL    HW221606   6.809   6.131   6.996
 6903SOL     OW21607   3.299   5.423   5.592
 6903SOL    HW121608   3.330   5.366   5.668
 6903SOL    HW221609   3.243   5.367   5.531
 6904SOL     OW21610   6.580   0.445   4.795
 6904SOL    HW121611   6.668   0.479   4.762
 6904SOL    HW221612   6.595   0.379   4.868
 6905SOL     OW21613   5.753   5.858   6.588
 6905SOL    HW121614   5.663   5.891   6.617
 6905SOL    HW221615   5.822   5.926   6.611
 6906SOL     OW21616   3.978   1.391   4.540
 6906SOL    HW121617   3.888   1.349   4.540
 6906SOL    HW221618   4.018   1.384   4.448
 6907SOL     OW21619   5.560   2.603   1.959
 6907SOL    HW121620   5.594   2.509   1.970
 6907SOL    HW221621   5.560   2.649   2.047
 6908SOL     OW21622   1.529   5.387   7.004
 6908SOL    HW121623   1.629   5.391   7.011
 6908SOL    HW221624   1.503   5.342   6.919
 6909SOL     OW21625   4.906   4.329   1.326
 6909SOL    HW121626   4.884   4.258   1.393
 6909SOL    HW221627   4.822   4.359   1.280
 6910SOL     OW21628   0.781   2.658   3.297
 6910SOL    HW121629   0.833   2.681   3.215
 6910SOL    HW221630   0.812   2.570   3.333
 6911SOL     OW21631   4.306   6.807   4.176
 6911SOL    HW121632   4.326   6.892   4.127
 6911SOL    HW221633   4.391   6.757   4.192
 6912SOL     OW21634   3.215   3.708   6.256
 6912SOL    HW121635   3.218   3.808   6.248
 6912SOL    HW221636   3.176   3.669   6.172
 6913SOL     OW21637   5.561   6.278   3.685
 6913SOL    HW121638   5.583   6.242   3.776
 6913SOL    HW221639   5.465   6.304   3.682
 6914SOL     OW21640   6.150   4.038   3.699
 6914SOL    HW121641   6.194   4.078   3.780
 6914SOL    HW221642   6.207   4.053   3.619
 6915SOL     OW21643   6.091   2.784   1.833
 6915SOL    HW121644   6.144   2.746   1.909
 6915SOL    HW221645   6.128   2.874   1.808
 6916SOL     OW21646   5.612   1.628   6.853
 6916SOL    HW121647   5.711   1.616   6.839
 6916SOL    HW221648   5.562   1.561   6.798
 6917SOL     OW21649   3.214   6.663   1.385
 6917SOL    HW121650   3.192   6.662   1.287
 6917SOL    HW221651   3.235   6.757   1.413
 6918SOL     OW21652   0.652   2.434   4.629
 6918SOL    HW121653   0.721   2.502   4.603
 6918SOL    HW221654   0.616   2.456   4.720
 6919SOL     OW21655   5.199   5.748   3.968
 6919SOL    HW121656   5.183   5.718   3.874
 6919SOL    HW221657   5.277   5.810   3.970
 6920SOL     OW21658   4.117   6.358   6.156
 6920SOL    HW121659   4.019   6.365   6.177
 6920SOL    HW221660   4.129   6.356   6.057
 6921SOL     OW21661   4.666   5.792   4.143
 6921SOL    HW121662   4.612   5.868   4.181
 6921SOL    HW221663   4.759   5.824   4.124
 6922SOL     OW21664   1.481   6.560   4.764
 6922SOL    HW121665   1.475   6.467   4.800
 6922SOL    HW221666   1.396   6.609   4.783
 6923SOL     OW21667   5.104   5.461   3.002
 6923SOL    HW121668   5.029   5.458   2.936
 6923SOL    HW221669   5.140   5.369   3.016
 6924SOL     OW21670   1.762   4.413   6.517
 6924SOL    HW121671   1.770   4.313   6.520
 6924SOL    HW221672   1.758   4.443   6.422
 6925SOL     OW21673   4.968   6.165   3.619
 6925SOL    HW121674   4.892   6.226   3.642
 6925SOL    HW221675   4.953   6.123   3.530
 6926SOL     OW21676   2.875   2.555   0.671
 6926SOL    HW121677   2.956   2.558   0.728
 6926SOL    HW221678   2.802   2.505   0.718
 6927SOL     OW21679   4.088   2.833   5.675
 6927SOL    HW121680   4.188   2.822   5.681
 6927SOL    HW221681   4.059   2.817   5.581
 6928SOL     OW21682   5.930   5.974   1.006
 6928SOL    HW121683   5.867   5.930   1.070
 6928SOL    HW221684   5.882   6.046   0.956
 6929SOL     OW21685   5.100   5.624   1.483
 6929SOL    HW121686   5.003   5.627   1.460
 6929SOL    HW221687   5.154   5.615   1.399
 6930SOL     OW21688   1.110   0.892   1.761
 6930SOL    HW121689   1.057   0.832   1.702
 6930SOL    HW221690   1.065   0.981   1.770
 6931SOL     OW21691   2.084   1.133   2.426
 6931SOL    HW121692   2.032   1.136   2.340
 6931SOL    HW221693   2.151   1.059   2.421
 6932SOL     OW21694   3.816   6.785   6.762
 6932SOL    HW121695   3.779   6.750   6.849
 6932SOL    HW221696   3.804   6.716   6.691
 6933SOL     OW21697   3.740   5.526   5.486
 6933SOL    HW121698   3.812   5.518   5.417
 6933SOL    HW221699   3.654   5.492   5.449
 6934SOL     OW21700   4.393   3.607   6.299
 6934SOL    HW121701   4.320   3.672   6.320
 6934SOL    HW221702   4.382   3.574   6.205
 6935SOL     OW21703   4.797   5.524   2.496
 6935SOL    HW121704   4.718   5.564   2.542
 6935SOL    HW221705   4.830   5.587   2.426
 6936SOL     OW21706   6.339   2.056   3.420
 6936SOL    HW121707   6.293   2.002   3.349
 6936SOL    HW221708   6.386   2.133   3.377
 6937SOL     OW21709   6.267   6.278   6.885
 6937SOL    HW121710   6.233   6.370   6.903
 6937SOL    HW221711   6.367   6.279   6.883
 6938SOL     OW21712   6.398   2.773   5.188
 6938SOL    HW121713   6.451   2.691   5.163
 6938SOL    HW221714   6.310   2.746   5.226
 6939SOL     OW21715   0.868   5.304   2.326
 6939SOL    HW121716   0.872   5.404   2.319
 6939SOL    HW221717   0.772   5.275   2.331
 6940SOL     OW21718   3.434   0.320   6.059
 6940SOL    HW121719   3.450   0.383   5.983
 6940SOL    HW221720   3.503   0.334   6.130
 6941SOL     OW21721   3.137   4.020   2.040
 6941SOL    HW121722   3.108   3.926   2.021
 6941SOL    HW221723   3.236   4.023   2.051
 6942SOL     OW21724   6.000   6.885   1.618
 6942SOL    HW121725   5.935   6.955   1.587
 6942SOL    HW221726   5.970   6.795   1.584
 6943SOL     OW21727   3.232   5.643   0.500
 6943SOL    HW121728   3.268   5.553   0.476
 6943SOL    HW221729   3.293   5.714   0.464
 6944SOL     OW21730   0.616   4.463   6.452
 6944SOL    HW121731   0.602   4.367   6.475
 6944SOL    HW221732   0.705   4.493   6.486
 6945SOL     OW21733   6.213   1.422   0.314
 6945SOL    HW121734   6.156   1.414   0.232
 6945SOL    HW221735   6.160   1.466   0.387
 6946SOL     OW21736   4.265   6.596   1.188
 6946SOL    HW121737   4.290   6.648   1.270
 6946SOL    HW221738   4.169   6.567   1.194
 6947SOL     OW21739   3.543   5.745   6.595
 6947SOL    HW121740   3.487   5.804   6.537
 6947SOL    HW221741   3.558   5.790   6.683
 6948SOL     OW21742   0.808   6.776   0.482
 6948SOL    HW121743   0.789   6.761   0.579
 6948SOL    HW221744   0.898   6.819   0.472
 6949SOL     OW21745   3.542   0.512   3.435
 6949SOL    HW121746   3.600   0.479   3.509
 6949SOL    HW221747   3.507   0.603   3.458
 6950SOL     OW21748   1.341   1.683   5.117
 6950SOL    HW121749   1.259   1.697   5.062
 6950SOL    HW221750   1.416   1.654   5.059
 6951SOL     OW21751   6.447   5.184   5.570
 6951SOL    HW121752   6.363   5.220   5.609
 6951SOL    HW221753   6.525   5.212   5.627
 6952SOL     OW21754   0.597   6.189   3.193
 6952SOL    HW121755   0.548   6.273   3.219
 6952SOL    HW221756   0.685   6.213   3.152
 6953SOL     OW21757   4.077   6.533   1.449
 6953SOL    HW121758   4.112   6.503   1.538
 6953SOL    HW221759   3.989   6.580   1.462
 6954SOL     OW21760   0.035   3.737   2.478
 6954SOL    HW121761   6.973   3.790   2.472
 6954SOL    HW221762   0.034   3.663   2.412
 6955SOL     OW21763   5.565   0.382   1.905
 6955SOL    HW121764   5.473   0.423   1.911
 6955SOL    HW221765   5.572   0.307   1.971
 6956SOL     OW21766   5.607   6.022   3.431
 6956SOL    HW121767   5.584   6.032   3.528
 6956SOL    HW221768   5.620   5.925   3.410
 6957SOL     OW21769   6.470   5.605   1.041
 6957SOL    HW121770   6.499   5.679   1.101
 6957SOL    HW221771   6.372   5.611   1.025
 6958SOL     OW21772   3.842   3.344   4.384
 6958SOL    HW121773   3.799   3.434   4.379
 6958SOL    HW221774   3.928   3.346   4.333
 6959SOL     OW21775   2.146   3.429   3.453
 6959SOL    HW121776   2.216   3.490   3.491
 6959SOL    HW221777   2.093   3.388   3.527
 6960SOL     OW21778   1.179   4.280   1.104
 6960SOL    HW121779   1.250   4.230   1.055
 6960SOL    HW221780   1.117   4.215   1.148
 6961SOL     OW21781   5.827   0.937   4.089
 6961SOL    HW121782   5.857   0.942   3.993
 6961SOL    HW221783   5.801   0.843   4.110
 6962SOL     OW21784   4.846   5.998   1.708
 6962SOL    HW121785   4.797   5.984   1.622
 6962SOL    HW221786   4.848   6.095   1.729
 6963SOL     OW21787   4.835   5.771   1.172
 6963SOL    HW121788   4.931   5.799   1.172
 6963SOL    HW221789   4.777   5.852   1.174
 6964SOL     OW21790   3.776   1.116   5.670
 6964SOL    HW121791   3.813   1.050   5.735
 6964SOL    HW221792   3.835   1.197   5.668
 6965SOL     OW21793   1.824   1.036   0.022
 6965SOL    HW121794   1.817   0.960   0.086
 6965SOL    HW221795   1.749   1.100   0.037
 6966SOL     OW21796   1.227   2.110   2.585
 6966SOL    HW121797   1.312   2.162   2.578
 6966SOL    HW221798   1.224   2.042   2.511
 6967SOL     OW21799   2.859   1.212   5.503
 6967SOL    HW121800   2.919   1.291   5.490
 6967SOL    HW221801   2.861   1.183   5.599
 6968SOL     OW21802   3.471   0.474   3.165
 6968SOL    HW121803   3.504   0.505   3.254
 6968SOL    HW221804   3.383   0.518   3.145
 6969SOL     OW21805   2.982   2.244   1.672
 6969SOL    HW121806   2.958   2.288   1.759
 6969SOL    HW221807   3.072   2.203   1.678
 6970SOL     OW21808   4.194   4.243   5.730
 6970SOL    HW121809   4.281   4.199   5.710
 6970SOL    HW221810   4.178   4.242   5.829
 6971SOL     OW21811   6.469   4.586   0.756
 6971SOL    HW121812   6.521   4.630   0.682
 6971SOL    HW221813   6.525   4.515   0.798
 6972SOL     OW21814   5.528   4.605   2.834
 6972SOL    HW121815   5.532   4.520   2.887
 6972SOL    HW221816   5.590   4.672   2.874
 6973SOL     OW21817   1.278   3.355   3.183
 6973SOL    HW121818   1.365   3.395   3.153
 6973SOL    HW221819   1.280   3.256   3.170
 6974SOL     OW21820   2.942   3.782   2.686
 6974SOL    HW121821   2.911   3.768   2.592
 6974SOL    HW221822   3.018   3.720   2.706
 6975SOL     OW21823   1.476   6.257   5.833
 6975SOL    HW121824   1.559   6.273   5.886
 6975SOL    HW221825   1.496   6.266   5.736
 6976SOL     OW21826   5.736   5.203   5.690
 6976SOL    HW121827   5.725   5.104   5.699
 6976SOL    HW221828   5.803   5.235   5.757
 6977SOL     OW21829   3.592   2.840   1.404
 6977SOL    HW121830   3.661   2.831   1.477
 6977SOL    HW221831   3.519   2.774   1.419
 6978SOL     OW21832   5.852   1.572   2.124
 6978SOL    HW121833   5.789   1.561   2.048
 6978SOL    HW221834   5.912   1.650   2.107
 6979SOL     OW21835   1.103   4.135   1.790
 6979SOL    HW121836   1.166   4.190   1.845
 6979SOL    HW221837   1.047   4.079   1.851
 6980SOL     OW21838   1.622   1.489   3.894
 6980SOL    HW121839   1.620   1.449   3.985
 6980SOL    HW221840   1.717   1.493   3.861
 6981SOL     OW21841   3.798   3.222   5.720
 6981SOL    HW121842   3.784   3.318   5.743
 6981SOL    HW221843   3.817   3.170   5.803
 6982SOL     OW21844   0.761   1.116   5.005
 6982SOL    HW121845   0.661   1.123   5.011
 6982SOL    HW221846   0.789   1.020   5.003
 6983SOL     OW21847   3.875   2.134   3.634
 6983SOL    HW121848   3.796   2.143   3.695
 6983SOL    HW221849   3.952   2.187   3.671
 6984SOL     OW21850   1.663   1.404   3.490
 6984SOL    HW121851   1.682   1.314   3.451
 6984SOL    HW221852   1.739   1.466   3.470
 6985SOL     OW21853   5.978   5.031   1.365
 6985SOL    HW121854   6.044   5.093   1.408
 6985SOL    HW221855   6.015   5.001   1.277
 6986SOL     OW21856   2.389   6.957   6.347
 6986SOL    HW121857   2.429   6.961   6.255
 6986SOL    HW221858   2.291   6.938   6.340
 6987SOL     OW21859   6.073   1.046   6.425
 6987SOL    HW121860   6.024   1.048   6.512
 6987SOL    HW221861   6.169   1.025   6.441
 6988SOL     OW21862   1.272   6.466   6.727
 6988SOL    HW121863   1.256   6.406   6.805
 6988SOL    HW221864   1.193   6.463   6.665
 6989SOL     OW21865   1.070   3.945   3.201
 6989SOL    HW121866   1.027   3.875   3.145
 6989SOL    HW221867   1.169   3.930   3.204
 6990SOL     OW21868   4.762   2.946   1.656
 6990SOL    HW121869   4.726   2.960   1.748
 6990SOL    HW221870   4.811   2.859   1.652
 6991SOL     OW21871   4.667   4.277   3.711
 6991SOL    HW121872   4.655   4.349   3.778
 6991SOL    HW221873   4.711   4.198   3.754
 6992SOL     OW21874   5.558   6.873   6.426
 6992SOL    HW121875   5.621   6.794   6.426
 6992SOL    HW221876   5.464   6.841   6.433
 6993SOL     OW21877   6.431   0.284   2.933
 6993SOL    HW121878   6.490   0.292   2.852
 6993SOL    HW221879   6.345   0.331   2.916
 6994SOL     OW21880   0.578   2.617   4.049
 6994SOL    HW121881   0.543   2.668   3.971
 6994SOL    HW221882   0.542   2.524   4.047
 6995SOL     OW21883   0.548   4.598   6.199
 6995SOL    HW121884   0.568   4.542   6.280
 6995SOL    HW221885   0.456   4.638   6.208
 6996SOL     OW21886   1.693   0.433   6.874
 6996SOL    HW121887   1.604   0.399   6.845
 6996SOL    HW221888   1.693   0.533   6.871
 6997SOL     OW21889   0.476   5.319   5.929
 6997SOL    HW121890   0.500   5.264   6.009
 6997SOL    HW221891   0.420   5.397   5.958
 6998SOL     OW21892   2.004   0.428   1.670
 6998SOL    HW121893   1.953   0.501   1.626
 6998SOL    HW221894   1.945   0.348   1.680
 6999SOL     OW21895   2.664   2.377   6.616
 6999SOL    HW121896   2.596   2.432   6.569
 6999SOL    HW221897   2.624   2.288   6.640
 7000SOL     OW21898   5.229   6.519   1.764
 7000SOL    HW121899   5.263   6.608   1.733
 7000SOL    HW221900   5.174   6.477   1.692
 7001SOL     OW21901   2.251   3.223   6.130
 7001SOL    HW121902   2.339   3.203   6.173
 7001SOL    HW221903   2.190   3.267   6.195
 7002SOL     OW21904   1.506   5.620   4.007
 7002SOL    HW121905   1.538   5.689   3.941
 7002SOL    HW221906   1.481   5.536   3.958
 7003SOL     OW21907   4.283   5.510   0.787
 7003SOL    HW121908   4.321   5.467   0.869
 7003SOL    HW221909   4.187   5.485   0.778
 7004SOL     OW21910   0.593   5.571   1.573
 7004SOL    HW121911   0.617   5.566   1.477
 7004SOL    HW221912   0.528   5.498   1.596
 7005SOL     OW21913   1.081   6.898   0.545
 7005SOL    HW121914   1.089   6.881   0.643
 7005SOL    HW221915   1.088   6.997   0.527
 7006SOL     OW21916   5.017   5.212   3.856
 7006SOL    HW121917   5.112   5.224   3.882
 7006SOL    HW221918   4.960   5.210   3.938
 7007SOL     OW21919   4.671   0.498   4.398
 7007SOL    HW121920   4.665   0.409   4.442
 7007SOL    HW221921   4.697   0.567   4.465
 7008SOL     OW21922   0.472   4.088   4.277
 7008SOL    HW121923   0.463   4.062   4.181
 7008SOL    HW221924   0.515   4.014   4.327
 7009SOL     OW21925   4.568   6.296   2.816
 7009SOL    HW121926   4.580   6.362   2.742
 7009SOL    HW221927   4.479   6.251   2.807
 7010SOL     OW21928   5.617   4.190   3.682
 7010SOL    HW121929   5.662   4.267   3.727
 7010SOL    HW221930   5.566   4.138   3.750
 7011SOL     OW21931   3.300   6.318   6.373
 7011SOL    HW121932   3.225   6.347   6.313
 7011SOL    HW221933   3.382   6.370   6.352
 7012SOL     OW21934   0.821   1.560   1.337
 7012SOL    HW121935   0.811   1.659   1.324
 7012SOL    HW221936   0.742   1.525   1.388
 7013SOL     OW21937   0.796   6.600   0.270
 7013SOL    HW121938   0.768   6.614   0.175
 7013SOL    HW221939   0.823   6.687   0.310
 7014SOL     OW21940   4.450   3.135   0.796
 7014SOL    HW121941   4.394   3.052   0.798
 7014SOL    HW221942   4.394   3.212   0.765
 7015SOL     OW21943   6.216   4.078   0.857
 7015SOL    HW121944   6.269   4.026   0.791
 7015SOL    HW221945   6.145   4.020   0.897
 7016SOL     OW21946   3.422   5.064   1.418
 7016SOL    HW121947   3.413   5.100   1.511
 7016SOL    HW221948   3.431   4.965   1.421
 7017SOL     OW21949   2.592   5.013   3.504
 7017SOL    HW121950   2.515   4.956   3.474
 7017SOL    HW221951   2.597   5.095   3.448
 7018SOL     OW21952   5.547   3.634   4.204
 7018SOL    HW121953   5.468   3.613   4.146
 7018SOL    HW221954   5.583   3.550   4.244
 7019SOL     OW21955   3.436   4.585   0.367
 7019SOL    HW121956   3.412   4.535   0.450
 7019SOL    HW221957   3.526   4.628   0.379
 7020SOL     OW21958   6.641   4.274   5.859
 7020SOL    HW121959   6.678   4.282   5.952
 7020SOL    HW221960   6.708   4.229   5.800
 7021SOL     OW21961   1.971   2.050   5.339
 7021SOL    HW121962   2.055   2.054   5.393
 7021SOL    HW221963   1.894   2.027   5.399
 7022SOL     OW21964   4.636   6.964   6.701
 7022SOL    HW121965   4.684   0.025   6.728
 7022SOL    HW221966   4.689   6.884   6.727
 7023SOL     OW21967   1.588   2.588   3.183
 7023SOL    HW121968   1.591   2.680   3.144
 7023SOL    HW221969   1.682   2.554   3.196
 7024SOL     OW21970   3.034   3.833   5.372
 7024SOL    HW121971   2.974   3.758   5.343
 7024SOL    HW221972   3.044   3.898   5.297
 7025SOL     OW21973   3.348   0.619   0.399
 7025SOL    HW121974   3.272   0.629   0.334
 7025SOL    HW221975   3.317   0.645   0.490
 7026SOL     OW21976   3.325   2.135   1.931
 7026SOL    HW121977   3.418   2.158   1.958
 7026SOL    HW221978   3.298   2.048   1.973
 7027SOL     OW21979   2.026   5.438   3.939
 7027SOL    HW121980   1.954   5.427   4.007
 7027SOL    HW221981   2.023   5.362   3.874
 7028SOL     OW21982   3.512   1.414   3.036
 7028SOL    HW121983   3.561   1.421   2.949
 7028SOL    HW221984   3.505   1.505   3.077
 7029SOL     OW21985   4.538   4.761   5.378
 7029SOL    HW121986   4.601   4.835   5.404
 7029SOL    HW221987   4.459   4.761   5.439
 7030SOL     OW21988   0.807   0.847   5.047
 7030SOL    HW121989   0.731   0.856   5.112
 7030SOL    HW221990   0.793   0.766   4.990
 7031SOL     OW21991   3.813   5.999   6.264
 7031SOL    HW121992   3.897   6.033   6.306
 7031SOL    HW221993   3.741   5.992   6.333
 7032SOL     OW21994   4.387   2.107   3.920
 7032SOL    HW121995   4.337   2.030   3.881
 7032SOL    HW221996   4.391   2.181   3.853
 7033SOL     OW21997   1.818   2.492   3.311
 7033SOL    HW121998   1.900   2.466   3.261
 7033SOL    HW221999   1.811   2.436   3.394
 7034SOL     OW22000   7.005   1.111   3.018
 7034SOL    HW122001   0.048   1.078   2.950
 7034SOL    HW222002   6.953   1.034   3.055
 7035SOL     OW22003   1.469   0.047   0.463
 7035SOL    HW122004   1.475   0.070   0.366
 7035SOL    HW222005   1.381   0.078   0.499
 7036SOL     OW22006   6.778   1.185   2.838
 7036SOL    HW122007   6.848   1.170   2.908
 7036SOL    HW222008   6.760   1.099   2.790
 7037SOL     OW22009   1.551   1.794   6.572
 7037SOL    HW122010   1.532   1.882   6.615
 7037SOL    HW222011   1.476   1.768   6.511
 7038SOL     OW22012   2.180   3.825   4.897
 7038SOL    HW122013   2.170   3.757   4.970
 7038SOL    HW222014   2.239   3.898   4.928
 7039SOL     OW22015   1.140   5.581   2.914
 7039SOL    HW122016   1.168   5.563   2.819
 7039SOL    HW222017   1.126   5.679   2.926
 7040SOL     OW22018   5.222   2.645   5.672
 7040SOL    HW122019   5.125   2.622   5.678
 7040SOL    HW222020   5.276   2.566   5.701
 7041SOL     OW22021   6.699   1.109   1.983
 7041SOL    HW122022   6.643   1.026   1.986
 7041SOL    HW222023   6.644   1.186   1.951
 7042SOL     OW22024   4.174   5.925   4.668
 7042SOL    HW122025   4.110   5.961   4.600
 7042SOL    HW222026   4.163   5.976   4.754
 7043SOL     OW22027   2.166   5.170   3.174
 7043SOL    HW122028   2.142   5.263   3.202
 7043SOL    HW222029   2.113   5.145   3.094
 7044SOL     OW22030   5.729   5.294   5.014
 7044SOL    HW122031   5.651   5.266   4.958
 7044SOL    HW222032   5.697   5.314   5.107
 7045SOL     OW22033   5.100   4.939   2.872
 7045SOL    HW122034   5.146   4.853   2.851
 7045SOL    HW222035   5.119   5.006   2.800
 7046SOL     OW22036   3.137   1.692   3.796
 7046SOL    HW122037   3.045   1.726   3.814
 7046SOL    HW222038   3.134   1.627   3.720
 7047SOL     OW22039   6.336   0.525   2.398
 7047SOL    HW122040   6.273   0.482   2.333
 7047SOL    HW222041   6.389   0.596   2.352
 7048SOL     OW22042   5.677   6.815   4.035
 7048SOL    HW122043   5.750   6.747   4.033
 7048SOL    HW222044   5.709   6.900   3.994
 7049SOL     OW22045   3.798   1.922   1.047
 7049SOL    HW122046   3.896   1.912   1.067
 7049SOL    HW222047   3.746   1.863   1.109
 7050SOL     OW22048   4.019   3.522   1.494
 7050SOL    HW122049   3.935   3.569   1.466
 7050SOL    HW222050   4.006   3.423   1.486
 7051SOL     OW22051   6.687   0.183   1.226
 7051SOL    HW122052   6.598   0.211   1.190
 7051SOL    HW222053   6.744   0.151   1.151
 7052SOL     OW22054   6.495   1.482   3.283
 7052SOL    HW122055   6.492   1.430   3.368
 7052SOL    HW222056   6.464   1.575   3.299
 7053SOL     OW22057   1.856   3.171   4.705
 7053SOL    HW122058   1.832   3.090   4.758
 7053SOL    HW222059   1.955   3.180   4.701
 7054SOL     OW22060   0.072   6.857   0.824
 7054SOL    HW122061   0.004   6.895   0.762
 7054SOL    HW222062   0.052   6.760   0.840
 7055SOL     OW22063   2.767   0.143   6.762
 7055SOL    HW122064   2.726   0.104   6.679
 7055SOL    HW222065   2.789   0.070   6.826
 7056SOL     OW22066   6.721   5.231   1.572
 7056SOL    HW122067   6.798   5.169   1.587
 7056SOL    HW222068   6.672   5.204   1.489
 7057SOL     OW22069   2.789   4.918   3.906
 7057SOL    HW122070   2.756   5.003   3.948
 7057SOL    HW222071   2.714   4.873   3.859
 7058SOL     OW22072   5.396   2.825   5.855
 7058SOL    HW122073   5.346   2.808   5.770
 7058SOL    HW222074   5.342   2.792   5.933
 7059SOL     OW22075   0.681   1.588   4.171
 7059SOL    HW122076   0.682   1.526   4.092
 7059SOL    HW222077   0.716   1.678   4.144
 7060SOL     OW22078   3.346   0.136   2.074
 7060SOL    HW122079   3.330   0.139   2.172
 7060SOL    HW222080   3.294   0.060   2.034
 7061SOL     OW22081   0.430   3.391   3.423
 7061SOL    HW122082   0.496   3.323   3.454
 7061SOL    HW222083   0.411   3.378   3.326
 7062SOL     OW22084   3.237   2.246   5.378
 7062SOL    HW122085   3.147   2.202   5.373
 7062SOL    HW222086   3.244   2.315   5.307
 7063SOL     OW22087   1.384   6.635   1.723
 7063SOL    HW122088   1.331   6.576   1.784
 7063SOL    HW222089   1.478   6.603   1.719
 7064SOL     OW22090   4.118   1.787   0.177
 7064SOL    HW122091   4.072   1.701   0.199
 7064SOL    HW222092   4.056   1.846   0.125
 7065SOL     OW22093   4.021   3.638   5.580
 7065SOL    HW122094   4.092   3.705   5.603
 7065SOL    HW222095   3.946   3.646   5.645
 7066SOL     OW22096   3.719   0.132   6.073
 7066SOL    HW122097   3.642   0.193   6.094
 7066SOL    HW222098   3.803   0.186   6.064
 7067SOL     OW22099   1.294   3.366   5.613
 7067SOL    HW122100   1.346   3.451   5.609
 7067SOL    HW222101   1.315   3.318   5.698
 7068SOL     OW22102   6.189   4.460   4.751
 7068SOL    HW122103   6.243   4.377   4.762
 7068SOL    HW222104   6.208   4.523   4.826
 7069SOL     OW22105   5.666   1.958   4.701
 7069SOL    HW122106   5.669   2.022   4.624
 7069SOL    HW222107   5.735   1.983   4.768
 7070SOL     OW22108   1.040   0.089   4.769
 7070SOL    HW122109   1.108   0.096   4.696
 7070SOL    HW222110   1.062   0.154   4.841
 7071SOL     OW22111   3.775   6.272   6.422
 7071SOL    HW122112   3.810   6.280   6.329
 7071SOL    HW222113   3.691   6.219   6.422
 7072SOL     OW22114   2.034   5.864   0.335
 7072SOL    HW122115   1.989   5.887   0.249
 7072SOL    HW222116   2.044   5.946   0.391
 7073SOL     OW22117   4.931   6.890   3.824
 7073SOL    HW122118   4.898   6.963   3.764
 7073SOL    HW222119   5.026   6.907   3.848
 7074SOL     OW22120   6.231   3.041   1.854
 7074SOL    HW122121   6.327   3.015   1.868
 7074SOL    HW222122   6.226   3.118   1.791
 7075SOL     OW22123   1.818   4.138   4.648
 7075SOL    HW122124   1.815   4.157   4.550
 7075SOL    HW222125   1.785   4.217   4.699
 7076SOL     OW22126   5.356   3.315   0.569
 7076SOL    HW122127   5.449   3.278   0.577
 7076SOL    HW222128   5.307   3.269   0.496
 7077SOL     OW22129   1.814   4.163   3.887
 7077SOL    HW122130   1.772   4.142   3.975
 7077SOL    HW222131   1.749   4.217   3.832
 7078SOL     OW22132   6.595   6.050   1.886
 7078SOL    HW122133   6.598   5.950   1.878
 7078SOL    HW222134   6.531   6.086   1.818
 7079SOL     OW22135   0.943   6.898   3.942
 7079SOL    HW122136   1.024   6.957   3.942
 7079SOL    HW222137   0.864   6.951   3.972
 7080SOL     OW22138   3.332   1.342   4.286
 7080SOL    HW122139   3.366   1.426   4.242
 7080SOL    HW222140   3.240   1.359   4.323
 7081SOL     OW22141   2.139   6.072   0.524
 7081SOL    HW122142   2.130   5.995   0.588
 7081SOL    HW222143   2.175   6.151   0.572
 7082SOL     OW22144   6.276   4.796   0.159
 7082SOL    HW122145   6.359   4.782   0.214
 7082SOL    HW222146   6.301   4.832   0.069
 7083SOL     OW22147   1.337   1.280   1.911
 7083SOL    HW122148   1.347   1.186   1.877
 7083SOL    HW222149   1.386   1.342   1.850
 7084SOL     OW22150   1.006   5.655   5.651
 7084SOL    HW122151   1.042   5.649   5.558
 7084SOL    HW222152   1.044   5.581   5.706
 7085SOL     OW22153   0.321   1.851   1.983
 7085SOL    HW122154   0.412   1.823   2.014
 7085SOL    HW222155   0.264   1.771   1.969
 7086SOL     OW22156   5.681   1.276   5.883
 7086SOL    HW122157   5.780   1.278   5.868
 7086SOL    HW222158   5.652   1.182   5.899
 7087SOL     OW22159   5.930   4.367   2.994
 7087SOL    HW122160   5.928   4.335   2.899
 7087SOL    HW222161   5.877   4.304   3.051
 7088SOL     OW22162   5.220   2.349   4.594
 7088SOL    HW122163   5.195   2.429   4.539
 7088SOL    HW222164   5.175   2.354   4.683
 7089SOL     OW22165   2.260   2.646   4.260
 7089SOL    HW122166   2.285   2.722   4.320
 7089SOL    HW222167   2.263   2.560   4.312
 7090SOL     OW22168   2.582   1.134   0.205
 7090SOL    HW122169   2.639   1.215   0.193
 7090SOL    HW222170   2.563   1.121   0.303
 7091SOL     OW22171   0.734   1.015   1.030
 7091SOL    HW122172   0.713   1.096   0.975
 7091SOL    HW222173   0.830   1.017   1.057
 7092SOL     OW22174   4.585   2.956   5.543
 7092SOL    HW122175   4.576   2.955   5.443
 7092SOL    HW222176   4.547   3.042   5.578
 7093SOL     OW22177   3.699   4.081   2.391
 7093SOL    HW122178   3.772   4.148   2.406
 7093SOL    HW222179   3.665   4.048   2.479
 7094SOL     OW22180   0.422   6.351   5.570
 7094SOL    HW122181   0.406   6.300   5.654
 7094SOL    HW222182   0.334   6.379   5.531
 7095SOL     OW22183   2.525   4.412   6.108
 7095SOL    HW122184   2.520   4.481   6.036
 7095SOL    HW222185   2.455   4.342   6.091
 7096SOL     OW22186   6.343   0.076   2.033
 7096SOL    HW122187   6.308   0.029   1.953
 7096SOL    HW222188   6.439   0.051   2.047
 7097SOL     OW22189   4.738   0.755   1.801
 7097SOL    HW122190   4.836   0.738   1.794
 7097SOL    HW222191   4.714   0.777   1.895
 7098SOL     OW22192   1.967   5.386   5.391
 7098SOL    HW122193   1.881   5.437   5.388
 7098SOL    HW222194   2.014   5.403   5.477
 7099SOL     OW22195   3.809   1.903   5.077
 7099SOL    HW122196   3.809   1.951   4.990
 7099SOL    HW222197   3.716   1.897   5.113
 7100SOL     OW22198   6.482   3.596   0.222
 7100SOL    HW122199   6.457   3.536   0.298
 7100SOL    HW222200   6.456   3.555   0.136
 7101SOL     OW22201   2.572   1.628   5.363
 7101SOL    HW122202   2.501   1.562   5.342
 7101SOL    HW222203   2.599   1.676   5.280
 7102SOL     OW22204   5.812   0.302   0.640
 7102SOL    HW122205   5.809   0.223   0.580
 7102SOL    HW222206   5.855   0.278   0.727
 7103SOL     OW22207   5.932   5.976   2.139
 7103SOL    HW122208   5.909   5.887   2.099
 7103SOL    HW222209   5.859   6.003   2.203
 7104SOL     OW22210   6.400   3.750   2.962
 7104SOL    HW122211   6.351   3.827   2.921
 7104SOL    HW222212   6.336   3.695   3.015
 7105SOL     OW22213   2.998   3.110   5.268
 7105SOL    HW122214   3.026   3.182   5.332
 7105SOL    HW222215   2.902   3.086   5.284
 7106SOL     OW22216   3.303   2.974   2.043
 7106SOL    HW122217   3.374   2.993   1.975
 7106SOL    HW222218   3.288   3.056   2.099
 7107SOL     OW22219   4.762   0.136   0.792
 7107SOL    HW122220   4.712   0.061   0.836
 7107SOL    HW222221   4.699   0.189   0.735
 7108SOL     OW22222   3.306   5.501   2.515
 7108SOL    HW122223   3.258   5.515   2.602
 7108SOL    HW222224   3.258   5.550   2.442
 7109SOL     OW22225   1.854   0.352   6.220
 7109SOL    HW122226   1.818   0.277   6.276
 7109SOL    HW222227   1.902   0.418   6.279
 7110SOL     OW22228   2.992   6.152   4.156
 7110SOL    HW122229   3.032   6.109   4.237
 7110SOL    HW222230   2.913   6.097   4.125
 7111SOL     OW22231   1.161   2.554   4.711
 7111SOL    HW122232   1.160   2.615   4.632
 7111SOL    HW222233   1.251   2.557   4.755
 7112SOL     OW22234   1.980   4.869   4.372
 7112SOL    HW122235   2.002   4.806   4.446
 7112SOL    HW222236   2.064   4.901   4.328
 7113SOL     OW22237   3.786   4.066   4.972
 7113SOL    HW122238   3.696   4.024   4.956
 7113SOL    HW222239   3.777   4.135   5.044
 7114SOL     OW22240   4.943   5.508   0.807
 7114SOL    HW122241   4.999   5.486   0.886
 7114SOL    HW222242   4.964   5.445   0.732
 7115SOL     OW22243   4.411   3.119   0.333
 7115SOL    HW122244   4.472   3.042   0.351
 7115SOL    HW222245   4.464   3.202   0.320
 7116SOL     OW22246   5.393   4.546   3.267
 7116SOL    HW122247   5.458   4.473   3.245
 7116SOL    HW222248   5.314   4.506   3.313
 7117SOL     OW22249   6.979   6.525   4.764
 7117SOL    HW122250   0.034   6.499   4.821
 7117SOL    HW222251   6.980   6.624   4.750
 7118SOL     OW22252   3.467   4.696   6.163
 7118SOL    HW122253   3.443   4.739   6.076
 7118SOL    HW222254   3.561   4.664   6.160
 7119SOL     OW22255   5.080   1.047   4.620
 7119SOL    HW122256   5.053   1.120   4.682
 7119SOL    HW222257   5.176   1.024   4.636
 7120SOL     OW22258   3.601   2.037   1.803
 7120SOL    HW122259   3.635   2.097   1.730
 7120SOL    HW222260   3.614   2.082   1.891
 7121SOL     OW22261   0.746   6.730   3.822
 7121SOL    HW122262   0.787   6.810   3.866
 7121SOL    HW222263   0.818   6.666   3.795
 7122SOL     OW22264   1.607   0.826   5.580
 7122SOL    HW122265   1.521   0.877   5.571
 7122SOL    HW222266   1.669   0.876   5.640
 7123SOL     OW22267   1.063   5.231   3.931
 7123SOL    HW122268   1.100   5.323   3.936
 7123SOL    HW222269   0.989   5.228   3.864
 7124SOL     OW22270   0.328   2.455   1.520
 7124SOL    HW122271   0.343   2.546   1.558
 7124SOL    HW222272   0.257   2.408   1.572
 7125SOL     OW22273   1.356   0.661   0.646
 7125SOL    HW122274   1.382   0.611   0.729
 7125SOL    HW222275   1.409   0.626   0.568
 7126SOL     OW22276   3.229   4.827   0.733
 7126SOL    HW122277   3.201   4.853   0.640
 7126SOL    HW222278   3.231   4.727   0.740
 7127SOL     OW22279   2.748   5.755   6.788
 7127SOL    HW122280   2.819   5.755   6.718
 7127SOL    HW222281   2.710   5.848   6.796
 7128SOL     OW22282   3.204   3.909   6.636
 7128SOL    HW122283   3.154   3.882   6.553
 7128SOL    HW222284   3.139   3.934   6.707
 7129SOL     OW22285   2.152   1.031   0.583
 7129SOL    HW122286   2.185   0.943   0.548
 7129SOL    HW222287   2.091   1.016   0.661
 7130SOL     OW22288   3.361   6.245   4.400
 7130SOL    HW122289   3.395   6.154   4.423
 7130SOL    HW222290   3.435   6.300   4.361
 7131SOL     OW22291   2.952   1.042   1.537
 7131SOL    HW122292   2.945   0.970   1.606
 7131SOL    HW222293   2.920   1.129   1.575
 7132SOL     OW22294   4.170   4.031   0.276
 7132SOL    HW122295   4.178   3.934   0.297
 7132SOL    HW222296   4.076   4.062   0.290
 7133SOL     OW22297   3.922   4.844   5.249
 7133SOL    HW122298   3.892   4.769   5.308
 7133SOL    HW222299   3.848   4.910   5.237
 7134SOL     OW22300   4.490   0.262   1.963
 7134SOL    HW122301   4.506   0.360   1.950
 7134SOL    HW222302   4.566   0.211   1.923
 7135SOL     OW22303   1.861   2.410   3.015
 7135SOL    HW122304   1.787   2.356   3.054
 7135SOL    HW222305   1.920   2.351   2.960
 7136SOL     OW22306   3.578   1.678   0.354
 7136SOL    HW122307   3.614   1.665   0.262
 7136SOL    HW222308   3.574   1.776   0.374
 7137SOL     OW22309   3.082   1.908   0.350
 7137SOL    HW122310   3.164   1.937   0.299
 7137SOL    HW222311   3.056   1.980   0.414
 7138SOL     OW22312   2.057   1.677   0.822
 7138SOL    HW122313   1.988   1.609   0.846
 7138SOL    HW222314   2.135   1.668   0.884
 7139SOL     OW22315   4.796   5.100   2.202
 7139SOL    HW122316   4.730   5.097   2.276
 7139SOL    HW222317   4.814   5.195   2.177
 7140SOL     OW22318   6.177   3.811   0.590
 7140SOL    HW122319   6.211   3.742   0.527
 7140SOL    HW222320   6.243   3.825   0.664
 7141SOL     OW22321   3.575   6.870   1.330
 7141SOL    HW122322   3.492   6.890   1.382
 7141SOL    HW222323   3.561   6.896   1.234
 7142SOL     OW22324   4.100   7.001   3.519
 7142SOL    HW122325   4.117   0.063   3.469
 7142SOL    HW222326   4.098   6.924   3.455
 7143SOL     OW22327   2.325   3.523   0.010
 7143SOL    HW122328   2.272   3.582   6.972
 7143SOL    HW222329   2.412   3.500   6.990
 7144SOL     OW22330   1.241   0.803   3.550
 7144SOL    HW122331   1.281   0.894   3.551
 7144SOL    HW222332   1.186   0.790   3.632
 7145SOL     OW22333   4.022   0.844   6.672
 7145SOL    HW122334   3.929   0.863   6.639
 7145SOL    HW222335   4.018   0.771   6.741
 7146SOL     OW22336   1.580   0.853   6.128
 7146SOL    HW122337   1.598   0.949   6.105
 7146SOL    HW222338   1.652   0.796   6.089
 7147SOL     OW22339   7.011   6.243   3.055
 7147SOL    HW122340   7.001   6.266   2.958
 7147SOL    HW222341   0.011   6.325   3.107
 7148SOL     OW22342   6.085   5.957   1.881
 7148SOL    HW122343   6.113   6.035   1.936
 7148SOL    HW222344   5.985   5.948   1.885
 7149SOL     OW22345   0.281   5.246   3.872
 7149SOL    HW122346   0.272   5.250   3.971
 7149SOL    HW222347   0.207   5.191   3.833
 7150SOL     OW22348   3.473   3.207   0.465
 7150SOL    HW122349   3.448   3.181   0.372
 7150SOL    HW222350   3.491   3.125   0.519
 7151SOL     OW22351   2.879   6.724   1.253
 7151SOL    HW122352   2.815   6.763   1.187
 7151SOL    HW222353   2.966   6.704   1.208
 7152SOL     OW22354   6.715   0.460   6.132
 7152SOL    HW122355   6.654   0.530   6.095
 7152SOL    HW222356   6.712   0.379   6.074
 7153SOL     OW22357   3.847   4.839   1.842
 7153SOL    HW122358   3.865   4.776   1.767
 7153SOL    HW222359   3.763   4.813   1.890
 7154SOL     OW22360   4.690   6.230   3.286
 7154SOL    HW122361   4.749   6.155   3.316
 7154SOL    HW222362   4.636   6.201   3.207
 7155SOL     OW22363   3.124   3.754   1.877
 7155SOL    HW122364   3.045   3.693   1.882
 7155SOL    HW222365   3.207   3.699   1.862
 7156SOL     OW22366   5.741   4.048   2.361
 7156SOL    HW122367   5.757   4.128   2.304
 7156SOL    HW222368   5.828   4.002   2.381
 7157SOL     OW22369   6.912   4.962   1.905
 7157SOL    HW122370   6.813   4.970   1.922
 7157SOL    HW222371   6.943   4.870   1.928
 7158SOL     OW22372   1.100   0.311   3.623
 7158SOL    HW122373   1.071   0.390   3.570
 7158SOL    HW222374   1.048   0.231   3.594
 7159SOL     OW22375   1.578   4.968   4.219
 7159SOL    HW122376   1.640   4.909   4.271
 7159SOL    HW222377   1.555   5.049   4.273
 7160SOL     OW22378   6.336   6.979   3.044
 7160SOL    HW122379   6.306   7.014   2.955
 7160SOL    HW222380   6.408   6.911   3.030
 7161SOL     OW22381   3.245   3.819   2.981
 7161SOL    HW122382   3.268   3.722   2.994
 7161SOL    HW222383   3.269   3.846   2.888
 7162SOL     OW22384   1.536   5.488   6.084
 7162SOL    HW122385   1.596   5.502   6.163
 7162SOL    HW222386   1.585   5.512   6.000
 7163SOL     OW22387   2.967   0.349   2.291
 7163SOL    HW122388   3.037   0.372   2.358
 7163SOL    HW222389   2.903   0.425   2.281
 7164SOL     OW22390   2.706   0.307   4.951
 7164SOL    HW122391   2.792   0.322   4.903
 7164SOL    HW222392   2.652   0.238   4.902
 7165SOL     OW22393   5.561   6.171   1.832
 7165SOL    HW122394   5.569   6.261   1.873
 7165SOL    HW222395   5.492   6.117   1.881
 7166SOL     OW22396   5.603   2.103   0.372
 7166SOL    HW122397   5.513   2.059   0.377
 7166SOL    HW222398   5.592   2.196   0.338
 7167SOL     OW22399   4.925   3.371   4.760
 7167SOL    HW122400   4.929   3.391   4.662
 7167SOL    HW222401   4.885   3.449   4.808
 7168SOL     OW22402   2.765   2.233   2.991
 7168SOL    HW122403   2.698   2.163   2.963
 7168SOL    HW222404   2.827   2.251   2.915
 7169SOL     OW22405   6.685   4.304   5.287
 7169SOL    HW122406   6.615   4.372   5.310
 7169SOL    HW222407   6.659   4.215   5.322
 7170SOL     OW22408   4.851   0.311   2.467
 7170SOL    HW122409   4.794   0.311   2.549
 7170SOL    HW222410   4.899   0.224   2.459
 7171SOL     OW22411   5.667   3.947   0.552
 7171SOL    HW122412   5.643   3.850   0.559
 7171SOL    HW222413   5.619   3.987   0.473
 7172SOL     OW22414   1.934   0.254   4.973
 7172SOL    HW122415   2.006   0.322   4.958
 7172SOL    HW222416   1.973   0.176   5.023
 7173SOL     OW22417   6.384   4.881   6.950
 7173SOL    HW122418   6.316   4.935   6.901
 7173SOL    HW222419   6.476   4.916   6.931
 7174SOL     OW22420   0.148   4.316   0.461
 7174SOL    HW122421   0.166   4.223   0.494
 7174SOL    HW222422   0.074   4.356   0.516
 7175SOL     OW22423   6.354   3.124   5.565
 7175SOL    HW122424   6.450   3.114   5.591
 7175SOL    HW222425   6.299   3.054   5.610
 7176SOL     OW22426   0.101   1.872   3.650
 7176SOL    HW122427   0.188   1.896   3.607
 7176SOL    HW222428   0.118   1.835   3.742
 7177SOL     OW22429   1.488   4.587   5.138
 7177SOL    HW122430   1.542   4.586   5.053
 7177SOL    HW222431   1.504   4.674   5.185
 7178SOL     OW22432   7.023   1.913   5.945
 7178SOL    HW122433   6.963   1.854   5.890
 7178SOL    HW222434   0.037   1.862   6.022
 7179SOL     OW22435   1.385   3.536   4.653
 7179SOL    HW122436   1.356   3.489   4.737
 7179SOL    HW222437   1.332   3.619   4.641
 7180SOL     OW22438   2.205   3.813   0.395
 7180SOL    HW122439   2.303   3.829   0.392
 7180SOL    HW222440   2.156   3.900   0.387
 7181SOL     OW22441   2.393   0.367   0.357
 7181SOL    HW122442   2.459   0.293   0.368
 7181SOL    HW222443   2.306   0.342   0.399
 7182SOL     OW22444   0.302   4.068   3.672
 7182SOL    HW122445   0.275   4.030   3.761
 7182SOL    HW222446   0.339   3.995   3.614
 7183SOL     OW22447   1.786   5.647   2.273
 7183SOL    HW122448   1.735   5.612   2.195
 7183SOL    HW222449   1.828   5.570   2.323
 7184SOL     OW22450   6.648   1.803   3.996
 7184SOL    HW122451   6.703   1.735   4.046
 7184SOL    HW222452   6.707   1.879   3.969
 7185SOL     OW22453   5.536   1.453   5.692
 7185SOL    HW122454   5.553   1.358   5.719
 7185SOL    HW222455   5.593   1.514   5.747
 7186SOL     OW22456   6.635   1.614   1.385
 7186SOL    HW122457   6.542   1.631   1.351
 7186SOL    HW222458   6.696   1.598   1.308
 7187SOL     OW22459   2.948   4.027   5.180
 7187SOL    HW122460   2.893   4.006   5.099
 7187SOL    HW222461   2.889   4.072   5.248
 7188SOL     OW22462   4.380   5.960   0.040
 7188SOL    HW122463   4.342   5.876   0.002
 7188SOL    HW222464   4.325   6.038   0.011
 7189SOL     OW22465   6.630   2.312   5.912
 7189SOL    HW122466   6.534   2.340   5.907
 7189SOL    HW222467   6.689   2.393   5.915
 7190SOL     OW22468   6.362   5.676   1.574
 7190SOL    HW122469   6.307   5.696   1.655
 7190SOL    HW222470   6.459   5.694   1.594
 7191SOL     OW22471   1.412   4.621   3.065
 7191SOL    HW122472   1.364   4.597   3.150
 7191SOL    HW222473   1.394   4.551   2.996
 7192SOL     OW22474   1.598   4.310   5.939
 7192SOL    HW122475   1.662   4.387   5.928
 7192SOL    HW222476   1.591   4.260   5.853
 7193SOL     OW22477   1.965   2.096   1.963
 7193SOL    HW122478   1.929   2.146   1.884
 7193SOL    HW222479   2.059   2.127   1.982
 7194SOL     OW22480   1.859   3.159   6.583
 7194SOL    HW122481   1.873   3.195   6.491
 7194SOL    HW222482   1.941   3.108   6.612
 7195SOL     OW22483   6.862   4.249   0.461
 7195SOL    HW122484   6.844   4.347   0.454
 7195SOL    HW222485   6.846   4.218   0.555
 7196SOL     OW22486   2.260   3.852   1.871
 7196SOL    HW122487   2.299   3.783   1.811
 7196SOL    HW222488   2.194   3.809   1.933
 7197SOL     OW22489   1.252   3.518   6.110
 7197SOL    HW122490   1.263   3.419   6.099
 7197SOL    HW222491   1.178   3.537   6.174
 7198SOL     OW22492   0.376   1.103   0.517
 7198SOL    HW122493   0.332   1.029   0.568
 7198SOL    HW222494   0.363   1.089   0.419
 7199SOL     OW22495   0.367   0.201   2.550
 7199SOL    HW122496   0.375   0.225   2.647
 7199SOL    HW222497   0.271   0.200   2.524
 7200SOL     OW22498   2.444   3.087   6.667
 7200SOL    HW122499   2.495   3.011   6.627
 7200SOL    HW222500   2.459   3.089   6.766
 7201SOL     OW22501   0.900   5.925   3.930
 7201SOL    HW122502   0.989   5.960   3.900
 7201SOL    HW222503   0.902   5.909   4.028
 7202SOL     OW22504   4.404   6.864   6.804
 7202SOL    HW122505   4.410   6.807   6.885
 7202SOL    HW222506   4.493   6.908   6.787
 7203SOL     OW22507   6.777   1.152   1.233
 7203SOL    HW122508   6.705   1.098   1.189
 7203SOL    HW222509   6.791   1.119   1.326
 7204SOL     OW22510   6.971   1.031   5.919
 7204SOL    HW122511   6.900   1.098   5.897
 7204SOL    HW222512   6.947   0.984   6.004
 7205SOL     OW22513   1.639   4.441   5.637
 7205SOL    HW122514   1.684   4.442   5.727
 7205SOL    HW222515   1.581   4.360   5.629
 7206SOL     OW22516   1.197   0.884   2.063
 7206SOL    HW122517   1.194   0.919   1.969
 7206SOL    HW222518   1.163   0.791   2.064
 7207SOL     OW22519   4.154   0.476   4.202
 7207SOL    HW122520   4.193   0.568   4.195
 7207SOL    HW222521   4.107   0.467   4.290
 7208SOL     OW22522   4.442   0.317   3.310
 7208SOL    HW122523   4.515   0.317   3.378
 7208SOL    HW222524   4.360   0.277   3.349
 7209SOL     OW22525   2.555   3.035   1.565
 7209SOL    HW122526   2.459   3.011   1.581
 7209SOL    HW222527   2.560   3.129   1.530
 7210SOL     OW22528   3.801   1.691   3.610
 7210SOL    HW122529   3.882   1.749   3.620
 7210SOL    HW222530   3.804   1.645   3.522
 7211SOL     OW22531   1.827   6.032   5.067
 7211SOL    HW122532   1.762   6.092   5.020
 7211SOL    HW222533   1.782   5.989   5.146
 7212SOL     OW22534   0.555   6.542   5.450
 7212SOL    HW122535   0.610   6.527   5.368
 7212SOL    HW222536   0.511   6.456   5.476
 7213SOL     OW22537   3.503   6.761   6.803
 7213SOL    HW122538   3.561   6.729   6.878
 7213SOL    HW222539   3.552   6.753   6.716
 7214SOL     OW22540   6.352   0.757   5.323
 7214SOL    HW122541   6.371   0.690   5.394
 7214SOL    HW222542   6.362   0.849   5.360
 7215SOL     OW22543   6.445   3.001   3.901
 7215SOL    HW122544   6.359   2.980   3.854
 7215SOL    HW222545   6.478   2.920   3.950
 7216SOL     OW22546   2.992   0.198   1.605
 7216SOL    HW122547   2.948   0.266   1.547
 7216SOL    HW222548   2.956   0.107   1.582
 7217SOL     OW22549   1.919   3.517   3.313
 7217SOL    HW122550   2.011   3.505   3.351
 7217SOL    HW222551   1.926   3.533   3.215
 7218SOL     OW22552   6.515   2.844   4.476
 7218SOL    HW122553   6.450   2.920   4.482
 7218SOL    HW222554   6.595   2.864   4.532
 7219SOL     OW22555   3.550   1.067   2.846
 7219SOL    HW122556   3.529   0.973   2.821
 7219SOL    HW222557   3.617   1.068   2.921
 7220SOL     OW22558   6.613   4.138   4.163
 7220SOL    HW122559   6.599   4.236   4.178
 7220SOL    HW222560   6.563   4.087   4.233
 7221SOL     OW22561   3.760   5.894   5.113
 7221SOL    HW122562   3.714   5.880   5.201
 7221SOL    HW222563   3.756   5.991   5.088
 7222SOL     OW22564   6.513   6.566   3.763
 7222SOL    HW122565   6.525   6.484   3.820
 7222SOL    HW222566   6.514   6.541   3.667
 7223SOL     OW22567   3.365   1.520   0.973
 7223SOL    HW122568   3.414   1.436   0.948
 7223SOL    HW222569   3.370   1.585   0.896
 7224SOL     OW22570   5.332   2.655   4.014
 7224SOL    HW122571   5.360   2.696   4.101
 7224SOL    HW222572   5.262   2.585   4.032
 7225SOL     OW22573   1.461   6.364   0.379
 7225SOL    HW122574   1.401   6.407   0.446
 7225SOL    HW222575   1.434   6.268   0.367
 7226SOL     OW22576   5.465   0.095   1.056
 7226SOL    HW122577   5.375   0.083   1.015
 7226SOL    HW222578   5.455   0.120   1.153
 7227SOL     OW22579   2.639   1.787   1.179
 7227SOL    HW122580   2.706   1.782   1.254
 7227SOL    HW222581   2.660   1.865   1.121
 7228SOL     OW22582   1.284   1.556   2.666
 7228SOL    HW122583   1.293   1.543   2.567
 7228SOL    HW222584   1.188   1.569   2.689
 7229SOL     OW22585   1.324   6.044   5.875
 7229SOL    HW122586   1.359   6.136   5.862
 7229SOL    HW222587   1.258   6.023   5.803
 7230SOL     OW22588   3.751   5.719   4.522
 7230SOL    HW122589   3.679   5.650   4.520
 7230SOL    HW222590   3.789   5.730   4.430
 7231SOL     OW22591   3.452   0.452   6.419
 7231SOL    HW122592   3.386   0.407   6.479
 7231SOL    HW222593   3.405   0.518   6.360
 7232SOL     OW22594   4.964   6.007   2.852
 7232SOL    HW122595   4.899   5.955   2.907
 7232SOL    HW222596   4.918   6.042   2.770
 7233SOL     OW22597   1.622   1.613   4.345
 7233SOL    HW122598   1.689   1.680   4.380
 7233SOL    HW222599   1.533   1.658   4.334
 7234SOL     OW22600   6.178   3.046   3.002
 7234SOL    HW122601   6.083   3.023   3.022
 7234SOL    HW222602   6.181   3.118   2.932
 7235SOL     OW22603   6.990   4.540   2.473
 7235SOL    HW122604   7.013   4.455   2.521
 7235SOL    HW222605   0.028   4.613   2.504
 7236SOL     OW22606   2.737   1.839   1.991
 7236SOL    HW122607   2.666   1.890   1.942
 7236SOL    HW222608   2.818   1.896   2.002
 7237SOL     OW22609   4.197   0.032   4.909
 7237SOL    HW122610   4.189   0.071   4.817
 7237SOL    HW222611   4.293   0.010   4.927
 7238SOL     OW22612   4.412   2.454   6.688
 7238SOL    HW122613   4.328   2.414   6.723
 7238SOL    HW222614   4.437   2.409   6.602
 7239SOL     OW22615   0.461   1.873   1.606
 7239SOL    HW122616   0.401   1.800   1.639
 7239SOL    HW222617   0.423   1.912   1.522
 7240SOL     OW22618   0.432   1.108   5.619
 7240SOL    HW122619   0.356   1.172   5.633
 7240SOL    HW222620   0.514   1.144   5.662
 7241SOL     OW22621   2.591   0.434   1.100
 7241SOL    HW122622   2.541   0.519   1.117
 7241SOL    HW222623   2.677   0.455   1.054
 7242SOL     OW22624   6.413   5.888   6.722
 7242SOL    HW122625   6.366   5.906   6.808
 7242SOL    HW222626   6.402   5.792   6.697
 7243SOL     OW22627   6.369   4.385   6.736
 7243SOL    HW122628   6.361   4.481   6.763
 7243SOL    HW222629   6.358   4.377   6.637
 7244SOL     OW22630   6.752   0.709   1.808
 7244SOL    HW122631   6.690   0.681   1.881
 7244SOL    HW222632   6.710   0.783   1.755
 7245SOL     OW22633   1.912   2.743   4.993
 7245SOL    HW122634   1.937   2.706   4.904
 7245SOL    HW222635   1.957   2.689   5.065
 7246SOL     OW22636   0.920   0.520   3.661
 7246SOL    HW122637   0.885   0.427   3.674
 7246SOL    HW222638   0.853   0.573   3.609
 7247SOL     OW22639   2.069   1.749   5.101
 7247SOL    HW122640   1.989   1.705   5.141
 7247SOL    HW222641   2.084   1.714   5.008
 7248SOL     OW22642   3.218   1.710   2.907
 7248SOL    HW122643   3.248   1.801   2.878
 7248SOL    HW222644   3.224   1.647   2.830
 7249SOL     OW22645   5.083   4.974   1.902
 7249SOL    HW122646   4.984   4.978   1.889
 7249SOL    HW222647   5.110   5.042   1.971
 7250SOL     OW22648   5.881   6.168   6.017
 7250SOL    HW122649   5.913   6.235   5.950
 7250SOL    HW222650   5.798   6.124   5.982
 7251SOL     OW22651   0.368   0.089   5.689
 7251SOL    HW122652   0.320   0.013   5.646
 7251SOL    HW222653   0.375   0.165   5.625
 7252SOL     OW22654   3.678   3.115   2.115
 7252SOL    HW122655   3.638   3.028   2.142
 7252SOL    HW222656   3.605   3.175   2.080
 7253SOL     OW22657   1.951   6.333   0.268
 7253SOL    HW122658   1.950   6.377   0.357
 7253SOL    HW222659   2.017   6.380   0.208
 7254SOL     OW22660   5.241   4.995   4.681
 7254SOL    HW122661   5.214   4.916   4.736
 7254SOL    HW222662   5.336   4.985   4.652
 7255SOL     OW22663   4.158   3.765   0.305
 7255SOL    HW122664   4.195   3.746   0.396
 7255SOL    HW222665   4.135   3.679   0.260
 7256SOL     OW22666   2.833   5.939   4.507
 7256SOL    HW122667   2.793   6.000   4.439
 7256SOL    HW222668   2.828   5.845   4.474
 7257SOL     OW22669   6.518   1.749   3.328
 7257SOL    HW122670   6.580   1.823   3.354
 7257SOL    HW222671   6.425   1.785   3.317
 7258SOL     OW22672   4.774   1.453   3.042
 7258SOL    HW122673   4.810   1.547   3.041
 7258SOL    HW222674   4.800   1.407   2.957
 7259SOL     OW22675   1.802   3.674   1.512
 7259SOL    HW122676   1.798   3.596   1.449
 7259SOL    HW222677   1.895   3.682   1.548
 7260SOL     OW22678   4.949   1.579   1.615
 7260SOL    HW122679   5.011   1.505   1.640
 7260SOL    HW222680   4.937   1.640   1.694
 7261SOL     OW22681   1.634   3.998   1.800
 7261SOL    HW122682   1.694   4.032   1.872
 7261SOL    HW222683   1.539   4.008   1.829
 7262SOL     OW22684   5.437   2.656   6.460
 7262SOL    HW122685   5.389   2.719   6.521
 7262SOL    HW222686   5.370   2.600   6.410
 7263SOL     OW22687   0.874   6.514   6.913
 7263SOL    HW122688   0.832   6.424   6.898
 7263SOL    HW222689   0.952   6.504   6.975
 7264SOL     OW22690   5.043   1.831   6.854
 7264SOL    HW122691   5.011   1.921   6.824
 7264SOL    HW222692   4.984   1.760   6.817
 7265SOL     OW22693   5.628   5.480   5.716
 7265SOL    HW122694   5.562   5.482   5.791
 7265SOL    HW222695   5.652   5.385   5.695
 7266SOL     OW22696   5.457   0.395   2.303
 7266SOL    HW122697   5.504   0.473   2.345
 7266SOL    HW222698   5.380   0.368   2.360
 7267SOL     OW22699   6.294   6.623   5.296
 7267SOL    HW122700   6.377   6.572   5.276
 7267SOL    HW222701   6.243   6.577   5.370
 7268SOL     OW22702   6.733   5.411   4.308
 7268SOL    HW122703   6.739   5.320   4.348
 7268SOL    HW222704   6.804   5.470   4.346
 7269SOL     OW22705   0.933   6.005   6.403
 7269SOL    HW122706   1.019   6.025   6.355
 7269SOL    HW222707   0.922   6.069   6.480
 7270SOL     OW22708   0.987   3.458   4.962
 7270SOL    HW122709   1.063   3.452   5.026
 7270SOL    HW222710   0.988   3.378   4.902
 7271SOL     OW22711   0.781   5.577   4.443
 7271SOL    HW122712   0.830   5.567   4.356
 7271SOL    HW222713   0.797   5.496   4.500
 7272SOL     OW22714   6.329   5.197   2.167
 7272SOL    HW122715   6.237   5.165   2.144
 7272SOL    HW222716   6.325   5.292   2.197
 7273SOL     OW22717   6.126   4.425   1.196
 7273SOL    HW122718   6.071   4.348   1.229
 7273SOL    HW222719   6.221   4.412   1.225
 7274SOL     OW22720   0.163   5.419   6.616
 7274SOL    HW122721   0.210   5.331   6.610
 7274SOL    HW222722   0.229   5.490   6.641
 7275SOL     OW22723   0.637   6.439   2.828
 7275SOL    HW122724   0.723   6.390   2.843
 7275SOL    HW222725   0.622   6.449   2.729
 7276SOL     OW22726   4.853   1.033   3.235
 7276SOL    HW122727   4.834   0.985   3.150
 7276SOL    HW222728   4.766   1.054   3.281
 7277SOL     OW22729   4.764   0.912   4.330
 7277SOL    HW122730   4.756   0.964   4.415
 7277SOL    HW222731   4.853   0.929   4.289
 7278SOL     OW22732   3.909   2.179   1.891
 7278SOL    HW122733   3.927   2.166   1.989
 7278SOL    HW222734   3.814   2.204   1.878
 7279SOL     OW22735   3.853   4.671   5.695
 7279SOL    HW122736   3.876   4.657   5.791
 7279SOL    HW222737   3.758   4.700   5.687
 7280SOL     OW22738   0.485   1.749   3.906
 7280SOL    HW122739   0.489   1.659   3.950
 7280SOL    HW222740   0.493   1.738   3.807
 7281SOL     OW22741   2.397   1.737   6.895
 7281SOL    HW122742   2.470   1.785   6.946
 7281SOL    HW222743   2.309   1.776   6.921
 7282SOL     OW22744   6.083   5.020   2.517
 7282SOL    HW122745   6.087   5.115   2.484
 7282SOL    HW222746   6.173   4.978   2.510
 7283SOL     OW22747   5.044   0.906   2.815
 7283SOL    HW122748   5.077   0.955   2.735
 7283SOL    HW222749   5.111   0.838   2.845
 7284SOL     OW22750   0.214   2.517   6.135
 7284SOL    HW122751   0.252   2.425   6.130
 7284SOL    HW222752   0.129   2.515   6.189
 7285SOL     OW22753   5.514   3.122   2.482
 7285SOL    HW122754   5.508   3.108   2.580
 7285SOL    HW222755   5.570   3.202   2.463
 7286SOL     OW22756   2.280   0.786   0.489
 7286SOL    HW122757   2.380   0.790   0.494
 7286SOL    HW222758   2.252   0.786   0.393
 7287SOL     OW22759   0.487   2.819   5.770
 7287SOL    HW122760   0.403   2.834   5.718
 7287SOL    HW222761   0.547   2.898   5.760
 7288SOL     OW22762   2.013   1.020   1.142
 7288SOL    HW122763   1.968   0.978   1.221
 7288SOL    HW222764   2.098   0.972   1.122
 7289SOL     OW22765   5.341   2.223   4.066
 7289SOL    HW122766   5.292   2.289   4.009
 7289SOL    HW222767   5.340   2.133   4.023
 7290SOL     OW22768   3.734   1.313   4.970
 7290SOL    HW122769   3.768   1.238   4.914
 7290SOL    HW222770   3.746   1.399   4.921
 7291SOL     OW22771   1.936   6.466   0.486
 7291SOL    HW122772   1.857   6.524   0.504
 7291SOL    HW222773   1.923   6.377   0.530
 7292SOL     OW22774   3.680   1.338   3.727
 7292SOL    HW122775   3.591   1.340   3.774
 7292SOL    HW222776   3.672   1.283   3.644
 7293SOL     OW22777   1.405   2.083   4.571
 7293SOL    HW122778   1.366   2.089   4.663
 7293SOL    HW222779   1.371   2.159   4.515
 7294SOL     OW22780   3.005   4.956   6.899
 7294SOL    HW122781   3.008   4.916   6.990
 7294SOL    HW222782   3.012   5.056   6.905
 7295SOL     OW22783   5.808   2.994   1.596
 7295SOL    HW122784   5.739   2.946   1.540
 7295SOL    HW222785   5.773   3.005   1.689
 7296SOL     OW22786   3.351   5.832   2.433
 7296SOL    HW122787   3.306   5.836   2.522
 7296SOL    HW222788   3.450   5.828   2.446
 7297SOL     OW22789   4.371   0.273   1.302
 7297SOL    HW122790   4.421   0.254   1.218
 7297SOL    HW222791   4.432   0.316   1.369
 7298SOL     OW22792   5.057   5.362   6.047
 7298SOL    HW122793   5.117   5.293   6.088
 7298SOL    HW222794   4.969   5.362   6.096
 7299SOL     OW22795   1.051   2.244   0.933
 7299SOL    HW122796   1.133   2.198   0.968
 7299SOL    HW222797   0.972   2.215   0.987
 7300SOL     OW22798   0.609   6.793   2.647
 7300SOL    HW122799   0.575   6.884   2.627
 7300SOL    HW222800   0.567   6.726   2.586
 7301SOL     OW22801   5.849   1.488   4.253
 7301SOL    HW122802   5.762   1.439   4.255
 7301SOL    HW222803   5.890   1.487   4.345
 7302SOL     OW22804   1.163   2.413   5.278
 7302SOL    HW122805   1.095   2.383   5.211
 7302SOL    HW222806   1.137   2.502   5.315
 7303SOL     OW22807   4.191   0.849   0.163
 7303SOL    HW122808   4.242   0.848   0.077
 7303SOL    HW222809   4.142   0.762   0.174
 7304SOL     OW22810   3.252   5.405   2.120
 7304SOL    HW122811   3.255   5.504   2.115
 7304SOL    HW222812   3.343   5.368   2.100
 7305SOL     OW22813   4.794   0.366   0.441
 7305SOL    HW122814   4.882   0.319   0.434
 7305SOL    HW222815   4.808   0.458   0.478
 7306SOL     OW22816   4.896   1.612   0.730
 7306SOL    HW122817   4.904   1.574   0.822
 7306SOL    HW222818   4.855   1.544   0.669
 7307SOL     OW22819   2.676   6.601   2.741
 7307SOL    HW122820   2.646   6.523   2.796
 7307SOL    HW222821   2.719   6.567   2.657
 7308SOL     OW22822   6.997   3.111   5.328
 7308SOL    HW122823   6.918   3.162   5.363
 7308SOL    HW222824   6.991   3.016   5.356
 7309SOL     OW22825   3.881   5.062   0.935
 7309SOL    HW122826   3.965   5.014   0.911
 7309SOL    HW222827   3.803   5.001   0.923
 7310SOL     OW22828   2.221   4.012   0.765
 7310SOL    HW122829   2.258   3.933   0.814
 7310SOL    HW222830   2.133   3.988   0.724
 7311SOL     OW22831   2.028   2.187   1.257
 7311SOL    HW122832   2.091   2.265   1.254
 7311SOL    HW222833   2.077   2.104   1.231
 7312SOL     OW22834   1.064   3.899   4.889
 7312SOL    HW122835   1.152   3.941   4.868
 7312SOL    HW222836   1.078   3.822   4.951
 7313SOL     OW22837   1.929   1.031   0.389
 7313SOL    HW122838   2.005   1.022   0.453
 7313SOL    HW222839   1.924   1.125   0.355
 7314SOL     OW22840   0.308   5.191   6.185
 7314SOL    HW122841   0.269   5.107   6.223
 7314SOL    HW222842   0.407   5.183   6.182
 7315SOL     OW22843   6.432   6.576   2.312
 7315SOL    HW122844   6.529   6.575   2.336
 7315SOL    HW222845   6.381   6.523   2.379
 7316SOL     OW22846   3.779   3.761   6.649
 7316SOL    HW122847   3.842   3.683   6.644
 7316SOL    HW222848   3.747   3.772   6.744
 7317SOL     OW22849   5.083   1.331   3.043
 7317SOL    HW122850   5.034   1.346   3.128
 7317SOL    HW222851   5.157   1.264   3.058
 7318SOL     OW22852   2.226   0.528   2.285
 7318SOL    HW122853   2.215   0.457   2.354
 7318SOL    HW222854   2.215   0.618   2.328
 7319SOL     OW22855   6.940   3.173   6.572
 7319SOL    HW122856   6.983   3.091   6.609
 7319SOL    HW222857   6.967   3.252   6.627
 7320SOL     OW22858   0.624   3.632   3.100
 7320SOL    HW122859   0.538   3.681   3.115
 7320SOL    HW222860   0.641   3.570   3.176
 7321SOL     OW22861   2.035   0.743   5.990
 7321SOL    HW122862   2.083   0.659   5.964
 7321SOL    HW222863   1.970   0.723   6.063
 7322SOL     OW22864   6.733   2.600   3.570
 7322SOL    HW122865   6.684   2.607   3.657
 7322SOL    HW222866   6.754   2.692   3.536
 7323SOL     OW22867   1.956   2.551   1.440
 7323SOL    HW122868   2.035   2.522   1.385
 7323SOL    HW222869   1.916   2.633   1.399
 7324SOL     OW22870   4.673   5.836   1.864
 7324SOL    HW122871   4.592   5.878   1.905
 7324SOL    HW222872   4.728   5.907   1.820
 7325SOL     OW22873   2.874   0.379   6.895
 7325SOL    HW122874   2.868   0.358   6.993
 7325SOL    HW222875   2.822   0.310   6.844
 7326SOL     OW22876   2.606   5.965   6.203
 7326SOL    HW122877   2.525   5.920   6.239
 7326SOL    HW222878   2.599   5.973   6.103
 7327SOL     OW22879   6.394   1.832   6.286
 7327SOL    HW122880   6.414   1.768   6.212
 7327SOL    HW222881   6.398   1.925   6.251
 7328SOL     OW22882   3.349   0.448   5.602
 7328SOL    HW122883   3.418   0.507   5.558
 7328SOL    HW222884   3.394   0.389   5.669
 7329SOL     OW22885   6.860   4.116   1.141
 7329SOL    HW122886   6.782   4.054   1.153
 7329SOL    HW222887   6.928   4.098   1.211
 7330SOL     OW22888   2.582   2.853   6.565
 7330SOL    HW122889   2.535   2.804   6.638
 7330SOL    HW222890   2.515   2.888   6.500
 7331SOL     OW22891   4.977   6.196   1.218
 7331SOL    HW122892   4.948   6.110   1.175
 7331SOL    HW222893   5.050   6.176   1.283
 7332SOL     OW22894   3.201   5.936   0.419
 7332SOL    HW122895   3.173   5.946   0.514
 7332SOL    HW222896   3.172   6.017   0.367
 7333SOL     OW22897   6.776   3.281   2.002
 7333SOL    HW122898   6.748   3.326   2.086
 7333SOL    HW222899   6.765   3.344   1.925
 7334SOL     OW22900   2.659   5.770   6.506
 7334SOL    HW122901   2.614   5.704   6.447
 7334SOL    HW222902   2.591   5.836   6.541
 7335SOL     OW22903   1.614   2.402   3.688
 7335SOL    HW122904   1.538   2.407   3.623
 7335SOL    HW222905   1.585   2.351   3.769
 7336SOL     OW22906   1.510   6.526   2.659
 7336SOL    HW122907   1.488   6.622   2.674
 7336SOL    HW222908   1.426   6.473   2.654
 7337SOL     OW22909   0.898   3.204   1.295
 7337SOL    HW122910   0.861   3.287   1.251
 7337SOL    HW222911   0.941   3.147   1.226
 7338SOL     OW22912   5.453   2.001   1.565
 7338SOL    HW122913   5.489   2.043   1.649
 7338SOL    HW222914   5.354   2.014   1.562
 7339SOL     OW22915   6.111   0.458   3.957
 7339SOL    HW122916   6.204   0.424   3.940
 7339SOL    HW222917   6.117   0.542   4.012
 7340SOL     OW22918   3.349   1.582   0.203
 7340SOL    HW122919   3.279   1.533   0.254
 7340SOL    HW222920   3.409   1.631   0.266
 7341SOL     OW22921   0.807   4.178   5.970
 7341SOL    HW122922   0.768   4.165   6.061
 7341SOL    HW222923   0.742   4.228   5.912
 7342SOL     OW22924   0.402   1.604   6.943
 7342SOL    HW122925   0.388   1.568   0.012
 7342SOL    HW222926   0.499   1.627   6.930
 7343SOL     OW22927   6.184   3.955   1.342
 7343SOL    HW122928   6.144   4.011   1.415
 7343SOL    HW222929   6.186   4.007   1.257
 7344SOL     OW22930   1.133   1.366   6.081
 7344SOL    HW122931   1.121   1.326   5.990
 7344SOL    HW222932   1.185   1.451   6.073
 7345SOL     OW22933   4.722   4.735   5.116
 7345SOL    HW122934   4.737   4.828   5.081
 7345SOL    HW222935   4.769   4.725   5.204
 7346SOL     OW22936   4.419   4.723   1.750
 7346SOL    HW122937   4.468   4.642   1.784
 7346SOL    HW222938   4.484   4.783   1.703
 7347SOL     OW22939   0.232   2.349   0.283
 7347SOL    HW122940   0.213   2.427   0.342
 7347SOL    HW222941   0.192   2.266   0.322
 7348SOL     OW22942   1.738   3.730   4.428
 7348SOL    HW122943   1.690   3.653   4.470
 7348SOL    HW222944   1.672   3.789   4.381
 7349SOL     OW22945   4.685   1.461   1.778
 7349SOL    HW122946   4.690   1.421   1.687
 7349SOL    HW222947   4.756   1.531   1.788
 7350SOL     OW22948   2.283   3.235   5.546
 7350SOL    HW122949   2.348   3.254   5.619
 7350SOL    HW222950   2.247   3.142   5.557
 7351SOL     OW22951   5.624   6.513   5.294
 7351SOL    HW122952   5.659   6.484   5.383
 7351SOL    HW222953   5.542   6.461   5.271
 7352SOL     OW22954   2.194   0.980   3.449
 7352SOL    HW122955   2.254   0.921   3.395
 7352SOL    HW222956   2.249   1.044   3.502
 7353SOL     OW22957   0.874   0.037   6.284
 7353SOL    HW122958   0.894   6.978   6.338
 7353SOL    HW222959   0.781   0.068   6.305
 7354SOL     OW22960   0.700   2.247   4.938
 7354SOL    HW122961   0.628   2.307   4.902
 7354SOL    HW222962   0.762   2.221   4.864
 7355SOL     OW22963   1.502   0.521   0.867
 7355SOL    HW122964   1.588   0.487   0.906
 7355SOL    HW222965   1.455   0.577   0.935
 7356SOL     OW22966   3.740   4.108   5.898
 7356SOL    HW122967   3.644   4.120   5.875
 7356SOL    HW222968   3.750   4.108   5.998
 7357SOL     OW22969   3.845   6.864   1.326
 7357SOL    HW122970   3.885   6.897   1.241
 7357SOL    HW222971   3.745   6.871   1.320
 7358SOL     OW22972   6.029   3.536   2.790
 7358SOL    HW122973   5.936   3.562   2.818
 7358SOL    HW222974   6.088   3.534   2.870
 7359SOL     OW22975   3.591   1.868   6.263
 7359SOL    HW122976   3.650   1.869   6.343
 7359SOL    HW222977   3.599   1.780   6.216
 7360SOL     OW22978   2.980   3.563   5.703
 7360SOL    HW122979   3.071   3.582   5.667
 7360SOL    HW222980   2.917   3.634   5.672
 7361SOL     OW22981   4.214   0.199   1.953
 7361SOL    HW122982   4.311   0.224   1.946
 7361SOL    HW222983   4.180   0.224   2.043
 7362SOL     OW22984   1.569   4.683   5.518
 7362SOL    HW122985   1.596   4.664   5.424
 7362SOL    HW222986   1.555   4.597   5.567
 7363SOL     OW22987   4.587   1.874   1.708
 7363SOL    HW122988   4.546   1.802   1.763
 7363SOL    HW222989   4.559   1.963   1.744
 7364SOL     OW22990   4.693   0.843   1.347
 7364SOL    HW122991   4.669   0.911   1.278
 7364SOL    HW222992   4.619   0.836   1.413
 7365SOL     OW22993   0.115   5.864   1.960
 7365SOL    HW122994   0.139   5.788   1.901
 7365SOL    HW222995   0.022   5.853   1.994
 7366SOL     OW22996   2.707   6.042   6.839
 7366SOL    HW122997   2.654   6.073   6.917
 7366SOL    HW222998   2.793   6.094   6.834
 7367SOL     OW22999   5.432   2.640   1.378
 7367SOL    HW123000   5.370   2.562   1.381
 7367SOL    HW223001   5.436   2.675   1.284
 7368SOL     OW23002   3.403   2.891   2.802
 7368SOL    HW123003   3.493   2.903   2.759
 7368SOL    HW223004   3.413   2.891   2.901
 7369SOL     OW23005   3.913   2.066   0.275
 7369SOL    HW123006   3.937   2.044   0.181
 7369SOL    HW223007   3.907   2.165   0.286
 7370SOL     OW23008   2.316   0.655   4.518
 7370SOL    HW123009   2.392   0.707   4.556
 7370SOL    HW223010   2.237   0.715   4.506
 7371SOL     OW23011   2.444   6.460   3.298
 7371SOL    HW123012   2.490   6.381   3.256
 7371SOL    HW223013   2.478   6.473   3.391
 7372SOL     OW23014   4.389   1.249   4.304
 7372SOL    HW123015   4.371   1.187   4.380
 7372SOL    HW223016   4.487   1.249   4.284
 7373SOL     OW23017   6.207   1.328   3.581
 7373SOL    HW123018   6.251   1.376   3.656
 7373SOL    HW223019   6.275   1.301   3.513
 7374SOL     OW23020   2.368   1.725   4.990
 7374SOL    HW123021   2.354   1.629   4.964
 7374SOL    HW223022   2.316   1.783   4.928
 7375SOL     OW23023   2.338   2.189   2.842
 7375SOL    HW123024   2.379   2.274   2.810
 7375SOL    HW223025   2.405   2.135   2.892
 7376SOL     OW23026   2.685   2.143   0.606
 7376SOL    HW123027   2.599   2.094   0.622
 7376SOL    HW223028   2.745   2.132   0.686
 7377SOL     OW23029   5.500   4.590   0.745
 7377SOL    HW123030   5.554   4.524   0.693
 7377SOL    HW223031   5.483   4.553   0.837
 7378SOL     OW23032   0.472   0.746   5.931
 7378SOL    HW123033   0.566   0.745   5.897
 7378SOL    HW223034   0.410   0.718   5.859
 7379SOL     OW23035   3.118   1.540   2.690
 7379SOL    HW123036   3.191   1.472   2.703
 7379SOL    HW223037   3.137   1.593   2.608
 7380SOL     OW23038   6.914   4.734   3.995
 7380SOL    HW123039   6.901   4.635   4.001
 7380SOL    HW223040   6.863   4.779   4.068
 7381SOL     OW23041   3.957   3.145   0.732
 7381SOL    HW123042   3.890   3.087   0.778
 7381SOL    HW223043   4.009   3.090   0.666
 7382SOL     OW23044   0.446   6.779   5.506
 7382SOL    HW123045   0.507   6.776   5.585
 7382SOL    HW223046   0.449   6.691   5.458
 7383SOL     OW23047   2.429   6.626   0.794
 7383SOL    HW123048   2.510   6.679   0.768
 7383SOL    HW223049   2.458   6.537   0.829
 7384SOL     OW23050   5.989   6.727   2.858
 7384SOL    HW123051   6.071   6.748   2.910
 7384SOL    HW223052   6.005   6.648   2.800
 7385SOL     OW23053   3.622   5.832   2.488
 7385SOL    HW123054   3.694   5.861   2.425
 7385SOL    HW223055   3.663   5.789   2.568
 7386SOL     OW23056   0.229   2.431   0.023
 7386SOL    HW123057   0.246   2.405   0.118
 7386SOL    HW223058   0.284   2.374   6.985
 7387SOL     OW23059   6.177   6.476   5.493
 7387SOL    HW123060   6.232   6.395   5.516
 7387SOL    HW223061   6.092   6.447   5.450
 7388SOL     OW23062   1.134   5.632   2.298
 7388SOL    HW123063   1.234   5.630   2.296
 7388SOL    HW223064   1.103   5.724   2.325
 7389SOL     OW23065   5.943   3.923   6.646
 7389SOL    HW123066   5.854   3.912   6.602
 7389SOL    HW223067   5.942   4.005   6.703
 7390SOL     OW23068   1.387   1.898   0.883
 7390SOL    HW123069   1.450   1.820   0.892
 7390SOL    HW223070   1.307   1.870   0.829
 7391SOL     OW23071   4.034   3.812   3.698
 7391SOL    HW123072   3.963   3.876   3.727
 7391SOL    HW223073   4.119   3.861   3.679
 7392SOL     OW23074   2.787   6.696   6.331
 7392SOL    HW123075   2.718   6.724   6.398
 7392SOL    HW223076   2.843   6.775   6.306
 7393SOL     OW23077   6.165   4.702   2.581
 7393SOL    HW123078   6.262   4.713   2.557
 7393SOL    HW223079   6.111   4.774   2.538
 7394SOL     OW23080   2.440   2.954   6.086
 7394SOL    HW123081   2.539   2.959   6.096
 7394SOL    HW223082   2.396   3.002   6.162
 7395SOL     OW23083   1.893   2.932   1.449
 7395SOL    HW123084   1.852   2.981   1.526
 7395SOL    HW223085   1.832   2.937   1.370
 7396SOL     OW23086   1.445   6.068   1.505
 7396SOL    HW123087   1.453   6.134   1.580
 7396SOL    HW223088   1.517   6.086   1.438
 7397SOL     OW23089   4.409   5.330   4.361
 7397SOL    HW123090   4.453   5.331   4.450
 7397SOL    HW223091   4.383   5.423   4.335
 7398SOL     OW23092   1.787   4.865   4.005
 7398SOL    HW123093   1.780   4.777   3.957
 7398SOL    HW223094   1.696   4.895   4.033
 7399SOL     OW23095   0.712   3.005   4.732
 7399SOL    HW123096   0.679   3.087   4.686
 7399SOL    HW223097   0.720   2.930   4.666
 7400SOL     OW23098   4.307   2.839   6.151
 7400SOL    HW123099   4.244   2.871   6.222
 7400SOL    HW223100   4.259   2.774   6.091
 7401SOL     OW23101   1.208   2.498   4.275
 7401SOL    HW123102   1.248   2.496   4.183
 7401SOL    HW223103   1.262   2.439   4.336
 7402SOL     OW23104   3.185   5.656   6.279
 7402SOL    HW123105   3.228   5.569   6.303
 7402SOL    HW223106   3.255   5.724   6.262
 7403SOL     OW23107   1.999   3.454   2.400
 7403SOL    HW123108   2.036   3.506   2.324
 7403SOL    HW223109   2.074   3.411   2.451
 7404SOL     OW23110   2.566   4.982   1.652
 7404SOL    HW123111   2.536   4.897   1.608
 7404SOL    HW223112   2.492   5.018   1.708
 7405SOL     OW23113   3.616   5.383   4.840
 7405SOL    HW123114   3.518   5.386   4.821
 7405SOL    HW223115   3.638   5.442   4.917
 7406SOL     OW23116   0.159   2.683   3.276
 7406SOL    HW123117   0.173   2.605   3.337
 7406SOL    HW223118   0.246   2.709   3.235
 7407SOL     OW23119   1.088   6.943   5.292
 7407SOL    HW123120   1.164   6.882   5.311
 7407SOL    HW223121   1.003   6.890   5.287
 7408SOL     OW23122   3.255   4.034   6.964
 7408SOL    HW123123   3.180   4.009   6.902
 7408SOL    HW223124   3.283   4.128   6.945
 7409SOL     OW23125   5.250   3.065   0.178
 7409SOL    HW123126   5.265   3.097   0.271
 7409SOL    HW223127   5.269   2.967   0.173
 7410SOL     OW23128   0.373   0.170   0.303
 7410SOL    HW123129   0.448   0.136   0.246
 7410SOL    HW223130   0.402   0.172   0.398
 7411SOL     OW23131   1.806   0.454   6.610
 7411SOL    HW123132   1.761   0.381   6.557
 7411SOL    HW223133   1.779   0.448   6.706
 7412SOL     OW23134   5.228   0.537   1.802
 7412SOL    HW123135   5.305   0.600   1.808
 7412SOL    HW223136   5.234   0.470   1.876
 7413SOL     OW23137   4.786   5.285   4.045
 7413SOL    HW123138   4.790   5.384   4.056
 7413SOL    HW223139   4.691   5.257   4.031
 7414SOL     OW23140   1.019   0.920   3.364
 7414SOL    HW123141   0.945   0.861   3.331
 7414SOL    HW223142   1.085   0.866   3.416
 7415SOL     OW23143   1.363   4.765   4.232
 7415SOL    HW123144   1.398   4.675   4.258
 7415SOL    HW223145   1.435   4.833   4.239
 7416SOL     OW23146   2.058   1.321   2.607
 7416SOL    HW123147   2.055   1.246   2.541
 7416SOL    HW223148   2.150   1.361   2.607
 7417SOL     OW23149   2.165   1.990   1.158
 7417SOL    HW123150   2.222   1.997   1.077
 7417SOL    HW223151   2.137   1.895   1.171
 7418SOL     OW23152   2.450   5.768   0.372
 7418SOL    HW123153   2.533   5.823   0.378
 7418SOL    HW223154   2.462   5.699   0.300
 7419SOL     OW23155   0.005   2.985   4.162
 7419SOL    HW123156   6.941   3.034   4.157
 7419SOL    HW223157   0.019   2.950   4.255
 7420SOL     OW23158   0.722   6.646   1.485
 7420SOL    HW123159   0.630   6.648   1.446
 7420SOL    HW223160   0.745   6.737   1.519
 7421SOL     OW23161   3.971   3.760   1.155
 7421SOL    HW123162   3.938   3.848   1.119
 7421SOL    HW223163   3.915   3.686   1.117
 7422SOL     OW23164   0.286   4.294   2.478
 7422SOL    HW123165   0.288   4.293   2.578
 7422SOL    HW223166   0.356   4.232   2.442
 7423SOL     OW23167   6.358   2.627   5.586
 7423SOL    HW123168   6.292   2.565   5.543
 7423SOL    HW223169   6.426   2.656   5.518
 7424SOL     OW23170   6.729   0.487   5.635
 7424SOL    HW123171   6.769   0.577   5.650
 7424SOL    HW223172   6.780   0.419   5.688
 7425SOL     OW23173   4.260   6.755   0.468
 7425SOL    HW123174   4.351   6.795   0.474
 7425SOL    HW223175   4.191   6.825   0.487
 7426SOL     OW23176   2.981   2.110   5.824
 7426SOL    HW123177   3.063   2.167   5.827
 7426SOL    HW223178   2.951   2.089   5.917
 7427SOL     OW23179   5.046   0.926   3.404
 7427SOL    HW123180   4.982   0.972   3.342
 7427SOL    HW223181   5.059   0.982   3.486
 7428SOL     OW23182   4.818   1.880   5.262
 7428SOL    HW123183   4.864   1.888   5.174
 7428SOL    HW223184   4.886   1.881   5.335
 7429SOL     OW23185   0.360   6.457   4.236
 7429SOL    HW123186   0.335   6.381   4.295
 7429SOL    HW223187   0.300   6.458   4.156
 7430SOL     OW23188   1.144   3.389   0.994
 7430SOL    HW123189   1.238   3.373   0.966
 7430SOL    HW223190   1.082   3.339   0.934
 7431SOL     OW23191   1.492   2.800   2.773
 7431SOL    HW123192   1.574   2.834   2.819
 7431SOL    HW223193   1.442   2.740   2.835
 7432SOL     OW23194   0.900   0.788   3.145
 7432SOL    HW123195   0.983   0.780   3.089
 7432SOL    HW223196   0.859   0.878   3.131
 7433SOL     OW23197   4.514   5.405   6.266
 7433SOL    HW123198   4.467   5.451   6.342
 7433SOL    HW223199   4.510   5.306   6.280
 7434SOL     OW23200   4.909   5.296   4.996
 7434SOL    HW123201   4.829   5.348   5.025
 7434SOL    HW223202   4.986   5.315   5.056
 7435SOL     OW23203   4.007   5.715   1.381
 7435SOL    HW123204   4.049   5.659   1.310
 7435SOL    HW223205   4.064   5.796   1.399
 7436SOL     OW23206   4.090   4.266   6.437
 7436SOL    HW123207   4.046   4.354   6.456
 7436SOL    HW223208   4.189   4.275   6.453
 7437SOL     OW23209   1.904   5.868   0.061
 7437SOL    HW123210   1.937   5.790   0.008
 7437SOL    HW223211   1.810   5.889   0.035
 7438SOL     OW23212   0.961   5.835   0.519
 7438SOL    HW123213   0.918   5.760   0.570
 7438SOL    HW223214   0.939   5.922   0.562
 7439SOL     OW23215   1.807   6.676   5.741
 7439SOL    HW123216   1.716   6.678   5.781
 7439SOL    HW223217   1.824   6.761   5.690
 7440SOL     OW23218   0.256   2.905   4.147
 7440SOL    HW123219   0.301   2.945   4.227
 7440SOL    HW223220   0.162   2.939   4.142
 7441SOL     OW23221   5.237   6.658   4.433
 7441SOL    HW123222   5.326   6.630   4.470
 7441SOL    HW223223   5.248   6.684   4.337
 7442SOL     OW23224   6.643   1.462   6.049
 7442SOL    HW123225   6.739   1.435   6.053
 7442SOL    HW223226   6.588   1.385   6.016
 7443SOL     OW23227   6.361   6.384   1.766
 7443SOL    HW123228   6.368   6.293   1.725
 7443SOL    HW223229   6.274   6.391   1.815
 7444SOL     OW23230   5.592   2.239   6.639
 7444SOL    HW123231   5.518   2.304   6.656
 7444SOL    HW223232   5.627   2.252   6.547
 7445SOL     OW23233   3.997   0.600   1.180
 7445SOL    HW123234   4.016   0.615   1.277
 7445SOL    HW223235   3.914   0.649   1.155
 7446SOL     OW23236   5.586   3.190   0.574
 7446SOL    HW123237   5.598   3.115   0.509
 7446SOL    HW223238   5.646   3.176   0.653
 7447SOL     OW23239   6.230   3.764   0.000
 7447SOL    HW123240   6.273   3.826   0.066
 7447SOL    HW223241   6.297   3.736   6.955
 7448SOL     OW23242   6.652   6.759   5.225
 7448SOL    HW123243   6.705   6.775   5.308
 7448SOL    HW223244   6.703   6.794   5.146
 7449SOL     OW23245   0.313   4.398   2.054
 7449SOL    HW123246   0.240   4.342   2.091
 7449SOL    HW223247   0.396   4.385   2.108
 7450SOL     OW23248   5.655   2.785   5.397
 7450SOL    HW123249   5.613   2.874   5.416
 7450SOL    HW223250   5.584   2.716   5.389
 7451SOL     OW23251   6.598   5.970   2.901
 7451SOL    HW123252   6.672   5.950   2.837
 7451SOL    HW223253   6.513   5.931   2.866
 7452SOL     OW23254   6.054   5.813   4.157
 7452SOL    HW123255   5.969   5.759   4.159
 7452SOL    HW223256   6.036   5.904   4.196
 7453SOL     OW23257   5.562   5.903   5.053
 7453SOL    HW123258   5.534   5.999   5.046
 7453SOL    HW223259   5.535   5.867   5.142
 7454SOL     OW23260   1.352   2.088   1.449
 7454SOL    HW123261   1.255   2.113   1.455
 7454SOL    HW223262   1.396   2.106   1.537
 7455SOL     OW23263   6.631   2.732   1.500
 7455SOL    HW123264   6.590   2.654   1.453
 7455SOL    HW223265   6.619   2.814   1.444
 7456SOL     OW23266   1.254   0.999   4.769
 7456SOL    HW123267   1.178   0.966   4.825
 7456SOL    HW223268   1.294   1.081   4.811
 7457SOL     OW23269   3.588   0.939   4.989
 7457SOL    HW123270   3.491   0.955   5.006
 7457SOL    HW223271   3.600   0.847   4.951
 7458SOL     OW23272   1.949   6.837   6.022
 7458SOL    HW123273   2.027   6.808   6.078
 7458SOL    HW223274   1.866   6.795   6.058
 7459SOL     OW23275   5.075   0.526   2.252
 7459SOL    HW123276   5.109   0.620   2.245
 7459SOL    HW223277   5.007   0.510   2.180
 7460SOL     OW23278   0.748   4.957   0.471
 7460SOL    HW123279   0.670   4.898   0.488
 7460SOL    HW223280   0.717   5.040   0.423
 7461SOL     OW23281   6.188   6.878   6.815
 7461SOL    HW123282   6.142   6.935   6.747
 7461SOL    HW223283   6.286   6.876   6.797
 7462SOL     OW23284   1.581   4.323   2.247
 7462SOL    HW123285   1.665   4.377   2.257
 7462SOL    HW223286   1.567   4.301   2.151
 7463SOL     OW23287   2.851   4.811   0.867
 7463SOL    HW123288   2.760   4.812   0.907
 7463SOL    HW223289   2.887   4.904   0.863
 7464SOL     OW23290   5.693   6.600   6.298
 7464SOL    HW123291   5.778   6.565   6.258
 7464SOL    HW223292   5.663   6.539   6.372
 7465SOL     OW23293   2.773   5.381   6.355
 7465SOL    HW123294   2.852   5.377   6.294
 7465SOL    HW223295   2.738   5.289   6.370
 7466SOL     OW23296   0.285   0.275   4.732
 7466SOL    HW123297   0.195   0.232   4.747
 7466SOL    HW223298   0.356   0.205   4.736
 7467SOL     OW23299   0.581   1.492   0.378
 7467SOL    HW123300   0.625   1.418   0.328
 7467SOL    HW223301   0.651   1.551   0.419
 7468SOL     OW23302   5.913   2.414   3.837
 7468SOL    HW123303   5.851   2.361   3.779
 7468SOL    HW223304   5.873   2.504   3.855
 7469SOL     OW23305   6.740   0.848   0.072
 7469SOL    HW123306   6.703   0.851   7.002
 7469SOL    HW223307   6.746   0.940   0.109
 7470SOL     OW23308   5.881   3.839   3.387
 7470SOL    HW123309   5.845   3.776   3.455
 7470SOL    HW223310   5.873   3.933   3.422
 7471SOL     OW23311   5.201   6.883   5.780
 7471SOL    HW123312   5.168   6.932   5.699
 7471SOL    HW223313   5.294   6.851   5.764
 7472SOL     OW23314   6.041   0.947   6.178
 7472SOL    HW123315   6.021   1.002   6.259
 7472SOL    HW223316   6.041   1.005   6.097
 7473SOL     OW23317   5.612   5.257   4.329
 7473SOL    HW123318   5.520   5.222   4.346
 7473SOL    HW223319   5.648   5.299   4.412
 7474SOL     OW23320   0.246   1.657   5.858
 7474SOL    HW123321   0.204   1.673   5.769
 7474SOL    HW223322   0.193   1.704   5.929
 7475SOL     OW23323   4.680   2.395   2.683
 7475SOL    HW123324   4.736   2.440   2.613
 7475SOL    HW223325   4.711   2.300   2.693
 7476SOL     OW23326   3.569   0.956   3.668
 7476SOL    HW123327   3.585   0.912   3.756
 7476SOL    HW223328   3.654   0.955   3.614
 7477SOL     OW23329   0.094   1.605   5.616
 7477SOL    HW123330   0.158   1.529   5.602
 7477SOL    HW223331   0.111   1.675   5.547
 7478SOL     OW23332   5.975   3.704   5.281
 7478SOL    HW123333   6.033   3.772   5.236
 7478SOL    HW223334   5.880   3.736   5.280
 7479SOL     OW23335   4.072   2.227   2.430
 7479SOL    HW123336   4.024   2.314   2.420
 7479SOL    HW223337   4.168   2.245   2.453
 7480SOL     OW23338   1.715   4.217   2.780
 7480SOL    HW123339   1.779   4.152   2.741
 7480SOL    HW223340   1.680   4.182   2.867
 7481SOL     OW23341   5.180   5.699   0.908
 7481SOL    HW123342   5.259   5.760   0.901
 7481SOL    HW223343   5.211   5.606   0.930
 7482SOL     OW23344   4.544   2.299   3.043
 7482SOL    HW123345   4.573   2.390   3.014
 7482SOL    HW223346   4.623   2.247   3.076
 7483SOL     OW23347   4.992   3.422   4.502
 7483SOL    HW123348   5.043   3.407   4.418
 7483SOL    HW223349   4.950   3.513   4.500
 7484SOL     OW23350   1.064   6.383   3.868
 7484SOL    HW123351   0.982   6.382   3.812
 7484SOL    HW223352   1.049   6.442   3.948
 7485SOL     OW23353   3.804   0.242   4.368
 7485SOL    HW123354   3.775   0.186   4.445
 7485SOL    HW223355   3.725   0.269   4.314
 7486SOL     OW23356   1.638   5.752   0.611
 7486SOL    HW123357   1.669   5.673   0.559
 7486SOL    HW223358   1.664   5.741   0.707
 7487SOL     OW23359   2.530   0.202   3.078
 7487SOL    HW123360   2.514   0.292   3.118
 7487SOL    HW223361   2.610   0.160   3.121
 7488SOL     OW23362   2.749   5.660   4.493
 7488SOL    HW123363   2.667   5.714   4.476
 7488SOL    HW223364   2.777   5.671   4.589
 7489SOL     OW23365   6.272   2.637   6.255
 7489SOL    HW123366   6.276   2.703   6.180
 7489SOL    HW223367   6.299   2.547   6.223
 7490SOL     OW23368   1.229   0.414   3.006
 7490SOL    HW123369   1.149   0.404   3.065
 7490SOL    HW223370   1.299   0.467   3.052
 7491SOL     OW23371   4.270   3.480   6.793
 7491SOL    HW123372   4.358   3.440   6.771
 7491SOL    HW223373   4.265   3.573   6.755
 7492SOL     OW23374   1.518   0.376   3.469
 7492SOL    HW123375   1.466   0.338   3.546
 7492SOL    HW223376   1.499   0.474   3.461
 7493SOL     OW23377   0.585   3.177   6.667
 7493SOL    HW123378   0.598   3.078   6.657
 7493SOL    HW223379   0.500   3.205   6.622
 7494SOL     OW23380   5.597   1.753   2.977
 7494SOL    HW123381   5.660   1.775   3.051
 7494SOL    HW223382   5.514   1.808   2.986
 7495SOL     OW23383   1.758   2.364   6.730
 7495SOL    HW123384   1.824   2.384   6.657
 7495SOL    HW223385   1.791   2.402   6.816
 7496SOL     OW23386   6.673   3.028   3.765
 7496SOL    HW123387   6.594   2.995   3.817
 7496SOL    HW223388   6.757   3.005   3.815
 7497SOL     OW23389   2.371   4.641   0.729
 7497SOL    HW123390   2.289   4.645   0.786
 7497SOL    HW223391   2.451   4.622   0.786
 7498SOL     OW23392   3.329   0.942   5.020
 7498SOL    HW123393   3.296   0.850   4.998
 7498SOL    HW223394   3.253   1.006   5.018
 7499SOL     OW23395   4.216   1.607   3.227
 7499SOL    HW123396   4.162   1.598   3.311
 7499SOL    HW223397   4.283   1.533   3.222
 7500SOL     OW23398   3.156   5.736   3.211
 7500SOL    HW123399   3.162   5.827   3.252
 7500SOL    HW223400   3.236   5.683   3.237
 7501SOL     OW23401   5.234   3.904   4.805
 7501SOL    HW123402   5.169   3.879   4.877
 7501SOL    HW223403   5.189   3.966   4.741
 7502SOL     OW23404   3.027   1.125   4.282
 7502SOL    HW123405   2.959   1.099   4.213
 7502SOL    HW223406   3.097   1.054   4.288
 7503SOL     OW23407   2.026   6.698   1.198
 7503SOL    HW123408   2.000   6.621   1.139
 7503SOL    HW223409   1.944   6.742   1.233
 7504SOL     OW23410   0.654   6.299   3.494
 7504SOL    HW123411   0.581   6.322   3.558
 7504SOL    HW223412   0.646   6.357   3.413
 7505SOL     OW23413   1.879   2.903   5.803
 7505SOL    HW123414   1.910   2.992   5.769
 7505SOL    HW223415   1.956   2.839   5.803
 7506SOL     OW23416   5.725   1.830   3.212
 7506SOL    HW123417   5.634   1.824   3.253
 7506SOL    HW223418   5.772   1.742   3.222
 7507SOL     OW23419   6.845   1.753   2.300
 7507SOL    HW123420   6.933   1.739   2.345
 7507SOL    HW223421   6.852   1.829   2.236
 7508SOL     OW23422   1.335   5.866   1.377
 7508SOL    HW123423   1.378   5.941   1.427
 7508SOL    HW223424   1.272   5.817   1.437
 7509SOL     OW23425   5.799   3.833   0.267
 7509SOL    HW123426   5.729   3.898   0.296
 7509SOL    HW223427   5.888   3.863   0.304
 7510SOL     OW23428   2.991   3.676   5.035
 7510SOL    HW123429   3.039   3.597   5.073
 7510SOL    HW223430   2.893   3.656   5.028
 7511SOL     OW23431   2.655   6.067   3.612
 7511SOL    HW123432   2.716   6.063   3.691
 7511SOL    HW223433   2.681   5.996   3.547
 7512SOL     OW23434   2.883   0.627   6.536
 7512SOL    HW123435   2.934   0.593   6.614
 7512SOL    HW223436   2.866   0.551   6.472
 7513SOL     OW23437   1.655   1.220   1.706
 7513SOL    HW123438   1.720   1.289   1.674
 7513SOL    HW223439   1.562   1.249   1.684
 7514SOL     OW23440   2.387   4.975   2.537
 7514SOL    HW123441   2.346   5.055   2.494
 7514SOL    HW223442   2.473   4.953   2.491
 7515SOL     OW23443   6.621   5.566   4.495
 7515SOL    HW123444   6.687   5.641   4.490
 7515SOL    HW223445   6.654   5.488   4.442
 7516SOL     OW23446   6.731   5.463   6.053
 7516SOL    HW123447   6.752   5.463   6.151
 7516SOL    HW223448   6.760   5.376   6.013
 7517SOL     OW23449   6.980   1.805   0.766
 7517SOL    HW123450   0.041   1.837   0.722
 7517SOL    HW223451   6.937   1.882   0.814
 7518SOL     OW23452   4.973   3.915   4.389
 7518SOL    HW123453   4.922   3.909   4.303
 7518SOL    HW223454   4.964   3.829   4.439
 7519SOL     OW23455   0.564   6.481   4.584
 7519SOL    HW123456   0.621   6.544   4.638
 7519SOL    HW223457   0.539   6.524   4.498
 7520SOL     OW23458   2.359   0.142   2.623
 7520SOL    HW123459   2.455   0.114   2.620
 7520SOL    HW223460   2.308   0.094   2.552
 7521SOL     OW23461   4.798   2.367   5.219
 7521SOL    HW123462   4.789   2.391   5.316
 7521SOL    HW223463   4.834   2.445   5.169
 7522SOL     OW23464   1.391   1.575   6.120
 7522SOL    HW123465   1.419   1.513   6.193
 7522SOL    HW223466   1.442   1.555   6.036
 7523SOL     OW23467   5.110   0.271   6.388
 7523SOL    HW123468   5.126   0.193   6.448
 7523SOL    HW223469   5.137   0.355   6.436
 7524SOL     OW23470   1.096   2.896   5.164
 7524SOL    HW123471   1.104   2.995   5.174
 7524SOL    HW223472   1.033   2.875   5.089
 7525SOL     OW23473   3.757   0.886   6.601
 7525SOL    HW123474   3.677   0.888   6.661
 7525SOL    HW223475   3.746   0.953   6.528
 7526SOL     OW23476   2.991   3.098   1.447
 7526SOL    HW123477   2.904   3.049   1.441
 7526SOL    HW223478   2.981   3.177   1.508
 7527SOL     OW23479   3.015   6.324   3.758
 7527SOL    HW123480   3.104   6.337   3.801
 7527SOL    HW223481   2.986   6.411   3.717
 7528SOL     OW23482   6.246   2.272   0.430
 7528SOL    HW123483   6.242   2.304   0.335
 7528SOL    HW223484   6.154   2.256   0.464
 7529SOL     OW23485   5.482   1.617   4.394
 7529SOL    HW123486   5.555   1.681   4.417
 7529SOL    HW223487   5.425   1.600   4.475
 7530SOL     OW23488   6.754   2.723   2.512
 7530SOL    HW123489   6.842   2.755   2.478
 7530SOL    HW223490   6.766   2.636   2.559
 7531SOL     OW23491   5.633   2.756   4.497
 7531SOL    HW123492   5.690   2.718   4.570
 7531SOL    HW223493   5.563   2.815   4.536
 7532SOL     OW23494   4.416   6.334   0.222
 7532SOL    HW123495   4.452   6.307   0.133
 7532SOL    HW223496   4.316   6.342   0.216
 7533SOL     OW23497   3.540   1.816   1.683
 7533SOL    HW123498   3.575   1.904   1.714
 7533SOL    HW223499   3.448   1.828   1.645
 7534SOL     OW23500   4.586   6.087   5.162
 7534SOL    HW123501   4.686   6.099   5.162
 7534SOL    HW223502   4.562   6.014   5.225
 7535SOL     OW23503   2.028   6.989   4.709
 7535SOL    HW123504   2.063   0.054   4.676
 7535SOL    HW223505   2.090   6.953   4.778
 7536SOL     OW23506   5.476   4.386   4.234
 7536SOL    HW123507   5.558   4.328   4.233
 7536SOL    HW223508   5.395   4.330   4.216
 7537SOL     OW23509   2.078   4.947   2.312
 7537SOL    HW123510   1.986   4.962   2.276
 7537SOL    HW223511   2.078   4.962   2.411
 7538SOL     OW23512   1.848   2.311   1.423
 7538SOL    HW123513   1.914   2.250   1.379
 7538SOL    HW223514   1.884   2.405   1.421
 7539SOL     OW23515   1.722   3.258   4.365
 7539SOL    HW123516   1.732   3.304   4.453
 7539SOL    HW223517   1.628   3.268   4.333
 7540SOL     OW23518   4.498   0.907   4.973
 7540SOL    HW123519   4.494   0.825   4.917
 7540SOL    HW223520   4.481   0.884   5.069
 7541SOL     OW23521   0.406   4.127   4.913
 7541SOL    HW123522   0.310   4.137   4.888
 7541SOL    HW223523   0.422   4.169   5.002
 7542SOL     OW23524   0.992   5.515   6.901
 7542SOL    HW123525   1.057   5.531   6.826
 7542SOL    HW223526   0.980   5.416   6.913
 7543SOL     OW23527   3.885   1.109   5.359
 7543SOL    HW123528   3.894   1.019   5.402
 7543SOL    HW223529   3.879   1.098   5.260
 7544SOL     OW23530   6.307   2.222   3.733
 7544SOL    HW123531   6.246   2.268   3.669
 7544SOL    HW223532   6.255   2.163   3.794
 7545SOL     OW23533   0.871   5.907   6.751
 7545SOL    HW123534   0.938   5.979   6.732
 7545SOL    HW223535   0.803   5.904   6.677
 7546SOL     OW23536   4.387   1.756   1.408
 7546SOL    HW123537   4.364   1.685   1.475
 7546SOL    HW223538   4.479   1.791   1.426
 7547SOL     OW23539   5.431   1.375   0.600
 7547SOL    HW123540   5.497   1.407   0.532
 7547SOL    HW223541   5.443   1.427   0.685
 7548SOL     OW23542   4.225   2.289   6.768
 7548SOL    HW123543   4.270   2.206   6.735
 7548SOL    HW223544   4.199   2.277   6.864
 7549SOL     OW23545   3.273   3.302   7.005
 7549SOL    HW123546   3.296   3.267   6.914
 7549SOL    HW223547   3.315   3.392   7.018
 7550SOL     OW23548   1.941   4.617   4.195
 7550SOL    HW123549   2.019   4.581   4.144
 7550SOL    HW223550   1.931   4.715   4.177
 7551SOL     OW23551   6.295   3.046   5.275
 7551SOL    HW123552   6.318   2.966   5.329
 7551SOL    HW223553   6.304   3.128   5.331
 7552SOL     OW23554   1.538   6.271   3.772
 7552SOL    HW123555   1.513   6.368   3.767
 7552SOL    HW223556   1.626   6.257   3.726
 7553SOL     OW23557   4.095   7.017   5.616
 7553SOL    HW123558   3.999   0.021   5.622
 7553SOL    HW223559   4.131   7.002   5.708
 7554SOL     OW23560   5.318   0.799   6.668
 7554SOL    HW123561   5.342   0.871   6.733
 7554SOL    HW223562   5.232   0.757   6.696
 7555SOL     OW23563   3.397   5.523   6.582
 7555SOL    HW123564   3.460   5.600   6.589
 7555SOL    HW223565   3.405   5.467   6.664
 7556SOL     OW23566   2.516   3.011   0.139
 7556SOL    HW123567   2.492   2.916   0.160
 7556SOL    HW223568   2.604   3.033   0.181
 7557SOL     OW23569   5.457   0.611   6.240
 7557SOL    HW123570   5.497   0.519   6.242
 7557SOL    HW223571   5.504   0.669   6.306
 7558SOL     OW23572   1.979   2.712   4.741
 7558SOL    HW123573   2.067   2.756   4.760
 7558SOL    HW223574   1.987   2.660   4.656
 7559SOL     OW23575   4.121   3.361   6.972
 7559SOL    HW123576   4.191   3.402   6.913
 7559SOL    HW223577   4.037   3.413   6.963
 7560SOL     OW23578   4.772   6.988   0.489
 7560SOL    HW123579   4.696   7.005   0.426
 7560SOL    HW223580   4.772   0.035   0.561
 7561SOL     OW23581   0.099   3.257   6.369
 7561SOL    HW123582   0.062   3.225   6.282
 7561SOL    HW223583   0.025   3.266   6.436
 7562SOL     OW23584   0.376   5.960   5.741
 7562SOL    HW123585   0.284   5.925   5.726
 7562SOL    HW223586   0.442   5.907   5.686
 7563SOL     OW23587   2.923   6.966   1.406
 7563SOL    HW123588   2.857   0.011   1.376
 7563SOL    HW223589   2.896   6.876   1.372
 7564SOL     OW23590   4.384   0.893   3.664
 7564SOL    HW123591   4.404   0.985   3.632
 7564SOL    HW223592   4.329   0.897   3.747
 7565SOL     OW23593   6.360   3.477   6.745
 7565SOL    HW123594   6.438   3.416   6.763
 7565SOL    HW223595   6.379   3.567   6.783
 7566SOL     OW23596   5.931   5.387   2.733
 7566SOL    HW123597   5.974   5.477   2.742
 7566SOL    HW223598   5.954   5.331   2.812
 7567SOL     OW23599   1.953   1.168   5.494
 7567SOL    HW123600   1.892   1.237   5.456
 7567SOL    HW223601   1.996   1.202   5.577
 7568SOL     OW23602   5.710   4.766   2.940
 7568SOL    HW123603   5.683   4.774   3.036
 7568SOL    HW223604   5.754   4.851   2.910
 7569SOL     OW23605   3.163   4.556   6.057
 7569SOL    HW123606   3.201   4.580   5.967
 7569SOL    HW223607   3.134   4.639   6.104
 7570SOL     OW23608   5.670   4.084   4.761
 7570SOL    HW123609   5.613   4.019   4.811
 7570SOL    HW223610   5.647   4.081   4.664
 7571SOL     OW23611   4.619   4.408   3.461
 7571SOL    HW123612   4.610   4.333   3.395
 7571SOL    HW223613   4.638   4.369   3.552
 7572SOL     OW23614   4.970   0.810   2.445
 7572SOL    HW123615   5.044   0.871   2.475
 7572SOL    HW223616   4.942   0.835   2.352
 7573SOL     OW23617   0.345   6.792   4.773
 7573SOL    HW123618   0.297   6.835   4.849
 7573SOL    HW223619   0.383   6.704   4.803
 7574SOL     OW23620   4.950   0.887   5.704
 7574SOL    HW123621   4.917   0.936   5.785
 7574SOL    HW223622   5.011   0.946   5.651
 7575SOL     OW23623   5.563   0.113   6.803
 7575SOL    HW123624   5.640   0.166   6.767
 7575SOL    HW223625   5.507   0.079   6.727
 7576SOL     OW23626   5.203   3.146   0.440
 7576SOL    HW123627   5.112   3.186   0.446
 7576SOL    HW223628   5.221   3.092   0.522
 7577SOL     OW23629   0.620   6.572   7.013
 7577SOL    HW123630   0.547   6.560   6.946
 7577SOL    HW223631   0.707   6.538   6.976
 7578SOL     OW23632   3.290   5.213   2.327
 7578SOL    HW123633   3.230   5.232   2.248
 7578SOL    HW223634   3.357   5.286   2.335
 7579SOL     OW23635   0.103   0.925   1.927
 7579SOL    HW123636   0.148   0.974   1.852
 7579SOL    HW223637   0.037   0.986   1.971
 7580SOL     OW23638   0.668   3.945   3.890
 7580SOL    HW123639   0.658   3.905   3.981
 7580SOL    HW223640   0.673   3.872   3.822
 7581SOL     OW23641   0.412   1.968   1.358
 7581SOL    HW123642   0.319   2.001   1.343
 7581SOL    HW223643   0.477   2.024   1.306
 7582SOL     OW23644   3.832   1.578   3.359
 7582SOL    HW123645   3.843   1.480   3.377
 7582SOL    HW223646   3.922   1.620   3.346
 7583SOL     OW23647   5.103   2.642   2.251
 7583SOL    HW123648   5.005   2.655   2.235
 7583SOL    HW223649   5.117   2.611   2.344
 7584SOL     OW23650   2.807   0.930   3.266
 7584SOL    HW123651   2.846   0.996   3.329
 7584SOL    HW223652   2.708   0.945   3.258
 7585SOL     OW23653   1.987   3.005   6.242
 7585SOL    HW123654   1.900   2.975   6.203
 7585SOL    HW223655   1.980   3.100   6.270
 7586SOL     OW23656   2.360   6.681   3.793
 7586SOL    HW123657   2.378   6.779   3.803
 7586SOL    HW223658   2.387   6.634   3.878
 7587SOL     OW23659   2.028   1.686   6.335
 7587SOL    HW123660   2.022   1.586   6.340
 7587SOL    HW223661   2.104   1.718   6.392
 7588SOL     OW23662   1.986   2.732   3.718
 7588SOL    HW123663   1.968   2.731   3.619
 7588SOL    HW223664   2.057   2.799   3.738
 7589SOL     OW23665   0.293   0.553   2.309
 7589SOL    HW123666   0.348   0.620   2.358
 7589SOL    HW223667   0.203   0.591   2.289
 7590SOL     OW23668   4.206   1.820   6.581
 7590SOL    HW123669   4.179   1.751   6.513
 7590SOL    HW223670   4.290   1.865   6.551
 7591SOL     OW23671   5.626   4.445   0.518
 7591SOL    HW123672   5.705   4.504   0.501
 7591SOL    HW223673   5.658   4.359   0.559
 7592SOL     OW23674   6.146   5.860   4.792
 7592SOL    HW123675   6.076   5.790   4.778
 7592SOL    HW223676   6.103   5.947   4.815
 7593SOL     OW23677   6.570   3.222   0.168
 7593SOL    HW123678   6.553   3.135   0.122
 7593SOL    HW223679   6.530   3.297   0.116
 7594SOL     OW23680   1.649   4.611   2.063
 7594SOL    HW123681   1.649   4.514   2.037
 7594SOL    HW223682   1.689   4.621   2.154
 7595SOL     OW23683   5.973   3.147   6.034
 7595SOL    HW123684   5.952   3.237   6.074
 7595SOL    HW223685   5.967   3.077   6.105
 7596SOL     OW23686   3.542   6.404   4.282
 7596SOL    HW123687   3.613   6.353   4.233
 7596SOL    HW223688   3.583   6.485   4.325
 7597SOL     OW23689   1.668   6.782   2.745
 7597SOL    HW123690   1.656   6.869   2.697
 7597SOL    HW223691   1.739   6.729   2.700
 7598SOL     OW23692   0.006   0.792   3.162
 7598SOL    HW123693   0.048   0.731   3.094
 7598SOL    HW223694   0.064   0.797   3.243
 7599SOL     OW23695   5.569   2.382   2.726
 7599SOL    HW123696   5.496   2.369   2.793
 7599SOL    HW223697   5.531   2.419   2.642
 7600SOL     OW23698   0.750   1.631   3.748
 7600SOL    HW123699   0.706   1.684   3.676
 7600SOL    HW223700   0.847   1.655   3.752
 7601SOL     OW23701   2.587   4.947   2.031
 7601SOL    HW123702   2.653   4.889   2.079
 7601SOL    HW223703   2.529   4.891   1.973
 7602SOL     OW23704   1.735   3.328   6.910
 7602SOL    HW123705   1.662   3.396   6.925
 7602SOL    HW223706   1.694   3.242   6.879
 7603SOL     OW23707   1.950   5.916   6.452
 7603SOL    HW123708   1.859   5.931   6.413
 7603SOL    HW223709   1.968   5.984   6.523
 7604SOL     OW23710   1.521   2.881   4.046
 7604SOL    HW123711   1.476   2.935   3.975
 7604SOL    HW223712   1.533   2.787   4.015
 7605SOL     OW23713   1.315   0.320   1.081
 7605SOL    HW123714   1.353   0.238   1.039
 7605SOL    HW223715   1.381   0.357   1.147
 7606SOL     OW23716   6.112   2.909   4.472
 7606SOL    HW123717   6.069   2.837   4.526
 7606SOL    HW223718   6.047   2.984   4.459
 7607SOL     OW23719   3.532   4.968   0.646
 7607SOL    HW123720   3.618   4.921   0.625
 7607SOL    HW223721   3.478   4.911   0.708
 7608SOL     OW23722   4.017   3.361   0.920
 7608SOL    HW123723   3.973   3.307   0.848
 7608SOL    HW223724   4.096   3.312   0.956
 7609SOL     OW23725   1.670   3.224   4.094
 7609SOL    HW123726   1.721   3.183   4.018
 7609SOL    HW223727   1.711   3.196   4.181
 7610SOL     OW23728   4.220   4.546   6.431
 7610SOL    HW123729   4.272   4.473   6.475
 7610SOL    HW223730   4.252   4.557   6.337
 7611SOL     OW23731   5.372   3.934   1.395
 7611SOL    HW123732   5.388   4.015   1.451
 7611SOL    HW223733   5.386   3.957   1.299
 7612SOL     OW23734   4.851   3.249   2.463
 7612SOL    HW123735   4.889   3.269   2.373
 7612SOL    HW223736   4.761   3.206   2.453
 7613SOL     OW23737   0.622   1.909   1.089
 7613SOL    HW123738   0.587   1.835   1.031
 7613SOL    HW223739   0.599   1.997   1.048
 7614SOL     OW23740   5.609   2.940   0.981
 7614SOL    HW123741   5.580   2.848   0.956
 7614SOL    HW223742   5.529   3.000   0.985
 7615SOL     OW23743   4.005   4.631   6.733
 7615SOL    HW123744   4.097   4.599   6.713
 7615SOL    HW223745   3.995   4.726   6.705
 7616SOL     OW23746   6.574   6.394   4.934
 7616SOL    HW123747   6.628   6.422   4.854
 7616SOL    HW223748   6.635   6.377   5.011
 7617SOL     OW23749   3.359   6.240   3.551
 7617SOL    HW123750   3.449   6.273   3.523
 7617SOL    HW223751   3.297   6.318   3.562
 7618SOL     OW23752   0.423   2.472   6.402
 7618SOL    HW123753   0.441   2.472   6.500
 7618SOL    HW223754   0.417   2.567   6.370
 7619SOL     OW23755   6.697   2.919   4.685
 7619SOL    HW123756   6.684   3.008   4.729
 7619SOL    HW223757   6.748   2.858   4.747
 7620SOL     OW23758   3.897   5.753   1.733
 7620SOL    HW123759   3.861   5.846   1.733
 7620SOL    HW223760   3.830   5.692   1.691
 7621SOL     OW23761   6.785   1.044   0.790
 7621SOL    HW123762   6.878   1.066   0.760
 7621SOL    HW223763   6.785   1.026   0.888
 7622SOL     OW23764   4.384   4.402   6.004
 7622SOL    HW123765   4.391   4.442   5.913
 7622SOL    HW223766   4.350   4.308   5.997
 7623SOL     OW23767   4.878   4.374   6.954
 7623SOL    HW123768   4.802   4.356   7.017
 7623SOL    HW223769   4.965   4.367   7.002
 7624SOL     OW23770   6.626   3.661   4.650
 7624SOL    HW123771   6.717   3.670   4.611
 7624SOL    HW223772   6.575   3.591   4.599
 7625SOL     OW23773   5.378   1.274   0.236
 7625SOL    HW123774   5.477   1.263   0.239
 7625SOL    HW223775   5.335   1.211   0.302
 7626SOL     OW23776   6.365   0.391   5.430
 7626SOL    HW123777   6.314   0.364   5.349
 7626SOL    HW223778   6.460   0.411   5.405
 7627SOL     OW23779   3.774   2.988   0.848
 7627SOL    HW123780   3.768   2.925   0.770
 7627SOL    HW223781   3.843   2.955   0.913
 7628SOL     OW23782   3.302   2.853   2.336
 7628SOL    HW123783   3.298   2.786   2.262
 7628SOL    HW223784   3.390   2.844   2.384
 7629SOL     OW23785   0.060   4.676   3.417
 7629SOL    HW123786   0.050   4.577   3.432
 7629SOL    HW223787   6.993   4.716   3.401
 7630SOL     OW23788   0.555   0.804   0.448
 7630SOL    HW123789   0.464   0.824   0.485
 7630SOL    HW223790   0.621   0.870   0.484
 7631SOL     OW23791   1.114   2.411   5.788
 7631SOL    HW123792   1.049   2.396   5.714
 7631SOL    HW223793   1.125   2.327   5.840
 7632SOL     OW23794   5.060   4.123   0.719
 7632SOL    HW123795   5.096   4.127   0.813
 7632SOL    HW223796   4.960   4.128   0.722
 7633SOL     OW23797   5.417   0.742   1.818
 7633SOL    HW123798   5.514   0.766   1.817
 7633SOL    HW223799   5.366   0.811   1.870
 7634SOL     OW23800   2.284   1.261   1.721
 7634SOL    HW123801   2.241   1.172   1.708
 7634SOL    HW223802   2.273   1.290   1.816
 7635SOL     OW23803   3.285   4.881   5.183
 7635SOL    HW123804   3.317   4.962   5.231
 7635SOL    HW223805   3.307   4.800   5.237
 7636SOL     OW23806   1.088   3.186   4.190
 7636SOL    HW123807   1.137   3.108   4.152
 7636SOL    HW223808   0.995   3.158   4.216
 7637SOL     OW23809   2.804   6.303   2.188
 7637SOL    HW123810   2.746   6.243   2.133
 7637SOL    HW223811   2.890   6.256   2.208
 7638SOL     OW23812   2.047   5.421   2.076
 7638SOL    HW123813   2.028   5.325   2.055
 7638SOL    HW223814   1.975   5.456   2.137
 7639SOL     OW23815   0.330   1.454   0.852
 7639SOL    HW123816   0.335   1.410   0.762
 7639SOL    HW223817   0.246   1.507   0.859
 7640SOL     OW23818   2.726   1.596   5.716
 7640SOL    HW123819   2.760   1.551   5.633
 7640SOL    HW223820   2.724   1.530   5.791
 7641SOL     OW23821   1.052   3.558   2.639
 7641SOL    HW123822   1.112   3.630   2.674
 7641SOL    HW223823   0.993   3.595   2.568
 7642SOL     OW23824   3.543   1.648   2.559
 7642SOL    HW123825   3.461   1.661   2.503
 7642SOL    HW223826   3.603   1.727   2.549
 7643SOL     OW23827   5.380   1.881   3.087
 7643SOL    HW123828   5.342   1.958   3.035
 7643SOL    HW223829   5.396   1.909   3.181
 7644SOL     OW23830   4.793   2.747   2.511
 7644SOL    HW123831   4.732   2.694   2.452
 7644SOL    HW223832   4.840   2.816   2.456
 7645SOL     OW23833   4.984   3.754   5.495
 7645SOL    HW123834   5.026   3.708   5.573
 7645SOL    HW223835   4.886   3.732   5.491
 7646SOL     OW23836   1.192   2.942   4.120
 7646SOL    HW123837   1.279   2.905   4.152
 7646SOL    HW223838   1.154   2.882   4.049
 7647SOL     OW23839   0.150   2.311   3.770
 7647SOL    HW123840   0.174   2.292   3.865
 7647SOL    HW223841   0.210   2.259   3.709
 7648SOL     OW23842   2.674   1.815   2.368
 7648SOL    HW123843   2.655   1.901   2.322
 7648SOL    HW223844   2.769   1.812   2.397
 7649SOL     OW23845   1.608   0.180   3.774
 7649SOL    HW123846   1.549   0.225   3.708
 7649SOL    HW223847   1.553   0.144   3.849
 7650SOL     OW23848   5.646   0.465   0.179
 7650SOL    HW123849   5.703   0.504   0.252
 7650SOL    HW223850   5.550   0.471   0.206
 7651SOL     OW23851   2.137   0.244   4.232
 7651SOL    HW123852   2.216   0.304   4.248
 7651SOL    HW223853   2.143   0.165   4.292
 7652SOL     OW23854   5.595   2.141   4.503
 7652SOL    HW123855   5.499   2.129   4.528
 7652SOL    HW223856   5.601   2.166   4.407
 7653SOL     OW23857   0.595   1.707   0.211
 7653SOL    HW123858   0.552   1.622   0.240
 7653SOL    HW223859   0.570   1.780   0.274
 7654SOL     OW23860   4.887   3.185   4.202
 7654SOL    HW123861   4.935   3.271   4.184
 7654SOL    HW223862   4.946   3.108   4.176
 7655SOL     OW23863   4.232   6.304   3.799
 7655SOL    HW123864   4.178   6.302   3.716
 7655SOL    HW223865   4.323   6.341   3.780
 7656SOL     OW23866   4.042   4.045   6.921
 7656SOL    HW123867   4.112   3.974   6.920
 7656SOL    HW223868   4.031   4.082   6.829
 7657SOL     OW23869   1.549   2.192   3.095
 7657SOL    HW123870   1.564   2.094   3.080
 7657SOL    HW223871   1.521   2.235   3.010
 7658SOL     OW23872   2.821   0.334   0.415
 7658SOL    HW123873   2.918   0.350   0.397
 7658SOL    HW223874   2.778   0.290   0.336
 7659SOL     OW23875   5.151   4.508   6.891
 7659SOL    HW123876   5.227   4.569   6.916
 7659SOL    HW223877   5.128   4.521   6.795
 7660SOL     OW23878   6.613   6.027   3.820
 7660SOL    HW123879   6.643   6.041   3.914
 7660SOL    HW223880   6.580   5.933   3.809
 7661SOL     OW23881   5.686   2.391   5.644
 7661SOL    HW123882   5.758   2.360   5.706
 7661SOL    HW223883   5.679   2.328   5.567
 7662SOL     OW23884   1.206   2.982   4.488
 7662SOL    HW123885   1.172   2.968   4.581
 7662SOL    HW223886   1.306   2.974   4.488
 7663SOL     OW23887   6.089   5.047   6.359
 7663SOL    HW123888   5.994   5.034   6.387
 7663SOL    HW223889   6.095   5.120   6.291
 7664SOL     OW23890   3.851   0.990   2.073
 7664SOL    HW123891   3.896   1.059   2.017
 7664SOL    HW223892   3.910   0.965   2.149
 7665SOL     OW23893   6.046   1.006   5.152
 7665SOL    HW123894   5.970   0.948   5.178
 7665SOL    HW223895   6.118   0.950   5.110
 7666SOL     OW23896   0.448   4.422   2.966
 7666SOL    HW123897   0.420   4.503   3.016
 7666SOL    HW223898   0.496   4.449   2.883
 7667SOL     OW23899   4.059   0.540   2.143
 7667SOL    HW123900   3.975   0.584   2.111
 7667SOL    HW223901   4.081   0.572   2.235
 7668SOL     OW23902   2.650   5.270   0.722
 7668SOL    HW123903   2.697   5.354   0.694
 7668SOL    HW223904   2.712   5.212   0.775
 7669SOL     OW23905   4.871   1.216   5.544
 7669SOL    HW123906   4.965   1.182   5.538
 7669SOL    HW223907   4.865   1.280   5.621
 7670SOL     OW23908   0.580   5.405   0.709
 7670SOL    HW123909   0.582   5.456   0.623
 7670SOL    HW223910   0.658   5.432   0.766
 7671SOL     OW23911   3.498   1.029   2.286
 7671SOL    HW123912   3.511   1.027   2.385
 7671SOL    HW223913   3.524   1.119   2.250
 7672SOL     OW23914   0.721   5.580   2.975
 7672SOL    HW123915   0.663   5.655   3.005
 7672SOL    HW223916   0.777   5.609   2.898
 7673SOL     OW23917   1.948   5.794   2.015
 7673SOL    HW123918   2.038   5.751   2.010
 7673SOL    HW223919   1.946   5.859   2.091
 7674SOL     OW23920   4.643   1.066   4.036
 7674SOL    HW123921   4.659   1.126   4.114
 7674SOL    HW223922   4.608   0.978   4.068
 7675SOL     OW23923   5.773   6.364   3.210
 7675SOL    HW123924   5.854   6.423   3.207
 7675SOL    HW223925   5.691   6.420   3.213
 7676SOL     OW23926   3.135   2.263   0.160
 7676SOL    HW123927   3.126   2.363   0.151
 7676SOL    HW223928   3.081   2.219   0.089
 7677SOL     OW23929   0.484   3.972   1.995
 7677SOL    HW123930   0.514   3.879   1.974
 7677SOL    HW223931   0.394   3.969   2.038
 7678SOL     OW23932   2.385   2.734   5.146
 7678SOL    HW123933   2.412   2.781   5.230
 7678SOL    HW223934   2.374   2.801   5.073
 7679SOL     OW23935   2.674   6.307   5.611
 7679SOL    HW123936   2.675   6.389   5.669
 7679SOL    HW223937   2.630   6.232   5.660
 7680SOL     OW23938   1.700   0.757   1.172
 7680SOL    HW123939   1.713   0.668   1.128
 7680SOL    HW223940   1.779   0.778   1.230
 7681SOL     OW23941   2.799   0.749   0.786
 7681SOL    HW123942   2.708   0.710   0.770
 7681SOL    HW223943   2.792   0.825   0.850
 7682SOL     OW23944   4.416   6.947   2.151
 7682SOL    HW123945   4.355   6.872   2.175
 7682SOL    HW223946   4.386   6.988   2.064
 7683SOL     OW23947   0.021   1.497   5.017
 7683SOL    HW123948   6.954   1.537   5.037
 7683SOL    HW223949   0.079   1.502   5.098
 7684SOL     OW23950   4.418   1.269   0.947
 7684SOL    HW123951   4.353   1.333   0.987
 7684SOL    HW223952   4.394   1.176   0.974
 7685SOL     OW23953   2.282   1.936   5.850
 7685SOL    HW123954   2.212   1.994   5.891
 7685SOL    HW223955   2.244   1.845   5.833
 7686SOL     OW23956   6.495   6.495   3.504
 7686SOL    HW123957   6.488   6.594   3.492
 7686SOL    HW223958   6.531   6.454   3.420
 7687SOL     OW23959   5.879   5.428   4.836
 7687SOL    HW123960   5.970   5.406   4.869
 7687SOL    HW223961   5.810   5.384   4.895
 7688SOL     OW23962   0.449   6.207   5.854
 7688SOL    HW123963   0.402   6.130   5.811
 7688SOL    HW223964   0.503   6.175   5.931
 7689SOL     OW23965   5.708   6.696   2.580
 7689SOL    HW123966   5.736   6.658   2.668
 7689SOL    HW223967   5.669   6.787   2.593
 7690SOL     OW23968   5.925   5.486   0.304
 7690SOL    HW123969   5.943   5.544   0.383
 7690SOL    HW223970   5.959   5.393   0.322
 7691SOL     OW23971   5.566   4.125   2.734
 7691SOL    HW123972   5.576   4.051   2.668
 7691SOL    HW223973   5.506   4.095   2.809
 7692SOL     OW23974   0.484   6.273   2.190
 7692SOL    HW123975   0.546   6.341   2.228
 7692SOL    HW223976   0.507   6.255   2.095
 7693SOL     OW23977   3.152   0.694   1.536
 7693SOL    HW123978   3.098   0.629   1.482
 7693SOL    HW223979   3.233   0.648   1.573
 7694SOL     OW23980   5.422   3.446   3.513
 7694SOL    HW123981   5.446   3.444   3.610
 7694SOL    HW223982   5.479   3.514   3.466
 7695SOL     OW23983   5.059   0.595   1.499
 7695SOL    HW123984   5.051   0.520   1.563
 7695SOL    HW223985   5.104   0.673   1.543
 7696SOL     OW23986   6.952   1.378   6.012
 7696SOL    HW123987   0.008   1.323   6.041
 7696SOL    HW223988   6.945   1.459   6.070
 7697SOL     OW23989   2.770   0.164   3.574
 7697SOL    HW123990   2.764   0.186   3.672
 7697SOL    HW223991   2.841   0.095   3.559
 7698SOL     OW23992   5.605   1.104   4.147
 7698SOL    HW123993   5.679   1.048   4.111
 7698SOL    HW223994   5.520   1.082   4.099
 7699SOL     OW23995   2.581   5.740   6.012
 7699SOL    HW123996   2.573   5.699   6.103
 7699SOL    HW223997   2.507   5.706   5.955
 7700SOL     OW23998   4.271   5.378   3.338
 7700SOL    HW123999   4.325   5.294   3.350
 7700SOL    HW224000   4.307   5.450   3.398
 7701SOL     OW24001   6.973   2.674   6.770
 7701SOL    HW124002   0.030   2.667   6.830
 7701SOL    HW224003   6.904   2.732   6.813
 7702SOL     OW24004   4.651   5.859   5.354
 7702SOL    HW124005   4.695   5.938   5.394
 7702SOL    HW224006   4.592   5.815   5.422
 7703SOL     OW24007   5.944   5.960   6.293
 7703SOL    HW124008   6.032   5.926   6.260
 7703SOL    HW224009   5.949   6.059   6.304
 7704SOL     OW24010   5.750   0.664   3.722
 7704SOL    HW124011   5.734   0.760   3.745
 7704SOL    HW224012   5.663   0.618   3.706
 7705SOL     OW24013   2.223   5.980   0.940
 7705SOL    HW124014   2.302   6.039   0.949
 7705SOL    HW224015   2.197   5.944   1.030
 7706SOL     OW24016   3.491   3.428   3.914
 7706SOL    HW124017   3.398   3.404   3.888
 7706SOL    HW224018   3.556   3.381   3.854
 7707SOL     OW24019   6.725   3.978   6.157
 7707SOL    HW124020   6.722   4.009   6.252
 7707SOL    HW224021   6.633   3.950   6.129
 7708SOL     OW24022   1.336   6.543   5.057
 7708SOL    HW124023   1.311   6.579   4.967
 7708SOL    HW224024   1.281   6.461   5.076
 7709SOL     OW24025   6.833   4.773   1.674
 7709SOL    HW124026   6.814   4.733   1.764
 7709SOL    HW224027   6.786   4.861   1.667
 7710SOL     OW24028   2.236   2.157   0.181
 7710SOL    HW124029   2.309   2.214   0.218
 7710SOL    HW224030   2.161   2.151   0.247
 7711SOL     OW24031   5.905   5.545   6.055
 7711SOL    HW124032   5.963   5.506   6.127
 7711SOL    HW224033   5.898   5.644   6.067
 7712SOL     OW24034   6.247   5.295   0.738
 7712SOL    HW124035   6.244   5.395   0.737
 7712SOL    HW224036   6.154   5.259   0.741
 7713SOL     OW24037   1.466   3.876   0.813
 7713SOL    HW124038   1.558   3.862   0.850
 7713SOL    HW224039   1.400   3.827   0.871
 7714SOL     OW24040   0.002   4.998   5.413
 7714SOL    HW124041   0.091   4.986   5.370
 7714SOL    HW224042   6.953   4.966   5.350
 7715SOL     OW24043   2.956   2.575   6.345
 7715SOL    HW124044   2.923   2.664   6.314
 7715SOL    HW224045   2.953   2.571   6.445
 7716SOL     OW24046   6.505   4.395   0.201
 7716SOL    HW124047   6.590   4.419   0.154
 7716SOL    HW224048   6.444   4.475   0.202
 7717SOL     OW24049   1.009   1.265   5.584
 7717SOL    HW124050   1.000   1.279   5.683
 7717SOL    HW224051   1.057   1.343   5.543
 7718SOL     OW24052   6.659   3.834   3.000
 7718SOL    HW124053   6.560   3.823   2.991
 7718SOL    HW224054   6.679   3.920   3.046
 7719SOL     OW24055   0.190   4.226   4.796
 7719SOL    HW124056   0.134   4.170   4.734
 7719SOL    HW224057   0.146   4.315   4.809
 7720SOL     OW24058   6.289   2.738   6.550
 7720SOL    HW124059   6.386   2.763   6.542
 7720SOL    HW224060   6.260   2.689   6.468
 7721SOL     OW24061   0.544   5.672   2.124
 7721SOL    HW124062   0.561   5.669   2.223
 7721SOL    HW224063   0.592   5.750   2.085
 7722SOL     OW24064   1.721   4.381   3.672
 7722SOL    HW124065   1.802   4.368   3.616
 7722SOL    HW224066   1.640   4.379   3.614
 7723SOL     OW24067   3.996   3.615   7.000
 7723SOL    HW124068   3.971   3.647   6.909
 7723SOL    HW224069   3.915   3.611   0.035
 7724SOL     OW24070   3.094   4.302   0.714
 7724SOL    HW124071   3.112   4.219   0.767
 7724SOL    HW224072   3.004   4.296   0.671
 7725SOL     OW24073   6.463   1.589   2.973
 7725SOL    HW124074   6.547   1.541   2.948
 7725SOL    HW224075   6.448   1.583   3.072
 7726SOL     OW24076   1.554   4.644   6.140
 7726SOL    HW124077   1.559   4.720   6.205
 7726SOL    HW224078   1.516   4.678   6.053
 7727SOL     OW24079   6.716   2.349   2.371
 7727SOL    HW124080   6.665   2.425   2.333
 7727SOL    HW224081   6.752   2.374   2.461
 7728SOL     OW24082   2.127   2.931   5.174
 7728SOL    HW124083   2.102   3.027   5.184
 7728SOL    HW224084   2.226   2.924   5.161
 7729SOL     OW24085   6.080   1.139   1.584
 7729SOL    HW124086   6.113   1.070   1.519
 7729SOL    HW224087   6.137   1.137   1.666
 7730SOL     OW24088   6.881   5.030   6.130
 7730SOL    HW124089   6.842   4.939   6.138
 7730SOL    HW224090   6.838   5.091   6.197
 7731SOL     OW24091   6.145   0.063   6.986
 7731SOL    HW124092   6.046   0.065   6.977
 7731SOL    HW224093   6.180   6.997   6.958
 7732SOL     OW24094   3.878   0.095   0.360
 7732SOL    HW124095   3.852   0.136   0.273
 7732SOL    HW224096   3.796   0.072   0.413
 7733SOL     OW24097   5.108   6.382   2.295
 7733SOL    HW124098   5.064   6.306   2.342
 7733SOL    HW224099   5.191   6.350   2.250
 7734SOL     OW24100   1.695   4.809   5.138
 7734SOL    HW124101   1.686   4.861   5.223
 7734SOL    HW224102   1.792   4.800   5.114
 7735SOL     OW24103   5.458   5.855   6.598
 7735SOL    HW124104   5.434   5.772   6.648
 7735SOL    HW224105   5.379   5.916   6.595
 7736SOL     OW24106   2.835   2.824   6.696
 7736SOL    HW124107   2.769   2.844   6.623
 7736SOL    HW224108   2.822   2.889   6.771
 7737SOL     OW24109   3.514   0.334   2.590
 7737SOL    HW124110   3.473   0.263   2.647
 7737SOL    HW224111   3.486   0.321   2.495
 7738SOL     OW24112   2.778   5.233   0.421
 7738SOL    HW124113   2.752   5.140   0.449
 7738SOL    HW224114   2.760   5.296   0.496
 7739SOL     OW24115   1.077   2.280   1.976
 7739SOL    HW124116   0.984   2.255   2.003
 7739SOL    HW224117   1.094   2.251   1.881
 7740SOL     OW24118   2.785   1.006   3.744
 7740SOL    HW124119   2.766   1.055   3.659
 7740SOL    HW224120   2.827   0.918   3.723
 7741SOL     OW24121   0.260   4.331   5.131
 7741SOL    HW124122   0.287   4.379   5.047
 7741SOL    HW224123   0.175   4.280   5.115
 7742SOL     OW24124   4.449   2.403   3.284
 7742SOL    HW124125   4.509   2.478   3.308
 7742SOL    HW224126   4.468   2.374   3.190
 7743SOL     OW24127   4.515   1.658   0.036
 7743SOL    HW124128   4.601   1.700   0.064
 7743SOL    HW224129   4.533   1.587   6.991
 7744SOL     OW24130   1.143   0.052   3.911
 7744SOL    HW124131   1.102   0.109   3.982
 7744SOL    HW224132   1.242   0.050   3.922
 7745SOL     OW24133   3.862   0.538   0.231
 7745SOL    HW124134   3.799   0.616   0.237
 7745SOL    HW224135   3.845   0.489   0.146
 7746SOL     OW24136   0.949   0.400   0.515
 7746SOL    HW124137   1.015   0.472   0.497
 7746SOL    HW224138   0.856   0.436   0.504
 7747SOL     OW24139   6.477   6.454   1.357
 7747SOL    HW124140   6.489   6.363   1.316
 7747SOL    HW224141   6.567   6.498   1.367
 7748SOL     OW24142   3.130   3.977   4.187
 7748SOL    HW124143   3.064   3.980   4.262
 7748SOL    HW224144   3.185   3.894   4.194
 7749SOL     OW24145   3.167   3.355   4.898
 7749SOL    HW124146   3.226   3.418   4.847
 7749SOL    HW224147   3.088   3.330   4.842
 7750SOL     OW24148   6.852   5.716   0.037
 7750SOL    HW124149   6.908   5.778   7.005
 7750SOL    HW224150   6.817   5.642   7.001
 7751SOL     OW24151   1.150   2.627   2.443
 7751SOL    HW124152   1.055   2.647   2.420
 7751SOL    HW224153   1.207   2.635   2.361
 7752SOL     OW24154   5.551   6.177   5.573
 7752SOL    HW124155   5.483   6.132   5.516
 7752SOL    HW224156   5.523   6.172   5.669
 7753SOL     OW24157   2.066   0.536   4.030
 7753SOL    HW124158   2.039   0.496   3.942
 7753SOL    HW224159   2.040   0.475   4.104
 7754SOL     OW24160   4.896   6.632   1.887
 7754SOL    HW124161   4.987   6.638   1.927
 7754SOL    HW224162   4.887   6.701   1.815
 7755SOL     OW24163   1.171   2.154   5.923
 7755SOL    HW124164   1.172   2.095   6.003
 7755SOL    HW224165   1.265   2.170   5.892
 7756SOL     OW24166   3.916   5.160   2.798
 7756SOL    HW124167   3.849   5.126   2.732
 7756SOL    HW224168   3.868   5.200   2.876
 7757SOL     OW24169   5.187   5.661   4.799
 7757SOL    HW124170   5.130   5.685   4.721
 7757SOL    HW224171   5.283   5.677   4.777
 7758SOL     OW24172   1.199   1.772   0.317
 7758SOL    HW124173   1.205   1.685   0.366
 7758SOL    HW224174   1.286   1.821   0.323
 7759SOL     OW24175   1.008   2.024   5.103
 7759SOL    HW124176   0.982   2.031   5.199
 7759SOL    HW224177   0.983   1.934   5.068
 7760SOL     OW24178   5.710   3.374   2.793
 7760SOL    HW124179   5.668   3.367   2.883
 7760SOL    HW224180   5.743   3.467   2.778
 7761SOL     OW24181   1.281   0.255   6.154
 7761SOL    HW124182   1.309   0.159   6.156
 7761SOL    HW224183   1.342   0.307   6.094
 7762SOL     OW24184   4.556   0.484   3.861
 7762SOL    HW124185   4.534   0.495   3.958
 7762SOL    HW224186   4.478   0.514   3.805
 7763SOL     OW24187   1.193   1.438   0.279
 7763SOL    HW124188   1.262   1.380   0.322
 7763SOL    HW224189   1.205   1.437   0.180
 7764SOL     OW24190   3.783   2.920   3.316
 7764SOL    HW124191   3.833   2.944   3.399
 7764SOL    HW224192   3.702   2.868   3.339
 7765SOL     OW24193   6.144   2.055   3.874
 7765SOL    HW124194   6.131   2.090   3.967
 7765SOL    HW224195   6.100   1.966   3.866
 7766SOL     OW24196   5.548   1.948   6.695
 7766SOL    HW124197   5.549   2.047   6.679
 7766SOL    HW224198   5.557   1.931   6.793
 7767SOL     OW24199   4.252   6.631   3.925
 7767SOL    HW124200   4.292   6.593   4.008
 7767SOL    HW224201   4.322   6.637   3.854
 7768SOL     OW24202   4.305   4.733   2.559
 7768SOL    HW124203   4.312   4.700   2.653
 7768SOL    HW224204   4.330   4.660   2.495
 7769SOL     OW24205   4.867   2.788   2.772
 7769SOL    HW124206   4.793   2.793   2.839
 7769SOL    HW224207   4.828   2.774   2.680
 7770SOL     OW24208   1.374   3.955   1.894
 7770SOL    HW124209   1.369   3.993   1.986
 7770SOL    HW224210   1.327   3.867   1.892
 7771SOL     OW24211   2.857   1.855   4.972
 7771SOL    HW124212   2.847   1.932   5.035
 7771SOL    HW224213   2.820   1.773   5.014
 7772SOL     OW24214   5.630   0.644   2.502
 7772SOL    HW124215   5.554   0.708   2.496
 7772SOL    HW224216   5.612   0.576   2.573
 7773SOL     OW24217   3.089   5.752   4.448
 7773SOL    HW124218   3.159   5.703   4.395
 7773SOL    HW224219   3.084   5.713   4.540
 7774SOL     OW24220   5.605   1.796   5.973
 7774SOL    HW124221   5.655   1.835   6.050
 7774SOL    HW224222   5.525   1.852   5.953
 7775SOL     OW24223   4.242   6.434   2.210
 7775SOL    HW124224   4.196   6.504   2.266
 7775SOL    HW224225   4.257   6.470   2.118
 7776SOL     OW24226   2.271   4.534   0.119
 7776SOL    HW124227   2.242   4.626   0.143
 7776SOL    HW224228   2.371   4.529   0.119
 7777SOL     OW24229   0.817   0.584   4.947
 7777SOL    HW124230   0.732   0.535   4.963
 7777SOL    HW224231   0.859   0.551   4.862
 7778SOL     OW24232   5.002   4.898   0.487
 7778SOL    HW124233   4.932   4.936   0.426
 7778SOL    HW224234   5.072   4.967   0.504
 7779SOL     OW24235   3.142   2.208   1.213
 7779SOL    HW124236   3.105   2.266   1.286
 7779SOL    HW224237   3.213   2.258   1.164
 7780SOL     OW24238   0.636   5.373   5.498
 7780SOL    HW124239   0.590   5.314   5.432
 7780SOL    HW224240   0.735   5.370   5.483
 7781SOL     OW24241   1.171   4.888   0.273
 7781SOL    HW124242   1.090   4.870   0.330
 7781SOL    HW224243   1.225   4.962   0.314
 7782SOL     OW24244   0.803   5.028   4.541
 7782SOL    HW124245   0.766   5.008   4.631
 7782SOL    HW224246   0.817   5.127   4.531
 7783SOL     OW24247   1.059   6.164   4.686
 7783SOL    HW124248   0.977   6.132   4.733
 7783SOL    HW224249   1.068   6.116   4.598
 7784SOL     OW24250   2.634   2.678   1.019
 7784SOL    HW124251   2.654   2.630   1.104
 7784SOL    HW224252   2.648   2.617   0.941
 7785SOL     OW24253   1.490   6.482   4.070
 7785SOL    HW124254   1.423   6.427   4.020
 7785SOL    HW224255   1.461   6.578   4.070
 7786SOL     OW24256   3.200   6.296   6.877
 7786SOL    HW124257   3.234   6.348   6.799
 7786SOL    HW224258   3.272   6.237   6.912
 7787SOL     OW24259   2.891   2.843   6.283
 7787SOL    HW124260   2.873   2.864   6.186
 7787SOL    HW224261   2.947   2.915   6.323
 7788SOL     OW24262   1.623   5.414   1.813
 7788SOL    HW124263   1.712   5.458   1.799
 7788SOL    HW224264   1.614   5.388   1.910
 7789SOL     OW24265   2.593   6.791   6.484
 7789SOL    HW124266   2.518   6.823   6.426
 7789SOL    HW224267   2.557   6.757   6.571
 7790SOL     OW24268   5.180   5.181   3.006
 7790SOL    HW124269   5.150   5.103   2.951
 7790SOL    HW224270   5.272   5.164   3.040
 7791SOL     OW24271   2.278   5.921   3.460
 7791SOL    HW124272   2.280   5.828   3.421
 7791SOL    HW224273   2.230   5.982   3.397
 7792SOL     OW24274   1.719   4.934   5.375
 7792SOL    HW124275   1.745   5.030   5.362
 7792SOL    HW224276   1.651   4.927   5.447
 7793SOL     OW24277   3.193   1.052   0.021
 7793SOL    HW124278   3.179   1.016   0.113
 7793SOL    HW224279   3.104   1.072   7.002
 7794SOL     OW24280   5.868   4.720   3.376
 7794SOL    HW124281   5.884   4.791   3.446
 7794SOL    HW224282   5.945   4.720   3.312
 7795SOL     OW24283   2.209   3.852   5.310
 7795SOL    HW124284   2.286   3.896   5.263
 7795SOL    HW224285   2.199   3.892   5.402
 7796SOL     OW24286   3.583   4.176   3.440
 7796SOL    HW124287   3.627   4.088   3.456
 7796SOL    HW224288   3.510   4.190   3.507
 7797SOL     OW24289   1.574   6.998   2.570
 7797SOL    HW124290   1.528   7.008   2.482
 7797SOL    HW224291   1.670   0.003   2.561
 7798SOL     OW24292   2.049   4.321   5.735
 7798SOL    HW124293   2.147   4.331   5.721
 7798SOL    HW224294   2.000   4.376   5.668
 7799SOL     OW24295   1.311   6.014   2.378
 7799SOL    HW124296   1.316   6.101   2.427
 7799SOL    HW224297   1.276   5.943   2.439
 7800SOL     OW24298   1.185   5.447   0.794
 7800SOL    HW124299   1.164   5.488   0.883
 7800SOL    HW224300   1.274   5.480   0.762
 7801SOL     OW24301   2.054   1.748   1.676
 7801SOL    HW124302   2.055   1.781   1.770
 7801SOL    HW224303   2.060   1.827   1.614
 7802SOL     OW24304   5.773   2.382   1.041
 7802SOL    HW124305   5.761   2.477   1.012
 7802SOL    HW224306   5.809   2.380   1.134
 7803SOL     OW24307   4.153   1.979   6.263
 7803SOL    HW124308   4.073   1.961   6.205
 7803SOL    HW224309   4.148   2.072   6.299
 7804SOL     OW24310   4.881   2.296   4.472
 7804SOL    HW124311   4.877   2.200   4.501
 7804SOL    HW224312   4.886   2.300   4.372
 7805SOL     OW24313   5.245   2.105   0.909
 7805SOL    HW124314   5.310   2.065   0.845
 7805SOL    HW224315   5.293   2.137   0.990
 7806SOL     OW24316   5.772   1.913   6.514
 7806SOL    HW124317   5.747   1.968   6.594
 7806SOL    HW224318   5.699   1.848   6.495
 7807SOL     OW24319   0.631   4.986   5.123
 7807SOL    HW124320   0.691   4.929   5.066
 7807SOL    HW224321   0.686   5.051   5.176
 7808SOL     OW24322   6.473   3.215   4.059
 7808SOL    HW124323   6.559   3.206   4.107
 7808SOL    HW224324   6.468   3.147   3.986
 7809SOL     OW24325   1.760   5.759   4.030
 7809SOL    HW124326   1.714   5.819   3.965
 7809SOL    HW224327   1.836   5.809   4.073
 7810SOL     OW24328   3.395   0.819   4.506
 7810SOL    HW124329   3.443   0.771   4.580
 7810SOL    HW224330   3.454   0.820   4.425
 7811SOL     OW24331   1.352   5.609   2.749
 7811SOL    HW124332   1.347   5.702   2.784
 7811SOL    HW224333   1.419   5.557   2.802
 7812SOL     OW24334   0.967   2.205   3.693
 7812SOL    HW124335   1.062   2.178   3.677
 7812SOL    HW224336   0.906   2.135   3.655
 7813SOL     OW24337   4.543   2.659   6.818
 7813SOL    HW124338   4.605   2.620   6.887
 7813SOL    HW224339   4.503   2.585   6.764
 7814SOL     OW24340   6.890   2.745   3.223
 7814SOL    HW124341   6.868   2.649   3.211
 7814SOL    HW224342   6.980   2.754   3.267
 7815SOL     OW24343   5.065   0.485   5.718
 7815SOL    HW124344   5.129   0.512   5.790
 7815SOL    HW224345   4.983   0.445   5.760
 7816SOL     OW24346   1.908   2.142   6.415
 7816SOL    HW124347   1.904   2.129   6.316
 7816SOL    HW224348   1.941   2.235   6.434
 7817SOL     OW24349   5.666   4.840   3.217
 7817SOL    HW124350   5.586   4.847   3.276
 7817SOL    HW224351   5.741   4.799   3.268
 7818SOL     OW24352   4.312   0.860   2.741
 7818SOL    HW124353   4.383   0.918   2.700
 7818SOL    HW224354   4.355   0.779   2.782
 7819SOL     OW24355   6.792   3.417   1.777
 7819SOL    HW124356   6.852   3.493   1.755
 7819SOL    HW224357   6.808   3.342   1.714
 7820SOL     OW24358   1.627   2.255   5.107
 7820SOL    HW124359   1.529   2.274   5.109
 7820SOL    HW224360   1.669   2.289   5.191
 7821SOL     OW24361   5.561   6.125   0.791
 7821SOL    HW124362   5.496   6.199   0.808
 7821SOL    HW224363   5.583   6.121   0.694
 7822SOL     OW24364   0.847   1.821   5.685
 7822SOL    HW124365   0.938   1.853   5.659
 7822SOL    HW224366   0.855   1.733   5.732
 7823SOL     OW24367   2.622   3.963   5.337
 7823SOL    HW124368   2.643   3.867   5.353
 7823SOL    HW224369   2.543   3.971   5.277
 7824SOL     OW24370   5.977   0.935   3.835
 7824SOL    HW124371   6.033   1.015   3.855
 7824SOL    HW224372   6.030   0.852   3.855
 7825SOL     OW24373   1.522   2.507   1.422
 7825SOL    HW124374   1.555   2.514   1.328
 7825SOL    HW224375   1.425   2.530   1.425
 7826SOL     OW24376   6.388   1.725   1.324
 7826SOL    HW124377   6.402   1.814   1.281
 7826SOL    HW224378   6.366   1.739   1.421
 7827SOL     OW24379   2.024   5.214   0.947
 7827SOL    HW124380   2.056   5.307   0.965
 7827SOL    HW224381   2.091   5.149   0.982
 7828SOL     OW24382   0.841   4.248   6.933
 7828SOL    HW124383   0.831   4.149   6.929
 7828SOL    HW224384   0.884   4.281   6.849
 7829SOL     OW24385   2.643   3.797   1.360
 7829SOL    HW124386   2.572   3.751   1.309
 7829SOL    HW224387   2.606   3.880   1.402
 7830SOL     OW24388   2.568   4.576   5.116
 7830SOL    HW124389   2.654   4.602   5.072
 7830SOL    HW224390   2.587   4.505   5.185
 7831SOL     OW24391   2.306   6.542   1.615
 7831SOL    HW124392   2.392   6.543   1.564
 7831SOL    HW224393   2.260   6.631   1.605
 7832SOL     OW24394   5.982   1.064   3.368
 7832SOL    HW124395   5.908   0.998   3.377
 7832SOL    HW224396   6.045   1.054   3.445
 7833SOL     OW24397   0.615   1.190   6.101
 7833SOL    HW124398   0.560   1.161   6.180
 7833SOL    HW224399   0.702   1.227   6.133
 7834SOL     OW24400   6.744   1.765   3.597
 7834SOL    HW124401   6.656   1.803   3.627
 7834SOL    HW224402   6.790   1.831   3.538
 7835SOL     OW24403   3.450   2.082   5.373
 7835SOL    HW124404   3.362   2.129   5.379
 7835SOL    HW224405   3.517   2.129   5.431
 7836SOL     OW24406   3.075   2.846   5.357
 7836SOL    HW124407   3.034   2.918   5.302
 7836SOL    HW224408   3.132   2.788   5.299
 7837SOL     OW24409   5.383   5.247   7.019
 7837SOL    HW124410   5.424   5.335   0.019
 7837SOL    HW224411   5.332   5.213   0.076
 7838SOL     OW24412   3.799   0.054   0.760
 7838SOL    HW124413   3.760   6.995   0.717
 7838SOL    HW224414   3.735   0.130   0.750
 7839SOL     OW24415   5.919   4.008   5.093
 7839SOL    HW124416   5.932   4.053   5.181
 7839SOL    HW224417   5.823   4.016   5.066
 7840SOL     OW24418   6.104   2.785   3.967
 7840SOL    HW124419   6.021   2.744   3.929
 7840SOL    HW224420   6.102   2.778   4.067
 7841SOL     OW24421   3.499   2.102   6.103
 7841SOL    HW124422   3.400   2.100   6.088
 7841SOL    HW224423   3.530   2.012   6.133
 7842SOL     OW24424   2.622   2.014   2.675
 7842SOL    HW124425   2.621   2.025   2.775
 7842SOL    HW224426   2.652   1.921   2.653
 7843SOL     OW24427   0.085   6.103   3.633
 7843SOL    HW124428   0.068   6.039   3.558
 7843SOL    HW224429   0.181   6.096   3.661
 7844SOL     OW24430   3.721   0.191   2.847
 7844SOL    HW124431   3.798   0.244   2.883
 7844SOL    HW224432   3.644   0.197   2.910
 7845SOL     OW24433   5.778   2.027   2.850
 7845SOL    HW124434   5.829   1.979   2.922
 7845SOL    HW224435   5.746   2.115   2.885
 7846SOL     OW24436   0.454   1.475   2.005
 7846SOL    HW124437   0.522   1.503   1.937
 7846SOL    HW224438   0.372   1.532   1.996
 7847SOL     OW24439   6.766   1.567   3.236
 7847SOL    HW124440   6.672   1.540   3.254
 7847SOL    HW224441   6.824   1.486   3.229
 7848SOL     OW24442   3.325   4.101   0.623
 7848SOL    HW124443   3.290   4.195   0.619
 7848SOL    HW224444   3.354   4.072   0.532
 7849SOL     OW24445   6.472   4.386   4.206
 7849SOL    HW124446   6.456   4.460   4.271
 7849SOL    HW224447   6.462   4.420   4.113
 7850SOL     OW24448   0.178   1.425   4.304
 7850SOL    HW124449   0.240   1.368   4.358
 7850SOL    HW224450   0.231   1.497   4.258
 7851SOL     OW24451   6.562   1.130   1.639
 7851SOL    HW124452   6.561   1.193   1.561
 7851SOL    HW224453   6.503   1.166   1.711
 7852SOL     OW24454   2.980   1.621   6.206
 7852SOL    HW124455   2.914   1.550   6.230
 7852SOL    HW224456   3.048   1.583   6.142
 7853SOL     OW24457   5.016   2.431   2.054
 7853SOL    HW124458   5.083   2.480   1.998
 7853SOL    HW224459   5.045   2.431   2.149
 7854SOL     OW24460   3.533   3.478   6.837
 7854SOL    HW124461   3.491   3.569   6.837
 7854SOL    HW224462   3.461   3.408   6.835
 7855SOL     OW24463   5.005   6.512   4.607
 7855SOL    HW124464   4.984   6.519   4.705
 7855SOL    HW224465   5.030   6.602   4.572
 7856SOL     OW24466   6.486   5.521   5.229
 7856SOL    HW124467   6.401   5.547   5.276
 7856SOL    HW224468   6.563   5.569   5.271
 7857SOL     OW24469   5.318   2.230   6.764
 7857SOL    HW124470   5.243   2.186   6.714
 7857SOL    HW224471   5.339   2.318   6.722
 7858SOL     OW24472   6.334   6.835   4.032
 7858SOL    HW124473   6.282   6.813   3.949
 7858SOL    HW224474   6.332   6.757   4.094
 7859SOL     OW24475   4.172   2.927   6.373
 7859SOL    HW124476   4.174   2.873   6.457
 7859SOL    HW224477   4.110   3.005   6.385
 7860SOL     OW24478   3.203   0.885   3.185
 7860SOL    HW124479   3.271   0.959   3.181
 7860SOL    HW224480   3.124   0.910   3.129
 7861SOL     OW24481   3.662   4.662   1.580
 7861SOL    HW124482   3.646   4.676   1.677
 7861SOL    HW224483   3.618   4.735   1.527
 7862SOL     OW24484   2.036   4.771   2.009
 7862SOL    HW124485   2.124   4.746   2.051
 7862SOL    HW224486   2.051   4.847   1.946
 7863SOL     OW24487   0.240   4.540   4.518
 7863SOL    HW124488   0.313   4.481   4.551
 7863SOL    HW224489   0.272   4.594   4.441
 7864SOL     OW24490   0.833   6.013   5.185
 7864SOL    HW124491   0.885   6.093   5.216
 7864SOL    HW224492   0.864   5.987   5.093
 7865SOL     OW24493   6.498   6.287   3.852
 7865SOL    HW124494   6.530   6.201   3.812
 7865SOL    HW224495   6.481   6.274   3.950
 7866SOL     OW24496   1.127   1.707   5.855
 7866SOL    HW124497   1.204   1.672   5.802
 7866SOL    HW224498   1.113   1.804   5.834
 7867SOL     OW24499   6.028   6.068   3.372
 7867SOL    HW124500   6.074   6.096   3.457
 7867SOL    HW224501   5.929   6.078   3.383
 7868SOL     OW24502   4.662   6.305   1.460
 7868SOL    HW124503   4.757   6.289   1.432
 7868SOL    HW224504   4.613   6.352   1.387
 7869SOL     OW24505   5.244   3.716   0.078
 7869SOL    HW124506   5.202   3.663   0.004
 7869SOL    HW224507   5.238   3.665   0.164
 7870SOL     OW24508   4.205   5.189   3.993
 7870SOL    HW124509   4.279   5.143   4.043
 7870SOL    HW224510   4.205   5.160   3.898
 7871SOL     OW24511   4.673   1.826   2.298
 7871SOL    HW124512   4.676   1.740   2.247
 7871SOL    HW224513   4.579   1.844   2.327
 7872SOL     OW24514   1.751   3.801   3.197
 7872SOL    HW124515   1.757   3.736   3.122
 7872SOL    HW224516   1.734   3.751   3.283
 7873SOL     OW24517   5.964   6.613   6.114
 7873SOL    HW124518   5.970   6.587   6.211
 7873SOL    HW224519   5.872   6.595   6.080
 7874SOL     OW24520   4.842   2.414   0.164
 7874SOL    HW124521   4.927   2.362   0.177
 7874SOL    HW224522   4.777   2.389   0.236
 7875SOL     OW24523   4.135   3.101   6.964
 7875SOL    HW124524   4.068   3.074   6.896
 7875SOL    HW224525   4.143   3.201   6.966
 7876SOL     OW24526   1.475   6.706   3.400
 7876SOL    HW124527   1.402   6.651   3.359
 7876SOL    HW224528   1.561   6.656   3.396
 7877SOL     OW24529   1.341   1.908   2.850
 7877SOL    HW124530   1.249   1.870   2.851
 7877SOL    HW224531   1.401   1.848   2.797
 7878SOL     OW24532   4.686   4.359   4.761
 7878SOL    HW124533   4.649   4.403   4.842
 7878SOL    HW224534   4.725   4.270   4.786
 7879SOL     OW24535   4.013   5.625   3.223
 7879SOL    HW124536   4.079   5.674   3.280
 7879SOL    HW224537   4.057   5.595   3.139
 7880SOL     OW24538   2.103   4.650   0.867
 7880SOL    HW124539   2.055   4.710   0.804
 7880SOL    HW224540   2.040   4.582   0.904
 7881SOL     OW24541   6.226   5.173   4.811
 7881SOL    HW124542   6.272   5.204   4.727
 7881SOL    HW224543   6.127   5.170   4.796
 7882SOL     OW24544   1.181   3.202   1.917
 7882SOL    HW124545   1.223   3.170   1.832
 7882SOL    HW224546   1.191   3.301   1.925
 7883SOL     OW24547   1.123   0.610   0.451
 7883SOL    HW124548   1.198   0.672   0.431
 7883SOL    HW224549   1.083   0.577   0.366
 7884SOL     OW24550   2.129   3.273   4.697
 7884SOL    HW124551   2.163   3.237   4.784
 7884SOL    HW224552   2.137   3.372   4.697
 7885SOL     OW24553   6.106   5.616   1.240
 7885SOL    HW124554   6.165   5.572   1.308
 7885SOL    HW224555   6.012   5.588   1.254
 7886SOL     OW24556   3.684   4.832   0.185
 7886SOL    HW124557   3.671   4.784   0.098
 7886SOL    HW224558   3.603   4.887   0.206
 7887SOL     OW24559   3.444   2.482   5.378
 7887SOL    HW124560   3.443   2.578   5.408
 7887SOL    HW224561   3.367   2.466   5.316
 7888SOL     OW24562   6.633   0.452   5.371
 7888SOL    HW124563   6.653   0.484   5.464
 7888SOL    HW224564   6.709   0.396   5.338
 7889SOL     OW24565   1.451   4.478   1.278
 7889SOL    HW124566   1.455   4.408   1.207
 7889SOL    HW224567   1.363   4.526   1.273
 7890SOL     OW24568   1.842   2.582   2.567
 7890SOL    HW124569   1.839   2.554   2.663
 7890SOL    HW224570   1.768   2.648   2.550
 7891SOL     OW24571   1.764   3.442   3.680
 7891SOL    HW124572   1.758   3.511   3.608
 7891SOL    HW224573   1.677   3.439   3.730
 7892SOL     OW24574   2.070   0.752   4.202
 7892SOL    HW124575   2.088   0.666   4.155
 7892SOL    HW224576   2.138   0.820   4.175
 7893SOL     OW24577   7.004   6.114   2.657
 7893SOL    HW124578   0.066   6.069   2.686
 7893SOL    HW224579   6.994   6.201   2.705
 7894SOL     OW24580   3.544   7.000   1.091
 7894SOL    HW124581   3.547   6.991   0.991
 7894SOL    HW224582   3.461   0.026   1.117
 7895SOL     OW24583   6.165   0.563   5.533
 7895SOL    HW124584   6.249   0.533   5.489
 7895SOL    HW224585   6.186   0.630   5.605
 7896SOL     OW24586   4.830   4.309   0.266
 7896SOL    HW124587   4.888   4.228   0.276
 7896SOL    HW224588   4.887   4.389   0.247
 7897SOL     OW24589   2.377   3.966   0.121
 7897SOL    HW124590   2.429   3.907   0.182
 7897SOL    HW224591   2.294   3.918   0.091
 7898SOL     OW24592   4.806   2.190   3.773
 7898SOL    HW124593   4.822   2.285   3.747
 7898SOL    HW224594   4.796   2.135   3.690
 7899SOL     OW24595   5.436   0.911   1.230
 7899SOL    HW124596   5.408   0.820   1.259
 7899SOL    HW224597   5.440   0.972   1.310
 7900SOL     OW24598   1.521   5.035   1.513
 7900SOL    HW124599   1.446   5.011   1.452
 7900SOL    HW224600   1.521   5.134   1.529
 7901SOL     OW24601   4.588   1.437   6.902
 7901SOL    HW124602   4.666   1.378   6.920
 7901SOL    HW224603   4.539   1.404   6.821
 7902SOL     OW24604   5.107   6.078   1.668
 7902SOL    HW124605   5.168   6.001   1.645
 7902SOL    HW224606   5.013   6.052   1.649
 7903SOL     OW24607   5.729   1.062   0.975
 7903SOL    HW124608   5.637   1.085   0.944
 7903SOL    HW224609   5.750   1.113   1.059
 7904SOL     OW24610   5.838   6.502   3.573
 7904SOL    HW124611   5.771   6.511   3.646
 7904SOL    HW224612   5.870   6.408   3.568
 7905SOL     OW24613   4.553   2.543   0.310
 7905SOL    HW124614   4.521   2.545   0.405
 7905SOL    HW224615   4.480   2.576   0.250
 7906SOL     OW24616   0.056   5.679   0.571
 7906SOL    HW124617   0.139   5.675   0.627
 7906SOL    HW224618   0.059   5.761   0.514
 7907SOL     OW24619   5.255   2.553   3.174
 7907SOL    HW124620   5.258   2.619   3.099
 7907SOL    HW224621   5.195   2.588   3.246
 7908SOL     OW24622   0.625   1.902   5.474
 7908SOL    HW124623   0.685   1.872   5.548
 7908SOL    HW224624   0.542   1.846   5.473
 7909SOL     OW24625   5.534   3.646   5.031
 7909SOL    HW124626   5.447   3.602   5.051
 7909SOL    HW224627   5.606   3.576   5.024
 7910SOL     OW24628   2.966   3.614   5.997
 7910SOL    HW124629   2.964   3.564   5.911
 7910SOL    HW224630   3.013   3.702   5.983
 7911SOL     OW24631   1.465   3.145   0.019
 7911SOL    HW124632   1.484   3.110   6.951
 7911SOL    HW224633   1.371   3.181   0.022
 7912SOL     OW24634   6.924   5.036   0.272
 7912SOL    HW124635   6.829   5.047   0.242
 7912SOL    HW224636   6.942   5.099   0.348
 7913SOL     OW24637   1.368   4.921   1.066
 7913SOL    HW124638   1.280   4.878   1.048
 7913SOL    HW224639   1.395   4.904   1.161
 7914SOL     OW24640   6.804   4.415   6.846
 7914SOL    HW124641   6.848   4.356   6.913
 7914SOL    HW224642   6.834   4.388   6.754
 7915SOL     OW24643   4.871   2.925   2.298
 7915SOL    HW124644   4.961   2.967   2.313
 7915SOL    HW224645   4.820   2.978   2.230
 7916SOL     OW24646   0.531   4.012   5.373
 7916SOL    HW124647   0.431   4.023   5.369
 7916SOL    HW224648   0.574   4.080   5.313
 7917SOL     OW24649   3.583   4.067   3.887
 7917SOL    HW124650   3.602   3.971   3.905
 7917SOL    HW224651   3.485   4.079   3.868
 7918SOL     OW24652   0.172   1.635   6.792
 7918SOL    HW124653   0.250   1.626   6.854
 7918SOL    HW224654   0.200   1.685   6.710
 7919SOL     OW24655   2.082   3.926   2.128
 7919SOL    HW124656   1.988   3.900   2.107
 7919SOL    HW224657   2.108   3.887   2.217
 7920SOL     OW24658   0.332   5.656   1.097
 7920SOL    HW124659   0.354   5.605   1.014
 7920SOL    HW224660   0.341   5.754   1.080
 7921SOL     OW24661   4.305   6.482   0.742
 7921SOL    HW124662   4.398   6.452   0.723
 7921SOL    HW224663   4.245   6.403   0.753
 7922SOL     OW24664   6.693   6.765   6.540
 7922SOL    HW124665   6.662   6.748   6.634
 7922SOL    HW224666   6.722   6.678   6.499
 7923SOL     OW24667   3.280   0.509   2.222
 7923SOL    HW124668   3.239   0.467   2.303
 7923SOL    HW224669   3.377   0.527   2.239
 7924SOL     OW24670   4.161   6.700   1.879
 7924SOL    HW124671   4.229   6.668   1.946
 7924SOL    HW224672   4.069   6.685   1.916
 7925SOL     OW24673   0.765   1.787   6.275
 7925SOL    HW124674   0.766   1.881   6.241
 7925SOL    HW224675   0.843   1.737   6.237
 7926SOL     OW24676   5.317   1.854   5.382
 7926SOL    HW124677   5.300   1.785   5.452
 7926SOL    HW224678   5.259   1.837   5.303
 7927SOL     OW24679   3.729   5.204   3.972
 7927SOL    HW124680   3.822   5.183   4.001
 7927SOL    HW224681   3.685   5.261   4.041
 7928SOL     OW24682   1.240   2.316   4.500
 7928SOL    HW124683   1.218   2.356   4.589
 7928SOL    HW224684   1.156   2.298   4.449
 7929SOL     OW24685   3.915   4.321   5.831
 7929SOL    HW124686   3.872   4.234   5.857
 7929SOL    HW224687   3.983   4.345   5.900
 7930SOL     OW24688   4.508   5.278   3.927
 7930SOL    HW124689   4.411   5.294   3.908
 7930SOL    HW224690   4.537   5.193   3.881
 7931SOL     OW24691   1.261   2.054   6.170
 7931SOL    HW124692   1.300   1.977   6.120
 7931SOL    HW224693   1.287   2.049   6.266
 7932SOL     OW24694   2.317   6.355   6.397
 7932SOL    HW124695   2.363   6.414   6.331
 7932SOL    HW224696   2.383   6.326   6.467
 7933SOL     OW24697   0.379   6.226   6.851
 7933SOL    HW124698   0.422   6.136   6.861
 7933SOL    HW224699   0.287   6.215   6.812
 7934SOL     OW24700   2.323   4.784   0.298
 7934SOL    HW124701   2.368   4.873   0.308
 7934SOL    HW224702   2.375   4.715   0.348
 7935SOL     OW24703   5.509   6.367   0.345
 7935SOL    HW124704   5.439   6.371   0.416
 7935SOL    HW224705   5.490   6.292   0.283
 7936SOL     OW24706   3.811   5.615   2.349
 7936SOL    HW124707   3.834   5.711   2.332
 7936SOL    HW224708   3.722   5.595   2.308
 7937SOL     OW24709   6.328   0.318   3.845
 7937SOL    HW124710   6.370   0.239   3.890
 7937SOL    HW224711   6.288   0.289   3.759
 7938SOL     OW24712   6.043   5.318   5.136
 7938SOL    HW124713   6.116   5.289   5.199
 7938SOL    HW224714   5.977   5.244   5.127
 7939SOL     OW24715   1.270   2.821   5.494
 7939SOL    HW124716   1.291   2.789   5.587
 7939SOL    HW224717   1.355   2.831   5.442
 7940SOL     OW24718   1.843   4.205   2.065
 7940SOL    HW124719   1.916   4.205   2.134
 7940SOL    HW224720   1.777   4.134   2.087
 7941SOL     OW24721   6.421   6.720   0.709
 7941SOL    HW124722   6.475   6.640   0.685
 7941SOL    HW224723   6.435   6.743   0.805
 7942SOL     OW24724   6.633   5.638   2.894
 7942SOL    HW124725   6.562   5.704   2.872
 7942SOL    HW224726   6.674   5.603   2.810
 7943SOL     OW24727   5.575   3.358   0.296
 7943SOL    HW124728   5.640   3.427   0.263
 7943SOL    HW224729   5.563   3.369   0.395
 7944SOL     OW24730   0.527   3.089   1.371
 7944SOL    HW124731   0.599   3.109   1.305
 7944SOL    HW224732   0.438   3.100   1.328
 7945SOL     OW24733   5.413   5.914   1.884
 7945SOL    HW124734   5.489   5.949   1.938
 7945SOL    HW224735   5.448   5.877   1.798
 7946SOL     OW24736   2.389   1.837   5.484
 7946SOL    HW124737   2.456   1.773   5.447
 7946SOL    HW224738   2.296   1.801   5.469
 7947SOL     OW24739   3.832   2.202   6.247
 7947SOL    HW124740   3.841   2.193   6.346
 7947SOL    HW224741   3.770   2.277   6.225
 7948SOL     OW24742   0.851   6.286   0.913
 7948SOL    HW124743   0.815   6.234   0.991
 7948SOL    HW224744   0.951   6.278   0.911
 7949SOL     OW24745   4.889   4.380   4.521
 7949SOL    HW124746   4.948   4.459   4.535
 7949SOL    HW224747   4.824   4.372   4.596
 7950SOL     OW24748   5.760   5.073   4.701
 7950SOL    HW124749   5.708   5.142   4.751
 7950SOL    HW224750   5.830   5.034   4.761
 7951SOL     OW24751   1.844   4.207   1.105
 7951SOL    HW124752   1.794   4.241   1.184
 7951SOL    HW224753   1.933   4.171   1.134
 7952SOL     OW24754   0.706   3.442   6.636
 7952SOL    HW124755   0.796   3.425   6.595
 7952SOL    HW224756   0.659   3.355   6.649
 7953SOL     OW24757   1.891   2.753   3.463
 7953SOL    HW124758   1.822   2.825   3.468
 7953SOL    HW224759   1.860   2.681   3.401
 7954SOL     OW24760   4.602   4.041   5.329
 7954SOL    HW124761   4.641   4.122   5.374
 7954SOL    HW224762   4.513   4.065   5.290
 7955SOL     OW24763   1.370   6.406   6.454
 7955SOL    HW124764   1.389   6.441   6.546
 7955SOL    HW224765   1.295   6.458   6.414
 7956SOL     OW24766   3.303   5.775   2.738
 7956SOL    HW124767   3.223   5.821   2.779
 7956SOL    HW224768   3.290   5.676   2.743
 7957SOL     OW24769   1.533   1.319   1.116
 7957SOL    HW124770   1.598   1.289   1.185
 7957SOL    HW224771   1.562   1.407   1.079
 7958SOL     OW24772   3.586   5.000   4.276
 7958SOL    HW124773   3.496   4.978   4.314
 7958SOL    HW224774   3.656   4.943   4.319
 7959SOL     OW24775   4.156   5.617   1.171
 7959SOL    HW124776   4.196   5.538   1.123
 7959SOL    HW224777   4.111   5.676   1.105
 7960SOL     OW24778   3.993   1.707   0.545
 7960SOL    HW124779   4.012   1.683   0.640
 7960SOL    HW224780   3.905   1.669   0.518
 7961SOL     OW24781   0.788   6.873   1.051
 7961SOL    HW124782   0.821   6.947   0.993
 7961SOL    HW224783   0.688   6.879   1.059
 7962SOL     OW24784   2.092   0.108   0.426
 7962SOL    HW124785   2.106   0.030   0.365
 7962SOL    HW224786   2.121   0.192   0.380
 7963SOL     OW24787   6.817   1.154   3.779
 7963SOL    HW124788   6.741   1.102   3.740
 7963SOL    HW224789   6.791   1.250   3.787
 7964SOL     OW24790   0.312   4.909   3.604
 7964SOL    HW124791   0.253   4.990   3.614
 7964SOL    HW224792   0.259   4.827   3.621
 7965SOL     OW24793   3.762   3.278   0.018
 7965SOL    HW124794   3.796   3.305   6.951
 7965SOL    HW224795   3.736   3.182   0.017
 7966SOL     OW24796   0.797   3.415   5.745
 7966SOL    HW124797   0.897   3.420   5.734
 7966SOL    HW224798   0.757   3.504   5.725
 7967SOL     OW24799   2.541   5.912   3.985
 7967SOL    HW124800   2.628   5.941   4.026
 7967SOL    HW224801   2.557   5.878   3.893
 7968SOL     OW24802   2.532   2.369   3.003
 7968SOL    HW124803   2.489   2.412   2.924
 7968SOL    HW224804   2.617   2.326   2.975
 7969SOL     OW24805   4.641   6.928   1.596
 7969SOL    HW124806   4.714   6.869   1.560
 7969SOL    HW224807   4.598   6.885   1.674
 7970SOL     OW24808   0.779   2.950   3.138
 7970SOL    HW124809   0.713   3.018   3.107
 7970SOL    HW224810   0.770   2.937   3.237
 7971SOL     OW24811   4.736   1.592   0.960
 7971SOL    HW124812   4.735   1.506   0.909
 7971SOL    HW224813   4.819   1.597   1.016
 7972SOL     OW24814   1.592   3.710   1.683
 7972SOL    HW124815   1.658   3.731   1.611
 7972SOL    HW224816   1.568   3.794   1.732
 7973SOL     OW24817   4.690   4.197   3.311
 7973SOL    HW124818   4.701   4.165   3.217
 7973SOL    HW224819   4.737   4.135   3.373
 7974SOL     OW24820   5.838   0.841   5.229
 7974SOL    HW124821   5.768   0.833   5.158
 7974SOL    HW224822   5.797   0.879   5.312
 7975SOL     OW24823   5.960   0.456   2.951
 7975SOL    HW124824   5.904   0.421   2.876
 7975SOL    HW224825   5.901   0.484   3.026
 7976SOL     OW24826   0.618   0.785   6.480
 7976SOL    HW124827   0.571   0.698   6.497
 7976SOL    HW224828   0.612   0.808   6.383
 7977SOL     OW24829   4.967   5.269   1.415
 7977SOL    HW124830   5.005   5.194   1.469
 7977SOL    HW224831   5.039   5.310   1.359
 7978SOL     OW24832   5.409   3.364   6.453
 7978SOL    HW124833   5.372   3.274   6.473
 7978SOL    HW224834   5.361   3.403   6.374
 7979SOL     OW24835   3.491   0.285   4.925
 7979SOL    HW124836   3.433   0.207   4.950
 7979SOL    HW224837   3.523   0.330   5.008
 7980SOL     OW24838   2.553   5.560   6.864
 7980SOL    HW124839   2.634   5.611   6.832
 7980SOL    HW224840   2.496   5.620   6.919
 7981SOL     OW24841   0.302   5.604   2.039
 7981SOL    HW124842   0.243   5.604   2.120
 7981SOL    HW224843   0.395   5.628   2.065
 7982SOL     OW24844   0.559   1.645   0.637
 7982SOL    HW124845   0.510   1.559   0.621
 7982SOL    HW224846   0.652   1.637   0.603
 7983SOL     OW24847   5.671   1.423   2.662
 7983SOL    HW124848   5.737   1.426   2.587
 7983SOL    HW224849   5.601   1.492   2.647
 7984SOL     OW24850   1.717   1.946   1.610
 7984SOL    HW124851   1.717   1.881   1.686
 7984SOL    HW224852   1.761   1.905   1.531
 7985SOL     OW24853   2.456   6.556   4.014
 7985SOL    HW124854   2.507   6.484   3.968
 7985SOL    HW224855   2.384   6.516   4.069
 7986SOL     OW24856   3.056   0.835   6.745
 7986SOL    HW124857   3.004   0.776   6.807
 7986SOL    HW224858   3.004   0.919   6.726
 7987SOL     OW24859   1.002   3.076   6.929
 7987SOL    HW124860   0.909   3.111   6.922
 7987SOL    HW224861   1.067   3.149   6.908
 7988SOL     OW24862   1.530   1.950   4.018
 7988SOL    HW124863   1.552   2.046   4.034
 7988SOL    HW224864   1.491   1.939   3.926
 7989SOL     OW24865   3.380   2.779   5.500
 7989SOL    HW124866   3.355   2.767   5.404
 7989SOL    HW224867   3.302   2.758   5.558
 7990SOL     OW24868   6.672   3.584   3.669
 7990SOL    HW124869   6.722   3.573   3.584
 7990SOL    HW224870   6.574   3.572   3.653
 7991SOL     OW24871   6.771   0.715   4.216
 7991SOL    HW124872   6.793   0.617   4.220
 7991SOL    HW224873   6.678   0.730   4.249
 7992SOL     OW24874   1.228   6.515   1.011
 7992SOL    HW124875   1.313   6.531   0.961
 7992SOL    HW224876   1.247   6.514   1.109
 7993SOL     OW24877   1.296   5.910   6.555
 7993SOL    HW124878   1.390   5.877   6.569
 7993SOL    HW224879   1.291   6.007   6.580
 7994SOL     OW24880   5.070   0.247   2.804
 7994SOL    HW124881   5.025   0.161   2.827
 7994SOL    HW224882   5.108   0.288   2.888
 7995SOL     OW24883   4.568   5.176   3.602
 7995SOL    HW124884   4.566   5.114   3.681
 7995SOL    HW224885   4.609   5.263   3.630
 7996SOL     OW24886   2.643   0.163   4.645
 7996SOL    HW124887   2.611   0.223   4.571
 7996SOL    HW224888   2.741   0.145   4.634
 7997SOL     OW24889   0.075   1.291   0.988
 7997SOL    HW124890   0.163   1.328   0.957
 7997SOL    HW224891   0.081   1.191   0.992
 7998SOL     OW24892   3.394   5.175   1.137
 7998SOL    HW124893   3.472   5.131   1.093
 7998SOL    HW224894   3.383   5.139   1.230
 7999SOL     OW24895   1.386   0.010   6.137
 7999SOL    HW124896   1.485   0.020   6.153
 7999SOL    HW224897   1.370   6.950   6.083
 8000SOL     OW24898   5.323   0.096   0.326
 8000SOL    HW124899   5.398   0.120   0.387
 8000SOL    HW224900   5.277   0.014   0.360
 8001SOL     OW24901   3.375   5.458   0.964
 8001SOL    HW124902   3.373   5.368   1.007
 8001SOL    HW224903   3.309   5.518   1.009
 8002SOL     OW24904   0.707   2.423   6.032
 8002SOL    HW124905   0.625   2.437   5.977
 8002SOL    HW224906   0.756   2.342   6.001
 8003SOL     OW24907   2.780   4.727   2.855
 8003SOL    HW124908   2.697   4.673   2.855
 8003SOL    HW224909   2.847   4.686   2.917
 8004SOL     OW24910   1.908   3.942   3.495
 8004SOL    HW124911   1.893   3.927   3.593
 8004SOL    HW224912   2.004   3.965   3.480
 8005SOL     OW24913   3.283   1.126   2.888
 8005SOL    HW124914   3.222   1.057   2.850
 8005SOL    HW224915   3.370   1.125   2.838
 8006SOL     OW24916   2.332   6.949   6.609
 8006SOL    HW124917   2.389   6.919   6.532
 8006SOL    HW224918   2.348   0.024   6.625
 8007SOL     OW24919   0.398   0.569   3.995
 8007SOL    HW124920   0.439   0.609   3.913
 8007SOL    HW224921   0.414   0.628   4.073
 8008SOL     OW24922   4.322   6.563   6.145
 8008SOL    HW124923   4.407   6.573   6.196
 8008SOL    HW224924   4.263   6.495   6.190
 8009SOL     OW24925   5.667   0.613   2.890
 8009SOL    HW124926   5.656   0.557   2.972
 8009SOL    HW224927   5.717   0.697   2.913
 8010SOL     OW24928   1.133   1.201   0.601
 8010SOL    HW124929   1.163   1.276   0.542
 8010SOL    HW224930   1.212   1.148   0.631
 8011SOL     OW24931   3.366   2.625   1.219
 8011SOL    HW124932   3.379   2.611   1.317
 8011SOL    HW224933   3.363   2.537   1.173
 8012SOL     OW24934   2.139   5.455   1.650
 8012SOL    HW124935   2.204   5.492   1.584
 8012SOL    HW224936   2.173   5.471   1.743
 8013SOL     OW24937   1.266   4.343   3.522
 8013SOL    HW124938   1.363   4.355   3.499
 8013SOL    HW224939   1.257   4.274   3.594
 8014SOL     OW24940   0.849   6.204   5.411
 8014SOL    HW124941   0.915   6.129   5.424
 8014SOL    HW224942   0.763   6.181   5.456
 8015SOL     OW24943   3.062   1.389   0.164
 8015SOL    HW124944   3.086   1.309   0.217
 8015SOL    HW224945   3.047   1.363   0.068
 8016SOL     OW24946   4.972   6.907   6.861
 8016SOL    HW124947   4.898   6.859   6.907
 8016SOL    HW224948   5.016   6.970   6.925
 8017SOL     OW24949   6.678   6.498   0.341
 8017SOL    HW124950   6.580   6.492   0.325
 8017SOL    HW224951   6.697   6.483   0.438
 8018SOL     OW24952   3.325   2.529   6.142
 8018SOL    HW124953   3.311   2.542   6.044
 8018SOL    HW224954   3.305   2.434   6.166
 8019SOL     OW24955   2.109   3.792   6.751
 8019SOL    HW124956   2.136   3.720   6.688
 8019SOL    HW224957   2.132   3.881   6.712
 8020SOL     OW24958   6.487   6.249   1.121
 8020SOL    HW124959   6.457   6.310   1.048
 8020SOL    HW224960   6.406   6.207   1.164
 8021SOL     OW24961   1.295   1.792   1.565
 8021SOL    HW124962   1.200   1.762   1.552
 8021SOL    HW224963   1.305   1.885   1.530
 8022SOL     OW24964   4.192   0.031   2.833
 8022SOL    HW124965   4.159   7.021   2.744
 8022SOL    HW224966   4.127   0.098   2.869
 8023SOL     OW24967   5.700   5.120   3.403
 8023SOL    HW124968   5.645   5.154   3.479
 8023SOL    HW224969   5.647   5.053   3.351
 8024SOL     OW24970   2.757   4.881   0.278
 8024SOL    HW124971   2.724   4.789   0.300
 8024SOL    HW224972   2.781   4.929   0.362
 8025SOL     OW24973   2.268   6.166   6.175
 8025SOL    HW124974   2.180   6.184   6.130
 8025SOL    HW224975   2.277   6.225   6.255
 8026SOL     OW24976   0.852   4.762   6.426
 8026SOL    HW124977   0.847   4.668   6.462
 8026SOL    HW224978   0.777   4.777   6.362
 8027SOL     OW24979   4.010   2.042   5.264
 8027SOL    HW124980   3.964   2.001   5.185
 8027SOL    HW224981   4.039   1.969   5.327
 8028SOL     OW24982   2.822   4.932   4.986
 8028SOL    HW124983   2.921   4.930   4.970
 8028SOL    HW224984   2.776   4.879   4.915
 8029SOL     OW24985   4.977   3.259   0.499
 8029SOL    HW124986   4.916   3.241   0.422
 8029SOL    HW224987   4.929   3.313   0.568
 8030SOL     OW24988   4.606   4.100   0.278
 8030SOL    HW124989   4.661   4.181   0.298
 8030SOL    HW224990   4.583   4.054   0.364
 8031SOL     OW24991   4.812   6.229   2.967
 8031SOL    HW124992   4.719   6.238   2.931
 8031SOL    HW224993   4.862   6.161   2.912
 8032SOL     OW24994   5.417   4.226   6.063
 8032SOL    HW124995   5.460   4.164   6.128
 8032SOL    HW224996   5.328   4.189   6.036
 8033SOL     OW24997   5.124   3.512   6.590
 8033SOL    HW124998   5.032   3.538   6.560
 8033SOL    HW224999   5.141   3.417   6.566
 8034SOL     OW25000   6.571   1.002   5.233
 8034SOL    HW125001   6.573   1.009   5.333
 8034SOL    HW225002   6.586   0.906   5.206
 8035SOL     OW25003   5.351   1.339   4.663
 8035SOL    HW125004   5.383   1.431   4.639
 8035SOL    HW225005   5.345   1.331   4.762
 8036SOL     OW25006   0.552   4.170   2.720
 8036SOL    HW125007   0.454   4.190   2.714
 8036SOL    HW225008   0.604   4.251   2.692
 8037SOL     OW25009   2.303   2.984   1.662
 8037SOL    HW125010   2.261   3.064   1.704
 8037SOL    HW225011   2.317   2.913   1.731
 8038SOL     OW25012   4.579   1.070   3.294
 8038SOL    HW125013   4.498   1.045   3.240
 8038SOL    HW225014   4.590   1.169   3.293
 8039SOL     OW25015   0.917   1.000   4.193
 8039SOL    HW125016   0.914   0.908   4.232
 8039SOL    HW225017   1.012   1.026   4.176
 8040SOL     OW25018   1.451   6.278   0.842
 8040SOL    HW125019   1.389   6.319   0.775
 8040SOL    HW225020   1.537   6.329   0.843
 8041SOL     OW25021   2.757   1.571   1.932
 8041SOL    HW125022   2.779   1.546   1.838
 8041SOL    HW225023   2.724   1.666   1.934
 8042SOL     OW25024   3.763   2.941   3.688
 8042SOL    HW125025   3.808   2.987   3.765
 8042SOL    HW225026   3.806   2.853   3.673
 8043SOL     OW25027   3.805   0.246   1.902
 8043SOL    HW125028   3.733   0.182   1.878
 8043SOL    HW225029   3.881   0.238   1.838
 8044SOL     OW25030   3.831   3.322   0.559
 8044SOL    HW125031   3.885   3.281   0.632
 8044SOL    HW225032   3.889   3.382   0.504
 8045SOL     OW25033   5.329   0.316   1.441
 8045SOL    HW125034   5.384   0.388   1.484
 8045SOL    HW225035   5.235   0.348   1.430
 8046SOL     OW25036   6.634   5.461   0.447
 8046SOL    HW125037   6.576   5.501   0.376
 8046SOL    HW225038   6.727   5.449   0.411
 8047SOL     OW25039   3.964   5.114   4.331
 8047SOL    HW125040   3.907   5.165   4.396
 8047SOL    HW225041   4.059   5.140   4.342
 8048SOL     OW25042   5.763   0.674   6.089
 8048SOL    HW125043   5.837   0.740   6.075
 8048SOL    HW225044   5.765   0.640   6.183
 8049SOL     OW25045   1.588   0.289   0.685
 8049SOL    HW125046   1.643   0.310   0.765
 8049SOL    HW225047   1.606   0.195   0.656
 8050SOL     OW25048   1.430   3.751   2.161
 8050SOL    HW125049   1.477   3.664   2.176
 8050SOL    HW225050   1.464   3.793   2.077
 8051SOL     OW25051   4.830   5.915   3.061
 8051SOL    HW125052   4.923   5.911   3.097
 8051SOL    HW225053   4.776   5.842   3.102
 8052SOL     OW25054   4.410   1.647   2.343
 8052SOL    HW125055   4.396   1.714   2.271
 8052SOL    HW225056   4.464   1.570   2.308
 8053SOL     OW25057   3.117   3.943   3.397
 8053SOL    HW125058   3.076   3.967   3.309
 8053SOL    HW225059   3.199   3.888   3.382
 8054SOL     OW25060   5.125   6.959   4.426
 8054SOL    HW125061   5.165   6.919   4.508
 8054SOL    HW225062   5.072   6.890   4.377
 8055SOL     OW25063   6.984   0.595   6.158
 8055SOL    HW125064   0.026   0.545   6.216
 8055SOL    HW225065   6.893   0.556   6.170
 8056SOL     OW25066   4.407   1.835   4.261
 8056SOL    HW125067   4.331   1.800   4.207
 8056SOL    HW225068   4.392   1.815   4.358
 8057SOL     OW25069   3.122   2.157   2.929
 8057SOL    HW125070   3.149   2.085   2.865
 8057SOL    HW225071   3.060   2.119   2.998
 8058SOL     OW25072   4.697   0.840   2.557
 8058SOL    HW125073   4.663   0.749   2.580
 8058SOL    HW225074   4.784   0.832   2.509
 8059SOL     OW25075   4.627   2.511   4.834
 8059SOL    HW125076   4.682   2.449   4.778
 8059SOL    HW225077   4.531   2.505   4.806
 8060SOL     OW25078   0.442   2.203   4.347
 8060SOL    HW125079   0.378   2.274   4.318
 8060SOL    HW225080   0.448   2.203   4.447
 8061SOL     OW25081   6.570   0.218   1.743
 8061SOL    HW125082   6.473   0.193   1.734
 8061SOL    HW225083   6.622   0.139   1.775
 8062SOL     OW25084   2.801   5.097   4.363
 8062SOL    HW125085   2.817   5.020   4.425
 8062SOL    HW225086   2.762   5.174   4.413
 8063SOL     OW25087   0.778   2.657   0.733
 8063SOL    HW125088   0.878   2.650   0.731
 8063SOL    HW225089   0.744   2.629   0.823
 8064SOL     OW25090   0.369   5.236   0.976
 8064SOL    HW125091   0.362   5.332   0.946
 8064SOL    HW225092   0.405   5.232   1.069
 8065SOL     OW25093   3.987   6.023   4.294
 8065SOL    HW125094   3.992   5.928   4.323
 8065SOL    HW225095   4.080   6.061   4.291
 8066SOL     OW25096   0.731   2.052   6.137
 8066SOL    HW125097   0.683   1.976   6.092
 8066SOL    HW225098   0.771   2.111   6.067
 8067SOL     OW25099   4.850   3.212   1.666
 8067SOL    HW125100   4.816   3.120   1.647
 8067SOL    HW225101   4.828   3.272   1.589
 8068SOL     OW25102   5.831   4.622   0.439
 8068SOL    HW125103   5.808   4.718   0.423
 8068SOL    HW225104   5.927   4.614   0.465
 8069SOL     OW25105   2.063   5.686   1.369
 8069SOL    HW125106   1.983   5.649   1.417
 8069SOL    HW225107   2.063   5.654   1.274
 8070SOL     OW25108   2.966   2.635   0.032
 8070SOL    HW125109   2.979   2.728   0.066
 8070SOL    HW225110   3.037   2.576   0.072
 8071SOL     OW25111   2.698   6.227   4.984
 8071SOL    HW125112   2.707   6.324   4.961
 8071SOL    HW225113   2.744   6.172   4.914
 8072SOL     OW25114   3.535   0.914   6.760
 8072SOL    HW125115   3.464   0.895   6.828
 8072SOL    HW225116   3.501   0.893   6.669
 8073SOL     OW25117   4.214   5.379   5.924
 8073SOL    HW125118   4.172   5.427   5.847
 8073SOL    HW225119   4.241   5.446   5.994
 8074SOL     OW25120   3.191   2.672   0.395
 8074SOL    HW125121   3.092   2.660   0.389
 8074SOL    HW225122   3.218   2.681   0.491
 8075SOL     OW25123   6.298   1.130   0.843
 8075SOL    HW125124   6.364   1.135   0.768
 8075SOL    HW225125   6.206   1.144   0.806
 8076SOL     OW25126   5.151   2.360   5.242
 8076SOL    HW125127   5.096   2.279   5.261
 8076SOL    HW225128   5.239   2.352   5.288
 8077SOL     OW25129   1.347   5.167   1.928
 8077SOL    HW125130   1.265   5.119   1.961
 8077SOL    HW225131   1.379   5.124   1.844
 8078SOL     OW25132   5.832   1.053   0.727
 8078SOL    HW125133   5.800   1.036   0.820
 8078SOL    HW225134   5.755   1.081   0.670
 8079SOL     OW25135   5.188   1.678   3.568
 8079SOL    HW125136   5.112   1.654   3.507
 8079SOL    HW225137   5.169   1.642   3.660
 8080SOL     OW25138   0.170   3.712   0.389
 8080SOL    HW125139   0.148   3.625   0.435
 8080SOL    HW225140   0.085   3.755   0.358
 8081SOL     OW25141   4.953   6.766   4.347
 8081SOL    HW125142   4.854   6.756   4.354
 8081SOL    HW225143   4.980   6.766   4.251
 8082SOL     OW25144   6.025   0.437   1.860
 8082SOL    HW125145   6.018   0.379   1.942
 8082SOL    HW225146   6.121   0.440   1.830
 8083SOL     OW25147   5.182   3.624   2.647
 8083SOL    HW125148   5.229   3.662   2.567
 8083SOL    HW225149   5.182   3.524   2.642
 8084SOL     OW25150   5.426   6.787   0.447
 8084SOL    HW125151   5.467   6.761   0.534
 8084SOL    HW225152   5.488   6.760   0.372
 8085SOL     OW25153   6.202   0.414   2.839
 8085SOL    HW125154   6.117   0.413   2.891
 8085SOL    HW225155   6.187   0.460   2.751
 8086SOL     OW25156   4.550   1.224   3.838
 8086SOL    HW125157   4.609   1.300   3.811
 8086SOL    HW225158   4.585   1.184   3.923
 8087SOL     OW25159   2.763   1.440   0.690
 8087SOL    HW125160   2.796   1.434   0.784
 8087SOL    HW225161   2.828   1.494   0.635
 8088SOL     OW25162   5.709   2.200   1.414
 8088SOL    HW125163   5.793   2.244   1.382
 8088SOL    HW225164   5.722   2.101   1.415
 8089SOL     OW25165   4.840   2.653   0.440
 8089SOL    HW125166   4.866   2.702   0.523
 8089SOL    HW225167   4.859   2.555   0.453
 8090SOL     OW25168   4.000   2.463   6.720
 8090SOL    HW125169   4.089   2.419   6.718
 8090SOL    HW225170   4.003   2.543   6.779
 8091SOL     OW25171   2.128   4.044   6.671
 8091SOL    HW125172   2.047   4.065   6.616
 8091SOL    HW225173   2.204   4.100   6.639
 8092SOL     OW25174   0.942   2.440   4.830
 8092SOL    HW125175   0.877   2.507   4.864
 8092SOL    HW225176   1.024   2.486   4.795
 8093SOL     OW25177   4.897   5.401   1.694
 8093SOL    HW125178   4.821   5.465   1.701
 8093SOL    HW225179   4.872   5.326   1.633
 8094SOL     OW25180   1.514   4.112   4.434
 8094SOL    HW125181   1.580   4.187   4.427
 8094SOL    HW225182   1.539   4.052   4.509
 8095SOL     OW25183   5.942   4.069   4.225
 8095SOL    HW125184   5.893   4.135   4.169
 8095SOL    HW225185   5.973   3.992   4.168
 8096SOL     OW25186   2.977   5.600   3.733
 8096SOL    HW125187   2.972   5.533   3.658
 8096SOL    HW225188   2.924   5.567   3.811
 8097SOL     OW25189   5.154   6.720   3.300
 8097SOL    HW125190   5.109   6.801   3.337
 8097SOL    HW225191   5.090   6.643   3.300
 8098SOL     OW25192   2.090   6.708   3.672
 8098SOL    HW125193   2.182   6.703   3.712
 8098SOL    HW225194   2.030   6.759   3.734
 8099SOL     OW25195   5.426   6.769   3.899
 8099SOL    HW125196   5.524   6.782   3.914
 8099SOL    HW225197   5.403   6.797   3.806
 8100SOL     OW25198   6.891   7.018   6.703
 8100SOL    HW125199   6.989   7.006   6.687
 8100SOL    HW225200   6.857   6.944   6.761
 8101SOL     OW25201   2.205   0.169   3.709
 8101SOL    HW125202   2.152   0.084   3.718
 8101SOL    HW225203   2.237   0.179   3.615
 8102SOL     OW25204   1.067   5.023   4.508
 8102SOL    HW125205   0.970   5.000   4.516
 8102SOL    HW225206   1.122   4.940   4.510
 8103SOL     OW25207   4.325   0.898   0.686
 8103SOL    HW125208   4.383   0.882   0.606
 8103SOL    HW225209   4.272   0.815   0.705
 8104SOL     OW25210   2.437   6.661   6.046
 8104SOL    HW125211   2.386   6.600   5.986
 8104SOL    HW225212   2.523   6.688   6.002
 8105SOL     OW25213   1.842   2.045   2.962
 8105SOL    HW125214   1.809   1.954   2.938
 8105SOL    HW225215   1.859   2.049   3.060
 8106SOL     OW25216   2.883   5.852   3.125
 8106SOL    HW125217   2.829   5.776   3.089
 8106SOL    HW225218   2.955   5.816   3.184
 8107SOL     OW25219   1.107   5.691   5.021
 8107SOL    HW125220   1.067   5.638   4.946
 8107SOL    HW225221   1.055   5.775   5.033
 8108SOL     OW25222   5.932   3.180   4.842
 8108SOL    HW125223   6.031   3.171   4.849
 8108SOL    HW225224   5.896   3.213   4.929
 8109SOL     OW25225   0.822   3.430   4.159
 8109SOL    HW125226   0.876   3.502   4.116
 8109SOL    HW225227   0.839   3.430   4.257
 8110SOL     OW25228   3.656   6.194   0.733
 8110SOL    HW125229   3.631   6.285   0.768
 8110SOL    HW225230   3.750   6.173   0.758
 8111SOL     OW25231   4.187   0.973   5.190
 8111SOL    HW125232   4.193   1.070   5.212
 8111SOL    HW225233   4.137   0.926   5.263
 8112SOL     OW25234   1.874   1.473   4.385
 8112SOL    HW125235   1.852   1.571   4.379
 8112SOL    HW225236   1.891   1.437   4.294
 8113SOL     OW25237   2.978   3.198   0.475
 8113SOL    HW125238   2.883   3.222   0.497
 8113SOL    HW225239   2.991   3.100   0.486
 8114SOL     OW25240   2.267   3.399   1.535
 8114SOL    HW125241   2.343   3.335   1.544
 8114SOL    HW225242   2.185   3.349   1.504
 8115SOL     OW25243   4.077   0.909   1.766
 8115SOL    HW125244   3.989   0.868   1.741
 8115SOL    HW225245   4.061   0.991   1.821
 8116SOL     OW25246   5.076   0.037   5.091
 8116SOL    HW125247   5.142   0.019   5.018
 8116SOL    HW225248   5.025   0.120   5.070
 8117SOL     OW25249   2.422   1.052   4.321
 8117SOL    HW125250   2.475   1.116   4.265
 8117SOL    HW225251   2.459   1.049   4.414
 8118SOL     OW25252   6.639   3.134   5.669
 8118SOL    HW125253   6.621   3.161   5.764
 8118SOL    HW225254   6.675   3.041   5.667
 8119SOL     OW25255   6.523   5.901   5.026
 8119SOL    HW125256   6.496   5.998   5.028
 8119SOL    HW225257   6.561   5.876   5.114
 8120SOL     OW25258   3.258   4.651   6.984
 8120SOL    HW125259   3.285   4.736   6.938
 8120SOL    HW225260   3.204   4.595   6.921
 8121SOL     OW25261   6.701   5.553   2.353
 8121SOL    HW125262   6.776   5.525   2.293
 8121SOL    HW225263   6.733   5.627   2.413
 8122SOL     OW25264   1.041   5.848   2.947
 8122SOL    HW125265   0.962   5.904   2.921
 8122SOL    HW225266   1.063   5.864   3.043
 8123SOL     OW25267   0.132   7.004   6.630
 8123SOL    HW125268   0.200   0.035   6.681
 8123SOL    HW225269   0.176   6.963   6.550
 8124SOL     OW25270   0.098   6.503   1.328
 8124SOL    HW125271   0.154   6.520   1.409
 8124SOL    HW225272   0.136   6.552   1.250
 8125SOL     OW25273   0.741   6.903   3.349
 8125SOL    HW125274   0.710   6.858   3.433
 8125SOL    HW225275   0.769   6.997   3.370
 8126SOL     OW25276   6.197   3.948   2.328
 8126SOL    HW125277   6.265   3.884   2.292
 8126SOL    HW225278   6.148   3.991   2.252
 8127SOL     OW25279   2.441   5.998   0.714
 8127SOL    HW125280   2.538   5.998   0.736
 8127SOL    HW225281   2.406   5.904   0.717
 8128SOL     OW25282   2.558   3.089   0.702
 8128SOL    HW125283   2.619   3.015   0.676
 8128SOL    HW225284   2.476   3.086   0.644
 8129SOL     OW25285   4.103   0.891   5.430
 8129SOL    HW125286   4.056   0.811   5.469
 8129SOL    HW225287   4.124   0.956   5.503
 8130SOL     OW25288   0.308   4.750   6.184
 8130SOL    HW125289   0.284   4.831   6.237
 8130SOL    HW225290   0.226   4.698   6.162
 8131SOL     OW25291   3.342   0.711   0.663
 8131SOL    HW125292   3.282   0.725   0.743
 8131SOL    HW225293   3.420   0.773   0.670
 8132SOL     OW25294   5.907   6.385   6.938
 8132SOL    HW125295   5.885   6.311   6.875
 8132SOL    HW225296   5.998   6.421   6.917
 8133SOL     OW25297   3.542   5.039   1.920
 8133SOL    HW125298   3.577   4.946   1.929
 8133SOL    HW225299   3.467   5.039   1.855
 8134SOL     OW25300   0.910   1.548   4.377
 8134SOL    HW125301   0.943   1.454   4.393
 8134SOL    HW225302   0.893   1.560   4.279
 8135SOL     OW25303   2.290   5.573   1.321
 8135SOL    HW125304   2.333   5.541   1.405
 8135SOL    HW225305   2.225   5.646   1.341
 8136SOL     OW25306   4.835   4.393   2.691
 8136SOL    HW125307   4.771   4.391   2.614
 8136SOL    HW225308   4.787   4.426   2.772
 8137SOL     OW25309   2.477   1.551   4.207
 8137SOL    HW125310   2.404   1.483   4.206
 8137SOL    HW225311   2.464   1.614   4.130
 8138SOL     OW25312   5.594   2.183   0.633
 8138SOL    HW125313   5.536   2.114   0.675
 8138SOL    HW225314   5.608   2.161   0.536
 8139SOL     OW25315   1.823   2.322   3.511
 8139SOL    HW125316   1.764   2.357   3.584
 8139SOL    HW225317   1.775   2.252   3.459
 8140SOL     OW25318   3.718   6.843   0.623
 8140SOL    HW125319   3.782   6.772   0.594
 8140SOL    HW225320   3.662   6.871   0.545
 8141SOL     OW25321   4.273   6.971   5.805
 8141SOL    HW125322   4.313   6.886   5.771
 8141SOL    HW225323   4.281   6.974   5.905
 8142SOL     OW25324   1.679   5.075   0.269
 8142SOL    HW125325   1.715   4.982   0.259
 8142SOL    HW225326   1.593   5.083   0.220
 8143SOL     OW25327   5.746   5.047   0.813
 8143SOL    HW125328   5.708   5.116   0.752
 8143SOL    HW225329   5.736   4.957   0.770
 8144SOL     OW25330   0.772   5.665   5.963
 8144SOL    HW125331   0.850   5.724   5.984
 8144SOL    HW225332   0.690   5.720   5.953
 8145SOL     OW25333   5.464   5.544   0.729
 8145SOL    HW125334   5.421   5.484   0.796
 8145SOL    HW225335   5.395   5.599   0.683
 8146SOL     OW25336   5.761   0.515   5.268
 8146SOL    HW125337   5.847   0.556   5.298
 8146SOL    HW225338   5.689   0.585   5.270
 8147SOL     OW25339   6.256   0.692   0.718
 8147SOL    HW125340   6.322   0.737   0.779
 8147SOL    HW225341   6.276   0.719   0.623
 8148SOL     OW25342   4.672   5.123   6.925
 8148SOL    HW125343   4.772   5.120   6.927
 8148SOL    HW225344   4.638   5.170   7.007
 8149SOL     OW25345   1.558   6.719   2.985
 8149SOL    HW125346   1.619   6.768   3.048
 8149SOL    HW225347   1.599   6.717   2.894
 8150SOL     OW25348   1.030   3.880   0.694
 8150SOL    HW125349   1.097   3.953   0.694
 8150SOL    HW225350   1.066   3.802   0.745
 8151SOL     OW25351   5.594   5.174   3.650
 8151SOL    HW125352   5.528   5.244   3.679
 8151SOL    HW225353   5.644   5.140   3.729
 8152SOL     OW25354   6.482   3.425   3.172
 8152SOL    HW125355   6.478   3.331   3.136
 8152SOL    HW225356   6.529   3.425   3.260
 8153SOL     OW25357   1.121   1.181   3.464
 8153SOL    HW125358   1.058   1.123   3.412
 8153SOL    HW225359   1.127   1.271   3.421
 8154SOL     OW25360   3.785   6.793   2.906
 8154SOL    HW125361   3.755   6.697   2.914
 8154SOL    HW225362   3.883   6.795   2.886
 8155SOL     OW25363   1.660   4.019   2.123
 8155SOL    HW125364   1.692   3.925   2.107
 8155SOL    HW225365   1.607   4.022   2.208
 8156SOL     OW25366   4.449   6.297   0.510
 8156SOL    HW125367   4.431   6.215   0.455
 8156SOL    HW225368   4.373   6.361   0.501
 8157SOL     OW25369   6.475   4.887   6.109
 8157SOL    HW125370   6.455   4.984   6.097
 8157SOL    HW225371   6.389   4.836   6.114
 8158SOL     OW25372   5.373   4.202   0.027
 8158SOL    HW125373   5.395   4.106   0.044
 8158SOL    HW225374   5.277   4.219   0.048
 8159SOL     OW25375   3.242   5.649   4.184
 8159SOL    HW125376   3.195   5.729   4.147
 8159SOL    HW225377   3.338   5.671   4.199
 8160SOL     OW25378   4.677   0.115   3.460
 8160SOL    HW125379   4.636   0.031   3.424
 8160SOL    HW225380   4.750   0.092   3.524
 8161SOL     OW25381   5.600   3.740   6.250
 8161SOL    HW125382   5.682   3.696   6.215
 8161SOL    HW225383   5.597   3.732   6.349
 8162SOL     OW25384   6.853   5.955   6.656
 8162SOL    HW125385   6.795   5.984   6.580
 8162SOL    HW225386   6.799   5.951   6.740
 8163SOL     OW25387   2.153   4.329   5.441
 8163SOL    HW125388   2.126   4.262   5.372
 8163SOL    HW225389   2.079   4.395   5.454
 8164SOL     OW25390   4.547   1.038   0.490
 8164SOL    HW125391   4.627   1.071   0.440
 8164SOL    HW225392   4.519   1.106   0.556
 8165SOL     OW25393   6.474   3.904   6.029
 8165SOL    HW125394   6.444   3.994   6.000
 8165SOL    HW225395   6.436   3.834   5.968
 8166SOL     OW25396   1.430   0.385   3.190
 8166SOL    HW125397   1.512   0.389   3.134
 8166SOL    HW225398   1.455   0.387   3.287
 8167SOL     OW25399   0.226   0.726   3.317
 8167SOL    HW125400   0.304   0.674   3.282
 8167SOL    HW225401   0.258   0.807   3.365
 8168SOL     OW25402   2.707   0.834   1.439
 8168SOL    HW125403   2.744   0.915   1.392
 8168SOL    HW225404   2.767   0.810   1.515
 8169SOL     OW25405   4.845   2.081   0.419
 8169SOL    HW125406   4.791   2.051   0.498
 8169SOL    HW225407   4.942   2.082   0.444
 8170SOL     OW25408   0.367   4.798   1.757
 8170SOL    HW125409   0.424   4.876   1.732
 8170SOL    HW225410   0.281   4.831   1.795
 8171SOL     OW25411   2.243   1.667   6.510
 8171SOL    HW125412   2.255   1.571   6.488
 8171SOL    HW225413   2.328   1.703   6.547
 8172SOL     OW25414   6.842   2.016   1.932
 8172SOL    HW125415   6.836   2.115   1.944
 8172SOL    HW225416   6.914   1.994   1.866
 8173SOL     OW25417   5.387   2.305   2.441
 8173SOL    HW125418   5.312   2.332   2.381
 8173SOL    HW225419   5.421   2.215   2.414
 8174SOL     OW25420   0.525   0.001   2.471
 8174SOL    HW125421   0.463   0.074   2.499
 8174SOL    HW225422   0.493   6.984   2.385
 8175SOL     OW25423   0.156   2.920   4.749
 8175SOL    HW125424   0.077   2.977   4.769
 8175SOL    HW225425   0.238   2.961   4.789
 8176SOL     OW25426   2.543   4.625   1.186
 8176SOL    HW125427   2.565   4.603   1.281
 8176SOL    HW225428   2.450   4.595   1.166
 8177SOL     OW25429   4.845   0.855   3.703
 8177SOL    HW125430   4.898   0.823   3.625
 8177SOL    HW225431   4.791   0.780   3.740
 8178SOL     OW25432   2.954   6.915   0.864
 8178SOL    HW125433   2.910   6.850   0.926
 8178SOL    HW225434   3.030   6.869   0.817
 8179SOL     OW25435   5.215   1.239   5.227
 8179SOL    HW125436   5.226   1.143   5.252
 8179SOL    HW225437   5.262   1.296   5.295
 8180SOL     OW25438   6.371   0.970   6.110
 8180SOL    HW125439   6.300   0.899   6.113
 8180SOL    HW225440   6.459   0.931   6.137
 8181SOL     OW25441   1.490   1.418   0.640
 8181SOL    HW125442   1.444   1.365   0.711
 8181SOL    HW225443   1.588   1.423   0.659
 8182SOL     OW25444   2.805   3.329   5.730
 8182SOL    HW125445   2.837   3.266   5.801
 8182SOL    HW225446   2.879   3.389   5.702
 8183SOL     OW25447   6.837   2.366   4.619
 8183SOL    HW125448   6.758   2.317   4.655
 8183SOL    HW225449   6.834   2.365   4.519
 8184SOL     OW25450   0.520   0.186   0.582
 8184SOL    HW125451   0.528   0.277   0.622
 8184SOL    HW225452   0.474   0.125   0.647
 8185SOL     OW25453   1.586   0.310   0.113
 8185SOL    HW125454   1.562   0.362   0.031
 8185SOL    HW225455   1.673   0.342   0.149
 8186SOL     OW25456   2.666   4.655   5.762
 8186SOL    HW125457   2.586   4.597   5.781
 8186SOL    HW225458   2.696   4.698   5.847
 8187SOL     OW25459   1.940   1.310   5.204
 8187SOL    HW125460   2.027   1.267   5.179
 8187SOL    HW225461   1.877   1.239   5.236
 8188SOL     OW25462   5.038   3.291   3.768
 8188SOL    HW125463   4.988   3.300   3.682
 8188SOL    HW225464   5.012   3.205   3.813
 8189SOL     OW25465   5.605   5.169   2.893
 8189SOL    HW125466   5.554   5.158   2.808
 8189SOL    HW225467   5.675   5.099   2.899
 8190SOL     OW25468   4.854   3.869   4.158
 8190SOL    HW125469   4.814   3.960   4.147
 8190SOL    HW225470   4.896   3.840   4.072
 8191SOL     OW25471   3.542   5.624   2.263
 8191SOL    HW125472   3.532   5.644   2.360
 8191SOL    HW225473   3.454   5.637   2.217
 8192SOL     OW25474   2.220   5.231   1.525
 8192SOL    HW125475   2.212   5.311   1.585
 8192SOL    HW225476   2.128   5.201   1.498
 8193SOL     OW25477   6.171   5.223   5.552
 8193SOL    HW125478   6.123   5.136   5.551
 8193SOL    HW225479   6.200   5.247   5.459
 8194SOL     OW25480   5.110   0.482   1.258
 8194SOL    HW125481   5.096   0.525   1.347
 8194SOL    HW225482   5.032   0.424   1.236
 8195SOL     OW25483   0.212   6.806   3.050
 8195SOL    HW125484   0.138   6.739   3.055
 8195SOL    HW225485   0.175   6.898   3.065
 8196SOL     OW25486   4.009   6.255   6.562
 8196SOL    HW125487   4.040   6.345   6.593
 8196SOL    HW225488   3.918   6.264   6.521
 8197SOL     OW25489   3.429   0.943   0.320
 8197SOL    HW125490   3.478   0.989   0.245
 8197SOL    HW225491   3.479   0.958   0.406
 8198SOL     OW25492   3.367   6.227   2.514
 8198SOL    HW125493   3.457   6.226   2.558
 8198SOL    HW225494   3.309   6.296   2.558
 8199SOL     OW25495   6.079   2.535   5.943
 8199SOL    HW125496   6.038   2.582   5.865
 8199SOL    HW225497   6.014   2.534   6.019
 8200SOL     OW25498   5.813   4.665   1.732
 8200SOL    HW125499   5.856   4.745   1.690
 8200SOL    HW225500   5.747   4.695   1.801
 8201SOL     OW25501   5.929   1.167   4.784
 8201SOL    HW125502   5.939   1.236   4.712
 8201SOL    HW225503   5.924   1.212   4.873
 8202SOL     OW25504   0.435   5.468   3.797
 8202SOL    HW125505   0.427   5.463   3.697
 8202SOL    HW225506   0.358   5.418   3.839
 8203SOL     OW25507   3.214   2.373   6.913
 8203SOL    HW125508   3.246   2.309   6.843
 8203SOL    HW225509   3.133   2.421   6.880
 8204SOL     OW25510   3.648   4.700   6.964
 8204SOL    HW125511   3.736   4.661   6.937
 8204SOL    HW225512   3.582   4.626   6.979
 8205SOL     OW25513   0.372   4.639   7.013
 8205SOL    HW125514   0.302   4.698   6.973
 8205SOL    HW225515   0.347   4.543   6.998
 8206SOL     OW25516   5.179   1.584   6.644
 8206SOL    HW125517   5.275   1.558   6.641
 8206SOL    HW225518   5.170   1.682   6.626
 8207SOL     OW25519   3.006   3.199   4.476
 8207SOL    HW125520   3.008   3.276   4.412
 8207SOL    HW225521   3.049   3.119   4.434
 8208SOL     OW25522   1.041   0.528   1.273
 8208SOL    HW125523   1.025   0.494   1.366
 8208SOL    HW225524   0.981   0.481   1.209
 8209SOL     OW25525   0.227   1.653   5.227
 8209SOL    HW125526   0.239   1.704   5.142
 8209SOL    HW225527   0.313   1.608   5.251
 8210SOL     OW25528   2.195   1.449   0.317
 8210SOL    HW125529   2.226   1.464   0.223
 8210SOL    HW225530   2.250   1.377   0.359
 8211SOL     OW25531   3.879   3.979   1.718
 8211SOL    HW125532   3.930   3.950   1.798
 8211SOL    HW225533   3.781   3.985   1.740
 8212SOL     OW25534   2.199   2.528   2.228
 8212SOL    HW125535   2.242   2.478   2.302
 8212SOL    HW225536   2.102   2.505   2.224
 8213SOL     OW25537   6.537   4.250   1.425
 8213SOL    HW125538   6.514   4.152   1.432
 8213SOL    HW225539   6.475   4.294   1.359
 8214SOL     OW25540   5.745   5.737   3.868
 8214SOL    HW125541   5.781   5.705   3.956
 8214SOL    HW225542   5.676   5.674   3.834
 8215SOL     OW25543   2.866   5.339   6.074
 8215SOL    HW125544   2.962   5.338   6.104
 8215SOL    HW225545   2.843   5.430   6.041
 8216SOL     OW25546   5.252   5.249   3.972
 8216SOL    HW125547   5.348   5.272   3.985
 8216SOL    HW225548   5.226   5.176   4.035
 8217SOL     OW25549   1.363   4.457   0.408
 8217SOL    HW125550   1.276   4.504   0.422
 8217SOL    HW225551   1.427   4.519   0.363
 8218SOL     OW25552   0.431   6.850   6.387
 8218SOL    HW125553   0.506   6.856   6.321
 8218SOL    HW225554   0.362   6.919   6.365
 8219SOL     OW25555   4.586   2.400   0.813
 8219SOL    HW125556   4.488   2.414   0.812
 8219SOL    HW225557   4.605   2.302   0.819
 8220SOL     OW25558   3.532   2.852   3.348
 8220SOL    HW125559   3.510   2.922   3.416
 8220SOL    HW225560   3.476   2.771   3.364
 8221SOL     OW25561   5.307   6.750   3.596
 8221SOL    HW125562   5.211   6.731   3.615
 8221SOL    HW225563   5.348   6.670   3.552
 8222SOL     OW25564   5.584   1.309   1.393
 8222SOL    HW125565   5.667   1.326   1.447
 8222SOL    HW225566   5.580   1.373   1.317
 8223SOL     OW25567   0.925   4.870   5.418
 8223SOL    HW125568   0.871   4.940   5.463
 8223SOL    HW225569   0.938   4.792   5.479
 8224SOL     OW25570   6.101   0.949   2.759
 8224SOL    HW125571   6.146   1.030   2.796
 8224SOL    HW225572   6.170   0.884   2.728
 8225SOL     OW25573   3.418   1.631   0.686
 8225SOL    HW125574   3.443   1.545   0.642
 8225SOL    HW225575   3.498   1.692   0.689
 8226SOL     OW25576   3.973   0.197   0.919
 8226SOL    HW125577   3.920   0.144   0.852
 8226SOL    HW225578   4.070   0.176   0.908
 8227SOL     OW25579   6.528   1.433   2.711
 8227SOL    HW125580   6.553   1.361   2.775
 8227SOL    HW225581   6.583   1.425   2.628
 8228SOL     OW25582   6.756   2.091   5.808
 8228SOL    HW125583   6.707   2.178   5.810
 8228SOL    HW225584   6.833   2.095   5.872
 8229SOL     OW25585   4.480   2.714   0.858
 8229SOL    HW125586   4.530   2.694   0.943
 8229SOL    HW225587   4.415   2.640   0.840
 8230SOL     OW25588   4.235   0.271   5.452
 8230SOL    HW125589   4.284   0.184   5.448
 8230SOL    HW225590   4.141   0.259   5.419
 8231SOL     OW25591   3.188   4.562   0.802
 8231SOL    HW125592   3.163   4.475   0.761
 8231SOL    HW225593   3.139   4.573   0.889
 8232SOL     OW25594   5.024   1.348   1.899
 8232SOL    HW125595   5.015   1.429   1.956
 8232SOL    HW225596   4.933   1.316   1.872
 8233SOL     OW25597   1.570   5.721   6.370
 8233SOL    HW125598   1.504   5.651   6.397
 8233SOL    HW225599   1.654   5.676   6.337
 8234SOL     OW25600   2.596   4.127   6.759
 8234SOL    HW125601   2.570   4.178   6.841
 8234SOL    HW225602   2.589   4.029   6.777
 8235SOL     OW25603   0.539   3.173   0.079
 8235SOL    HW125604   0.503   3.079   0.079
 8235SOL    HW225605   0.464   3.238   0.066
 8236SOL     OW25606   0.831   4.773   0.724
 8236SOL    HW125607   0.895   4.791   0.798
 8236SOL    HW225608   0.751   4.833   0.733
 8237SOL     OW25609   4.014   6.819   4.235
 8237SOL    HW125610   3.979   6.913   4.231
 8237SOL    HW225611   4.103   6.815   4.191
 8238SOL     OW25612   0.580   5.169   6.121
 8238SOL    HW125613   0.653   5.191   6.186
 8238SOL    HW225614   0.592   5.076   6.088
 8239SOL     OW25615   6.423   1.706   6.035
 8239SOL    HW125616   6.389   1.614   6.052
 8239SOL    HW225617   6.522   1.705   6.023
 8240SOL     OW25618   3.622   4.057   2.634
 8240SOL    HW125619   3.553   4.110   2.684
 8240SOL    HW225620   3.661   3.988   2.695
 8241SOL     OW25621   3.981   0.171   5.917
 8241SOL    HW125622   4.033   0.093   5.952
 8241SOL    HW225623   4.037   0.254   5.922
 8242SOL     OW25624   0.530   4.992   5.426
 8242SOL    HW125625   0.554   5.048   5.346
 8242SOL    HW225626   0.434   4.964   5.418
 8243SOL     OW25627   0.559   2.547   0.405
 8243SOL    HW125628   0.647   2.587   0.430
 8243SOL    HW225629   0.573   2.457   0.364
 8244SOL     OW25630   0.513   0.870   4.889
 8244SOL    HW125631   0.586   0.861   4.822
 8244SOL    HW225632   0.449   0.793   4.879
 8245SOL     OW25633   4.243   1.999   2.761
 8245SOL    HW125634   4.296   1.927   2.717
 8245SOL    HW225635   4.304   2.072   2.791
 8246SOL     OW25636   1.074   2.948   5.857
 8246SOL    HW125637   1.006   3.020   5.870
 8246SOL    HW225638   1.064   2.909   5.765
 8247SOL     OW25639   1.883   0.594   2.492
 8247SOL    HW125640   1.875   0.694   2.485
 8247SOL    HW225641   1.824   0.552   2.423
 8248SOL     OW25642   6.173   5.423   4.928
 8248SOL    HW125643   6.251   5.367   4.899
 8248SOL    HW225644   6.132   5.383   5.010
 8249SOL     OW25645   1.635   2.711   5.582
 8249SOL    HW125646   1.563   2.742   5.644
 8249SOL    HW225647   1.659   2.617   5.604
 8250SOL     OW25648   3.418   3.980   2.044
 8250SOL    HW125649   3.466   4.052   2.093
 8250SOL    HW225650   3.411   3.899   2.103
 8251SOL     OW25651   5.452   3.825   4.375
 8251SOL    HW125652   5.489   3.755   4.314
 8251SOL    HW225653   5.415   3.781   4.458
 8252SOL     OW25654   2.834   1.581   5.131
 8252SOL    HW125655   2.879   1.495   5.160
 8252SOL    HW225656   2.771   1.562   5.056
 8253SOL     OW25657   4.025   4.930   5.676
 8253SOL    HW125658   3.973   4.986   5.612
 8253SOL    HW225659   3.982   4.840   5.683
 8254SOL     OW25660   4.514   4.376   5.276
 8254SOL    HW125661   4.496   4.315   5.353
 8254SOL    HW225662   4.605   4.357   5.240
 8255SOL     OW25663   2.233   0.153   5.223
 8255SOL    HW125664   2.239   0.143   5.123
 8255SOL    HW225665   2.322   0.179   5.259
 8256SOL     OW25666   6.800   6.785   2.251
 8256SOL    HW125667   6.851   6.866   2.281
 8256SOL    HW225668   6.775   6.797   2.155
 8257SOL     OW25669   5.406   4.051   2.966
 8257SOL    HW125670   5.367   3.969   2.922
 8257SOL    HW225671   5.370   4.059   3.059
 8258SOL     OW25672   5.631   1.864   0.902
 8258SOL    HW125673   5.705   1.871   0.835
 8258SOL    HW225674   5.640   1.778   0.952
 8259SOL     OW25675   3.749   1.508   4.173
 8259SOL    HW125676   3.655   1.520   4.205
 8259SOL    HW225677   3.751   1.509   4.073
 8260SOL     OW25678   2.472   6.436   1.322
 8260SOL    HW125679   2.502   6.440   1.417
 8260SOL    HW225680   2.376   6.409   1.319
 8261SOL     OW25681   6.451   6.882   2.271
 8261SOL    HW125682   6.497   6.811   2.324
 8261SOL    HW225683   6.440   6.850   2.176
 8262SOL     OW25684   0.550   3.290   0.530
 8262SOL    HW125685   0.584   3.196   0.534
 8262SOL    HW225686   0.461   3.295   0.576
 8263SOL     OW25687   0.731   2.626   6.429
 8263SOL    HW125688   0.698   2.667   6.344
 8263SOL    HW225689   0.654   2.600   6.487
 8264SOL     OW25690   2.413   6.297   2.104
 8264SOL    HW125691   2.489   6.267   2.047
 8264SOL    HW225692   2.444   6.368   2.167
 8265SOL     OW25693   6.816   0.685   1.252
 8265SOL    HW125694   6.887   0.749   1.281
 8265SOL    HW225695   6.853   0.592   1.250
 8266SOL     OW25696   2.318   1.164   3.634
 8266SOL    HW125697   2.369   1.234   3.584
 8266SOL    HW225698   2.230   1.202   3.663
 8267SOL     OW25699   2.052   2.625   1.100
 8267SOL    HW125700   2.095   2.579   1.023
 8267SOL    HW225701   2.114   2.695   1.136
 8268SOL     OW25702   1.791   6.514   5.980
 8268SOL    HW125703   1.811   6.538   6.075
 8268SOL    HW225704   1.737   6.586   5.938
 8269SOL     OW25705   4.286   1.413   2.467
 8269SOL    HW125706   4.340   1.405   2.551
 8269SOL    HW225707   4.276   1.509   2.442
 8270SOL     OW25708   2.764   6.546   4.979
 8270SOL    HW125709   2.685   6.540   5.040
 8270SOL    HW225710   2.848   6.548   5.034
 8271SOL     OW25711   0.346   0.290   3.202
 8271SOL    HW125712   0.397   0.204   3.210
 8271SOL    HW225713   0.380   0.355   3.269
 8272SOL     OW25714   6.020   2.135   2.488
 8272SOL    HW125715   6.046   2.105   2.397
 8272SOL    HW225716   5.957   2.213   2.481
 8273SOL     OW25717   2.630   1.239   6.693
 8273SOL    HW125718   2.628   1.249   6.793
 8273SOL    HW225719   2.716   1.197   6.666
 8274SOL     OW25720   5.355   4.802   4.466
 8274SOL    HW125721   5.278   4.819   4.404
 8274SOL    HW225722   5.386   4.708   4.455
 8275SOL     OW25723   5.942   1.320   5.877
 8275SOL    HW125724   5.941   1.373   5.792
 8275SOL    HW225725   5.989   1.373   5.948
 8276SOL     OW25726   0.519   2.669   3.330
 8276SOL    HW125727   0.475   2.679   3.240
 8276SOL    HW225728   0.618   2.666   3.318
 8277SOL     OW25729   0.314   5.883   6.125
 8277SOL    HW125730   0.298   5.974   6.088
 8277SOL    HW225731   0.227   5.843   6.155
 8278SOL     OW25732   3.122   1.553   5.980
 8278SOL    HW125733   3.137   1.651   5.971
 8278SOL    HW225734   3.210   1.507   5.993
 8279SOL     OW25735   1.306   6.549   4.509
 8279SOL    HW125736   1.372   6.549   4.584
 8279SOL    HW225737   1.274   6.643   4.493
 8280SOL     OW25738   2.322   3.332   0.613
 8280SOL    HW125739   2.308   3.431   0.607
 8280SOL    HW225740   2.235   3.288   0.632
 8281SOL     OW25741   3.065   4.232   1.786
 8281SOL    HW125742   3.075   4.175   1.867
 8281SOL    HW225743   3.017   4.316   1.811
 8282SOL     OW25744   5.137   3.337   0.101
 8282SOL    HW125745   5.183   3.384   0.176
 8282SOL    HW225746   5.177   3.246   0.089
 8283SOL     OW25747   2.007   5.389   5.667
 8283SOL    HW125748   1.922   5.336   5.670
 8283SOL    HW225749   2.084   5.327   5.657
 8284SOL     OW25750   0.893   3.628   1.031
 8284SOL    HW125751   0.983   3.585   1.042
 8284SOL    HW225752   0.876   3.644   0.934
 8285SOL     OW25753   3.183   4.049   5.047
 8285SOL    HW125754   3.196   3.951   5.032
 8285SOL    HW225755   3.085   4.070   5.050
 8286SOL     OW25756   5.668   1.995   6.179
 8286SOL    HW125757   5.669   1.947   6.266
 8286SOL    HW225758   5.583   2.047   6.171
 8287SOL     OW25759   1.463   5.765   4.280
 8287SOL    HW125760   1.548   5.738   4.326
 8287SOL    HW225761   1.468   5.740   4.184
 8288SOL     OW25762   3.043   2.117   1.944
 8288SOL    HW125763   3.139   2.145   1.950
 8288SOL    HW225764   2.985   2.189   1.981
 8289SOL     OW25765   0.882   6.128   0.522
 8289SOL    HW125766   0.827   6.045   0.524
 8289SOL    HW225767   0.828   6.204   0.486
 8290SOL     OW25768   5.418   1.609   1.407
 8290SOL    HW125769   5.397   1.704   1.383
 8290SOL    HW225770   5.493   1.607   1.473
 8291SOL     OW25771   5.241   6.248   4.641
 8291SOL    HW125772   5.166   6.283   4.584
 8291SOL    HW225773   5.247   6.301   4.725
 8292SOL     OW25774   2.793   6.750   6.829
 8292SOL    HW125775   2.803   6.668   6.885
 8292SOL    HW225776   2.863   6.750   6.757
 8293SOL     OW25777   2.794   5.471   0.565
 8293SOL    HW125778   2.724   5.538   0.590
 8293SOL    HW225779   2.881   5.498   0.605
 8294SOL     OW25780   5.832   3.467   5.254
 8294SOL    HW125781   5.756   3.440   5.312
 8294SOL    HW225782   5.881   3.543   5.296
 8295SOL     OW25783   4.989   5.658   2.081
 8295SOL    HW125784   5.028   5.735   2.030
 8295SOL    HW225785   4.998   5.574   2.026
 8296SOL     OW25786   1.417   4.513   6.887
 8296SOL    HW125787   1.486   4.488   6.818
 8296SOL    HW225788   1.411   4.613   6.892
 8297SOL     OW25789   0.153   3.143   2.694
 8297SOL    HW125790   0.161   3.129   2.793
 8297SOL    HW225791   0.222   3.088   2.647
 8298SOL     OW25792   6.240   1.384   1.800
 8298SOL    HW125793   6.223   1.409   1.705
 8298SOL    HW225794   6.337   1.394   1.820
 8299SOL     OW25795   6.476   2.264   2.184
 8299SOL    HW125796   6.562   2.223   2.212
 8299SOL    HW225797   6.404   2.238   2.249
 8300SOL     OW25798   0.457   5.703   4.707
 8300SOL    HW125799   0.482   5.736   4.615
 8300SOL    HW225800   0.396   5.768   4.750
 8301SOL     OW25801   3.635   1.796   1.233
 8301SOL    HW125802   3.682   1.801   1.321
 8301SOL    HW225803   3.568   1.721   1.236
 8302SOL     OW25804   5.841   0.187   6.728
 8302SOL    HW125805   5.847   0.110   6.663
 8302SOL    HW225806   5.870   0.156   6.818
 8303SOL     OW25807   6.573   1.167   3.545
 8303SOL    HW125808   6.498   1.200   3.488
 8303SOL    HW225809   6.645   1.128   3.488
 8304SOL     OW25810   6.823   3.232   0.969
 8304SOL    HW125811   6.894   3.170   1.001
 8304SOL    HW225812   6.857   3.326   0.970
 8305SOL     OW25813   4.679   4.981   4.065
 8305SOL    HW125814   4.629   5.005   4.148
 8305SOL    HW225815   4.778   4.983   4.084
 8306SOL     OW25816   5.873   1.964   5.784
 8306SOL    HW125817   5.828   1.910   5.855
 8306SOL    HW225818   5.966   1.986   5.813
 8307SOL     OW25819   3.498   5.620   1.690
 8307SOL    HW125820   3.521   5.655   1.599
 8307SOL    HW225821   3.551   5.537   1.708
 8308SOL     OW25822   3.374   5.324   1.727
 8308SOL    HW125823   3.353   5.227   1.716
 8308SOL    HW225824   3.465   5.343   1.690
 8309SOL     OW25825   6.556   5.371   3.775
 8309SOL    HW125826   6.474   5.408   3.733
 8309SOL    HW225827   6.568   5.411   3.866
 8310SOL     OW25828   7.006   5.342   0.847
 8310SOL    HW125829   6.957   5.424   0.877
 8310SOL    HW225830   6.963   5.261   0.886
 8311SOL     OW25831   0.999   1.732   4.540
 8311SOL    HW125832   0.981   1.825   4.508
 8311SOL    HW225833   0.946   1.667   4.486
 8312SOL     OW25834   5.052   0.452   0.072
 8312SOL    HW125835   5.042   0.524   0.140
 8312SOL    HW225836   5.099   0.374   0.113
 8313SOL     OW25837   5.450   0.023   0.697
 8313SOL    HW125838   5.475   0.052   0.605
 8313SOL    HW225839   5.392   0.092   0.740
 8314SOL     OW25840   5.374   0.551   0.213
 8314SOL    HW125841   5.322   0.484   0.161
 8314SOL    HW225842   5.344   0.550   0.308
 8315SOL     OW25843   4.236   2.999   1.554
 8315SOL    HW125844   4.321   2.979   1.604
 8315SOL    HW225845   4.233   2.943   1.471
 8316SOL     OW25846   1.401   2.232   1.226
 8316SOL    HW125847   1.389   2.191   1.317
 8316SOL    HW225848   1.495   2.264   1.216
 8317SOL     OW25849   1.814   2.928   2.179
 8317SOL    HW125850   1.716   2.918   2.198
 8317SOL    HW225851   1.867   2.876   2.246
 8318SOL     OW25852   4.533   1.807   5.179
 8318SOL    HW125853   4.617   1.812   5.233
 8318SOL    HW225854   4.541   1.733   5.112
 8319SOL     OW25855   1.814   1.946   0.330
 8319SOL    HW125856   1.847   1.881   0.398
 8319SOL    HW225857   1.825   2.039   0.365
 8320SOL     OW25858   3.185   3.641   2.350
 8320SOL    HW125859   3.219   3.572   2.413
 8320SOL    HW225860   3.088   3.657   2.367
 8321SOL     OW25861   6.872   0.101   6.208
 8321SOL    HW125862   6.816   0.150   6.142
 8321SOL    HW225863   6.911   0.166   6.273
 8322SOL     OW25864   6.135   7.016   1.141
 8322SOL    HW125865   6.183   7.009   1.228
 8322SOL    HW225866   6.189   0.048   1.077
 8323SOL     OW25867   5.034   5.419   2.261
 8323SOL    HW125868   4.943   5.389   2.231
 8323SOL    HW225869   5.048   5.515   2.235
 8324SOL     OW25870   5.504   6.506   1.309
 8324SOL    HW125871   5.404   6.512   1.304
 8324SOL    HW225872   5.544   6.550   1.228
 8325SOL     OW25873   2.612   3.935   5.673
 8325SOL    HW125874   2.585   3.916   5.767
 8325SOL    HW225875   2.693   3.994   5.672
 8326SOL     OW25876   5.325   3.553   5.627
 8326SOL    HW125877   5.302   3.621   5.696
 8326SOL    HW225878   5.383   3.482   5.668
 8327SOL     OW25879   6.437   1.231   6.135
 8327SOL    HW125880   6.454   1.134   6.117
 8327SOL    HW225881   6.367   1.239   6.207
 8328SOL     OW25882   2.701   6.109   5.935
 8328SOL    HW125883   2.636   6.136   5.864
 8328SOL    HW225884   2.705   6.179   6.006
 8329SOL     OW25885   1.459   3.301   5.863
 8329SOL    HW125886   1.517   3.251   5.798
 8329SOL    HW225887   1.427   3.237   5.934
 8330SOL     OW25888   2.512   1.308   6.957
 8330SOL    HW125889   2.456   1.344   0.009
 8330SOL    HW225890   2.608   1.307   6.986
 8331SOL     OW25891   3.122   0.925   1.077
 8331SOL    HW125892   3.138   1.020   1.048
 8331SOL    HW225893   3.130   0.919   1.177
 8332SOL     OW25894   4.577   5.144   2.413
 8332SOL    HW125895   4.543   5.188   2.330
 8332SOL    HW225896   4.513   5.073   2.442
 8333SOL     OW25897   0.255   6.169   6.157
 8333SOL    HW125898   0.254   6.235   6.082
 8333SOL    HW225899   0.181   6.189   6.220
 8334SOL     OW25900   4.030   0.943   3.702
 8334SOL    HW125901   3.997   0.948   3.796
 8334SOL    HW225902   4.058   1.034   3.672
 8335SOL     OW25903   5.417   6.760   0.089
 8335SOL    HW125904   5.472   6.738   0.169
 8335SOL    HW225905   5.388   6.676   0.044
 8336SOL     OW25906   6.851   4.824   3.307
 8336SOL    HW125907   6.835   4.782   3.217
 8336SOL    HW225908   6.854   4.923   3.297
 8337SOL     OW25909   2.474   6.219   2.613
 8337SOL    HW125910   2.528   6.248   2.692
 8337SOL    HW225911   2.486   6.120   2.600
 8338SOL     OW25912   3.934   5.392   2.028
 8338SOL    HW125913   3.974   5.454   2.096
 8338SOL    HW225914   3.995   5.314   2.014
 8339SOL     OW25915   5.998   0.440   1.429
 8339SOL    HW125916   6.050   0.518   1.394
 8339SOL    HW225917   5.925   0.473   1.489
 8340SOL     OW25918   4.822   2.963   1.298
 8340SOL    HW125919   4.764   2.958   1.217
 8340SOL    HW225920   4.842   2.871   1.330
 8341SOL     OW25921   3.025   6.394   0.213
 8341SOL    HW125922   2.952   6.330   0.187
 8341SOL    HW225923   2.984   6.482   0.239
 8342SOL     OW25924   4.258   6.032   1.114
 8342SOL    HW125925   4.265   6.132   1.121
 8342SOL    HW225926   4.295   6.002   1.026
 8343SOL     OW25927   1.787   5.602   5.435
 8343SOL    HW125928   1.706   5.625   5.488
 8343SOL    HW225929   1.775   5.633   5.340
 8344SOL     OW25930   4.368   6.311   4.508
 8344SOL    HW125931   4.310   6.299   4.589
 8344SOL    HW225932   4.435   6.237   4.505
 8345SOL     OW25933   4.459   1.498   2.678
 8345SOL    HW125934   4.400   1.576   2.657
 8345SOL    HW225935   4.504   1.512   2.766
 8346SOL     OW25936   3.009   5.067   0.533
 8346SOL    HW125937   2.946   5.132   0.490
 8346SOL    HW225938   3.095   5.113   0.555
 8347SOL     OW25939   3.316   5.370   4.205
 8347SOL    HW125940   3.293   5.460   4.168
 8347SOL    HW225941   3.244   5.305   4.182
 8348SOL     OW25942   2.399   0.456   2.078
 8348SOL    HW125943   2.347   0.503   2.150
 8348SOL    HW225944   2.338   0.394   2.029
 8349SOL     OW25945   5.974   6.271   1.766
 8349SOL    HW125946   6.004   6.189   1.718
 8349SOL    HW225947   5.943   6.339   1.699
 8350SOL     OW25948   3.646   6.845   5.739
 8350SOL    HW125949   3.707   6.924   5.735
 8350SOL    HW225950   3.551   6.876   5.738
 8351SOL     OW25951   5.162   5.342   4.378
 8351SOL    HW125952   5.086   5.290   4.338
 8351SOL    HW225953   5.245   5.286   4.376
 8352SOL     OW25954   0.805   0.238   3.269
 8352SOL    HW125955   0.752   0.301   3.327
 8352SOL    HW225956   0.748   0.206   3.194
 8353SOL     OW25957   6.761   3.244   1.541
 8353SOL    HW125958   6.807   3.157   1.557
 8353SOL    HW225959   6.758   3.263   1.442
 8354SOL     OW25960   4.113   6.983   6.065
 8354SOL    HW125961   4.187   6.952   6.125
 8354SOL    HW225962   4.058   6.904   6.037
 8355SOL     OW25963   2.605   0.557   5.837
 8355SOL    HW125964   2.642   0.504   5.914
 8355SOL    HW225965   2.551   0.634   5.873
 8356SOL     OW25966   0.717   6.125   1.102
 8356SOL    HW125967   0.666   6.092   1.183
 8356SOL    HW225968   0.799   6.069   1.090
 8357SOL     OW25969   4.349   6.758   4.692
 8357SOL    HW125970   4.368   6.790   4.599
 8357SOL    HW225971   4.418   6.796   4.754
 8358SOL     OW25972   1.391   4.384   5.294
 8358SOL    HW125973   1.427   4.456   5.234
 8358SOL    HW225974   1.435   4.297   5.272
 8359SOL     OW25975   2.939   0.617   4.928
 8359SOL    HW125976   2.974   0.527   4.951
 8359SOL    HW225977   2.858   0.637   4.983
 8360SOL     OW25978   3.591   6.371   1.146
 8360SOL    HW125979   3.628   6.289   1.190
 8360SOL    HW225980   3.617   6.452   1.198
 8361SOL     OW25981   3.135   0.450   2.474
 8361SOL    HW125982   3.194   0.423   2.551
 8361SOL    HW225983   3.088   0.535   2.496
 8362SOL     OW25984   4.308   2.024   0.546
 8362SOL    HW125985   4.253   1.942   0.564
 8362SOL    HW225986   4.388   2.024   0.605
 8363SOL     OW25987   6.785   2.646   6.532
 8363SOL    HW125988   6.833   2.574   6.483
 8363SOL    HW225989   6.829   2.661   6.621
 8364SOL     OW25990   1.373   2.658   2.975
 8364SOL    HW125991   1.441   2.636   3.045
 8364SOL    HW225992   1.299   2.591   2.978
 8365SOL     OW25993   1.947   3.927   1.874
 8365SOL    HW125994   2.023   3.992   1.887
 8365SOL    HW225995   1.949   3.892   1.781
 8366SOL     OW25996   1.917   5.953   2.219
 8366SOL    HW125997   1.827   5.984   2.249
 8366SOL    HW225998   1.976   5.944   2.299
 8367SOL     OW25999   3.907   6.063   4.004
 8367SOL    HW126000   3.937   6.037   4.096
 8367SOL    HW226001   3.960   6.013   3.936
 8368SOL     OW26002   2.057   5.861   6.205
 8368SOL    HW126003   2.048   5.761   6.203
 8368SOL    HW226004   2.009   5.897   6.285
 8369SOL     OW26005   1.696   6.508   6.630
 8369SOL    HW126006   1.778   6.530   6.684
 8369SOL    HW226007   1.656   6.422   6.663
 8370SOL     OW26008   2.893   1.778   5.570
 8370SOL    HW126009   2.892   1.789   5.470
 8370SOL    HW226010   2.821   1.713   5.597
 8371SOL     OW26011   2.000   4.265   0.678
 8371SOL    HW126012   2.081   4.309   0.639
 8371SOL    HW226013   2.000   4.168   0.652
 8372SOL     OW26014   0.870   5.563   2.243
 8372SOL    HW126015   0.836   5.655   2.223
 8372SOL    HW226016   0.970   5.566   2.251
 8373SOL     OW26017   1.567   6.964   3.520
 8373SOL    HW126018   1.484   7.012   3.547
 8373SOL    HW226019   1.545   6.895   3.451
 8374SOL     OW26020   0.336   0.388   5.209
 8374SOL    HW126021   0.436   0.388   5.218
 8374SOL    HW226022   0.299   0.301   5.240
 8375SOL     OW26023   3.481   6.731   5.069
 8375SOL    HW126024   3.522   6.768   4.986
 8375SOL    HW226025   3.385   6.708   5.053
 8376SOL     OW26026   1.072   0.688   4.065
 8376SOL    HW126027   1.147   0.731   4.115
 8376SOL    HW226028   1.004   0.655   4.130
 8377SOL     OW26029   4.687   6.015   1.206
 8377SOL    HW126030   4.607   6.075   1.201
 8377SOL    HW226031   4.744   6.028   1.125
 8378SOL     OW26032   4.339   5.286   2.700
 8378SOL    HW126033   4.394   5.323   2.774
 8378SOL    HW226034   4.317   5.190   2.719
 8379SOL     OW26035   5.957   2.614   1.365
 8379SOL    HW126036   5.951   2.620   1.464
 8379SOL    HW226037   5.918   2.697   1.324
 8380SOL     OW26038   0.023   0.639   2.235
 8380SOL    HW126039   0.012   0.641   2.136
 8380SOL    HW226040   0.048   0.730   2.268
 8381SOL     OW26041   0.157   2.977   5.125
 8381SOL    HW126042   0.190   3.063   5.164
 8381SOL    HW226043   0.194   2.966   5.033
 8382SOL     OW26044   2.551   1.015   3.272
 8382SOL    HW126045   2.485   0.940   3.278
 8382SOL    HW226046   2.505   1.097   3.240
 8383SOL     OW26047   2.276   0.064   5.900
 8383SOL    HW126048   2.232   7.003   5.867
 8383SOL    HW226049   2.258   0.139   5.836
 8384SOL     OW26050   6.583   0.792   0.849
 8384SOL    HW126051   6.567   0.759   0.756
 8384SOL    HW226052   6.667   0.847   0.850
 8385SOL     OW26053   6.317   1.459   1.289
 8385SOL    HW126054   6.370   1.409   1.220
 8385SOL    HW226055   6.332   1.557   1.278
 8386SOL     OW26056   1.518   5.217   2.155
 8386SOL    HW126057   1.463   5.194   2.236
 8386SOL    HW226058   1.470   5.187   2.073
 8387SOL     OW26059   1.674   1.391   2.701
 8387SOL    HW126060   1.733   1.311   2.712
 8387SOL    HW226061   1.586   1.364   2.663
 8388SOL     OW26062   2.699   6.280   0.410
 8388SOL    HW126063   2.751   6.242   0.487
 8388SOL    HW226064   2.738   6.247   0.324
 8389SOL     OW26065   0.065   3.066   2.979
 8389SOL    HW126066   0.140   3.116   3.022
 8389SOL    HW226067   7.014   3.053   3.045
 8390SOL     OW26068   4.439   1.083   6.606
 8390SOL    HW126069   4.473   1.030   6.528
 8390SOL    HW226070   4.467   1.179   6.595
 8391SOL     OW26071   6.486   4.844   0.869
 8391SOL    HW126072   6.425   4.922   0.859
 8391SOL    HW226073   6.445   4.763   0.828
 8392SOL     OW26074   6.228   3.886   4.493
 8392SOL    HW126075   6.166   3.961   4.519
 8392SOL    HW226076   6.256   3.837   4.575
 8393SOL     OW26077   0.155   0.032   3.155
 8393SOL    HW126078   0.252   0.013   3.172
 8393SOL    HW226079   0.147   0.123   3.113
 8394SOL     OW26080   6.177   2.271   1.304
 8394SOL    HW126081   6.263   2.298   1.261
 8394SOL    HW226082   6.172   2.171   1.310
 8395SOL     OW26083   2.840   0.022   5.328
 8395SOL    HW126084   2.863   7.003   5.240
 8395SOL    HW226085   2.822   0.120   5.315
 8396SOL     OW26086   4.859   5.158   2.871
 8396SOL    HW126087   4.760   5.141   2.868
 8396SOL    HW226088   4.883   5.221   2.797
 8397SOL     OW26089   1.556   0.686   2.744
 8397SOL    HW126090   1.602   0.773   2.761
 8397SOL    HW226091   1.619   0.611   2.762
 8398SOL     OW26092   4.339   1.626   6.249
 8398SOL    HW126093   4.360   1.717   6.213
 8398SOL    HW226094   4.264   1.633   6.315
 8399SOL     OW26095   5.700   6.777   6.693
 8399SOL    HW126096   5.785   6.732   6.666
 8399SOL    HW226097   5.698   6.787   6.793
 8400SOL     OW26098   1.837   1.143   4.621
 8400SOL    HW126099   1.853   1.122   4.524
 8400SOL    HW226100   1.743   1.173   4.634
 8401SOL     OW26101   2.081   1.005   5.318
 8401SOL    HW126102   2.050   1.074   5.383
 8401SOL    HW226103   2.103   1.048   5.230
 8402SOL     OW26104   4.775   1.891   6.221
 8402SOL    HW126105   4.693   1.948   6.215
 8402SOL    HW226106   4.768   1.815   6.156
 8403SOL     OW26107   6.957   3.417   4.534
 8403SOL    HW126108   6.977   3.453   4.626
 8403SOL    HW226109   7.015   3.338   4.516
 8404SOL     OW26110   3.815   6.904   6.108
 8404SOL    HW126111   3.795   6.992   6.064
 8404SOL    HW226112   3.834   6.836   6.037
 8405SOL     OW26113   1.842   1.333   5.714
 8405SOL    HW126114   1.809   1.371   5.628
 8405SOL    HW226115   1.764   1.300   5.768
 8406SOL     OW26116   4.377   0.829   0.417
 8406SOL    HW126117   4.417   0.920   0.433
 8406SOL    HW226118   4.406   0.796   0.327
 8407SOL     OW26119   3.422   6.419   3.169
 8407SOL    HW126120   3.323   6.432   3.158
 8407SOL    HW226121   3.451   6.340   3.115
 8408SOL     OW26122   5.706   4.031   1.280
 8408SOL    HW126123   5.628   4.016   1.341
 8408SOL    HW226124   5.789   4.039   1.335
 8409SOL     OW26125   5.151   1.757   2.662
 8409SOL    HW126126   5.190   1.755   2.570
 8409SOL    HW226127   5.199   1.691   2.720
 8410SOL     OW26128   5.772   0.478   1.639
 8410SOL    HW126129   5.675   0.486   1.616
 8410SOL    HW226130   5.784   0.475   1.738
 8411SOL     OW26131   1.078   5.147   0.166
 8411SOL    HW126132   1.069   5.056   0.126
 8411SOL    HW226133   1.156   5.149   0.228
 8412SOL     OW26134   3.701   2.115   1.497
 8412SOL    HW126135   3.608   2.124   1.463
 8412SOL    HW226136   3.734   2.203   1.531
 8413SOL     OW26137   3.896   5.591   6.865
 8413SOL    HW126138   3.918   5.682   6.899
 8413SOL    HW226139   3.875   5.596   6.767
 8414SOL     OW26140   3.908   6.403   4.171
 8414SOL    HW126141   4.001   6.388   4.137
 8414SOL    HW226142   3.848   6.424   4.094
 8415SOL     OW26143   0.368   6.155   3.886
 8415SOL    HW126144   0.329   6.062   3.885
 8415SOL    HW226145   0.456   6.153   3.932
 8416SOL     OW26146   6.316   3.306   2.878
 8416SOL    HW126147   6.384   3.378   2.866
 8416SOL    HW226148   6.334   3.232   2.813
 8417SOL     OW26149   1.455   3.946   5.496
 8417SOL    HW126150   1.382   3.949   5.564
 8417SOL    HW226151   1.543   3.934   5.542
 8418SOL     OW26152   5.637   5.424   1.087
 8418SOL    HW126153   5.674   5.338   1.053
 8418SOL    HW226154   5.629   5.421   1.186
 8419SOL     OW26155   5.447   0.093   1.343
 8419SOL    HW126156   5.545   0.104   1.358
 8419SOL    HW226157   5.398   0.170   1.384
 8420SOL     OW26158   4.545   6.791   0.504
 8420SOL    HW126159   4.569   6.739   0.422
 8420SOL    HW226160   4.592   6.880   0.501
 8421SOL     OW26161   3.213   5.890   6.910
 8421SOL    HW126162   3.246   5.796   6.903
 8421SOL    HW226163   3.126   5.891   6.959
 8422SOL     OW26164   4.273   1.523   1.977
 8422SOL    HW126165   4.190   1.483   1.939
 8422SOL    HW226166   4.315   1.459   2.041
 8423SOL     OW26167   3.188   5.022   6.141
 8423SOL    HW126168   3.283   5.045   6.122
 8423SOL    HW226169   3.129   5.060   6.069
 8424SOL     OW26170   2.115   2.166   2.336
 8424SOL    HW126171   2.016   2.181   2.338
 8424SOL    HW226172   2.137   2.078   2.377
 8425SOL     OW26173   4.259   4.599   6.147
 8425SOL    HW126174   4.288   4.522   6.090
 8425SOL    HW226175   4.187   4.650   6.100
 8426SOL     OW26176   3.704   3.217   3.335
 8426SOL    HW126177   3.745   3.130   3.309
 8426SOL    HW226178   3.604   3.207   3.337
 8427SOL     OW26179   3.719   4.072   4.141
 8427SOL    HW126180   3.672   4.081   4.053
 8427SOL    HW226181   3.662   4.111   4.213
 8428SOL     OW26182   0.467   6.172   1.452
 8428SOL    HW126183   0.410   6.144   1.529
 8428SOL    HW226184   0.561   6.142   1.467
 8429SOL     OW26185   1.306   6.101   4.767
 8429SOL    HW126186   1.308   6.010   4.808
 8429SOL    HW226187   1.212   6.126   4.745
 8430SOL     OW26188   3.868   5.468   3.418
 8430SOL    HW126189   3.920   5.503   3.340
 8430SOL    HW226190   3.878   5.369   3.424
 8431SOL     OW26191   3.685   3.887   1.339
 8431SOL    HW126192   3.644   3.944   1.411
 8431SOL    HW226193   3.691   3.792   1.371
 8432SOL     OW26194   5.711   6.470   5.995
 8432SOL    HW126195   5.794   6.445   5.945
 8432SOL    HW226196   5.633   6.420   5.958
 8433SOL     OW26197   4.779   2.561   0.885
 8433SOL    HW126198   4.707   2.495   0.863
 8433SOL    HW226199   4.743   2.630   0.948
 8434SOL     OW26200   2.933   0.037   4.696
 8434SOL    HW126201   2.947   0.118   4.753
 8434SOL    HW226202   3.012   6.999   4.704
 8435SOL     OW26203   6.218   0.739   1.126
 8435SOL    HW126204   6.139   0.708   1.074
 8435SOL    HW226205   6.291   0.768   1.064
 8436SOL     OW26206   3.145   6.439   3.112
 8436SOL    HW126207   3.104   6.504   3.049
 8436SOL    HW226208   3.073   6.386   3.158
 8437SOL     OW26209   2.330   1.262   4.121
 8437SOL    HW126210   2.267   1.215   4.060
 8437SOL    HW226211   2.282   1.336   4.168
 8438SOL     OW26212   2.134   4.728   2.808
 8438SOL    HW126213   2.075   4.722   2.889
 8438SOL    HW226214   2.207   4.794   2.825
 8439SOL     OW26215   6.008   5.229   2.979
 8439SOL    HW126216   5.990   5.285   3.061
 8439SOL    HW226217   6.073   5.156   3.003
 8440SOL     OW26218   2.307   1.791   3.548
 8440SOL    HW126219   2.285   1.827   3.638
 8440SOL    HW226220   2.394   1.829   3.517
 8441SOL     OW26221   5.600   0.044   0.020
 8441SOL    HW126222   5.647   6.979   0.018
 8441SOL    HW226223   5.580   0.074   6.949
 8442SOL     OW26224   3.708   2.461   5.313
 8442SOL    HW126225   3.616   2.472   5.351
 8442SOL    HW226226   3.724   2.366   5.289
 8443SOL     OW26227   2.373   4.844   3.555
 8443SOL    HW126228   2.284   4.798   3.554
 8443SOL    HW226229   2.361   4.938   3.587
 8444SOL     OW26230   3.008   6.418   4.512
 8444SOL    HW126231   2.956   6.488   4.560
 8444SOL    HW226232   3.033   6.451   4.421
 8445SOL     OW26233   3.208   0.095   1.296
 8445SOL    HW126234   3.235   0.179   1.342
 8445SOL    HW226235   3.120   0.064   1.332
 8446SOL     OW26236   5.357   5.662   6.740
 8446SOL    HW126237   5.389   5.568   6.724
 8446SOL    HW226238   5.265   5.672   6.703
 8447SOL     OW26239   5.030   1.833   2.336
 8447SOL    HW126240   4.990   1.882   2.413
 8447SOL    HW226241   5.033   1.892   2.255
 8448SOL     OW26242   4.374   5.860   4.246
 8448SOL    HW126243   4.293   5.919   4.252
 8448SOL    HW226244   4.345   5.766   4.228
 8449SOL     OW26245   0.083   2.848   3.492
 8449SOL    HW126246   0.072   2.768   3.550
 8449SOL    HW226247   0.113   2.820   3.401
 8450SOL     OW26248   0.814   0.044   0.817
 8450SOL    HW126249   0.848   0.133   0.848
 8450SOL    HW226250   0.806   0.044   0.718
 8451SOL     OW26251   3.701   1.597   0.127
 8451SOL    HW126252   3.685   1.502   0.100
 8451SOL    HW226253   3.797   1.609   0.150
 8452SOL     OW26254   6.157   1.974   3.203
 8452SOL    HW126255   6.148   1.901   3.136
 8452SOL    HW226256   6.067   1.995   3.241
 8453SOL     OW26257   0.628   4.550   6.794
 8453SOL    HW126258   0.625   4.534   6.892
 8453SOL    HW226259   0.576   4.633   6.772
 8454SOL     OW26260   6.896   6.192   1.678
 8454SOL    HW126261   6.974   6.203   1.617
 8454SOL    HW226262   6.929   6.175   1.771
 8455SOL     OW26263   6.611   1.572   1.812
 8455SOL    HW126264   6.648   1.614   1.730
 8455SOL    HW226265   6.629   1.630   1.891
 8456SOL     OW26266   3.862   5.882   3.594
 8456SOL    HW126267   3.917   5.866   3.512
 8456SOL    HW226268   3.795   5.954   3.575
 8457SOL     OW26269   6.894   6.807   4.720
 8457SOL    HW126270   6.870   6.827   4.625
 8457SOL    HW226271   6.918   6.892   4.767
 8458SOL     OW26272   3.087   0.388   0.338
 8458SOL    HW126273   3.104   0.465   0.277
 8458SOL    HW226274   3.091   0.419   0.433
 8459SOL     OW26275   2.730   5.601   2.211
 8459SOL    HW126276   2.779   5.688   2.212
 8459SOL    HW226277   2.635   5.615   2.239
 8460SOL     OW26278   4.076   4.311   5.300
 8460SOL    HW126279   4.156   4.351   5.257
 8460SOL    HW226280   4.092   4.213   5.317
 8461SOL     OW26281   1.312   3.979   5.139
 8461SOL    HW126282   1.328   4.064   5.089
 8461SOL    HW226283   1.247   3.922   5.088
 8462SOL     OW26284   2.504   2.531   6.467
 8462SOL    HW126285   2.535   2.609   6.414
 8462SOL    HW226286   2.410   2.508   6.442
 8463SOL     OW26287   0.245   0.152   1.271
 8463SOL    HW126288   0.177   0.101   1.219
 8463SOL    HW226289   0.206   0.239   1.301
 8464SOL     OW26290   5.766   4.102   4.022
 8464SOL    HW126291   5.838   4.108   3.953
 8464SOL    HW226292   5.743   4.006   4.038
 8465SOL     OW26293   0.906   3.180   0.420
 8465SOL    HW126294   0.946   3.154   0.507
 8465SOL    HW226295   0.939   3.118   0.348
 8466SOL     OW26296   0.706   6.893   4.257
 8466SOL    HW126297   0.617   6.871   4.216
 8466SOL    HW226298   0.765   6.935   4.188
 8467SOL     OW26299   3.296   6.656   0.203
 8467SOL    HW126300   3.299   6.705   0.116
 8467SOL    HW226301   3.293   6.557   0.186
 8468SOL     OW26302   4.096   1.682   6.795
 8468SOL    HW126303   4.117   1.718   6.704
 8468SOL    HW226304   4.153   1.728   6.864
 8469SOL     OW26305   3.468   1.771   6.676
 8469SOL    HW126306   3.541   1.839   6.685
 8469SOL    HW226307   3.477   1.703   6.749
 8470SOL     OW26308   0.774   3.572   6.879
 8470SOL    HW126309   0.722   3.590   6.796
 8470SOL    HW226310   0.711   3.556   6.955
 8471SOL     OW26311   2.970   1.085   3.441
 8471SOL    HW126312   3.043   1.130   3.494
 8471SOL    HW226313   2.996   0.990   3.424
 8472SOL     OW26314   6.971   0.554   4.969
 8472SOL    HW126315   0.027   0.510   4.926
 8472SOL    HW226316   6.955   0.643   4.927
 8473SOL     OW26317   6.287   5.414   6.515
 8473SOL    HW126318   6.292   5.342   6.584
 8473SOL    HW226319   6.192   5.430   6.490
 8474SOL     OW26320   3.049   3.189   2.574
 8474SOL    HW126321   3.022   3.230   2.661
 8474SOL    HW226322   3.102   3.107   2.591
 8475SOL     OW26323   0.663   2.112   3.085
 8475SOL    HW126324   0.674   2.032   3.145
 8475SOL    HW226325   0.673   2.084   2.990
 8476SOL     OW26326   6.749   1.585   1.129
 8476SOL    HW126327   6.737   1.656   1.059
 8476SOL    HW226328   6.772   1.498   1.085
 8477SOL     OW26329   4.391   6.589   1.997
 8477SOL    HW126330   4.442   6.603   2.082
 8477SOL    HW226331   4.444   6.623   1.920
 8478SOL     OW26332   1.093   0.555   6.317
 8478SOL    HW126333   1.063   0.465   6.286
 8478SOL    HW226334   1.118   0.611   6.237
 8479SOL     OW26335   6.489   2.513   1.399
 8479SOL    HW126336   6.432   2.521   1.317
 8479SOL    HW226337   6.431   2.514   1.480
 8480SOL     OW26338   4.381   1.466   0.185
 8480SOL    HW126339   4.448   1.470   0.260
 8480SOL    HW226340   4.428   1.478   0.098
 8481SOL     OW26341   5.242   2.148   3.737
 8481SOL    HW126342   5.184   2.100   3.802
 8481SOL    HW226343   5.196   2.152   3.648
 8482SOL     OW26344   4.383   6.568   2.802
 8482SOL    HW126345   4.434   6.544   2.719
 8482SOL    HW226346   4.384   6.667   2.815
 8483SOL     OW26347   3.836   5.899   2.320
 8483SOL    HW126348   3.785   5.934   2.242
 8483SOL    HW226349   3.934   5.915   2.307
 8484SOL     OW26350   0.885   5.620   2.739
 8484SOL    HW126351   0.965   5.572   2.702
 8484SOL    HW226352   0.847   5.680   2.669
 8485SOL     OW26353   3.012   2.896   0.168
 8485SOL    HW126354   3.051   2.937   0.086
 8485SOL    HW226355   3.069   2.919   0.247
 8486SOL     OW26356   4.759   1.153   2.907
 8486SOL    HW126357   4.771   1.059   2.941
 8486SOL    HW226358   4.677   1.192   2.950
 8487SOL     OW26359   5.586   1.193   6.355
 8487SOL    HW126360   5.494   1.214   6.388
 8487SOL    HW226361   5.648   1.186   6.434
 8488SOL     OW26362   5.525   4.644   5.399
 8488SOL    HW126363   5.572   4.573   5.346
 8488SOL    HW226364   5.548   4.634   5.496
 8489SOL     OW26365   5.956   0.877   0.567
 8489SOL    HW126366   5.978   0.789   0.610
 8489SOL    HW226367   5.923   0.940   0.637
 8490SOL     OW26368   3.923   6.493   4.867
 8490SOL    HW126369   3.980   6.501   4.785
 8490SOL    HW226370   3.891   6.584   4.894
 8491SOL     OW26371   2.448   7.004   0.582
 8491SOL    HW126372   2.429   6.908   0.603
 8491SOL    HW226373   2.516   0.017   0.645
 8492SOL     OW26374   4.392   4.319   6.510
 8492SOL    HW126375   4.430   4.233   6.477
 8492SOL    HW226376   4.467   4.384   6.525
 8493SOL     OW26377   3.014   2.126   6.419
 8493SOL    HW126378   2.981   2.107   6.326
 8493SOL    HW226379   3.112   2.143   6.416
 8494SOL     OW26380   2.776   4.488   1.082
 8494SOL    HW126381   2.690   4.512   1.128
 8494SOL    HW226382   2.798   4.392   1.102
 8495SOL     OW26383   6.468   4.181   1.022
 8495SOL    HW126384   6.377   4.157   0.986
 8495SOL    HW226385   6.506   4.104   1.072
 8496SOL     OW26386   0.567   1.670   1.798
 8496SOL    HW126387   0.628   1.706   1.727
 8496SOL    HW226388   0.513   1.595   1.761
 8497SOL     OW26389   6.528   1.274   3.815
 8497SOL    HW126390   6.596   1.341   3.845
 8497SOL    HW226391   6.545   1.250   3.720
 8498SOL     OW26392   0.294   6.247   2.731
 8498SOL    HW126393   0.256   6.158   2.758
 8498SOL    HW226394   0.364   6.275   2.797
 8499SOL     OW26395   2.757   5.208   6.642
 8499SOL    HW126396   2.773   5.219   6.740
 8499SOL    HW226397   2.830   5.255   6.592
 8500SOL     OW26398   2.221   6.937   5.537
 8500SOL    HW126399   2.312   6.970   5.565
 8500SOL    HW226400   2.163   6.930   5.618
 8501SOL     OW26401   0.236   2.257   6.717
 8501SOL    HW126402   0.202   2.315   6.643
 8501SOL    HW226403   0.159   2.226   6.773
 8502SOL     OW26404   1.427   4.567   1.671
 8502SOL    HW126405   1.526   4.580   1.667
 8502SOL    HW226406   1.396   4.583   1.765
 8503SOL     OW26407   1.268   6.574   3.308
 8503SOL    HW126408   1.309   6.540   3.223
 8503SOL    HW226409   1.217   6.658   3.288
 8504SOL     OW26410   2.488   5.503   3.226
 8504SOL    HW126411   2.479   5.589   3.176
 8504SOL    HW226412   2.455   5.428   3.168
 8505SOL     OW26413   4.804   4.074   3.858
 8505SOL    HW126414   4.770   4.089   3.951
 8505SOL    HW226415   4.882   4.011   3.860
 8506SOL     OW26416   6.465   1.175   0.030
 8506SOL    HW126417   6.509   1.115   6.985
 8506SOL    HW226418   6.472   1.270   0.000
 8507SOL     OW26419   3.786   0.848   5.428
 8507SOL    HW126420   3.741   0.807   5.349
 8507SOL    HW226421   3.775   0.788   5.507
 8508SOL     OW26422   6.478   2.316   4.970
 8508SOL    HW126423   6.488   2.302   4.871
 8508SOL    HW226424   6.511   2.235   5.018
 8509SOL     OW26425   4.788   2.062   3.527
 8509SOL    HW126426   4.696   2.076   3.491
 8509SOL    HW226427   4.805   1.964   3.537
 8510SOL     OW26428   5.328   4.274   3.565
 8510SOL    HW126429   5.291   4.192   3.521
 8510SOL    HW226430   5.388   4.248   3.640
 8511SOL     OW26431   6.043   4.143   1.847
 8511SOL    HW126432   5.958   4.103   1.814
 8511SOL    HW226433   6.040   4.243   1.836
 8512SOL     OW26434   3.544   2.076   1.098
 8512SOL    HW126435   3.473   2.031   1.043
 8512SOL    HW226436   3.632   2.032   1.081
 8513SOL     OW26437   4.837   4.163   1.531
 8513SOL    HW126438   4.792   4.195   1.615
 8513SOL    HW226439   4.886   4.078   1.551
 8514SOL     OW26440   3.152   2.167   3.959
 8514SOL    HW126441   3.076   2.229   3.943
 8514SOL    HW226442   3.175   2.165   4.056
 8515SOL     OW26443   5.921   1.332   6.879
 8515SOL    HW126444   5.892   1.237   6.881
 8515SOL    HW226445   5.990   1.347   6.951
 8516SOL     OW26446   6.539   1.339   1.448
 8516SOL    HW126447   6.589   1.425   1.462
 8516SOL    HW226448   6.443   1.360   1.429
 8517SOL     OW26449   1.622   3.130   6.757
 8517SOL    HW126450   1.532   3.144   6.714
 8517SOL    HW226451   1.694   3.140   6.688
 8518SOL     OW26452   4.792   4.384   6.488
 8518SOL    HW126453   4.712   4.337   6.525
 8518SOL    HW226454   4.860   4.397   6.560
 8519SOL     OW26455   1.352   4.009   1.623
 8519SOL    HW126456   1.378   4.104   1.606
 8519SOL    HW226457   1.336   3.997   1.721
 8520SOL     OW26458   3.677   3.583   0.061
 8520SOL    HW126459   3.621   3.579   7.001
 8520SOL    HW226460   3.723   3.496   0.074
 8521SOL     OW26461   2.447   5.032   5.884
 8521SOL    HW126462   2.441   5.082   5.798
 8521SOL    HW226463   2.538   5.043   5.923
 8522SOL     OW26464   1.652   5.937   0.955
 8522SOL    HW126465   1.619   5.956   1.047
 8522SOL    HW226466   1.578   5.952   0.889
 8523SOL     OW26467   2.056   6.308   6.864
 8523SOL    HW126468   2.106   6.305   6.950
 8523SOL    HW226469   2.108   6.363   6.797
 8524SOL     OW26470   0.401   3.162   5.830
 8524SOL    HW126471   0.484   3.207   5.862
 8524SOL    HW226472   0.386   3.078   5.882
 8525SOL     OW26473   6.101   4.468   1.952
 8525SOL    HW126474   6.012   4.423   1.945
 8525SOL    HW226475   6.115   4.501   2.045
 8526SOL     OW26476   4.207   6.672   6.862
 8526SOL    HW126477   4.169   6.714   6.945
 8526SOL    HW226478   4.216   6.742   6.791
 8527SOL     OW26479   2.520   1.040   6.265
 8527SOL    HW126480   2.570   0.955   6.246
 8527SOL    HW226481   2.463   1.027   6.346
 8528SOL     OW26482   3.933   1.250   7.019
 8528SOL    HW126483   4.003   1.266   0.065
 8528SOL    HW226484   3.927   1.152   7.000
 8529SOL     OW26485   1.310   0.046   0.964
 8529SOL    HW126486   1.236   0.009   1.021
 8529SOL    HW226487   1.395   7.018   0.983
 8530SOL     OW26488   3.447   4.441   5.496
 8530SOL    HW126489   3.525   4.404   5.446
 8530SOL    HW226490   3.397   4.366   5.540
 8531SOL     OW26491   6.616   4.748   2.267
 8531SOL    HW126492   6.522   4.742   2.233
 8531SOL    HW226493   6.617   4.801   2.352
 8532SOL     OW26494   4.173   4.875   4.888
 8532SOL    HW126495   4.227   4.805   4.840
 8532SOL    HW226496   4.083   4.882   4.846
 8533SOL     OW26497   1.708   0.027   0.152
 8533SOL    HW126498   1.636   0.088   0.184
 8533SOL    HW226499   1.700   6.961   0.196
 8534SOL     OW26500   6.375   2.666   4.117
 8534SOL    HW126501   6.332   2.617   4.041
 8534SOL    HW226502   6.309   2.730   4.157
 8535SOL     OW26503   6.144   1.007   3.569
 8535SOL    HW126504   6.176   0.914   3.586
 8535SOL    HW226505   6.131   1.054   3.656
 8536SOL     OW26506   6.963   2.553   4.781
 8536SOL    HW126507   6.905   2.494   4.725
 8536SOL    HW226508   0.027   2.568   4.735
 8537SOL     OW26509   5.357   0.626   3.112
 8537SOL    HW126510   5.305   0.681   3.178
 8537SOL    HW226511   5.403   0.551   3.159
 8538SOL     OW26512   0.609   1.035   6.983
 8538SOL    HW126513   0.577   1.013   6.891
 8538SOL    HW226514   0.628   0.951   0.010
 8539SOL     OW26515   5.498   0.865   3.081
 8539SOL    HW126516   5.580   0.820   3.118
 8539SOL    HW226517   5.419   0.805   3.095
 8540SOL     OW26518   5.079   0.321   6.001
 8540SOL    HW126519   5.146   0.284   6.066
 8540SOL    HW226520   5.124   0.388   5.942
 8541SOL     OW26521   2.679   1.406   4.329
 8541SOL    HW126522   2.674   1.421   4.428
 8541SOL    HW226523   2.624   1.474   4.282
 8542SOL     OW26524   4.148   4.769   7.012
 8542SOL    HW126525   4.091   4.711   6.954
 8542SOL    HW226526   4.096   4.797   0.069
 8543SOL     OW26527   3.143   1.139   0.912
 8543SOL    HW126528   3.189   1.227   0.924
 8543SOL    HW226529   3.069   1.149   0.845
 8544SOL     OW26530   5.725   2.841   4.056
 8544SOL    HW126531   5.683   2.753   4.078
 8544SOL    HW226532   5.738   2.893   4.140
 8545SOL     OW26533   4.915   0.229   5.505
 8545SOL    HW126534   4.932   0.307   5.444
 8545SOL    HW226535   4.930   0.144   5.454
 8546SOL     OW26536   6.435   2.233   4.006
 8546SOL    HW126537   6.347   2.208   4.047
 8546SOL    HW226538   6.427   2.234   3.906
 8547SOL     OW26539   1.663   6.833   6.140
 8547SOL    HW126540   1.652   6.861   6.235
 8547SOL    HW226541   1.592   6.766   6.117
 8548SOL     OW26542   6.015   2.186   5.501
 8548SOL    HW126543   6.027   2.089   5.521
 8548SOL    HW226544   5.922   2.203   5.470
 8549SOL     OW26545   1.368   2.987   3.834
 8549SOL    HW126546   1.300   3.051   3.869
 8549SOL    HW226547   1.451   3.037   3.807
 8550SOL     OW26548   1.815   4.281   6.949
 8550SOL    HW126549   1.778   4.334   6.873
 8550SOL    HW226550   1.742   4.262   7.015
 8551SOL     OW26551   3.443   4.019   6.563
 8551SOL    HW126552   3.355   3.975   6.581
 8551SOL    HW226553   3.481   3.984   6.477
 8552SOL     OW26554   2.370   0.127   4.019
 8552SOL    HW126555   2.365   0.219   3.980
 8552SOL    HW226556   2.281   0.102   4.059
 8553SOL     OW26557   4.416   4.731   6.933
 8553SOL    HW126558   4.330   4.752   6.980
 8553SOL    HW226559   4.398   4.714   6.836
 8554SOL     OW26560   0.976   4.811   0.448
 8554SOL    HW126561   0.888   4.849   0.476
 8554SOL    HW226562   1.046   4.834   0.516
 8555SOL     OW26563   1.875   1.417   2.296
 8555SOL    HW126564   1.886   1.480   2.219
 8555SOL    HW226565   1.870   1.469   2.381
 8556SOL     OW26566   1.010   6.627   5.378
 8556SOL    HW126567   1.030   6.529   5.374
 8556SOL    HW226568   1.079   6.677   5.327
 8557SOL     OW26569   5.819   0.375   3.314
 8557SOL    HW126570   5.773   0.382   3.225
 8557SOL    HW226571   5.901   0.318   3.305
 8558SOL     OW26572   3.022   5.105   3.177
 8558SOL    HW126573   3.028   5.005   3.176
 8558SOL    HW226574   2.980   5.138   3.093
 8559SOL     OW26575   6.898   0.504   2.570
 8559SOL    HW126576   6.884   0.586   2.626
 8559SOL    HW226577   6.955   0.527   2.491
 8560SOL     OW26578   6.581   6.144   2.456
 8560SOL    HW126579   6.601   6.089   2.375
 8560SOL    HW226580   6.663   6.194   2.482
 8561SOL     OW26581   3.328   0.469   1.596
 8561SOL    HW126582   3.296   0.418   1.676
 8561SOL    HW226583   3.399   0.534   1.624
 8562SOL     OW26584   3.198   5.644   5.419
 8562SOL    HW126585   3.201   5.710   5.344
 8562SOL    HW226586   3.287   5.639   5.463
 8563SOL     OW26587   2.404   4.247   6.568
 8563SOL    HW126588   2.451   4.179   6.626
 8563SOL    HW226589   2.430   4.339   6.597
 8564SOL     OW26590   3.343   1.111   4.127
 8564SOL    HW126591   3.353   1.192   4.184
 8564SOL    HW226592   3.305   1.036   4.182
 8565SOL     OW26593   4.374   5.454   1.079
 8565SOL    HW126594   4.446   5.429   1.014
 8565SOL    HW226595   4.412   5.514   1.150
 8566SOL     OW26596   1.527   0.613   1.556
 8566SOL    HW126597   1.434   0.578   1.540
 8566SOL    HW226598   1.526   0.713   1.550
 8567SOL     OW26599   7.022   2.114   2.499
 8567SOL    HW126600   0.082   2.062   2.522
 8567SOL    HW226601   0.024   2.201   2.457
 8568SOL     OW26602   5.666   1.062   6.148
 8568SOL    HW126603   5.628   1.121   6.219
 8568SOL    HW226604   5.597   1.049   6.076
 8569SOL     OW26605   4.889   1.424   5.743
 8569SOL    HW126606   4.839   1.510   5.730
 8569SOL    HW226607   4.869   1.387   5.833
 8570SOL     OW26608   1.334   2.775   5.083
 8570SOL    HW126609   1.257   2.820   5.128
 8570SOL    HW226610   1.419   2.798   5.131
 8571SOL     OW26611   1.430   5.216   5.592
 8571SOL    HW126612   1.397   5.133   5.548
 8571SOL    HW226613   1.395   5.297   5.544
 8572SOL     OW26614   3.261   5.243   6.981
 8572SOL    HW126615   3.286   5.265   0.053
 8572SOL    HW226616   3.168   5.276   6.963
 8573SOL     OW26617   3.509   6.469   5.825
 8573SOL    HW126618   3.437   6.451   5.891
 8573SOL    HW226619   3.494   6.559   5.783
 8574SOL     OW26620   6.695   5.616   5.367
 8574SOL    HW126621   6.779   5.645   5.323
 8574SOL    HW226622   6.702   5.633   5.466
 8575SOL     OW26623   2.800   2.359   5.245
 8575SOL    HW126624   2.725   2.415   5.211
 8575SOL    HW226625   2.868   2.417   5.290
 8576SOL     OW26626   1.634   5.824   7.016
 8576SOL    HW126627   1.575   5.868   6.947
 8576SOL    HW226628   1.668   5.737   6.980
 8577SOL     OW26629   6.955   6.119   3.897
 8577SOL    HW126630   6.907   6.200   3.865
 8577SOL    HW226631   7.010   6.081   3.822
 8578SOL     OW26632   5.576   1.445   4.966
 8578SOL    HW126633   5.485   1.404   4.957
 8578SOL    HW226634   5.568   1.534   5.010
 8579SOL     OW26635   1.399   0.115   2.743
 8579SOL    HW126636   1.456   0.058   2.685
 8579SOL    HW226637   1.410   0.211   2.718
 8580SOL     OW26638   2.916   6.312   2.749
 8580SOL    HW126639   2.817   6.317   2.741
 8580SOL    HW226640   2.952   6.401   2.776
 8581SOL     OW26641   3.220   3.425   2.100
 8581SOL    HW126642   3.134   3.477   2.095
 8581SOL    HW226643   3.250   3.419   2.195
 8582SOL     OW26644   4.520   4.500   2.669
 8582SOL    HW126645   4.466   4.487   2.586
 8582SOL    HW226646   4.487   4.437   2.740
 8583SOL     OW26647   5.185   0.599   4.677
 8583SOL    HW126648   5.231   0.667   4.734
 8583SOL    HW226649   5.235   0.589   4.591
 8584SOL     OW26650   0.622   3.585   5.973
 8584SOL    HW126651   0.602   3.676   6.009
 8584SOL    HW226652   0.667   3.593   5.884
 8585SOL     OW26653   0.629   5.842   6.221
 8585SOL    HW126654   0.684   5.788   6.158
 8585SOL    HW226655   0.583   5.781   6.286
 8586SOL     OW26656   3.035   0.091   3.359
 8586SOL    HW126657   3.072   0.115   3.269
 8586SOL    HW226658   2.981   0.007   3.351
 8587SOL     OW26659   2.165   0.286   3.183
 8587SOL    HW126660   2.217   0.312   3.102
 8587SOL    HW226661   2.181   0.189   3.204
 8588SOL     OW26662   2.337   0.563   0.177
 8588SOL    HW126663   2.434   0.579   0.159
 8588SOL    HW226664   2.328   0.501   0.255
 8589SOL     OW26665   5.334   2.629   4.570
 8589SOL    HW126666   5.416   2.572   4.568
 8589SOL    HW226667   5.268   2.595   4.504
 8590SOL     OW26668   0.226   6.367   3.972
 8590SOL    HW126669   0.191   6.419   3.894
 8590SOL    HW226670   0.289   6.297   3.940
 8591SOL     OW26671   6.707   4.807   6.712
 8591SOL    HW126672   6.686   4.837   6.619
 8591SOL    HW226673   6.685   4.710   6.721
 8592SOL     OW26674   0.047   2.954   6.655
 8592SOL    HW126675   0.131   2.981   6.702
 8592SOL    HW226676   0.013   2.869   6.694
 8593SOL     OW26677   2.606   0.183   1.580
 8593SOL    HW126678   2.601   0.243   1.660
 8593SOL    HW226679   2.680   0.117   1.592
 8594SOL     OW26680   3.417   3.087   5.329
 8594SOL    HW126681   3.473   3.027   5.385
 8594SOL    HW226682   3.460   3.099   5.239
 8595SOL     OW26683   1.674   2.520   2.823
 8595SOL    HW126684   1.613   2.441   2.812
 8595SOL    HW226685   1.724   2.512   2.909
 8596SOL     OW26686   6.311   5.380   3.678
 8596SOL    HW126687   6.225   5.425   3.654
 8596SOL    HW226688   6.297   5.319   3.755
 8597SOL     OW26689   4.589   1.040   0.884
 8597SOL    HW126690   4.608   1.138   0.888
 8597SOL    HW226691   4.575   1.006   0.977
 8598SOL     OW26692   6.763   6.615   0.982
 8598SOL    HW126693   6.758   6.524   1.023
 8598SOL    HW226694   6.751   6.684   1.053
 8599SOL     OW26695   0.976   2.425   4.112
 8599SOL    HW126696   1.023   2.439   4.199
 8599SOL    HW226697   0.879   2.442   4.123
 8600SOL     OW26698   4.924   5.056   5.847
 8600SOL    HW126699   4.868   5.074   5.767
 8600SOL    HW226700   5.021   5.053   5.820
 8601SOL     OW26701   0.573   0.440   4.965
 8601SOL    HW126702   0.482   0.476   4.944
 8601SOL    HW226703   0.600   0.374   4.894
 8602SOL     OW26704   3.355   5.550   3.309
 8602SOL    HW126705   3.337   5.554   3.408
 8602SOL    HW226706   3.376   5.455   3.284
 8603SOL     OW26707   3.928   5.267   0.553
 8603SOL    HW126708   3.879   5.276   0.467
 8603SOL    HW226709   3.946   5.171   0.572
 8604SOL     OW26710   0.950   3.313   3.696
 8604SOL    HW126711   0.898   3.264   3.765
 8604SOL    HW226712   0.917   3.407   3.690
 8605SOL     OW26713   3.018   5.378   4.634
 8605SOL    HW126714   3.030   5.475   4.656
 8605SOL    HW226715   3.018   5.367   4.535
 8606SOL     OW26716   1.484   3.357   6.282
 8606SOL    HW126717   1.555   3.319   6.222
 8606SOL    HW226718   1.433   3.428   6.233
 8607SOL     OW26719   3.473   6.013   0.991
 8607SOL    HW126720   3.462   5.952   0.911
 8607SOL    HW226721   3.546   6.078   0.973
 8608SOL     OW26722   4.750   4.788   2.885
 8608SOL    HW126723   4.835   4.826   2.922
 8608SOL    HW226724   4.672   4.827   2.934
 8609SOL     OW26725   5.819   0.833   3.430
 8609SOL    HW126726   5.900   0.776   3.444
 8609SOL    HW226727   5.789   0.870   3.518
 8610SOL     OW26728   1.828   1.899   2.385
 8610SOL    HW126729   1.927   1.899   2.401
 8610SOL    HW226730   1.782   1.873   2.469
 8611SOL     OW26731   2.058   1.974   4.490
 8611SOL    HW126732   2.128   1.983   4.560
 8611SOL    HW226733   1.968   1.970   4.534
 8612SOL     OW26734   3.615   3.261   0.758
 8612SOL    HW126735   3.534   3.209   0.732
 8612SOL    HW226736   3.685   3.199   0.794
 8613SOL     OW26737   2.378   1.996   0.980
 8613SOL    HW126738   2.403   2.031   0.890
 8613SOL    HW226739   2.391   1.897   0.983
 8614SOL     OW26740   0.998   3.669   2.140
 8614SOL    HW126741   1.047   3.581   2.139
 8614SOL    HW226742   1.058   3.740   2.178
 8615SOL     OW26743   5.330   2.174   5.600
 8615SOL    HW126744   5.282   2.249   5.555
 8615SOL    HW226745   5.265   2.099   5.615
 8616SOL     OW26746   3.163   4.718   1.477
 8616SOL    HW126747   3.116   4.766   1.403
 8616SOL    HW226748   3.097   4.695   1.549
 8617SOL     OW26749   6.652   0.964   6.218
 8617SOL    HW126750   6.713   1.041   6.237
 8617SOL    HW226751   6.669   0.892   6.285
 8618SOL     OW26752   6.215   6.092   1.113
 8618SOL    HW126753   6.172   6.014   1.068
 8618SOL    HW226754   6.216   6.170   1.050
 8619SOL     OW26755   4.018   4.776   2.098
 8619SOL    HW126756   3.921   4.765   2.077
 8619SOL    HW226757   4.063   4.830   2.027
 8620SOL     OW26758   0.782   0.264   3.673
 8620SOL    HW126759   0.729   0.271   3.757
 8620SOL    HW226760   0.769   0.173   3.633
 8621SOL     OW26761   6.266   1.415   2.876
 8621SOL    HW126762   6.189   1.470   2.908
 8621SOL    HW226763   6.351   1.464   2.895
 8622SOL     OW26764   4.824   3.002   0.049
 8622SOL    HW126765   4.726   2.988   0.037
 8622SOL    HW226766   4.840   3.057   0.131
 8623SOL     OW26767   0.540   3.995   3.242
 8623SOL    HW126768   0.520   4.088   3.213
 8623SOL    HW226769   0.633   3.970   3.216
 8624SOL     OW26770   0.955   3.877   4.587
 8624SOL    HW126771   0.949   3.800   4.650
 8624SOL    HW226772   0.987   3.958   4.636
 8625SOL     OW26773   4.674   6.957   5.379
 8625SOL    HW126774   4.648   6.868   5.418
 8625SOL    HW226775   4.655   0.006   5.446
 8626SOL     OW26776   3.912   2.988   5.169
 8626SOL    HW126777   3.873   2.902   5.202
 8626SOL    HW226778   3.949   3.039   5.246
 8627SOL     OW26779   0.685   1.239   3.262
 8627SOL    HW126780   0.594   1.266   3.292
 8627SOL    HW226781   0.746   1.232   3.341
 8628SOL     OW26782   6.284   6.703   1.637
 8628SOL    HW126783   6.380   6.684   1.619
 8628SOL    HW226784   6.228   6.667   1.561
 8629SOL     OW26785   1.187   4.999   5.498
 8629SOL    HW126786   1.284   4.980   5.482
 8629SOL    HW226787   1.137   4.913   5.504
 8630SOL     OW26788   5.187   4.397   3.363
 8630SOL    HW126789   5.226   4.369   3.451
 8630SOL    HW226790   5.091   4.368   3.358
 8631SOL     OW26791   2.341   5.687   5.881
 8631SOL    HW126792   2.370   5.661   5.789
 8631SOL    HW226793   2.285   5.614   5.920
 8632SOL     OW26794   3.485   6.306   3.859
 8632SOL    HW126795   3.538   6.229   3.895
 8632SOL    HW226796   3.516   6.328   3.767
 8633SOL     OW26797   5.853   1.636   4.737
 8633SOL    HW126798   5.881   1.671   4.826
 8633SOL    HW226799   5.803   1.550   4.750
 8634SOL     OW26800   5.458   3.229   0.055
 8634SOL    HW126801   5.392   3.154   0.065
 8634SOL    HW226802   5.489   3.258   0.145
 8635SOL     OW26803   5.997   4.419   6.222
 8635SOL    HW126804   5.950   4.502   6.252
 8635SOL    HW226805   5.962   4.391   6.133
 8636SOL     OW26806   5.205   6.067   0.814
 8636SOL    HW126807   5.133   6.103   0.873
 8636SOL    HW226808   5.257   5.997   0.863
 8637SOL     OW26809   2.105   1.051   0.033
 8637SOL    HW126810   2.124   1.012   6.966
 8637SOL    HW226811   2.006   1.053   0.048
 8638SOL     OW26812   3.130   2.981   6.963
 8638SOL    HW126813   3.203   3.049   6.965
 8638SOL    HW226814   3.130   2.934   6.875
 8639SOL     OW26815   5.412   2.319   1.999
 8639SOL    HW126816   5.511   2.306   2.004
 8639SOL    HW226817   5.383   2.325   1.904
 8640SOL     OW26818   4.479   4.029   0.546
 8640SOL    HW126819   4.568   3.990   0.569
 8640SOL    HW226820   4.406   3.969   0.579
 8641SOL     OW26821   6.052   4.974   3.940
 8641SOL    HW126822   5.999   4.902   3.896
 8641SOL    HW226823   6.049   4.963   4.039
 8642SOL     OW26824   2.637   0.676   3.035
 8642SOL    HW126825   2.727   0.696   3.075
 8642SOL    HW226826   2.604   0.589   3.070
 8643SOL     OW26827   3.429   0.850   6.510
 8643SOL    HW126828   3.433   0.798   6.425
 8643SOL    HW226829   3.384   0.938   6.494
 8644SOL     OW26830   4.713   2.331   5.523
 8644SOL    HW126831   4.702   2.260   5.454
 8644SOL    HW226832   4.624   2.369   5.547
 8645SOL     OW26833   4.418   4.309   1.017
 8645SOL    HW126834   4.386   4.327   1.110
 8645SOL    HW226835   4.401   4.388   0.960
 8646SOL     OW26836   6.276   0.948   1.952
 8646SOL    HW126837   6.222   1.030   1.932
 8646SOL    HW226838   6.227   0.867   1.917
 8647SOL     OW26839   2.443   5.227   5.670
 8647SOL    HW126840   2.480   5.255   5.582
 8647SOL    HW226841   2.458   5.299   5.737
 8648SOL     OW26842   6.514   0.906   3.638
 8648SOL    HW126843   6.545   0.987   3.589
 8648SOL    HW226844   6.459   0.849   3.577
 8649SOL     OW26845   5.573   4.456   6.007
 8649SOL    HW126846   5.538   4.493   5.921
 8649SOL    HW226847   5.525   4.371   6.029
 8650SOL     OW26848   1.769   4.460   6.216
 8650SOL    HW126849   1.848   4.520   6.208
 8650SOL    HW226850   1.686   4.512   6.195
 8651SOL     OW26851   3.583   0.859   0.636
 8651SOL    HW126852   3.658   0.909   0.680
 8651SOL    HW226853   3.617   0.773   0.600
 8652SOL     OW26854   1.898   3.933   3.767
 8652SOL    HW126855   1.984   3.917   3.815
 8652SOL    HW226856   1.853   4.014   3.805
 8653SOL     OW26857   6.355   1.174   6.440
 8653SOL    HW126858   6.446   1.213   6.457
 8653SOL    HW226859   6.286   1.229   6.487
 8654SOL     OW26860   0.856   5.190   1.197
 8654SOL    HW126861   0.814   5.277   1.170
 8654SOL    HW226862   0.806   5.115   1.156
 8655SOL     OW26863   6.356   1.345   4.037
 8655SOL    HW126864   6.380   1.315   3.945
 8655SOL    HW226865   6.438   1.381   4.082
 8656SOL     OW26866   6.432   0.883   0.571
 8656SOL    HW126867   6.498   0.830   0.517
 8656SOL    HW226868   6.352   0.903   0.515
 8657SOL     OW26869   5.237   4.692   0.483
 8657SOL    HW126870   5.213   4.608   0.434
 8657SOL    HW226871   5.158   4.753   0.485
 8658SOL     OW26872   3.911   6.785   0.287
 8658SOL    HW126873   3.816   6.808   0.266
 8658SOL    HW226874   3.964   6.781   0.202
 8659SOL     OW26875   4.548   1.582   3.459
 8659SOL    HW126876   4.537   1.642   3.380
 8659SOL    HW226877   4.632   1.605   3.507
 8660SOL     OW26878   5.666   3.646   0.640
 8660SOL    HW126879   5.739   3.589   0.601
 8660SOL    HW226880   5.668   3.638   0.739
 8661SOL     OW26881   6.001   3.931   0.968
 8661SOL    HW126882   5.946   3.888   1.039
 8661SOL    HW226883   5.970   3.900   0.878
 8662SOL     OW26884   4.321   6.008   0.866
 8662SOL    HW126885   4.412   6.039   0.840
 8662SOL    HW226886   4.308   5.913   0.838
 8663SOL     OW26887   2.740   5.549   1.479
 8663SOL    HW126888   2.723   5.451   1.486
 8663SOL    HW226889   2.805   5.577   1.549
 8664SOL     OW26890   2.898   6.293   1.456
 8664SOL    HW126891   2.964   6.346   1.402
 8664SOL    HW226892   2.818   6.272   1.400
 8665SOL     OW26893   5.750   6.247   5.000
 8665SOL    HW126894   5.811   6.227   5.077
 8665SOL    HW226895   5.656   6.221   5.024
 8666SOL     OW26896   4.918   1.387   3.865
 8666SOL    HW126897   4.913   1.401   3.964
 8666SOL    HW226898   4.827   1.394   3.825
 8667SOL     OW26899   4.996   2.420   3.082
 8667SOL    HW126900   5.012   2.389   2.989
 8667SOL    HW226901   5.000   2.520   3.086
 8668SOL     OW26902   5.530   3.863   3.194
 8668SOL    HW126903   5.491   3.932   3.254
 8668SOL    HW226904   5.617   3.895   3.158
 8669SOL     OW26905   2.483   6.268   0.242
 8669SOL    HW126906   2.556   6.285   0.308
 8669SOL    HW226907   2.449   6.174   0.253
 8670SOL     OW26908   3.347   4.645   5.364
 8670SOL    HW126909   3.393   4.577   5.421
 8670SOL    HW226910   3.257   4.612   5.337
 8671SOL     OW26911   5.475   1.890   3.338
 8671SOL    HW126912   5.523   1.976   3.319
 8671SOL    HW226913   5.382   1.910   3.369
 8672SOL     OW26914   2.011   4.872   3.753
 8672SOL    HW126915   2.103   4.898   3.781
 8672SOL    HW226916   1.947   4.889   3.828
 8673SOL     OW26917   6.577   2.666   0.468
 8673SOL    HW126918   6.532   2.686   0.555
 8673SOL    HW226919   6.543   2.579   0.432
 8674SOL     OW26920   5.372   5.339   3.654
 8674SOL    HW126921   5.327   5.305   3.571
 8674SOL    HW226922   5.318   5.414   3.693
 8675SOL     OW26923   3.174   2.174   4.236
 8675SOL    HW126924   3.081   2.201   4.263
 8675SOL    HW226925   3.203   2.095   4.290
 8676SOL     OW26926   4.183   0.613   2.363
 8676SOL    HW126927   4.211   0.522   2.395
 8676SOL    HW226928   4.144   0.665   2.440
 8677SOL     OW26929   2.437   5.838   5.500
 8677SOL    HW126930   2.424   5.760   5.562
 8677SOL    HW226931   2.515   5.820   5.440
 8678SOL     OW26932   6.477   0.322   0.972
 8678SOL    HW126933   6.410   0.393   0.950
 8678SOL    HW226934   6.448   0.274   1.055
 8679SOL     OW26935   6.647   2.465   3.316
 8679SOL    HW126936   6.664   2.474   3.414
 8679SOL    HW226937   6.599   2.547   3.282
 8680SOL     OW26938   1.010   3.793   1.292
 8680SOL    HW126939   1.065   3.718   1.256
 8680SOL    HW226940   1.045   3.821   1.382
 8681SOL     OW26941   5.047   5.439   0.142
 8681SOL    HW126942   4.949   5.422   0.148
 8681SOL    HW226943   5.077   5.429   0.047
 8682SOL     OW26944   5.241   6.804   1.030
 8682SOL    HW126945   5.220   6.882   0.972
 8682SOL    HW226946   5.242   6.833   1.126
 8683SOL     OW26947   2.101   2.479   2.609
 8683SOL    HW126948   2.154   2.557   2.642
 8683SOL    HW226949   2.012   2.511   2.577
 8684SOL     OW26950   0.544   2.708   5.052
 8684SOL    HW126951   0.546   2.793   4.999
 8684SOL    HW226952   0.449   2.684   5.073
 8685SOL     OW26953   0.582   1.897   5.977
 8685SOL    HW126954   0.514   1.925   5.909
 8685SOL    HW226955   0.577   1.799   5.991
 8686SOL     OW26956   6.840   0.990   1.439
 8686SOL    HW126957   6.763   0.949   1.488
 8686SOL    HW226958   6.900   1.036   1.505
 8687SOL     OW26959   4.314   5.257   1.939
 8687SOL    HW126960   4.279   5.284   1.849
 8687SOL    HW226961   4.245   5.202   1.986
 8688SOL     OW26962   3.013   5.991   0.110
 8688SOL    HW126963   3.084   6.030   0.169
 8688SOL    HW226964   2.942   5.950   0.167
 8689SOL     OW26965   3.626   3.898   1.851
 8689SOL    HW126966   3.638   3.927   1.946
 8689SOL    HW226967   3.533   3.917   1.822
 8690SOL     OW26968   1.463   3.033   2.958
 8690SOL    HW126969   1.383   3.033   3.019
 8690SOL    HW226970   1.465   2.948   2.905
 8691SOL     OW26971   3.354   1.816   6.443
 8691SOL    HW126972   3.429   1.809   6.377
 8691SOL    HW226973   3.391   1.815   6.536
 8692SOL     OW26974   1.660   1.410   4.146
 8692SOL    HW126975   1.656   1.321   4.191
 8692SOL    HW226976   1.672   1.482   4.216
 8693SOL     OW26977   6.937   1.069   6.822
 8693SOL    HW126978   6.895   0.991   6.869
 8693SOL    HW226979   6.997   1.118   6.885
 8694SOL     OW26980   4.457   1.399   5.220
 8694SOL    HW126981   4.433   1.494   5.242
 8694SOL    HW226982   4.374   1.344   5.216
 8695SOL     OW26983   3.849   2.635   6.011
 8695SOL    HW126984   3.785   2.596   5.944
 8695SOL    HW226985   3.803   2.709   6.060
 8696SOL     OW26986   2.134   5.602   0.342
 8696SOL    HW126987   2.195   5.597   0.263
 8696SOL    HW226988   2.110   5.697   0.360
 8697SOL     OW26989   6.824   2.793   0.395
 8697SOL    HW126990   6.787   2.874   0.441
 8697SOL    HW226991   6.781   2.711   0.434
 8698SOL     OW26992   5.685   5.940   4.723
 8698SOL    HW126993   5.719   5.904   4.809
 8698SOL    HW226994   5.687   5.868   4.653
 8699SOL     OW26995   2.635   2.452   5.644
 8699SOL    HW126996   2.594   2.509   5.573
 8699SOL    HW226997   2.734   2.467   5.647
 8700SOL     OW26998   0.900   0.738   4.291
 8700SOL    HW126999   0.821   0.732   4.352
 8700SOL    HW227000   0.983   0.715   4.341
 8701SOL     OW27001   0.939   0.903   0.565
 8701SOL    HW127002   0.846   0.910   0.601
 8701SOL    HW227003   0.992   0.839   0.620
 8702SOL     OW27004   4.967   4.709   1.213
 8702SOL    HW127005   4.884   4.686   1.162
 8702SOL    HW227006   5.044   4.657   1.176
 8703SOL     OW27007   3.349   5.372   0.520
 8703SOL    HW127008   3.448   5.378   0.526
 8703SOL    HW227009   3.314   5.312   0.592
 8704SOL     OW27010   6.990   3.618   3.020
 8704SOL    HW127011   6.893   3.622   3.047
 8704SOL    HW227012   7.010   3.692   2.957
 8705SOL     OW27013   5.021   0.975   6.481
 8705SOL    HW127014   5.060   0.883   6.486
 8705SOL    HW227015   4.939   0.981   6.537
 8706SOL     OW27016   4.408   2.319   6.454
 8706SOL    HW127017   4.445   2.340   6.364
 8706SOL    HW227018   4.336   2.250   6.446
 8707SOL     OW27019   6.934   2.760   0.156
 8707SOL    HW127020   6.883   2.762   0.242
 8707SOL    HW227021   6.898   2.687   0.098
 8708SOL     OW27022   4.962   2.323   2.503
 8708SOL    HW127023   4.992   2.270   2.424
 8708SOL    HW227024   5.031   2.392   2.525
 8709SOL     OW27025   6.751   5.782   0.283
 8709SOL    HW127026   6.779   5.741   0.196
 8709SOL    HW227027   6.677   5.847   0.268
 8710SOL     OW27028   2.150   3.041   4.112
 8710SOL    HW127029   2.079   2.986   4.156
 8710SOL    HW227030   2.176   3.116   4.172
 8711SOL     OW27031   1.251   6.396   2.906
 8711SOL    HW127032   1.262   6.362   2.813
 8711SOL    HW227033   1.157   6.427   2.919
 8712SOL     OW27034   4.054   2.213   4.918
 8712SOL    HW127035   4.089   2.304   4.937
 8712SOL    HW227036   4.128   2.146   4.930
 8713SOL     OW27037   0.600   3.411   3.886
 8713SOL    HW127038   0.693   3.432   3.916
 8713SOL    HW227039   0.558   3.492   3.846
 8714SOL     OW27040   1.064   1.191   5.879
 8714SOL    HW127041   0.972   1.170   5.913
 8714SOL    HW227042   1.111   1.107   5.854
 8715SOL     OW27043   4.332   0.546   1.333
 8715SOL    HW127044   4.359   0.540   1.429
 8715SOL    HW227045   4.280   0.464   1.308
 8716SOL     OW27046   0.567   0.259   1.025
 8716SOL    HW127047   0.555   0.345   0.975
 8716SOL    HW227048   0.480   0.232   1.067
 8717SOL     OW27049   3.308   3.661   3.650
 8717SOL    HW127050   3.327   3.577   3.700
 8717SOL    HW227051   3.255   3.641   3.567
 8718SOL     OW27052   0.986   3.624   4.711
 8718SOL    HW127053   1.038   3.549   4.670
 8718SOL    HW227054   0.979   3.609   4.810
 8719SOL     OW27055   3.108   0.711   6.390
 8719SOL    HW127056   3.064   0.742   6.306
 8719SOL    HW227057   3.039   0.692   6.460
 8720SOL     OW27058   6.239   5.075   5.857
 8720SOL    HW127059   6.199   5.166   5.847
 8720SOL    HW227060   6.183   5.008   5.809
 8721SOL     OW27061   0.238   2.573   2.175
 8721SOL    HW127062   0.317   2.575   2.237
 8721SOL    HW227063   0.171   2.641   2.204
 8722SOL     OW27064   4.157   1.363   0.147
 8722SOL    HW127065   4.155   1.266   0.169
 8722SOL    HW227066   4.246   1.401   0.171
 8723SOL     OW27067   4.575   5.400   0.911
 8723SOL    HW127068   4.601   5.494   0.886
 8723SOL    HW227069   4.638   5.336   0.867
 8724SOL     OW27070   5.586   0.280   5.660
 8724SOL    HW127071   5.554   0.269   5.754
 8724SOL    HW227072   5.564   0.373   5.628
 8725SOL     OW27073   1.715   6.842   6.733
 8725SOL    HW127074   1.640   6.837   6.668
 8725SOL    HW227075   1.731   6.938   6.758
 8726SOL     OW27076   6.413   0.371   2.043
 8726SOL    HW127077   6.365   0.285   2.030
 8726SOL    HW227078   6.468   0.366   2.127
 8727SOL     OW27079   0.021   6.397   2.361
 8727SOL    HW127080   0.035   6.494   2.377
 8727SOL    HW227081   0.090   6.344   2.411
 8728SOL     OW27082   4.911   0.132   3.629
 8728SOL    HW127083   4.990   0.161   3.575
 8728SOL    HW227084   4.898   0.195   3.705
 8729SOL     OW27085   4.533   5.985   4.445
 8729SOL    HW127086   4.470   5.936   4.384
 8729SOL    HW227087   4.627   5.964   4.419
 8730SOL     OW27088   6.437   4.078   2.433
 8730SOL    HW127089   6.344   4.053   2.407
 8730SOL    HW227090   6.467   4.020   2.508
 8731SOL     OW27091   2.456   2.426   2.761
 8731SOL    HW127092   2.399   2.487   2.708
 8731SOL    HW227093   2.529   2.389   2.704
 8732SOL     OW27094   5.494   4.470   1.687
 8732SOL    HW127095   5.533   4.531   1.618
 8732SOL    HW227096   5.395   4.484   1.691
 8733SOL     OW27097   1.719   5.688   1.175
 8733SOL    HW127098   1.811   5.706   1.138
 8733SOL    HW227099   1.726   5.662   1.271
 8734SOL     OW27100   1.712   4.990   2.441
 8734SOL    HW127101   1.723   5.089   2.429
 8734SOL    HW227102   1.621   4.962   2.411
 8735SOL     OW27103   1.025   2.296   0.654
 8735SOL    HW127104   1.106   2.241   0.632
 8735SOL    HW227105   1.030   2.325   0.750
 8736SOL     OW27106   1.193   6.008   6.294
 8736SOL    HW127107   1.196   5.929   6.233
 8736SOL    HW227108   1.272   6.004   6.356
 8737SOL     OW27109   2.169   6.698   6.141
 8737SOL    HW127110   2.170   6.729   6.236
 8737SOL    HW227111   2.257   6.717   6.098
 8738SOL     OW27112   2.091   5.503   4.236
 8738SOL    HW127113   2.095   5.405   4.220
 8738SOL    HW227114   2.167   5.530   4.296
 8739SOL     OW27115   5.911   5.343   5.869
 8739SOL    HW127116   5.857   5.402   5.929
 8739SOL    HW227117   6.006   5.345   5.897
 8740SOL     OW27118   5.225   0.988   5.302
 8740SOL    HW127119   5.171   0.907   5.281
 8740SOL    HW227120   5.314   0.981   5.257
 8741SOL     OW27121   2.682   1.528   1.672
 8741SOL    HW127122   2.776   1.518   1.640
 8741SOL    HW227123   2.627   1.451   1.640
 8742SOL     OW27124   6.007   6.327   1.100
 8742SOL    HW127125   6.050   6.388   1.034
 8742SOL    HW227126   5.973   6.246   1.053
 8743SOL     OW27127   1.667   0.551   2.320
 8743SOL    HW127128   1.572   0.546   2.353
 8743SOL    HW227129   1.667   0.585   2.226
 8744SOL     OW27130   3.327   2.757   6.552
 8744SOL    HW127131   3.289   2.742   6.461
 8744SOL    HW227132   3.364   2.671   6.588
 8745SOL     OW27133   5.974   2.930   6.224
 8745SOL    HW127134   5.939   2.859   6.285
 8745SOL    HW227135   6.059   2.898   6.181
 8746SOL     OW27136   5.512   3.906   4.904
 8746SOL    HW127137   5.556   3.818   4.921
 8746SOL    HW227138   5.414   3.892   4.891
 8747SOL     OW27139   0.917   2.672   2.318
 8747SOL    HW127140   0.899   2.575   2.301
 8747SOL    HW227141   0.845   2.727   2.274
 8748SOL     OW27142   6.835   1.836   4.777
 8748SOL    HW127143   6.917   1.891   4.762
 8748SOL    HW227144   6.817   1.829   4.876
 8749SOL     OW27145   2.562   0.559   6.292
 8749SOL    HW127146   2.565   0.489   6.363
 8749SOL    HW227147   2.584   0.518   6.204
 8750SOL     OW27148   3.495   3.487   5.474
 8750SOL    HW127149   3.532   3.576   5.447
 8750SOL    HW227150   3.568   3.419   5.473
 8751SOL     OW27151   5.862   0.929   2.934
 8751SOL    HW127152   5.862   1.004   2.999
 8751SOL    HW227153   5.922   0.951   2.857
 8752SOL     OW27154   2.696   3.991   0.550
 8752SOL    HW127155   2.710   4.012   0.647
 8752SOL    HW227156   2.738   4.063   0.494
 8753SOL     OW27157   4.349   2.116   5.577
 8753SOL    HW127158   4.264   2.164   5.601
 8753SOL    HW227159   4.370   2.133   5.481
 8754SOL     OW27160   1.444   3.316   5.379
 8754SOL    HW127161   1.379   3.327   5.453
 8754SOL    HW227162   1.485   3.225   5.383
 8755SOL     OW27163   2.798   0.288   0.748
 8755SOL    HW127164   2.869   0.236   0.702
 8755SOL    HW227165   2.708   0.256   0.718
 8756SOL     OW27166   1.692   2.858   3.172
 8756SOL    HW127167   1.710   2.942   3.224
 8756SOL    HW227168   1.752   2.855   3.092
 8757SOL     OW27169   4.148   6.379   5.883
 8757SOL    HW127170   4.140   6.478   5.879
 8757SOL    HW227171   4.244   6.353   5.871
 8758SOL     OW27172   4.901   6.627   2.574
 8758SOL    HW127173   4.996   6.647   2.599
 8758SOL    HW227174   4.840   6.667   2.642
 8759SOL     OW27175   4.562   1.942   0.289
 8759SOL    HW127176   4.527   1.852   0.314
 8759SOL    HW227177   4.487   2.008   0.290
 8760SOL     OW27178   1.302   1.236   4.927
 8760SOL    HW127179   1.237   1.308   4.905
 8760SOL    HW227180   1.395   1.272   4.920
 8761SOL     OW27181   5.782   2.323   2.906
 8761SOL    HW127182   5.851   2.395   2.917
 8761SOL    HW227183   5.707   2.356   2.849
 8762SOL     OW27184   0.998   4.390   2.443
 8762SOL    HW127185   1.049   4.395   2.357
 8762SOL    HW227186   1.015   4.302   2.487
 8763SOL     OW27187   6.468   6.225   5.877
 8763SOL    HW127188   6.488   6.319   5.849
 8763SOL    HW227189   6.370   6.207   5.869
 8764SOL     OW27190   4.975   1.218   5.131
 8764SOL    HW127191   5.056   1.247   5.181
 8764SOL    HW227192   4.997   1.206   5.035
 8765SOL     OW27193   5.640   0.424   5.039
 8765SOL    HW127194   5.541   0.438   5.027
 8765SOL    HW227195   5.664   0.442   5.135
 8766SOL     OW27196   4.476   4.488   3.816
 8766SOL    HW127197   4.438   4.454   3.730
 8766SOL    HW227198   4.404   4.530   3.871
 8767SOL     OW27199   4.484   6.562   3.180
 8767SOL    HW127200   4.543   6.533   3.104
 8767SOL    HW227201   4.536   6.621   3.242
 8768SOL     OW27202   1.209   3.067   0.194
 8768SOL    HW127203   1.240   2.971   0.198
 8768SOL    HW227204   1.110   3.070   0.205
 8769SOL     OW27205   0.860   0.256   4.054
 8769SOL    HW127206   0.924   0.296   3.989
 8769SOL    HW227207   0.899   0.172   4.092
 8770SOL     OW27208   5.151   4.155   2.318
 8770SOL    HW127209   5.187   4.125   2.406
 8770SOL    HW227210   5.081   4.225   2.333
 8771SOL     OW27211   1.184   0.294   6.542
 8771SOL    HW127212   1.113   0.311   6.473
 8771SOL    HW227213   1.141   0.267   6.628
 8772SOL     OW27214   4.773   6.841   0.008
 8772SOL    HW127215   4.674   6.844   7.019
 8772SOL    HW227216   4.796   6.779   0.083
 8773SOL     OW27217   4.605   2.606   3.588
 8773SOL    HW127218   4.631   2.578   3.680
 8773SOL    HW227219   4.519   2.561   3.563
 8774SOL     OW27220   1.566   1.527   6.686
 8774SOL    HW127221   1.514   1.482   6.758
 8774SOL    HW227222   1.544   1.625   6.685
 8775SOL     OW27223   6.243   6.967   5.758
 8775SOL    HW127224   6.330   6.929   5.726
 8775SOL    HW227225   6.170   6.941   5.695
 8776SOL     OW27226   3.762   3.489   5.833
 8776SOL    HW127227   3.682   3.544   5.810
 8776SOL    HW227228   3.827   3.546   5.884
 8777SOL     OW27229   6.990   3.849   1.618
 8777SOL    HW127230   6.966   3.946   1.619
 8777SOL    HW227231   0.007   3.825   1.529
 8778SOL     OW27232   6.536   2.589   4.749
 8778SOL    HW127233   6.615   2.649   4.759
 8778SOL    HW227234   6.536   2.548   4.658
 8779SOL     OW27235   2.946   5.148   2.330
 8779SOL    HW127236   2.900   5.098   2.404
 8779SOL    HW227237   2.989   5.082   2.268
 8780SOL     OW27238   0.742   5.930   2.997
 8780SOL    HW127239   0.784   5.986   3.069
 8780SOL    HW227240   0.699   5.850   3.038
 8781SOL     OW27241   6.217   1.593   3.238
 8781SOL    HW127242   6.208   1.494   3.222
 8781SOL    HW227243   6.190   1.614   3.332
 8782SOL     OW27244   5.158   6.613   2.063
 8782SOL    HW127245   5.212   6.616   2.147
 8782SOL    HW227246   5.207   6.562   1.992
 8783SOL     OW27247   6.619   4.037   3.607
 8783SOL    HW127248   6.610   3.949   3.560
 8783SOL    HW227249   6.623   4.021   3.706
 8784SOL     OW27250   5.685   4.401   6.472
 8784SOL    HW127251   5.639   4.313   6.462
 8784SOL    HW227252   5.773   4.387   6.516
 8785SOL     OW27253   6.400   3.737   6.826
 8785SOL    HW127254   6.497   3.752   6.806
 8785SOL    HW227255   6.346   3.805   6.776
 8786SOL     OW27256   1.982   0.006   0.121
 8786SOL    HW127257   1.882   7.019   0.125
 8786SOL    HW227258   2.007   0.098   0.150
 8787SOL     OW27259   3.083   2.553   1.710
 8787SOL    HW127260   3.179   2.555   1.738
 8787SOL    HW227261   3.029   2.503   1.778
 8788SOL     OW27262   0.461   2.212   5.945
 8788SOL    HW127263   0.490   2.116   5.951
 8788SOL    HW227264   0.426   2.230   5.853
 8789SOL     OW27265   6.021   6.881   5.606
 8789SOL    HW127266   5.945   6.874   5.671
 8789SOL    HW227267   5.990   6.931   5.525
 8790SOL     OW27268   0.195   0.883   0.057
 8790SOL    HW127269   0.159   0.811   0.116
 8790SOL    HW227270   0.229   0.842   6.995
 8791SOL     OW27271   5.835   0.153   5.691
 8791SOL    HW127272   5.910   0.194   5.639
 8791SOL    HW227273   5.760   0.219   5.699
 8792SOL     OW27274   3.439   6.611   3.405
 8792SOL    HW127275   3.435   6.578   3.311
 8792SOL    HW227276   3.454   6.710   3.405
 8793SOL     OW27277   1.823   4.931   3.254
 8793SOL    HW127278   1.808   5.000   3.325
 8793SOL    HW227279   1.747   4.867   3.253
 8794SOL     OW27280   4.147   6.426   1.670
 8794SOL    HW127281   4.075   6.361   1.690
 8794SOL    HW227282   4.221   6.417   1.736
 8795SOL     OW27283   1.400   6.020   5.443
 8795SOL    HW127284   1.331   6.021   5.516
 8795SOL    HW227285   1.431   6.114   5.427
 8796SOL     OW27286   4.235   2.152   4.410
 8796SOL    HW127287   4.210   2.056   4.421
 8796SOL    HW227288   4.204   2.204   4.489
 8797SOL     OW27289   0.590   6.775   5.728
 8797SOL    HW127290   0.564   6.706   5.796
 8797SOL    HW227291   0.662   6.738   5.670
 8798SOL     OW27292   5.178   5.777   6.013
 8798SOL    HW127293   5.234   5.850   6.051
 8798SOL    HW227294   5.095   5.816   5.973
 8799SOL     OW27295   2.302   4.809   4.053
 8799SOL    HW127296   2.285   4.831   3.957
 8799SOL    HW227297   2.389   4.760   4.061
 8800SOL     OW27298   6.104   4.044   5.631
 8800SOL    HW127299   6.132   3.982   5.703
 8800SOL    HW227300   6.025   4.006   5.582
 8801SOL     OW27301   0.433   1.937   4.840
 8801SOL    HW127302   0.508   1.951   4.775
 8801SOL    HW227303   0.412   2.023   4.887
 8802SOL     OW27304   2.149   7.003   0.705
 8802SOL    HW127305   2.119   0.061   0.755
 8802SOL    HW227306   2.160   0.004   0.608
 8803SOL     OW27307   6.948   5.180   6.462
 8803SOL    HW127308   6.855   5.194   6.495
 8803SOL    HW227309   6.980   5.263   6.416
 8804SOL     OW27310   3.168   0.064   2.269
 8804SOL    HW127311   3.149   6.989   2.270
 8804SOL    HW227312   3.093   0.112   2.224
 8805SOL     OW27313   2.796   6.939   4.064
 8805SOL    HW127314   2.868   6.871   4.073
 8805SOL    HW227315   2.833   0.007   4.084
 8806SOL     OW27316   2.570   4.880   2.355
 8806SOL    HW127317   2.643   4.929   2.404
 8806SOL    HW227318   2.584   4.890   2.257
 8807SOL     OW27319   5.326   7.009   6.984
 8807SOL    HW127320   5.380   6.939   0.006
 8807SOL    HW227321   5.341   7.006   6.886
 8808SOL     OW27322   5.656   2.430   6.899
 8808SOL    HW127323   5.617   2.437   6.807
 8808SOL    HW227324   5.607   2.360   6.951
 8809SOL     OW27325   4.300   5.675   3.871
 8809SOL    HW127326   4.260   5.627   3.949
 8809SOL    HW227327   4.397   5.652   3.863
 8810SOL     OW27328   4.947   1.012   5.967
 8810SOL    HW127329   4.959   0.975   6.059
 8810SOL    HW227330   4.850   1.014   5.944
 8811SOL     OW27331   2.727   1.591   3.792
 8811SOL    HW127332   2.657   1.532   3.750
 8811SOL    HW227333   2.769   1.543   3.869
 8812SOL     OW27334   2.067   0.199   0.853
 8812SOL    HW127335   2.024   0.192   0.943
 8812SOL    HW227336   2.134   0.273   0.853
 8813SOL     OW27337   1.142   4.697   1.995
 8813SOL    HW127338   1.096   4.760   1.932
 8813SOL    HW227339   1.127   4.728   2.089
 8814SOL     OW27340   5.673   6.922   1.027
 8814SOL    HW127341   5.593   6.976   1.053
 8814SOL    HW227342   5.722   6.969   0.953
 8815SOL     OW27343   6.864   6.685   0.567
 8815SOL    HW127344   6.846   6.621   0.641
 8815SOL    HW227345   6.958   6.673   0.535
 8816SOL     OW27346   1.220   0.494   0.081
 8816SOL    HW127347   1.271   0.463   0.161
 8816SOL    HW227348   1.283   0.504   0.004
 8817SOL     OW27349   0.803   6.009   4.659
 8817SOL    HW127350   0.755   5.924   4.680
 8817SOL    HW227351   0.741   6.071   4.610
 8818SOL     OW27352   0.465   3.890   4.711
 8818SOL    HW127353   0.533   3.949   4.755
 8818SOL    HW227354   0.402   3.854   4.780
 8819SOL     OW27355   5.431   5.035   5.013
 8819SOL    HW127356   5.344   4.993   5.039
 8819SOL    HW227357   5.488   5.046   5.095
 8820SOL     OW27358   1.835   0.606   5.136
 8820SOL    HW127359   1.803   0.544   5.208
 8820SOL    HW227360   1.843   0.699   5.174
 8821SOL     OW27361   3.177   6.155   0.272
 8821SOL    HW127362   3.219   6.144   0.182
 8821SOL    HW227363   3.154   6.251   0.287
 8822SOL     OW27364   0.458   0.037   4.747
 8822SOL    HW127365   0.407   6.978   4.720
 8822SOL    HW227366   0.539   0.010   4.799
 8823SOL     OW27367   2.511   0.696   1.173
 8823SOL    HW127368   2.498   0.760   1.249
 8823SOL    HW227369   2.580   0.732   1.110
 8824SOL     OW27370   0.742   3.210   0.912
 8824SOL    HW127371   0.707   3.136   0.854
 8824SOL    HW227372   0.835   3.234   0.883
 8825SOL     OW27373   2.106   0.536   2.652
 8825SOL    HW127374   2.070   0.461   2.707
 8825SOL    HW227375   2.033   0.575   2.597
 8826SOL     OW27376   6.630   3.531   1.248
 8826SOL    HW127377   6.633   3.570   1.156
 8826SOL    HW227378   6.540   3.546   1.288
 8827SOL     OW27379   3.507   1.301   3.280
 8827SOL    HW127380   3.503   1.348   3.192
 8827SOL    HW227381   3.511   1.369   3.353
 8828SOL     OW27382   4.726   5.454   5.848
 8828SOL    HW127383   4.821   5.427   5.839
 8828SOL    HW227384   4.702   5.518   5.775
 8829SOL     OW27385   6.236   2.583   0.611
 8829SOL    HW127386   6.139   2.601   0.622
 8829SOL    HW227387   6.252   2.484   0.608
 8830SOL     OW27388   1.122   1.755   2.364
 8830SOL    HW127389   1.147   1.821   2.293
 8830SOL    HW227390   1.199   1.692   2.378
 8831SOL     OW27391   4.698   1.831   3.943
 8831SOL    HW127392   4.640   1.899   3.987
 8831SOL    HW227393   4.645   1.780   3.875
 8832SOL     OW27394   7.001   5.773   3.254
 8832SOL    HW127395   0.039   5.811   3.185
 8832SOL    HW227396   6.945   5.701   3.214
 8833SOL     OW27397   2.156   5.841   5.511
 8833SOL    HW127398   2.253   5.858   5.492
 8833SOL    HW227399   2.107   5.834   5.424
 8834SOL     OW27400   5.183   3.473   4.825
 8834SOL    HW127401   5.133   3.531   4.889
 8834SOL    HW227402   5.120   3.408   4.782
 8835SOL     OW27403   5.458   1.114   5.967
 8835SOL    HW127404   5.375   1.066   5.939
 8835SOL    HW227405   5.434   1.187   6.031
 8836SOL     OW27406   4.868   2.825   6.743
 8836SOL    HW127407   4.774   2.852   6.767
 8836SOL    HW227408   4.878   2.726   6.751
 8837SOL     OW27409   0.124   5.748   3.516
 8837SOL    HW127410   0.060   5.748   3.440
 8837SOL    HW227411   0.074   5.758   3.602
 8838SOL     OW27412   2.418   5.201   2.771
 8838SOL    HW127413   2.364   5.219   2.689
 8838SOL    HW227414   2.507   5.164   2.745
 8839SOL     OW27415   5.198   4.950   3.500
 8839SOL    HW127416   5.133   4.898   3.445
 8839SOL    HW227417   5.148   5.017   3.556
 8840SOL     OW27418   6.513   1.912   2.190
 8840SOL    HW127419   6.424   1.943   2.225
 8840SOL    HW227420   6.586   1.960   2.239
 8841SOL     OW27421   0.612   0.909   5.223
 8841SOL    HW127422   0.551   0.975   5.266
 8841SOL    HW227423   0.662   0.858   5.293
 8842SOL     OW27424   3.388   3.185   2.363
 8842SOL    HW127425   3.444   3.159   2.441
 8842SOL    HW227426   3.321   3.113   2.344
 8843SOL     OW27427   1.887   3.183   5.719
 8843SOL    HW127428   1.789   3.199   5.708
 8843SOL    HW227429   1.935   3.270   5.727
 8844SOL     OW27430   6.820   2.553   0.045
 8844SOL    HW127431   6.903   2.497   0.050
 8844SOL    HW227432   6.742   2.499   0.077
 8845SOL     OW27433   3.675   3.875   6.904
 8845SOL    HW127434   3.631   3.849   6.990
 8845SOL    HW227435   3.691   3.974   6.903
 8846SOL     OW27436   2.994   5.965   3.543
 8846SOL    HW127437   3.086   5.954   3.505
 8846SOL    HW227438   2.995   5.938   3.639
 8847SOL     OW27439   2.541   1.443   3.691
 8847SOL    HW127440   2.498   1.390   3.764
 8847SOL    HW227441   2.474   1.506   3.652
 8848SOL     OW27442   2.362   0.890   1.337
 8848SOL    HW127443   2.304   0.811   1.317
 8848SOL    HW227444   2.378   0.896   1.436
 8849SOL     OW27445   3.243   6.514   3.592
 8849SOL    HW127446   3.315   6.551   3.533
 8849SOL    HW227447   3.214   6.584   3.657
 8850SOL     OW27448   1.007   2.188   7.006
 8850SOL    HW127449   0.999   2.287   7.018
 8850SOL    HW227450   1.026   2.168   6.910
 8851SOL     OW27451   1.184   4.233   3.753
 8851SOL    HW127452   1.150   4.254   3.845
 8851SOL    HW227453   1.113   4.184   3.702
 8852SOL     OW27454   0.072   2.749   5.216
 8852SOL    HW127455   0.091   2.744   5.314
 8852SOL    HW227456   0.098   2.839   5.181
 8853SOL     OW27457   3.130   0.896   1.375
 8853SOL    HW127458   3.053   0.955   1.397
 8853SOL    HW227459   3.125   0.813   1.431
 8854SOL     OW27460   2.585   2.402   5.909
 8854SOL    HW127461   2.556   2.405   5.813
 8854SOL    HW227462   2.649   2.477   5.926
 8855SOL     OW27463   6.510   5.125   1.382
 8855SOL    HW127464   6.477   5.053   1.444
 8855SOL    HW227465   6.593   5.093   1.336
 8856SOL     OW27466   0.920   6.368   6.148
 8856SOL    HW127467   0.951   6.453   6.106
 8856SOL    HW227468   0.856   6.388   6.222
 8857SOL     OW27469   6.837   2.050   4.508
 8857SOL    HW127470   6.896   2.117   4.462
 8857SOL    HW227471   6.893   1.979   4.551
 8858SOL     OW27472   0.119   4.068   4.590
 8858SOL    HW127473   0.094   4.146   4.532
 8858SOL    HW227474   0.218   4.059   4.593
 8859SOL     OW27475   1.359   1.379   3.542
 8859SOL    HW127476   1.430   1.445   3.565
 8859SOL    HW227477   1.296   1.419   3.475
 8860SOL     OW27478   6.860   2.267   1.674
 8860SOL    HW127479   6.809   2.330   1.616
 8860SOL    HW227480   6.898   2.317   1.752
 8861SOL     OW27481   4.158   1.065   5.948
 8861SOL    HW127482   4.202   0.994   6.004
 8861SOL    HW227483   4.204   1.152   5.963
 8862SOL     OW27484   5.669   6.896   3.720
 8862SOL    HW127485   5.748   6.872   3.665
 8862SOL    HW227486   5.697   6.958   3.793
 8863SOL     OW27487   2.629   4.710   3.514
 8863SOL    HW127488   2.532   4.733   3.517
 8863SOL    HW227489   2.667   4.736   3.425
 8864SOL     OW27490   3.134   5.060   6.420
 8864SOL    HW127491   3.182   4.998   6.358
 8864SOL    HW227492   3.159   5.155   6.398
 8865SOL     OW27493   3.171   0.628   4.614
 8865SOL    HW127494   3.245   0.686   4.649
 8865SOL    HW227495   3.204   0.578   4.533
 8866SOL     OW27496   5.677   0.406   3.047
 8866SOL    HW127497   5.607   0.419   3.118
 8866SOL    HW227498   5.661   0.319   3.000
 8867SOL     OW27499   5.986   4.243   3.301
 8867SOL    HW127500   5.975   4.165   3.364
 8867SOL    HW227501   5.925   4.317   3.329
 8868SOL     OW27502   0.301   3.186   1.249
 8868SOL    HW127503   0.294   3.129   1.168
 8868SOL    HW227504   0.209   3.208   1.283
 8869SOL     OW27505   3.703   5.996   5.404
 8869SOL    HW127506   3.604   5.994   5.387
 8869SOL    HW227507   3.738   6.087   5.383
 8870SOL     OW27508   2.600   6.454   1.566
 8870SOL    HW127509   2.657   6.535   1.549
 8870SOL    HW227510   2.659   6.375   1.583
 8871SOL     OW27511   1.757   0.444   3.849
 8871SOL    HW127512   1.798   0.384   3.917
 8871SOL    HW227513   1.661   0.461   3.872
 8872SOL     OW27514   1.773   4.834   5.640
 8872SOL    HW127515   1.864   4.820   5.599
 8872SOL    HW227516   1.706   4.775   5.594
 8873SOL     OW27517   1.240   0.060   2.361
 8873SOL    HW127518   1.324   0.057   2.307
 8873SOL    HW227519   1.176   7.013   2.328
 8874SOL     OW27520   2.141   5.515   2.376
 8874SOL    HW127521   2.161   5.591   2.438
 8874SOL    HW227522   2.044   5.492   2.382
 8875SOL     OW27523   6.871   3.722   4.546
 8875SOL    HW127524   6.944   3.757   4.604
 8875SOL    HW227525   6.884   3.624   4.532
 8876SOL     OW27526   2.273   0.269   5.679
 8876SOL    HW127527   2.295   0.351   5.628
 8876SOL    HW227528   2.185   0.233   5.649
 8877SOL     OW27529   2.318   2.085   4.179
 8877SOL    HW127530   2.333   2.152   4.106
 8877SOL    HW227531   2.337   2.127   4.267
 8878SOL     OW27532   4.643   4.993   0.686
 8878SOL    HW127533   4.698   5.076   0.694
 8878SOL    HW227534   4.646   4.943   0.772
 8879SOL     OW27535   4.384   4.531   2.392
 8879SOL    HW127536   4.464   4.495   2.345
 8879SOL    HW227537   4.313   4.553   2.325
 8880SOL     OW27538   4.633   6.357   5.203
 8880SOL    HW127539   4.671   6.375   5.113
 8880SOL    HW227540   4.584   6.270   5.202
 8881SOL     OW27541   5.350   6.032   3.958
 8881SOL    HW127542   5.427   6.095   3.963
 8881SOL    HW227543   5.315   6.014   4.049
 8882SOL     OW27544   5.084   1.141   1.577
 8882SOL    HW127545   5.120   1.076   1.510
 8882SOL    HW227546   5.024   1.094   1.641
 8883SOL     OW27547   2.098   6.345   5.970
 8883SOL    HW127548   2.076   6.247   5.967
 8883SOL    HW227549   2.051   6.388   6.047
 8884SOL     OW27550   6.170   3.062   5.879
 8884SOL    HW127551   6.156   3.006   5.798
 8884SOL    HW227552   6.089   3.058   5.937
 8885SOL     OW27553   5.196   4.449   0.752
 8885SOL    HW127554   5.210   4.362   0.799
 8885SOL    HW227555   5.273   4.466   0.690
 8886SOL     OW27556   2.896   5.912   5.495
 8886SOL    HW127557   2.839   5.874   5.569
 8886SOL    HW227558   2.847   5.987   5.451
 8887SOL     OW27559   4.040   1.133   1.008
 8887SOL    HW127560   3.952   1.150   0.963
 8887SOL    HW227561   4.024   1.091   1.097
 8888SOL     OW27562   1.756   1.441   5.492
 8888SOL    HW127563   1.815   1.521   5.480
 8888SOL    HW227564   1.717   1.416   5.404
 8889SOL     OW27565   6.602   6.727   0.034
 8889SOL    HW127566   6.542   6.689   0.103
 8889SOL    HW227567   6.601   6.827   0.040
 8890SOL     OW27568   0.137   5.832   5.585
 8890SOL    HW127569   0.049   5.870   5.558
 8890SOL    HW227570   0.181   5.791   5.506
 8891SOL     OW27571   3.908   3.945   0.098
 8891SOL    HW127572   3.950   3.974   0.012
 8891SOL    HW227573   3.908   4.022   0.162
 8892SOL     OW27574   3.958   4.826   3.007
 8892SOL    HW127575   4.012   4.794   2.929
 8892SOL    HW227576   3.861   4.830   2.982
 8893SOL     OW27577   1.216   5.081   4.271
 8893SOL    HW127578   1.160   5.030   4.205
 8893SOL    HW227579   1.166   5.087   4.358
 8894SOL     OW27580   3.079   1.720   6.432
 8894SOL    HW127581   3.061   1.680   6.342
 8894SOL    HW227582   3.175   1.749   6.437
 8895SOL     OW27583   6.958   2.271   1.962
 8895SOL    HW127584   6.921   2.363   1.973
 8895SOL    HW227585   0.024   2.265   2.008
 8896SOL     OW27586   2.149   3.159   4.935
 8896SOL    HW127587   2.208   3.080   4.947
 8896SOL    HW227588   2.149   3.214   5.018
 8897SOL     OW27589   2.555   2.492   3.608
 8897SOL    HW127590   2.588   2.530   3.521
 8897SOL    HW227591   2.464   2.528   3.627
 8898SOL     OW27592   4.924   3.644   2.639
 8898SOL    HW127593   4.912   3.602   2.549
 8898SOL    HW227594   5.021   3.661   2.655
 8899SOL     OW27595   1.159   4.273   0.816
 8899SOL    HW127596   1.229   4.344   0.804
 8899SOL    HW227597   1.112   4.288   0.903
 8900SOL     OW27598   5.128   3.218   3.238
 8900SOL    HW127599   5.204   3.201   3.300
 8900SOL    HW227600   5.125   3.146   3.168
 8901SOL     OW27601   0.779   1.400   4.950
 8901SOL    HW127602   0.813   1.434   4.862
 8901SOL    HW227603   0.820   1.311   4.969
 8902SOL     OW27604   0.728   5.648   0.288
 8902SOL    HW127605   0.667   5.703   0.232
 8902SOL    HW227606   0.817   5.640   0.242
 8903SOL     OW27607   0.794   1.833   4.150
 8903SOL    HW127608   0.821   1.925   4.121
 8903SOL    HW227609   0.860   1.767   4.115
 8904SOL     OW27610   0.749   0.665   4.571
 8904SOL    HW127611   0.820   0.595   4.578
 8904SOL    HW227612   0.661   0.627   4.598
 8905SOL     OW27613   2.079   3.243   3.223
 8905SOL    HW127614   2.099   3.305   3.299
 8905SOL    HW227615   2.119   3.154   3.241
 8906SOL     OW27616   0.365   6.319   0.760
 8906SOL    HW127617   0.297   6.280   0.822
 8906SOL    HW227618   0.449   6.264   0.765
 8907SOL     OW27619   3.556   2.784   5.798
 8907SOL    HW127620   3.612   2.705   5.821
 8907SOL    HW227621   3.612   2.851   5.749
 8908SOL     OW27622   1.445   5.751   0.223
 8908SOL    HW127623   1.501   5.776   0.143
 8908SOL    HW227624   1.436   5.831   0.283
 8909SOL     OW27625   2.471   1.687   5.736
 8909SOL    HW127626   2.447   1.745   5.658
 8909SOL    HW227627   2.568   1.666   5.734
 8910SOL     OW27628   1.073   3.518   5.743
 8910SOL    HW127629   1.159   3.517   5.692
 8910SOL    HW227630   1.073   3.595   5.806
 8911SOL     OW27631   5.039   3.144   4.564
 8911SOL    HW127632   5.076   3.135   4.471
 8911SOL    HW227633   5.019   3.240   4.582
 8912SOL     OW27634   2.925   3.839   0.083
 8912SOL    HW127635   2.906   3.753   0.132
 8912SOL    HW227636   2.851   3.857   0.018
 8913SOL     OW27637   4.103   5.403   6.704
 8913SOL    HW127638   4.050   5.408   6.789
 8913SOL    HW227639   4.050   5.354   6.635
 8914SOL     OW27640   4.800   0.330   4.763
 8914SOL    HW127641   4.828   0.319   4.668
 8914SOL    HW227642   4.744   0.252   4.791
 8915SOL     OW27643   1.500   1.967   3.764
 8915SOL    HW127644   1.594   1.949   3.735
 8915SOL    HW227645   1.451   2.014   3.690
 8916SOL     OW27646   6.455   3.063   0.569
 8916SOL    HW127647   6.534   3.106   0.526
 8916SOL    HW227648   6.409   3.004   0.503
 8917SOL     OW27649   5.486   2.859   0.534
 8917SOL    HW127650   5.529   2.820   0.453
 8917SOL    HW227651   5.429   2.789   0.578
 8918SOL     OW27652   0.472   4.693   0.874
 8918SOL    HW127653   0.507   4.600   0.876
 8918SOL    HW227654   0.406   4.706   0.948
 8919SOL     OW27655   4.823   3.857   6.994
 8919SOL    HW127656   4.863   3.766   7.004
 8919SOL    HW227657   4.896   3.925   6.985
 8920SOL     OW27658   0.009   1.752   6.993
 8920SOL    HW127659   6.975   1.833   6.977
 8920SOL    HW227660   0.073   1.741   6.917
 8921SOL     OW27661   1.795   3.113   1.643
 8921SOL    HW127662   1.792   3.072   1.734
 8921SOL    HW227663   1.845   3.199   1.647
 8922SOL     OW27664   4.050   5.134   2.392
 8922SOL    HW127665   4.096   5.047   2.405
 8922SOL    HW227666   3.956   5.128   2.425
 8923SOL     OW27667   1.669   1.899   6.329
 8923SOL    HW127668   1.641   1.848   6.410
 8923SOL    HW227669   1.652   1.997   6.344
 8924SOL     OW27670   4.557   5.692   5.079
 8924SOL    HW127671   4.574   5.736   5.167
 8924SOL    HW227672   4.462   5.707   5.052
 8925SOL     OW27673   0.830   0.617   3.352
 8925SOL    HW127674   0.781   0.529   3.352
 8925SOL    HW227675   0.837   0.651   3.259
 8926SOL     OW27676   6.211   3.172   6.254
 8926SOL    HW127677   6.179   3.130   6.169
 8926SOL    HW227678   6.197   3.108   6.330
 8927SOL     OW27679   0.204   0.948   4.492
 8927SOL    HW127680   0.174   0.871   4.435
 8927SOL    HW227681   0.280   0.995   4.446
 8928SOL     OW27682   1.471   0.415   6.023
 8928SOL    HW127683   1.569   0.420   6.042
 8928SOL    HW227684   1.432   0.507   6.023
 8929SOL     OW27685   5.874   2.039   4.894
 8929SOL    HW127686   5.927   1.981   4.831
 8929SOL    HW227687   5.917   2.036   4.984
 8930SOL     OW27688   1.132   2.724   4.439
 8930SOL    HW127689   1.151   2.820   4.458
 8930SOL    HW227690   1.183   2.696   4.357
 8931SOL     OW27691   3.290   3.793   1.092
 8931SOL    HW127692   3.244   3.788   1.180
 8931SOL    HW227693   3.236   3.745   1.023
 8932SOL     OW27694   6.040   2.300   1.998
 8932SOL    HW127695   6.112   2.259   1.941
 8932SOL    HW227696   5.958   2.314   1.943
 8933SOL     OW27697   2.811   2.879   6.025
 8933SOL    HW127698   2.786   2.964   6.070
 8933SOL    HW227699   2.844   2.898   5.933
 8934SOL     OW27700   2.237   5.564   4.477
 8934SOL    HW127701   2.272   5.635   4.538
 8934SOL    HW227702   2.201   5.488   4.531
 8935SOL     OW27703   0.640   4.656   0.103
 8935SOL    HW127704   0.681   4.573   0.140
 8935SOL    HW227705   0.544   4.639   0.082
 8936SOL     OW27706   1.145   4.406   2.227
 8936SOL    HW127707   1.153   4.359   2.139
 8936SOL    HW227708   1.235   4.442   2.253
 8937SOL     OW27709   0.736   0.315   5.575
 8937SOL    HW127710   0.779   0.236   5.620
 8937SOL    HW227711   0.656   0.344   5.628
 8938SOL     OW27712   0.628   6.219   0.767
 8938SOL    HW127713   0.711   6.230   0.821
 8938SOL    HW227714   0.641   6.259   0.677
 8939SOL     OW27715   5.203   3.080   4.349
 8939SOL    HW127716   5.163   3.038   4.267
 8939SOL    HW227717   5.259   3.012   4.396
 8940SOL     OW27718   0.268   1.435   2.333
 8940SOL    HW127719   0.360   1.435   2.296
 8940SOL    HW227720   0.212   1.501   2.282
 8941SOL     OW27721   6.470   2.674   5.828
 8941SOL    HW127722   6.512   2.762   5.849
 8941SOL    HW227723   6.428   2.677   5.738
 8942SOL     OW27724   6.454   4.953   4.848
 8942SOL    HW127725   6.530   5.016   4.831
 8942SOL    HW227726   6.369   4.994   4.816
 8943SOL     OW27727   3.480   5.043   6.139
 8943SOL    HW127728   3.474   5.034   6.040
 8943SOL    HW227729   3.550   4.982   6.174
 8944SOL     OW27730   5.319   4.852   5.340
 8944SOL    HW127731   5.322   4.912   5.421
 8944SOL    HW227732   5.378   4.772   5.355
 8945SOL     OW27733   1.145   0.784   3.043
 8945SOL    HW127734   1.149   0.880   3.016
 8945SOL    HW227735   1.220   0.762   3.105
 8946SOL     OW27736   3.295   1.477   5.164
 8946SOL    HW127737   3.367   1.408   5.153
 8946SOL    HW227738   3.320   1.539   5.238
 8947SOL     OW27739   2.287   3.511   5.668
 8947SOL    HW127740   2.258   3.427   5.622
 8947SOL    HW227741   2.317   3.578   5.600
 8948SOL     OW27742   6.344   6.529   4.721
 8948SOL    HW127743   6.396   6.446   4.703
 8948SOL    HW227744   6.287   6.516   4.802
 8949SOL     OW27745   2.633   0.028   0.809
 8949SOL    HW127746   2.640   6.953   0.791
 8949SOL    HW227747   2.678   0.050   0.895
 8950SOL     OW27748   4.615   4.340   5.773
 8950SOL    HW127749   4.644   4.374   5.683
 8950SOL    HW227750   4.636   4.409   5.843
 8951SOL     OW27751   1.280   2.200   5.376
 8951SOL    HW127752   1.245   2.289   5.348
 8951SOL    HW227753   1.280   2.138   5.298
 8952SOL     OW27754   1.345   6.765   2.621
 8952SOL    HW127755   1.403   6.844   2.639
 8952SOL    HW227756   1.262   6.771   2.677
 8953SOL     OW27757   1.483   4.145   6.636
 8953SOL    HW127758   1.567   4.136   6.689
 8953SOL    HW227759   1.408   4.100   6.684
 8954SOL     OW27760   0.929   0.153   5.200
 8954SOL    HW127761   0.974   0.095   5.268
 8954SOL    HW227762   0.863   0.098   5.148
 8955SOL     OW27763   0.206   5.096   2.255
 8955SOL    HW127764   0.230   5.122   2.348
 8955SOL    HW227765   0.206   4.996   2.246
 8956SOL     OW27766   0.942   1.258   6.667
 8956SOL    HW127767   1.040   1.267   6.651
 8956SOL    HW227768   0.925   1.233   6.762
 8957SOL     OW27769   2.796   4.420   1.613
 8957SOL    HW127770   2.716   4.380   1.658
 8957SOL    HW227771   2.865   4.444   1.682
 8958SOL     OW27772   0.465   1.476   5.030
 8958SOL    HW127773   0.541   1.414   5.051
 8958SOL    HW227774   0.387   1.423   4.997
 8959SOL     OW27775   1.471   4.263   1.576
 8959SOL    HW127776   1.430   4.354   1.576
 8959SOL    HW227777   1.551   4.262   1.636
 8960SOL     OW27778   4.515   4.404   2.921
 8960SOL    HW127779   4.545   4.326   2.977
 8960SOL    HW227780   4.579   4.480   2.931
 8961SOL     OW27781   2.475   1.302   4.672
 8961SOL    HW127782   2.505   1.343   4.759
 8961SOL    HW227783   2.381   1.270   4.680
 8962SOL     OW27784   5.722   6.113   2.276
 8962SOL    HW127785   5.649   6.153   2.332
 8962SOL    HW227786   5.761   6.185   2.218
 8963SOL     OW27787   4.245   6.115   4.305
 8963SOL    HW127788   4.244   6.176   4.384
 8963SOL    HW227789   4.229   6.168   4.222
 8964SOL     OW27790   4.868   3.093   3.173
 8964SOL    HW127791   4.941   3.157   3.199
 8964SOL    HW227792   4.839   3.112   3.079
 8965SOL     OW27793   2.241   5.049   0.693
 8965SOL    HW127794   2.299   5.119   0.652
 8965SOL    HW227795   2.250   5.053   0.793
 8966SOL     OW27796   6.724   3.938   6.739
 8966SOL    HW127797   6.679   3.854   6.707
 8966SOL    HW227798   6.662   4.016   6.724
 8967SOL     OW27799   3.987   6.990   2.018
 8967SOL    HW127800   4.024   0.051   1.979
 8967SOL    HW227801   3.916   7.013   2.084
 8968SOL     OW27802   5.053   4.813   3.321
 8968SOL    HW127803   4.985   4.883   3.300
 8968SOL    HW227804   5.089   4.775   3.236
 8969SOL     OW27805   0.045   1.349   4.532
 8969SOL    HW127806   0.025   1.253   4.546
 8969SOL    HW227807   0.110   1.360   4.456
 8970SOL     OW27808   2.439   3.283   0.378
 8970SOL    HW127809   2.393   3.280   0.467
 8970SOL    HW227810   2.372   3.298   0.306
 8971SOL     OW27811   5.036   5.432   1.935
 8971SOL    HW127812   5.071   5.341   1.957
 8971SOL    HW227813   4.947   5.423   1.890
 8972SOL     OW27814   5.535   4.669   6.165
 8972SOL    HW127815   5.540   4.594   6.099
 8972SOL    HW227816   5.439   4.694   6.179
 8973SOL     OW27817   1.058   3.194   2.373
 8973SOL    HW127818   1.143   3.215   2.422
 8973SOL    HW227819   1.076   3.123   2.305
 8974SOL     OW27820   1.291   4.404   5.565
 8974SOL    HW127821   1.244   4.316   5.563
 8974SOL    HW227822   1.343   4.416   5.480
 8975SOL     OW27823   1.783   0.032   5.861
 8975SOL    HW127824   1.826   6.983   5.916
 8975SOL    HW227825   1.834   0.118   5.873
 8976SOL     OW27826   0.111   4.825   5.071
 8976SOL    HW127827   0.201   4.862   5.097
 8976SOL    HW227828   0.072   4.775   5.149
 8977SOL     OW27829   5.600   2.743   0.288
 8977SOL    HW127830   5.631   2.794   0.208
 8977SOL    HW227831   5.659   2.663   0.301
 8978SOL     OW27832   5.878   0.386   4.943
 8978SOL    HW127833   5.793   0.415   4.986
 8978SOL    HW227834   5.864   0.377   4.845
 8979SOL     OW27835   1.429   3.527   4.391
 8979SOL    HW127836   1.416   3.536   4.490
 8979SOL    HW227837   1.355   3.575   4.344
 8980SOL     OW27838   2.850   2.980   5.770
 8980SOL    HW127839   2.753   3.003   5.763
 8980SOL    HW227840   2.867   2.894   5.721
 8981SOL     OW27841   4.519   1.893   5.555
 8981SOL    HW127842   4.525   1.798   5.586
 8981SOL    HW227843   4.445   1.939   5.604
 8982SOL     OW27844   0.798   2.239   1.077
 8982SOL    HW127845   0.814   2.283   1.165
 8982SOL    HW227846   0.730   2.166   1.089
 8983SOL     OW27847   1.761   6.195   0.135
 8983SOL    HW127848   1.835   6.241   0.184
 8983SOL    HW227849   1.789   6.181   0.040
 8984SOL     OW27850   0.091   0.471   4.291
 8984SOL    HW127851   0.179   0.431   4.265
 8984SOL    HW227852   0.038   0.490   4.209
 8985SOL     OW27853   2.536   2.805   0.602
 8985SOL    HW127854   2.469   2.869   0.566
 8985SOL    HW227855   2.510   2.779   0.695
 8986SOL     OW27856   5.081   5.192   2.440
 8986SOL    HW127857   5.100   5.281   2.401
 8986SOL    HW227858   4.998   5.197   2.496
 8987SOL     OW27859   4.248   6.947   1.413
 8987SOL    HW127860   4.335   6.975   1.372
 8987SOL    HW227861   4.180   6.935   1.340
 8988SOL     OW27862   1.496   3.549   5.562
 8988SOL    HW127863   1.557   3.589   5.494
 8988SOL    HW227864   1.535   3.561   5.653
 8989SOL     OW27865   5.093   4.012   1.281
 8989SOL    HW127866   5.100   4.112   1.283
 8989SOL    HW227867   5.172   3.974   1.233
 8990SOL     OW27868   1.847   6.194   3.213
 8990SOL    HW127869   1.804   6.124   3.270
 8990SOL    HW227870   1.849   6.164   3.118
 8991SOL     OW27871   1.332   2.067   6.457
 8991SOL    HW127872   1.414   2.108   6.418
 8991SOL    HW227873   1.355   2.019   6.541
 8992SOL     OW27874   5.583   1.425   0.370
 8992SOL    HW127875   5.520   1.477   0.312
 8992SOL    HW227876   5.677   1.451   0.348
 8993SOL     OW27877   5.165   2.488   2.544
 8993SOL    HW127878   5.140   2.568   2.599
 8993SOL    HW227879   5.264   2.489   2.527
 8994SOL     OW27880   1.026   4.637   4.872
 8994SOL    HW127881   1.122   4.639   4.900
 8994SOL    HW227882   1.020   4.658   4.775
 8995SOL     OW27883   0.932   2.992   0.248
 8995SOL    HW127884   0.986   2.913   0.219
 8995SOL    HW227885   0.835   2.967   0.249
 8996SOL     OW27886   5.694   5.210   0.595
 8996SOL    HW127887   5.740   5.298   0.609
 8996SOL    HW227888   5.633   5.217   0.516
 8997SOL     OW27889   4.861   1.330   5.991
 8997SOL    HW127890   4.908   1.293   6.071
 8997SOL    HW227891   4.806   1.258   5.948
 8998SOL     OW27892   6.467   3.975   4.374
 8998SOL    HW127893   6.543   3.950   4.434
 8998SOL    HW227894   6.381   3.948   4.417
 8999SOL     OW27895   4.747   6.417   6.719
 8999SOL    HW127896   4.698   6.496   6.684
 8999SOL    HW227897   4.777   6.434   6.813
 9000SOL     OW27898   1.703   4.105   0.895
 9000SOL    HW127899   1.741   4.159   0.970
 9000SOL    HW227900   1.708   4.008   0.918
 9001SOL     OW27901   1.431   5.687   2.326
 9001SOL    HW127902   1.382   5.773   2.339
 9001SOL    HW227903   1.474   5.660   2.412
 9002SOL     OW27904   0.408   4.761   4.753
 9002SOL    HW127905   0.341   4.690   4.776
 9002SOL    HW227906   0.500   4.727   4.771
 9003SOL     OW27907   5.321   3.197   1.715
 9003SOL    HW127908   5.376   3.116   1.735
 9003SOL    HW227909   5.307   3.203   1.616
 9004SOL     OW27910   3.882   6.705   1.558
 9004SOL    HW127911   3.953   6.746   1.615
 9004SOL    HW227912   3.858   6.768   1.484
 9005SOL     OW27913   5.690   2.580   4.112
 9005SOL    HW127914   5.663   2.522   4.188
 9005SOL    HW227915   5.679   2.530   4.026
 9006SOL     OW27916   2.688   6.243   1.281
 9006SOL    HW127917   2.673   6.145   1.295
 9006SOL    HW227918   2.600   6.291   1.291
 9007SOL     OW27919   3.572   0.864   3.922
 9007SOL    HW127920   3.610   0.775   3.895
 9007SOL    HW227921   3.472   0.857   3.926
 9008SOL     OW27922   1.332   5.856   3.767
 9008SOL    HW127923   1.345   5.760   3.792
 9008SOL    HW227924   1.268   5.862   3.690
 9009SOL     OW27925   3.218   6.868   0.785
 9009SOL    HW127926   3.205   6.952   0.837
 9009SOL    HW227927   3.291   6.880   0.718
 9010SOL     OW27928   1.479   6.550   3.688
 9010SOL    HW127929   1.409   6.584   3.751
 9010SOL    HW227930   1.465   6.591   3.598
 9011SOL     OW27931   5.748   1.961   2.175
 9011SOL    HW127932   5.831   1.944   2.121
 9011SOL    HW227933   5.751   2.054   2.212
 9012SOL     OW27934   1.949   4.007   0.720
 9012SOL    HW127935   1.925   3.911   0.703
 9012SOL    HW227936   1.866   4.060   0.737
 9013SOL     OW27937   6.929   6.537   5.137
 9013SOL    HW127938   6.868   6.577   5.069
 9013SOL    HW227939   6.994   6.606   5.169
 9014SOL     OW27940   5.998   1.915   0.205
 9014SOL    HW127941   5.936   1.836   0.205
 9014SOL    HW227942   5.944   1.999   0.201
 9015SOL     OW27943   4.695   1.300   2.168
 9015SOL    HW127944   4.769   1.233   2.168
 9015SOL    HW227945   4.666   1.318   2.262
 9016SOL     OW27946   0.369   6.772   6.637
 9016SOL    HW127947   0.421   6.814   6.563
 9016SOL    HW227948   0.373   6.830   6.718
 9017SOL     OW27949   4.237   1.979   3.371
 9017SOL    HW127950   4.334   2.002   3.370
 9017SOL    HW227951   4.213   1.929   3.288
 9018SOL     OW27952   3.936   2.219   6.572
 9018SOL    HW127953   3.935   2.306   6.620
 9018SOL    HW227954   3.854   2.167   6.595
 9019SOL     OW27955   1.268   6.502   1.970
 9019SOL    HW127956   1.331   6.425   1.982
 9019SOL    HW227957   1.205   6.506   2.048
 9020SOL     OW27958   0.323   3.978   1.414
 9020SOL    HW127959   0.296   4.074   1.427
 9020SOL    HW227960   0.373   3.970   1.327
 9021SOL     OW27961   6.399   0.002   3.365
 9021SOL    HW127962   6.374   7.008   3.270
 9021SOL    HW227963   6.494   0.032   3.370
 9022SOL     OW27964   3.238   2.004   6.827
 9022SOL    HW127965   3.190   1.917   6.831
 9022SOL    HW227966   3.303   2.010   6.903
 9023SOL     OW27967   3.574   3.115   2.549
 9023SOL    HW127968   3.585   3.096   2.646
 9023SOL    HW227969   3.609   3.206   2.528
 9024SOL     OW27970   0.855   4.861   4.958
 9024SOL    HW127971   0.914   4.790   4.920
 9024SOL    HW227972   0.908   4.918   5.021
 9025SOL     OW27973   0.600   5.155   0.358
 9025SOL    HW127974   0.519   5.213   0.366
 9025SOL    HW227975   0.630   5.153   0.262
 9026SOL     OW27976   4.299   2.905   0.784
 9026SOL    HW127977   4.275   2.879   0.690
 9026SOL    HW227978   4.367   2.840   0.820
 9027SOL     OW27979   1.327   2.347   3.520
 9027SOL    HW127980   1.360   2.354   3.426
 9027SOL    HW227981   1.269   2.426   3.541
 9028SOL     OW27982   2.830   3.796   5.585
 9028SOL    HW127983   2.874   3.821   5.499
 9028SOL    HW227984   2.752   3.857   5.601
 9029SOL     OW27985   4.057   6.260   4.989
 9029SOL    HW127986   4.086   6.170   4.957
 9029SOL    HW227987   4.081   6.329   4.921
 9030SOL     OW27988   2.597   1.815   3.489
 9030SOL    HW127989   2.665   1.783   3.423
 9030SOL    HW227990   2.642   1.841   3.574
 9031SOL     OW27991   4.327   5.593   4.306
 9031SOL    HW127992   4.342   5.635   4.396
 9031SOL    HW227993   4.239   5.546   4.305
 9032SOL     OW27994   3.842   3.721   0.622
 9032SOL    HW127995   3.758   3.673   0.643
 9032SOL    HW227996   3.921   3.669   0.656
 9033SOL     OW27997   0.384   3.779   3.109
 9033SOL    HW127998   0.423   3.868   3.132
 9033SOL    HW227999   0.308   3.759   3.172
 9034SOL     OW28000   3.299   0.176   5.256
 9034SOL    HW128001   3.338   0.267   5.266
 9034SOL    HW228002   3.358   0.109   5.301
 9035SOL     OW28003   1.983   5.063   6.558
 9035SOL    HW128004   2.029   5.033   6.474
 9035SOL    HW228005   1.889   5.028   6.560
 9036SOL     OW28006   1.512   1.578   5.578
 9036SOL    HW128007   1.440   1.601   5.513
 9036SOL    HW228008   1.575   1.511   5.537
 9037SOL     OW28009   1.289   4.041   4.829
 9037SOL    HW128010   1.297   4.137   4.853
 9037SOL    HW228011   1.370   4.013   4.777
 9038SOL     OW28012   4.170   0.366   6.030
 9038SOL    HW128013   4.219   0.293   6.077
 9038SOL    HW228014   4.100   0.404   6.090
 9039SOL     OW28015   2.924   5.705   5.299
 9039SOL    HW128016   2.956   5.618   5.335
 9039SOL    HW228017   2.935   5.777   5.368
 9040SOL     OW28018   3.247   1.986   2.532
 9040SOL    HW128019   3.241   2.036   2.445
 9040SOL    HW228020   3.170   2.013   2.590
 9041SOL     OW28021   1.099   2.140   1.455
 9041SOL    HW128022   1.046   2.142   1.540
 9041SOL    HW228023   1.068   2.065   1.398
 9042SOL     OW28024   3.599   0.538   4.416
 9042SOL    HW128025   3.602   0.464   4.349
 9042SOL    HW228026   3.683   0.537   4.470
 9043SOL     OW28027   1.501   0.940   6.994
 9043SOL    HW128028   1.529   0.863   0.029
 9043SOL    HW228029   1.489   0.907   6.900
 9044SOL     OW28030   6.273   0.549   0.455
 9044SOL    HW128031   6.246   0.593   0.370
 9044SOL    HW228032   6.355   0.494   0.440
 9045SOL     OW28033   2.434   1.412   2.371
 9045SOL    HW128034   2.348   1.458   2.346
 9045SOL    HW228035   2.507   1.443   2.311
 9046SOL     OW28036   3.396   3.550   3.187
 9046SOL    HW128037   3.350   3.527   3.273
 9046SOL    HW228038   3.485   3.504   3.184
 9047SOL     OW28039   2.013   3.477   5.708
 9047SOL    HW128040   2.010   3.507   5.613
 9047SOL    HW228041   2.105   3.489   5.744
 9048SOL     OW28042   5.000   3.189   6.224
 9048SOL    HW128043   4.941   3.267   6.244
 9048SOL    HW228044   5.058   3.211   6.145
 9049SOL     OW28045   3.424   0.007   5.696
 9049SOL    HW128046   3.353   0.046   5.755
 9049SOL    HW228047   3.484   0.080   5.663
 9050SOL     OW28048   0.067   3.153   0.947
 9050SOL    HW128049   0.131   3.085   0.985
 9050SOL    HW228050   0.110   3.243   0.949
 9051SOL     OW28051   3.925   6.782   0.840
 9051SOL    HW128052   4.021   6.762   0.820
 9051SOL    HW228053   3.867   6.726   0.781
 9052SOL     OW28054   2.732   2.405   4.219
 9052SOL    HW128055   2.670   2.450   4.155
 9052SOL    HW228056   2.812   2.372   4.169
 9053SOL     OW28057   2.125   0.844   2.802
 9053SOL    HW128058   2.124   0.746   2.778
 9053SOL    HW228059   2.031   0.875   2.816
 9054SOL     OW28060   2.757   5.871   3.466
 9054SOL    HW128061   2.854   5.885   3.488
 9054SOL    HW228062   2.746   5.858   3.368
 9055SOL     OW28063   5.974   2.680   4.316
 9055SOL    HW128064   5.911   2.757   4.305
 9055SOL    HW228065   5.928   2.605   4.362
 9056SOL     OW28066   0.529   1.422   2.257
 9056SOL    HW128067   0.509   1.431   2.159
 9056SOL    HW228068   0.596   1.491   2.284
 9057SOL     OW28069   4.999   4.065   6.576
 9057SOL    HW128070   5.007   4.144   6.636
 9057SOL    HW228071   4.903   4.054   6.548
 9058SOL     OW28072   1.837   1.621   1.769
 9058SOL    HW128073   1.921   1.657   1.729
 9058SOL    HW228074   1.777   1.698   1.794
 9059SOL     OW28075   1.088   2.111   4.180
 9059SOL    HW128076   1.181   2.142   4.161
 9059SOL    HW228077   1.052   2.162   4.259
 9060SOL     OW28078   6.060   2.636   3.517
 9060SOL    HW128079   5.966   2.640   3.485
 9060SOL    HW228080   6.097   2.728   3.523
 9061SOL     OW28081   2.023   5.157   1.969
 9061SOL    HW128082   1.961   5.135   1.893
 9061SOL    HW228083   2.106   5.102   1.961
 9062SOL     OW28084   1.838   6.325   2.082
 9062SOL    HW128085   1.865   6.272   2.002
 9062SOL    HW228086   1.895   6.301   2.160
 9063SOL     OW28087   3.105   0.180   3.120
 9063SOL    HW128088   3.200   0.153   3.139
 9063SOL    HW228089   3.098   0.210   3.025
 9064SOL     OW28090   6.587   2.732   5.462
 9064SOL    HW128091   6.633   2.799   5.520
 9064SOL    HW228092   6.645   2.651   5.451
 9065SOL     OW28093   3.550   0.339   5.201
 9065SOL    HW128094   3.538   0.437   5.191
 9065SOL    HW228095   3.581   0.318   5.294
 9066SOL     OW28096   4.169   6.215   0.788
 9066SOL    HW128097   4.235   6.145   0.815
 9066SOL    HW228098   4.142   6.268   0.868
 9067SOL     OW28099   0.543   0.468   4.339
 9067SOL    HW128100   0.460   0.448   4.286
 9067SOL    HW228101   0.614   0.501   4.278
 9068SOL     OW28102   2.475   6.693   4.704
 9068SOL    HW128103   2.545   6.716   4.636
 9068SOL    HW228104   2.391   6.744   4.683
 9069SOL     OW28105   1.625   3.472   1.263
 9069SOL    HW128106   1.541   3.522   1.284
 9069SOL    HW228107   1.642   3.404   1.335
 9070SOL     OW28108   1.368   3.339   4.861
 9070SOL    HW128109   1.300   3.297   4.922
 9070SOL    HW228110   1.397   3.272   4.792
 9071SOL     OW28111   5.972   6.634   1.496
 9071SOL    HW128112   6.033   6.563   1.458
 9071SOL    HW228113   5.916   6.672   1.422
 9072SOL     OW28114   6.877   1.994   1.611
 9072SOL    HW128115   6.896   2.083   1.651
 9072SOL    HW228116   6.876   2.002   1.511
 9073SOL     OW28117   3.174   6.830   2.566
 9073SOL    HW128118   3.210   6.899   2.628
 9073SOL    HW228119   3.251   6.779   2.526
 9074SOL     OW28120   1.467   1.741   2.229
 9074SOL    HW128121   1.421   1.829   2.240
 9074SOL    HW228122   1.563   1.757   2.203
 9075SOL     OW28123   0.609   1.169   1.628
 9075SOL    HW128124   0.550   1.091   1.609
 9075SOL    HW228125   0.696   1.158   1.580
 9076SOL     OW28126   6.718   2.533   5.707
 9076SOL    HW128127   6.769   2.590   5.772
 9076SOL    HW228128   6.622   2.561   5.706
 9077SOL     OW28129   4.680   0.602   0.074
 9077SOL    HW128130   4.727   0.521   0.108
 9077SOL    HW228131   4.748   0.667   0.039
 9078SOL     OW28132   4.092   3.365   6.383
 9078SOL    HW128133   4.187   3.355   6.413
 9078SOL    HW228134   4.090   3.388   6.286
 9079SOL     OW28135   3.465   0.025   4.422
 9079SOL    HW128136   3.429   0.070   4.340
 9079SOL    HW228137   3.494   6.955   4.398
 9080SOL     OW28138   4.626   2.852   6.576
 9080SOL    HW128139   4.548   2.814   6.625
 9080SOL    HW228140   4.606   2.856   6.478
 9081SOL     OW28141   4.099   0.268   2.188
 9081SOL    HW128142   4.092   0.366   2.173
 9081SOL    HW228143   4.136   0.251   2.280
 9082SOL     OW28144   2.313   0.508   5.196
 9082SOL    HW128145   2.362   0.429   5.232
 9082SOL    HW228146   2.377   0.584   5.182
 9083SOL     OW28147   3.399   5.192   6.356
 9083SOL    HW128148   3.384   5.287   6.331
 9083SOL    HW228149   3.436   5.142   6.278
 9084SOL     OW28150   3.288   4.067   3.793
 9084SOL    HW128151   3.274   4.101   3.701
 9084SOL    HW228152   3.207   4.087   3.849
 9085SOL     OW28153   2.228   0.418   1.821
 9085SOL    HW128154   2.161   0.413   1.747
 9085SOL    HW228155   2.180   0.421   1.909
 9086SOL     OW28156   0.891   4.658   6.960
 9086SOL    HW128157   0.899   4.698   6.868
 9086SOL    HW228158   0.796   4.635   6.978
 9087SOL     OW28159   4.306   2.164   1.290
 9087SOL    HW128160   4.402   2.146   1.312
 9087SOL    HW228161   4.261   2.207   1.368
 9088SOL     OW28162   6.980   6.897   1.403
 9088SOL    HW128163   6.980   6.986   1.358
 9088SOL    HW228164   0.048   6.856   1.395
 9089SOL     OW28165   5.421   5.784   5.789
 9089SOL    HW128166   5.337   5.774   5.736
 9089SOL    HW228167   5.441   5.698   5.836
 9090SOL     OW28168   0.005   1.088   4.578
 9090SOL    HW128169   6.957   1.044   4.524
 9090SOL    HW228170   0.094   1.046   4.557
 9091SOL     OW28171   2.814   4.169   0.383
 9091SOL    HW128172   2.839   4.237   0.453
 9091SOL    HW228173   2.738   4.204   0.328
 9092SOL     OW28174   6.485   0.999   6.788
 9092SOL    HW128175   6.426   0.930   6.746
 9092SOL    HW228176   6.465   1.089   6.749
 9093SOL     OW28177   0.780   5.875   5.730
 9093SOL    HW128178   0.849   5.803   5.723
 9093SOL    HW228179   0.691   5.839   5.704
 9094SOL     OW28180   6.331   4.841   2.806
 9094SOL    HW128181   6.283   4.758   2.780
 9094SOL    HW228182   6.424   4.818   2.836
 9095SOL     OW28183   4.916   4.772   5.973
 9095SOL    HW128184   4.904   4.861   5.928
 9095SOL    HW228185   4.874   4.776   6.064
 9096SOL     OW28186   6.514   5.297   2.617
 9096SOL    HW128187   6.437   5.359   2.630
 9096SOL    HW228188   6.522   5.273   2.520
 9097SOL     OW28189   1.766   1.522   0.607
 9097SOL    HW128190   1.838   1.467   0.564
 9097SOL    HW228191   1.777   1.618   0.579
 9098SOL     OW28192   3.151   2.139   4.766
 9098SOL    HW128193   3.078   2.187   4.718
 9098SOL    HW228194   3.180   2.192   4.845
 9099SOL     OW28195   3.313   3.280   6.187
 9099SOL    HW128196   3.391   3.273   6.125
 9099SOL    HW228197   3.229   3.284   6.134
 9100SOL     OW28198   0.169   3.421   3.636
 9100SOL    HW128199   0.128   3.511   3.648
 9100SOL    HW228200   0.151   3.388   3.543
 9101SOL     OW28201   2.703   2.548   1.803
 9101SOL    HW128202   2.795   2.513   1.820
 9101SOL    HW228203   2.708   2.647   1.785
 9102SOL     OW28204   3.537   6.609   2.250
 9102SOL    HW128205   3.566   6.695   2.209
 9102SOL    HW228206   3.618   6.553   2.269
 9103SOL     OW28207   5.550   1.701   6.510
 9103SOL    HW128208   5.523   1.618   6.559
 9103SOL    HW228209   5.548   1.779   6.573
 9104SOL     OW28210   6.892   6.495   1.590
 9104SOL    HW128211   6.897   6.400   1.619
 9104SOL    HW228212   6.955   6.510   1.514
 9105SOL     OW28213   0.737   0.740   5.869
 9105SOL    HW128214   0.803   0.672   5.840
 9105SOL    HW228215   0.769   0.831   5.843
 9106SOL     OW28216   6.080   3.133   1.234
 9106SOL    HW128217   6.150   3.199   1.261
 9106SOL    HW228218   5.997   3.150   1.287
 9107SOL     OW28219   2.356   0.699   6.450
 9107SOL    HW128220   2.390   0.704   6.545
 9107SOL    HW228221   2.433   0.684   6.388
 9108SOL     OW28222   4.837   4.547   5.314
 9108SOL    HW128223   4.860   4.511   5.224
 9108SOL    HW228224   4.894   4.627   5.333
 9109SOL     OW28225   5.297   3.801   2.845
 9109SOL    HW128226   5.227   3.817   2.915
 9109SOL    HW228227   5.280   3.715   2.798
 9110SOL     OW28228   1.638   5.421   4.426
 9110SOL    HW128229   1.652   5.449   4.521
 9110SOL    HW228230   1.689   5.482   4.365
 9111SOL     OW28231   4.317   2.983   0.113
 9111SOL    HW128232   4.344   3.032   0.196
 9111SOL    HW228233   4.232   3.022   0.078
 9112SOL     OW28234   1.577   5.302   2.552
 9112SOL    HW128235   1.641   5.266   2.619
 9112SOL    HW228236   1.483   5.281   2.581
 9113SOL     OW28237   5.313   2.908   2.771
 9113SOL    HW128238   5.325   2.995   2.819
 9113SOL    HW228239   5.378   2.841   2.808
 9114SOL     OW28240   6.917   5.203   3.583
 9114SOL    HW128241   6.818   5.194   3.586
 9114SOL    HW228242   6.942   5.294   3.550
 9115SOL     OW28243   5.871   5.592   5.277
 9115SOL    HW128244   5.822   5.617   5.193
 9115SOL    HW228245   5.920   5.506   5.263
 9116SOL     OW28246   0.591   6.896   3.027
 9116SOL    HW128247   0.686   6.927   3.023
 9116SOL    HW228248   0.589   6.802   3.063
 9117SOL     OW28249   3.738   2.773   6.394
 9117SOL    HW128250   3.776   2.680   6.391
 9117SOL    HW228251   3.671   2.780   6.468
 9118SOL     OW28252   6.430   3.413   0.442
 9118SOL    HW128253   6.405   3.427   0.538
 9118SOL    HW228254   6.359   3.359   0.397
 9119SOL     OW28255   3.774   1.098   1.754
 9119SOL    HW128256   3.861   1.112   1.802
 9119SOL    HW228257   3.736   1.009   1.779
 9120SOL     OW28258   0.016   2.446   5.941
 9120SOL    HW128259   7.002   2.354   5.951
 9120SOL    HW228260   0.099   2.456   5.996
 9121SOL     OW28261   3.516   6.224   5.103
 9121SOL    HW128262   3.613   6.210   5.082
 9121SOL    HW228263   3.485   6.154   5.167
 9122SOL     OW28264   2.316   4.496   2.286
 9122SOL    HW128265   2.407   4.490   2.327
 9122SOL    HW228266   2.322   4.466   2.190
 9123SOL     OW28267   1.652   0.877   4.502
 9123SOL    HW128268   1.713   0.850   4.427
 9123SOL    HW228269   1.650   0.977   4.508
 9124SOL     OW28270   3.650   5.238   1.358
 9124SOL    HW128271   3.567   5.192   1.391
 9124SOL    HW228272   3.730   5.183   1.381
 9125SOL     OW28273   4.124   4.196   1.160
 9125SOL    HW128274   4.157   4.177   1.252
 9125SOL    HW228275   4.089   4.289   1.155
 9126SOL     OW28276   4.403   3.835   1.272
 9126SOL    HW128277   4.468   3.902   1.308
 9126SOL    HW228278   4.362   3.785   1.348
 9127SOL     OW28279   6.838   2.554   5.364
 9127SOL    HW128280   6.800   2.487   5.300
 9127SOL    HW228281   6.915   2.512   5.413
 9128SOL     OW28282   5.790   2.419   5.314
 9128SOL    HW128283   5.762   2.326   5.336
 9128SOL    HW228284   5.737   2.453   5.237
 9129SOL     OW28285   6.377   1.775   0.196
 9129SOL    HW128286   6.369   1.788   0.295
 9129SOL    HW228287   6.331   1.690   0.170
 9130SOL     OW28288   0.949   4.529   5.792
 9130SOL    HW128289   0.862   4.569   5.764
 9130SOL    HW228290   0.959   4.536   5.891
 9131SOL     OW28291   5.068   3.258   6.502
 9131SOL    HW128292   5.094   3.210   6.418
 9131SOL    HW228293   5.000   3.204   6.552
 9132SOL     OW28294   1.064   4.640   4.598
 9132SOL    HW128295   0.986   4.619   4.539
 9132SOL    HW228296   1.119   4.712   4.556
 9133SOL     OW28297   3.430   0.701   0.993
 9133SOL    HW128298   3.455   0.792   0.962
 9133SOL    HW228299   3.421   0.700   1.092
 9134SOL     OW28300   4.743   5.193   1.602
 9134SOL    HW128301   4.647   5.197   1.629
 9134SOL    HW228302   4.751   5.149   1.512
 9135SOL     OW28303   0.900   6.646   2.170
 9135SOL    HW128304   0.873   6.713   2.240
 9135SOL    HW228305   0.849   6.663   2.086
 9136SOL     OW28306   4.503   5.746   5.527
 9136SOL    HW128307   4.510   5.685   5.606
 9136SOL    HW228308   4.424   5.721   5.471
 9137SOL     OW28309   4.037   0.377   6.891
 9137SOL    HW128310   4.062   0.300   6.832
 9137SOL    HW228311   4.090   0.373   6.976
 9138SOL     OW28312   1.463   3.818   6.789
 9138SOL    HW128313   1.520   3.806   6.871
 9138SOL    HW228314   1.367   3.811   6.816
 9139SOL     OW28315   1.172   1.357   2.095
 9139SOL    HW128316   1.129   1.278   2.138
 9139SOL    HW228317   1.243   1.327   2.032
 9140SOL     OW28318   0.711   4.985   2.568
 9140SOL    HW128319   0.785   4.975   2.635
 9140SOL    HW228320   0.745   5.036   2.489
 9141SOL     OW28321   0.066   6.041   6.552
 9141SOL    HW128322   0.061   6.093   6.467
 9141SOL    HW228323   6.997   6.008   6.576
 9142SOL     OW28324   0.276   3.079   1.866
 9142SOL    HW128325   0.211   3.154   1.870
 9142SOL    HW228326   0.278   3.031   1.953
 9143SOL     OW28327   0.203   4.217   1.467
 9143SOL    HW128328   0.120   4.198   1.521
 9143SOL    HW228329   0.231   4.312   1.482
 9144SOL     OW28330   3.362   4.929   4.690
 9144SOL    HW128331   3.274   4.880   4.682
 9144SOL    HW228332   3.375   4.957   4.785
 9145SOL     OW28333   1.531   6.213   6.817
 9145SOL    HW128334   1.497   6.304   6.841
 9145SOL    HW228335   1.628   6.207   6.841
 9146SOL     OW28336   4.862   3.235   2.939
 9146SOL    HW128337   4.889   3.299   3.011
 9146SOL    HW228338   4.832   3.286   2.858
 9147SOL     OW28339   6.927   0.806   4.830
 9147SOL    HW128340   6.873   0.885   4.858
 9147SOL    HW228341   6.871   0.746   4.772
 9148SOL     OW28342   5.532   6.946   1.987
 9148SOL    HW128343   5.595   6.885   1.938
 9148SOL    HW228344   5.565   0.017   1.982
 9149SOL     OW28345   5.538   3.435   1.988
 9149SOL    HW128346   5.586   3.368   1.931
 9149SOL    HW228347   5.451   3.396   2.019
 9150SOL     OW28348   3.482   4.261   0.372
 9150SOL    HW128349   3.411   4.213   0.321
 9150SOL    HW228350   3.441   4.325   0.437
 9151SOL     OW28351   2.174   3.859   3.892
 9151SOL    HW128352   2.166   3.959   3.891
 9151SOL    HW228353   2.187   3.827   3.986
 9152SOL     OW28354   1.770   4.252   4.391
 9152SOL    HW128355   1.821   4.330   4.429
 9152SOL    HW228356   1.756   4.266   4.293
 9153SOL     OW28357   0.289   3.037   6.761
 9153SOL    HW128358   0.315   3.060   6.667
 9153SOL    HW228359   0.319   3.110   6.823
 9154SOL     OW28360   4.997   4.285   3.760
 9154SOL    HW128361   5.024   4.313   3.668
 9154SOL    HW228362   4.931   4.210   3.754
 9155SOL     OW28363   2.274   4.420   2.791
 9155SOL    HW128364   2.184   4.441   2.753
 9155SOL    HW228365   2.345   4.454   2.730
 9156SOL     OW28366   6.595   2.970   1.361
 9156SOL    HW128367   6.503   2.974   1.324
 9156SOL    HW228368   6.643   3.056   1.343
 9157SOL     OW28369   2.887   4.127   0.003
 9157SOL    HW128370   2.801   4.077   7.022
 9157SOL    HW228371   2.943   4.105   6.945
 9158SOL     OW28372   6.915   4.429   4.101
 9158SOL    HW128373   6.838   4.470   4.151
 9158SOL    HW228374   6.890   4.338   4.069
 9159SOL     OW28375   1.826   0.333   3.545
 9159SOL    HW128376   1.742   0.362   3.590
 9159SOL    HW228377   1.823   0.234   3.529
 9160SOL     OW28378   0.358   5.172   5.697
 9160SOL    HW128379   0.371   5.234   5.619
 9160SOL    HW228380   0.393   5.216   5.780
 9161SOL     OW28381   6.227   4.991   3.302
 9161SOL    HW128382   6.166   5.066   3.276
 9161SOL    HW228383   6.175   4.906   3.303
 9162SOL     OW28384   3.776   0.471   2.936
 9162SOL    HW128385   3.784   0.562   2.977
 9162SOL    HW228386   3.706   0.472   2.865
 9163SOL     OW28387   7.002   3.535   2.266
 9163SOL    HW128388   0.019   3.443   2.260
 9163SOL    HW228389   6.989   3.572   2.174
 9164SOL     OW28390   1.812   1.051   6.764
 9164SOL    HW128391   1.836   1.050   6.861
 9164SOL    HW228392   1.810   0.957   6.730
 9165SOL     OW28393   4.731   1.925   5.774
 9165SOL    HW128394   4.776   1.880   5.851
 9165SOL    HW228395   4.723   1.861   5.698
 9166SOL     OW28396   3.995   5.258   1.070
 9166SOL    HW128397   3.936   5.196   1.017
 9166SOL    HW228398   3.938   5.325   1.118
 9167SOL     OW28399   1.193   2.582   6.088
 9167SOL    HW128400   1.291   2.564   6.086
 9167SOL    HW228401   1.160   2.600   5.995
 9168SOL     OW28402   6.532   5.649   6.364
 9168SOL    HW128403   6.479   5.587   6.306
 9168SOL    HW228404   6.549   5.734   6.314
 9169SOL     OW28405   6.463   5.830   6.173
 9169SOL    HW128406   6.464   5.760   6.102
 9169SOL    HW228407   6.470   5.921   6.131
 9170SOL     OW28408   1.760   1.478   6.254
 9170SOL    HW128409   1.749   1.563   6.203
 9170SOL    HW228410   1.839   1.428   6.217
 9171SOL     OW28411   2.590   5.597   0.779
 9171SOL    HW128412   2.513   5.638   0.730
 9171SOL    HW228413   2.654   5.669   0.806
 9172SOL     OW28414   4.430   1.949   4.692
 9172SOL    HW128415   4.459   2.024   4.632
 9172SOL    HW228416   4.430   1.864   4.641
 9173SOL     OW28417   6.121   2.701   4.966
 9173SOL    HW128418   6.209   2.728   4.925
 9173SOL    HW228419   6.051   2.768   4.941
 9174SOL     OW28420   0.752   5.984   6.989
 9174SOL    HW128421   0.814   5.995   0.044
 9174SOL    HW228422   0.801   5.939   6.914
 9175SOL     OW28423   1.417   6.753   0.236
 9175SOL    HW128424   1.369   6.735   0.322
 9175SOL    HW228425   1.391   6.843   0.201
 9176SOL     OW28426   2.396   6.886   1.835
 9176SOL    HW128427   2.463   6.867   1.763
 9176SOL    HW228428   2.428   6.844   1.921
 9177SOL     OW28429   1.600   2.229   3.920
 9177SOL    HW128430   1.614   2.173   3.838
 9177SOL    HW228431   1.689   2.260   3.954
 9178SOL     OW28432   2.422   5.318   6.254
 9178SOL    HW128433   2.465   5.291   6.340
 9178SOL    HW228434   2.400   5.237   6.200
 9179SOL     OW28435   2.476   5.935   4.822
 9179SOL    HW128436   2.447   6.022   4.781
 9179SOL    HW228437   2.427   5.921   4.908
 9180SOL     OW28438   6.874   2.484   4.026
 9180SOL    HW128439   6.786   2.470   4.072
 9180SOL    HW228440   6.877   2.428   3.943
 9181SOL     OW28441   4.966   2.646   3.220
 9181SOL    HW128442   5.001   2.588   3.293
 9181SOL    HW228443   4.944   2.736   3.257
 9182SOL     OW28444   3.092   1.276   3.015
 9182SOL    HW128445   3.129   1.357   3.061
 9182SOL    HW228446   3.162   1.237   2.955
 9183SOL     OW28447   4.485   3.816   6.071
 9183SOL    HW128448   4.536   3.859   5.997
 9183SOL    HW228449   4.483   3.717   6.056
 9184SOL     OW28450   3.784   2.115   0.811
 9184SOL    HW128451   3.774   2.042   0.879
 9184SOL    HW228452   3.824   2.077   0.728
 9185SOL     OW28453   0.707   6.672   6.499
 9185SOL    HW128454   0.751   6.609   6.563
 9185SOL    HW228455   0.737   6.651   6.406
 9186SOL     OW28456   4.400   0.626   5.793
 9186SOL    HW128457   4.407   0.724   5.773
 9186SOL    HW228458   4.491   0.585   5.787
 9187SOL     OW28459   4.810   2.219   6.782
 9187SOL    HW128460   4.761   2.270   6.712
 9187SOL    HW228461   4.745   2.187   6.851
 9188SOL     OW28462   1.801   0.565   1.523
 9188SOL    HW128463   1.704   0.543   1.531
 9188SOL    HW228464   1.814   0.664   1.532
 9189SOL     OW28465   3.211   0.770   4.079
 9189SOL    HW128466   3.227   0.816   3.992
 9189SOL    HW228467   3.112   0.767   4.098
 9190SOL     OW28468   6.377   3.650   5.170
 9190SOL    HW128469   6.391   3.598   5.254
 9190SOL    HW228470   6.466   3.683   5.137
 9191SOL     OW28471   4.874   6.546   6.933
 9191SOL    HW128472   4.964   6.506   6.916
 9191SOL    HW228473   4.862   6.563   0.008
 9192SOL     OW28474   6.182   4.005   6.244
 9192SOL    HW128475   6.150   3.914   6.270
 9192SOL    HW228476   6.113   4.049   6.187
 9193SOL     OW28477   3.161   3.654   3.895
 9193SOL    HW128478   3.100   3.730   3.918
 9193SOL    HW228479   3.212   3.677   3.811
 9194SOL     OW28480   3.624   5.711   2.006
 9194SOL    HW128481   3.573   5.660   1.937
 9194SOL    HW228482   3.585   5.692   2.096
 9195SOL     OW28483   2.124   2.639   3.441
 9195SOL    HW128484   2.105   2.547   3.475
 9195SOL    HW228485   2.038   2.691   3.434
 9196SOL     OW28486   5.257   0.195   3.921
 9196SOL    HW128487   5.293   0.190   3.828
 9196SOL    HW228488   5.331   0.217   3.985
 9197SOL     OW28489   3.541   3.889   1.099
 9197SOL    HW128490   3.450   3.847   1.106
 9197SOL    HW228491   3.594   3.868   1.182
 9198SOL     OW28492   5.446   3.969   6.285
 9198SOL    HW128493   5.481   4.023   6.361
 9198SOL    HW228494   5.519   3.908   6.253
 9199SOL     OW28495   0.867   3.354   6.092
 9199SOL    HW128496   0.885   3.448   6.118
 9199SOL    HW228497   0.770   3.343   6.070
 9200SOL     OW28498   1.514   5.950   6.794
 9200SOL    HW128499   1.567   5.914   6.717
 9200SOL    HW228500   1.516   6.050   6.792
 9201SOL     OW28501   0.764   3.914   1.432
 9201SOL    HW128502   0.742   3.870   1.519
 9201SOL    HW228503   0.838   3.864   1.387
 9202SOL     OW28504   2.006   5.769   4.349
 9202SOL    HW128505   2.025   5.865   4.368
 9202SOL    HW228506   2.061   5.739   4.271
 9203SOL     OW28507   5.128   2.229   6.454
 9203SOL    HW128508   5.086   2.179   6.378
 9203SOL    HW228509   5.128   2.327   6.434
 9204SOL     OW28510   5.366   3.824   3.597
 9204SOL    HW128511   5.431   3.761   3.639
 9204SOL    HW228512   5.332   3.786   3.511
 9205SOL     OW28513   5.355   3.279   2.108
 9205SOL    HW128514   5.279   3.249   2.050
 9205SOL    HW228515   5.319   3.307   2.197
 9206SOL     OW28516   3.283   7.010   4.621
 9206SOL    HW128517   3.356   7.023   4.554
 9206SOL    HW228518   3.279   6.914   4.648
 9207SOL     OW28519   3.762   6.445   5.707
 9207SOL    HW128520   3.682   6.459   5.765
 9207SOL    HW228521   3.804   6.357   5.729
 9208SOL     OW28522   5.233   3.676   2.225
 9208SOL    HW128523   5.137   3.699   2.211
 9208SOL    HW228524   5.283   3.689   2.140
 9209SOL     OW28525   3.818   0.634   2.060
 9209SOL    HW128526   3.764   0.715   2.083
 9209SOL    HW228527   3.764   0.575   2.001
 9210SOL     OW28528   1.715   0.458   1.121
 9210SOL    HW128529   1.625   0.461   1.165
 9210SOL    HW228530   1.783   0.430   1.188
 9211SOL     OW28531   5.029   2.078   6.219
 9211SOL    HW128532   4.946   2.023   6.209
 9211SOL    HW228533   5.107   2.018   6.233
 9212SOL     OW28534   4.766   4.105   5.115
 9212SOL    HW128535   4.815   4.185   5.150
 9212SOL    HW228536   4.708   4.067   5.187
 9213SOL     OW28537   5.441   6.490   4.213
 9213SOL    HW128538   5.444   6.587   4.237
 9213SOL    HW228539   5.393   6.439   4.284
 9214SOL     OW28540   0.872   2.388   5.150
 9214SOL    HW128541   0.841   2.374   5.056
 9214SOL    HW228542   0.818   2.461   5.193
 9215SOL     OW28543   0.449   4.121   2.335
 9215SOL    HW128544   0.547   4.103   2.327
 9215SOL    HW228545   0.399   4.034   2.325
 9216SOL     OW28546   2.355   6.574   4.927
 9216SOL    HW128547   2.267   6.536   4.900
 9216SOL    HW228548   2.408   6.599   4.845
 9217SOL     OW28549   5.448   1.473   6.646
 9217SOL    HW128550   5.453   1.381   6.686
 9217SOL    HW228551   5.396   1.469   6.560
 9218SOL     OW28552   3.961   0.672   6.859
 9218SOL    HW128553   3.861   0.680   6.858
 9218SOL    HW228554   3.986   0.576   6.843
 9219SOL     OW28555   3.985   3.125   5.387
 9219SOL    HW128556   4.003   3.126   5.486
 9219SOL    HW228557   3.989   3.219   5.352
 9220SOL     OW28558   2.114   5.855   2.409
 9220SOL    HW128559   2.142   5.810   2.494
 9220SOL    HW228560   2.163   5.813   2.332
 9221SOL     OW28561   2.590   0.645   5.572
 9221SOL    HW128562   2.602   0.589   5.655
 9221SOL    HW228563   2.596   0.742   5.596
 9222SOL     OW28564   2.378   4.314   4.417
 9222SOL    HW128565   2.311   4.240   4.430
 9222SOL    HW228566   2.413   4.343   4.507
 9223SOL     OW28567   0.750   2.913   3.812
 9223SOL    HW128568   0.760   2.961   3.899
 9223SOL    HW228569   0.836   2.869   3.788
 9224SOL     OW28570   1.630   3.087   3.764
 9224SOL    HW128571   1.606   3.183   3.775
 9224SOL    HW228572   1.707   3.065   3.824
 9225SOL     OW28573   3.845   6.959   6.370
 9225SOL    HW128574   3.797   6.889   6.424
 9225SOL    HW228575   3.822   6.947   6.274
 9226SOL     OW28576   1.264   0.372   1.700
 9226SOL    HW128577   1.236   0.428   1.779
 9226SOL    HW228578   1.322   0.297   1.732
 9227SOL     OW28579   1.950   4.749   1.529
 9227SOL    HW128580   1.906   4.772   1.616
 9227SOL    HW228581   2.027   4.811   1.514
 9228SOL     OW28582   2.098   2.773   6.181
 9228SOL    HW128583   2.198   2.777   6.186
 9228SOL    HW228584   2.059   2.858   6.216
 9229SOL     OW28585   1.458   5.098   6.571
 9229SOL    HW128586   1.421   5.006   6.557
 9229SOL    HW228587   1.427   5.157   6.497
 9230SOL     OW28588   4.952   2.764   3.739
 9230SOL    HW128589   5.048   2.745   3.718
 9230SOL    HW228590   4.941   2.776   3.837
 9231SOL     OW28591   0.945   4.910   5.859
 9231SOL    HW128592   1.037   4.871   5.870
 9231SOL    HW228593   0.889   4.847   5.806
 9232SOL     OW28594   1.983   5.121   1.467
 9232SOL    HW128595   1.919   5.197   1.477
 9232SOL    HW228596   1.965   5.072   1.381
 9233SOL     OW28597   1.166   6.854   0.834
 9233SOL    HW128598   1.125   6.790   0.899
 9233SOL    HW228599   1.225   6.919   0.883
 9234SOL     OW28600   2.266   5.464   0.534
 9234SOL    HW128601   2.311   5.544   0.574
 9234SOL    HW228602   2.183   5.494   0.486
 9235SOL     OW28603   2.564   2.205   3.592
 9235SOL    HW128604   2.495   2.171   3.528
 9235SOL    HW228605   2.553   2.304   3.604
 9236SOL     OW28606   2.241   3.568   6.563
 9236SOL    HW128607   2.251   3.598   6.468
 9236SOL    HW228608   2.311   3.612   6.619
 9237SOL     OW28609   0.187   5.991   2.805
 9237SOL    HW128610   0.122   5.988   2.882
 9237SOL    HW228611   0.243   5.908   2.807
 9238SOL     OW28612   3.095   2.472   5.875
 9238SOL    HW128613   3.052   2.469   5.965
 9238SOL    HW228614   3.175   2.532   5.879
 9239SOL     OW28615   6.541   4.413   6.146
 9239SOL    HW128616   6.485   4.335   6.171
 9239SOL    HW228617   6.595   4.443   6.225
 9240SOL     OW28618   5.168   3.354   2.758
 9240SOL    HW128619   5.069   3.341   2.768
 9240SOL    HW228620   5.201   3.300   2.681
 9241SOL     OW28621   6.763   5.841   0.542
 9241SOL    HW128622   6.767   5.754   0.591
 9241SOL    HW228623   6.761   5.823   0.443
 9242SOL     OW28624   1.877   2.491   1.739
 9242SOL    HW128625   1.933   2.520   1.816
 9242SOL    HW228626   1.919   2.522   1.654
 9243SOL     OW28627   1.029   0.663   2.064
 9243SOL    HW128628   0.996   0.570   2.049
 9243SOL    HW228629   0.958   0.728   2.038
 9244SOL     OW28630   2.640   6.304   6.116
 9244SOL    HW128631   2.651   6.403   6.121
 9244SOL    HW228632   2.543   6.281   6.123
 9245SOL     OW28633   0.715   4.268   3.602
 9245SOL    HW128634   0.621   4.269   3.638
 9245SOL    HW228635   0.731   4.350   3.547
 9246SOL     OW28636   5.931   6.943   4.374
 9246SOL    HW128637   5.994   6.894   4.314
 9246SOL    HW228638   5.968   0.011   4.393
 9247SOL     OW28639   4.009   5.501   2.957
 9247SOL    HW128640   3.922   5.461   2.986
 9247SOL    HW228641   3.993   5.566   2.883
 9248SOL     OW28642   2.868   2.053   5.602
 9248SOL    HW128643   2.848   1.956   5.584
 9248SOL    HW228644   2.907   2.061   5.693
 9249SOL     OW28645   3.910   4.831   1.412
 9249SOL    HW128646   3.987   4.895   1.409
 9249SOL    HW228647   3.934   4.753   1.471
 9250SOL     OW28648   6.880   3.290   3.897
 9250SOL    HW128649   6.846   3.255   3.985
 9250SOL    HW228650   6.980   3.293   3.899
 9251SOL     OW28651   4.184   2.078   1.878
 9251SOL    HW128652   4.105   2.096   1.820
 9251SOL    HW228653   4.172   2.126   1.965
 9252SOL     OW28654   5.303   0.817   4.829
 9252SOL    HW128655   5.329   0.892   4.768
 9252SOL    HW228656   5.267   0.854   4.914
 9253SOL     OW28657   5.169   5.096   5.735
 9253SOL    HW128658   5.253   5.050   5.761
 9253SOL    HW228659   5.188   5.193   5.717
 9254SOL     OW28660   5.184   4.850   2.498
 9254SOL    HW128661   5.091   4.870   2.528
 9254SOL    HW228662   5.201   4.895   2.410
 9255SOL     OW28663   5.764   3.144   6.669
 9255SOL    HW128664   5.762   3.225   6.612
 9255SOL    HW228665   5.672   3.122   6.700
 9256SOL     OW28666   2.146   6.752   1.583
 9256SOL    HW128667   2.048   6.770   1.586
 9256SOL    HW228668   2.180   6.766   1.489
 9257SOL     OW28669   6.167   6.004   3.160
 9257SOL    HW128670   6.141   6.068   3.087
 9257SOL    HW228671   6.099   6.009   3.233
 9258SOL     OW28672   3.608   3.582   0.676
 9258SOL    HW128673   3.539   3.655   0.672
 9258SOL    HW228674   3.640   3.573   0.771
 9259SOL     OW28675   1.788   1.303   0.295
 9259SOL    HW128676   1.845   1.291   0.214
 9259SOL    HW228677   1.702   1.253   0.283
 9260SOL     OW28678   7.015   2.488   6.311
 9260SOL    HW128679   6.957   2.406   6.301
 9260SOL    HW228680   0.004   2.508   6.408
 9261SOL     OW28681   4.754   1.103   6.377
 9261SOL    HW128682   4.717   1.048   6.452
 9261SOL    HW228683   4.680   1.130   6.315
 9262SOL     OW28684   1.290   6.740   5.292
 9262SOL    HW128685   1.307   6.691   5.206
 9262SOL    HW228686   1.375   6.779   5.326
 9263SOL     OW28687   3.459   5.252   3.264
 9263SOL    HW128688   3.411   5.214   3.185
 9263SOL    HW228689   3.556   5.230   3.258
 9264SOL     OW28690   4.582   3.227   6.981
 9264SOL    HW128691   4.579   3.145   6.924
 9264SOL    HW228692   4.617   3.304   6.927
 9265SOL     OW28693   3.982   1.971   6.670
 9265SOL    HW128694   4.002   2.069   6.678
 9265SOL    HW228695   4.059   1.925   6.625
 9266SOL     OW28696   0.096   5.572   1.378
 9266SOL    HW128697   0.196   5.576   1.374
 9266SOL    HW228698   0.063   5.629   1.453
 9267SOL     OW28699   1.144   1.821   4.254
 9267SOL    HW128700   1.082   1.744   4.236
 9267SOL    HW228701   1.103   1.905   4.217
 9268SOL     OW28702   1.060   6.515   2.596
 9268SOL    HW128703   0.985   6.571   2.559
 9268SOL    HW228704   1.086   6.446   2.529
 9269SOL     OW28705   4.073   0.068   6.401
 9269SOL    HW128706   3.995   0.005   6.396
 9269SOL    HW228707   4.107   0.086   6.308
 9270SOL     OW28708   3.637   0.694   5.260
 9270SOL    HW128709   3.679   0.691   5.170
 9270SOL    HW228710   3.539   0.714   5.251
 9271SOL     OW28711   0.058   0.183   1.018
 9271SOL    HW128712   0.110   0.101   0.994
 9271SOL    HW228713   0.114   0.264   1.002
 9272SOL     OW28714   1.047   6.708   6.801
 9272SOL    HW128715   0.990   6.632   6.832
 9272SOL    HW228716   1.036   6.720   6.703
 9273SOL     OW28717   5.395   5.858   2.939
 9273SOL    HW128718   5.490   5.883   2.921
 9273SOL    HW228719   5.334   5.917   2.886
 9274SOL     OW28720   6.544   2.076   0.327
 9274SOL    HW128721   6.466   2.108   0.272
 9274SOL    HW228722   6.512   2.012   0.396
 9275SOL     OW28723   0.018   6.651   6.997
 9275SOL    HW128724   0.110   6.613   7.008
 9275SOL    HW228725   6.976   6.599   0.030
 9276SOL     OW28726   2.597   4.942   6.694
 9276SOL    HW128727   2.652   5.016   6.655
 9276SOL    HW228728   2.562   4.970   6.783
 9277SOL     OW28729   4.099   5.079   3.245
 9277SOL    HW128730   4.113   5.087   3.343
 9277SOL    HW228731   4.017   5.130   3.218
 9278SOL     OW28732   1.008   0.814   5.369
 9278SOL    HW128733   1.097   0.777   5.396
 9278SOL    HW228734   1.011   0.842   5.273
 9279SOL     OW28735   3.225   6.522   1.631
 9279SOL    HW128736   3.240   6.536   1.533
 9279SOL    HW228737   3.312   6.535   1.679
 9280SOL     OW28738   2.454   1.730   2.613
 9280SOL    HW128739   2.553   1.723   2.630
 9280SOL    HW228740   2.438   1.789   2.534
 9281SOL     OW28741   3.526   3.929   6.297
 9281SOL    HW128742   3.547   3.832   6.300
 9281SOL    HW228743   3.441   3.943   6.246
 9282SOL     OW28744   4.435   1.060   4.549
 9282SOL    HW128745   4.438   0.969   4.509
 9282SOL    HW228746   4.526   1.085   4.582
 9283SOL     OW28747   5.540   0.671   5.327
 9283SOL    HW128748   5.447   0.677   5.291
 9283SOL    HW228749   5.538   0.687   5.426
 9284SOL     OW28750   2.816   3.427   5.336
 9284SOL    HW128751   2.915   3.416   5.349
 9284SOL    HW228752   2.778   3.342   5.298
 9285SOL     OW28753   4.971   2.919   0.939
 9285SOL    HW128754   5.054   2.900   0.992
 9285SOL    HW228755   4.990   2.991   0.872
 9286SOL     OW28756   4.663   5.656   0.334
 9286SOL    HW128757   4.738   5.649   0.400
 9286SOL    HW228758   4.648   5.751   0.309
 9287SOL     OW28759   3.079   4.649   5.623
 9287SOL    HW128760   3.060   4.741   5.657
 9287SOL    HW228761   3.099   4.653   5.525
 9288SOL     OW28762   4.518   2.037   3.394
 9288SOL    HW128763   4.560   1.973   3.331
 9288SOL    HW228764   4.514   2.128   3.352
 9289SOL     OW28765   4.486   0.624   6.836
 9289SOL    HW128766   4.532   0.641   6.923
 9289SOL    HW228767   4.389   0.605   6.853
 9290SOL     OW28768   6.035   0.798   4.334
 9290SOL    HW128769   6.051   0.719   4.392
 9290SOL    HW228770   6.050   0.882   4.387
 9291SOL     OW28771   1.661   6.284   6.020
 9291SOL    HW128772   1.586   6.322   6.074
 9291SOL    HW228773   1.731   6.354   6.007
 9292SOL     OW28774   1.530   1.304   6.524
 9292SOL    HW128775   1.538   1.397   6.560
 9292SOL    HW228776   1.524   1.239   6.600
 9293SOL     OW28777   4.931   3.044   6.575
 9293SOL    HW128778   4.905   2.962   6.626
 9293SOL    HW228779   4.850   3.086   6.535
 9294SOL     OW28780   4.981   0.844   6.865
 9294SOL    HW128781   5.065   0.825   6.916
 9294SOL    HW228782   4.906   0.859   6.930
 9295SOL     OW28783   6.762   0.808   5.417
 9295SOL    HW128784   6.742   0.765   5.505
 9295SOL    HW228785   6.782   0.737   5.349
 9296SOL     OW28786   2.013   4.858   0.707
 9296SOL    HW128787   2.022   4.794   0.631
 9296SOL    HW228788   2.094   4.916   0.712
 9297SOL     OW28789   0.478   6.445   3.251
 9297SOL    HW128790   0.383   6.414   3.253
 9297SOL    HW228791   0.481   6.540   3.218
 9298SOL     OW28792   1.113   6.729   6.222
 9298SOL    HW128793   1.191   6.763   6.274
 9298SOL    HW228794   1.061   6.665   6.279
 9299SOL     OW28795   0.915   1.242   3.801
 9299SOL    HW128796   0.995   1.226   3.859
 9299SOL    HW228797   0.919   1.183   3.721
 9300SOL     OW28798   0.486   5.551   5.164
 9300SOL    HW128799   0.574   5.576   5.123
 9300SOL    HW228800   0.423   5.524   5.091
 9301SOL     OW28801   6.889   4.430   5.148
 9301SOL    HW128802   6.862   4.525   5.132
 9301SOL    HW228803   6.812   4.379   5.186
 9302SOL     OW28804   2.171   3.131   4.467
 9302SOL    HW128805   2.158   3.184   4.552
 9302SOL    HW228806   2.161   3.192   4.388
 9303SOL     OW28807   2.912   4.691   0.605
 9303SOL    HW128808   2.816   4.667   0.595
 9303SOL    HW228809   2.936   4.694   0.702
 9304SOL     OW28810   4.411   5.291   0.621
 9304SOL    HW128811   4.352   5.296   0.540
 9304SOL    HW228812   4.471   5.370   0.624
 9305SOL     OW28813   3.702   1.303   0.336
 9305SOL    HW128814   3.751   1.218   0.319
 9305SOL    HW228815   3.680   1.347   0.249
 9306SOL     OW28816   0.600   3.762   5.452
 9306SOL    HW128817   0.558   3.695   5.391
 9306SOL    HW228818   0.596   3.852   5.409
 9307SOL     OW28819   1.231   4.050   0.670
 9307SOL    HW128820   1.244   4.149   0.667
 9307SOL    HW228821   1.292   4.011   0.740
 9308SOL     OW28822   1.024   4.505   1.829
 9308SOL    HW128823   1.089   4.557   1.884
 9308SOL    HW228824   1.063   4.489   1.738
 9309SOL     OW28825   4.151   6.684   5.764
 9309SOL    HW128826   4.232   6.736   5.737
 9309SOL    HW228827   4.124   6.710   5.857
 9310SOL     OW28828   5.461   6.061   5.805
 9310SOL    HW128829   5.366   6.090   5.818
 9310SOL    HW228830   5.466   5.961   5.799
 9311SOL     OW28831   5.168   4.416   1.220
 9311SOL    HW128832   5.084   4.394   1.271
 9311SOL    HW228833   5.144   4.441   1.126
 9312SOL     OW28834   1.898   2.003   0.839
 9312SOL    HW128835   1.876   1.955   0.924
 9312SOL    HW228836   1.824   1.990   0.773
 9313SOL     OW28837   0.968   0.724   1.601
 9313SOL    HW128838   1.020   0.639   1.610
 9313SOL    HW228839   0.871   0.705   1.616
 9314SOL     OW28840   6.155   3.461   0.971
 9314SOL    HW128841   6.102   3.532   0.925
 9314SOL    HW228842   6.111   3.372   0.957
 9315SOL     OW28843   6.018   0.713   6.285
 9315SOL    HW128844   6.035   0.792   6.226
 9315SOL    HW228845   5.952   0.738   6.356
 9316SOL     OW28846   5.880   0.193   5.191
 9316SOL    HW128847   5.795   0.231   5.226
 9316SOL    HW228848   5.910   0.246   5.111
 9317SOL     OW28849   3.897   5.166   3.463
 9317SOL    HW128850   3.976   5.108   3.483
 9317SOL    HW228851   3.852   5.191   3.548
 9318SOL     OW28852   4.416   6.636   0.247
 9318SOL    HW128853   4.349   6.666   0.314
 9318SOL    HW228854   4.442   6.541   0.266
 9319SOL     OW28855   2.250   2.593   0.620
 9319SOL    HW128856   2.233   2.512   0.563
 9319SOL    HW228857   2.344   2.623   0.609
 9320SOL     OW28858   4.708   0.720   6.239
 9320SOL    HW128859   4.746   0.648   6.180
 9320SOL    HW228860   4.696   0.685   6.332
 9321SOL     OW28861   0.960   1.943   5.399
 9321SOL    HW128862   1.032   1.920   5.465
 9321SOL    HW228863   0.911   2.024   5.430
 9322SOL     OW28864   6.737   4.789   6.135
 9322SOL    HW128865   6.655   4.845   6.135
 9322SOL    HW228866   6.738   4.729   6.054
 9323SOL     OW28867   2.304   1.943   4.810
 9323SOL    HW128868   2.383   1.998   4.838
 9323SOL    HW228869   2.229   2.004   4.783
 9324SOL     OW28870   2.069   3.756   1.590
 9324SOL    HW128871   2.150   3.788   1.541
 9324SOL    HW228872   2.096   3.682   1.653
 9325SOL     OW28873   0.834   6.451   1.664
 9325SOL    HW128874   0.791   6.537   1.635
 9325SOL    HW228875   0.882   6.410   1.586
 9326SOL     OW28876   3.339   5.617   6.908
 9326SOL    HW128877   3.346   5.526   6.867
 9326SOL    HW228878   3.429   5.660   6.909
 9327SOL     OW28879   4.580   0.324   2.937
 9327SOL    HW128880   4.539   0.241   2.974
 9327SOL    HW228881   4.601   0.387   3.012
 9328SOL     OW28882   2.129   6.587   4.771
 9328SOL    HW128883   2.186   6.610   4.693
 9328SOL    HW228884   2.057   6.523   4.741
 9329SOL     OW28885   6.747   5.604   0.662
 9329SOL    HW128886   6.730   5.563   0.751
 9329SOL    HW228887   6.694   5.556   0.592
 9330SOL     OW28888   0.626   0.234   6.496
 9330SOL    HW128889   0.613   0.188   6.408
 9330SOL    HW228890   0.537   0.248   6.539
 9331SOL     OW28891   2.129   2.569   5.999
 9331SOL    HW128892   2.118   2.638   6.071
 9331SOL    HW228893   2.203   2.506   6.024
 9332SOL     OW28894   4.213   5.308   0.411
 9332SOL    HW128895   4.161   5.351   0.337
 9332SOL    HW228896   4.157   5.303   0.493
 9333SOL     OW28897   4.121   5.933   0.257
 9333SOL    HW128898   4.129   5.867   0.182
 9333SOL    HW228899   4.031   5.978   0.253
 9334SOL     OW28900   5.137   0.624   4.249
 9334SOL    HW128901   5.159   0.527   4.252
 9334SOL    HW228902   5.150   0.664   4.340
 9335SOL     OW28903   1.884   2.372   0.310
 9335SOL    HW128904   1.784   2.382   0.312
 9335SOL    HW228905   1.913   2.360   0.215
 9336SOL     OW28906   5.453   0.001   4.599
 9336SOL    HW128907   5.526   6.967   4.561
 9336SOL    HW228908   5.377   6.966   4.628
 9337SOL     OW28909   5.054   0.691   6.489
 9337SOL    HW128910   5.010   0.623   6.548
 9337SOL    HW228911   5.094   0.645   6.410
 9338SOL     OW28912   6.668   6.061   0.807
 9338SOL    HW128913   6.744   6.055   0.871
 9338SOL    HW228914   6.702   6.093   0.718
 9339SOL     OW28915   5.670   5.496   0.555
 9339SOL    HW128916   5.749   5.553   0.580
 9339SOL    HW228917   5.591   5.525   0.608
 9340SOL     OW28918   4.234   4.767   2.843
 9340SOL    HW128919   4.158   4.764   2.779
 9340SOL    HW228920   4.261   4.863   2.857
 9341SOL     OW28921   6.524   4.126   6.653
 9341SOL    HW128922   6.468   4.202   6.688
 9341SOL    HW228923   6.469   4.070   6.591
 9342SOL     OW28924   2.866   0.219   4.418
 9342SOL    HW128925   2.962   0.207   4.391
 9342SOL    HW228926   2.842   0.315   4.414
 9343SOL     OW28927   4.920   3.496   1.981
 9343SOL    HW128928   4.841   3.514   1.923
 9343SOL    HW228929   4.982   3.433   1.934
 9344SOL     OW28930   5.088   5.683   6.636
 9344SOL    HW128931   5.044   5.766   6.671
 9344SOL    HW228932   5.105   5.692   6.538
 9345SOL     OW28933   6.196   4.848   0.441
 9345SOL    HW128934   6.106   4.871   0.478
 9345SOL    HW228935   6.192   4.851   0.341
 9346SOL     OW28936   4.809   6.361   2.516
 9346SOL    HW128937   4.876   6.436   2.523
 9346SOL    HW228938   4.717   6.399   2.516
 9347SOL     OW28939   3.766   5.869   0.904
 9347SOL    HW128940   3.673   5.891   0.876
 9347SOL    HW228941   3.768   5.847   1.002
 9348SOL     OW28942   2.963   5.090   2.893
 9348SOL    HW128943   2.977   5.171   2.835
 9348SOL    HW228944   2.875   5.048   2.871
 9349SOL     OW28945   6.158   5.977   2.316
 9349SOL    HW128946   6.083   5.977   2.250
 9349SOL    HW228947   6.242   6.004   2.269
 9350SOL     OW28948   0.375   1.627   4.226
 9350SOL    HW128949   0.342   1.720   4.245
 9350SOL    HW228950   0.475   1.626   4.230
 9351SOL     OW28951   2.607   0.158   6.257
 9351SOL    HW128952   2.592   0.093   6.182
 9351SOL    HW228953   2.595   0.251   6.223
 9352SOL     OW28954   2.386   3.245   5.817
 9352SOL    HW128955   2.307   3.206   5.865
 9352SOL    HW228956   2.394   3.342   5.838
 9353SOL     OW28957   1.621   4.331   1.985
 9353SOL    HW128958   1.693   4.275   2.025
 9353SOL    HW228959   1.637   4.341   1.887
 9354SOL     OW28960   6.059   1.581   0.928
 9354SOL    HW128961   6.141   1.528   0.950
 9354SOL    HW228962   6.084   1.675   0.907
 9355SOL     OW28963   6.418   1.050   4.295
 9355SOL    HW128964   6.469   1.092   4.370
 9355SOL    HW228965   6.465   1.068   4.209
 9356SOL     OW28966   4.785   5.364   2.168
 9356SOL    HW128967   4.697   5.392   2.207
 9356SOL    HW228968   4.771   5.341   2.071
 9357SOL     OW28969   2.137   3.853   0.062
 9357SOL    HW128970   2.121   3.771   0.007
 9357SOL    HW228971   2.065   3.920   0.043
 9358SOL     OW28972   5.941   3.458   1.709
 9358SOL    HW128973   6.007   3.533   1.719
 9358SOL    HW228974   5.942   3.426   1.614
 9359SOL     OW28975   0.493   3.930   5.752
 9359SOL    HW128976   0.567   3.945   5.687
 9359SOL    HW228977   0.442   3.848   5.726
 9360SOL     OW28978   1.063   7.018   5.747
 9360SOL    HW128979   1.151   6.994   5.706
 9360SOL    HW228980   1.007   6.936   5.757
 9361SOL     OW28981   2.491   6.262   3.688
 9361SOL    HW128982   2.531   6.180   3.648
 9361SOL    HW228983   2.522   6.343   3.638
 9362SOL     OW28984   1.778   1.282   1.951
 9362SOL    HW128985   1.711   1.319   2.014
 9362SOL    HW228986   1.737   1.274   1.860
 9363SOL     OW28987   4.539   5.058   1.984
 9363SOL    HW128988   4.623   5.108   1.964
 9363SOL    HW228989   4.468   5.121   2.014
 9364SOL     OW28990   4.093   3.357   6.118
 9364SOL    HW128991   4.158   3.405   6.059
 9364SOL    HW228992   4.100   3.259   6.102
 9365SOL     OW28993   2.588   1.810   5.141
 9365SOL    HW128994   2.597   1.909   5.135
 9365SOL    HW228995   2.502   1.781   5.099
 9366SOL     OW28996   3.267   1.541   6.977
 9366SOL    HW128997   3.211   1.622   6.955
 9366SOL    HW228998   3.303   1.550   0.047
 9367SOL     OW28999   6.954   5.784   3.785
 9367SOL    HW129000   6.903   5.864   3.753
 9367SOL    HW229001   6.909   5.747   3.866
 9368SOL     OW29002   3.195   1.880   3.482
 9368SOL    HW129003   3.164   1.930   3.562
 9368SOL    HW229004   3.188   1.939   3.401
 9369SOL     OW29005   0.655   0.545   6.124
 9369SOL    HW129006   0.642   0.615   6.053
 9369SOL    HW229007   0.753   0.537   6.145
 9370SOL     OW29008   4.927   0.558   2.597
 9370SOL    HW129009   4.947   0.479   2.540
 9370SOL    HW229010   4.943   0.642   2.545
 9371SOL     OW29011   1.844   4.662   0.436
 9371SOL    HW129012   1.938   4.695   0.437
 9371SOL    HW229013   1.834   4.585   0.500
 9372SOL     OW29014   5.458   5.666   3.116
 9372SOL    HW129015   5.436   5.737   3.050
 9372SOL    HW229016   5.506   5.591   3.069
 9373SOL     OW29017   5.047   2.367   2.782
 9373SOL    HW129018   5.117   2.298   2.765
 9373SOL    HW229019   4.969   2.352   2.722
 9374SOL     OW29020   6.296   3.017   0.199
 9374SOL    HW129021   6.381   2.991   0.243
 9374SOL    HW229022   6.284   2.965   0.114
 9375SOL     OW29023   6.753   2.215   3.004
 9375SOL    HW129024   6.783   2.179   3.092
 9375SOL    HW229025   6.763   2.144   2.934
 9376SOL     OW29026   2.473   3.651   1.200
 9376SOL    HW129027   2.416   3.704   1.138
 9376SOL    HW229028   2.449   3.554   1.192
 9377SOL     OW29029   1.600   5.937   3.856
 9377SOL    HW129030   1.614   6.017   3.915
 9377SOL    HW229031   1.502   5.929   3.834
 9378SOL     OW29032   0.625   0.402   5.258
 9378SOL    HW129033   0.621   0.428   5.162
 9378SOL    HW229034   0.707   0.440   5.300
 9379SOL     OW29035   4.516   5.067   5.492
 9379SOL    HW129036   4.518   5.100   5.397
 9379SOL    HW229037   4.421   5.058   5.522
 9380SOL     OW29038   5.981   4.678   4.881
 9380SOL    HW129039   6.077   4.707   4.878
 9380SOL    HW229040   5.976   4.579   4.864
 9381SOL     OW29041   2.300   3.457   5.976
 9381SOL    HW129042   2.290   3.387   6.047
 9381SOL    HW229043   2.230   3.528   5.990
 9382SOL     OW29044   3.487   1.527   3.470
 9382SOL    HW129045   3.565   1.512   3.531
 9382SOL    HW229046   3.475   1.625   3.455
 9383SOL     OW29047   2.356   6.063   4.455
 9383SOL    HW129048   2.271   6.027   4.418
 9383SOL    HW229049   2.336   6.141   4.515
 9384SOL     OW29050   3.269   5.912   1.313
 9384SOL    HW129051   3.213   5.857   1.374
 9384SOL    HW229052   3.338   5.961   1.365
 9385SOL     OW29053   4.459   1.219   2.964
 9385SOL    HW129054   4.372   1.259   2.935
 9385SOL    HW229055   4.447   1.122   2.982
 9386SOL     OW29056   1.908   6.318   4.972
 9386SOL    HW129057   1.917   6.354   4.880
 9386SOL    HW229058   1.994   6.277   5.002
 9387SOL     OW29059   2.902   1.109   6.617
 9387SOL    HW129060   2.994   1.113   6.578
 9387SOL    HW229061   2.850   1.037   6.573
 9388SOL     OW29062   2.364   5.564   2.815
 9388SOL    HW129063   2.310   5.480   2.821
 9388SOL    HW229064   2.419   5.563   2.731
 9389SOL     OW29065   1.975   6.987   5.047
 9389SOL    HW129066   2.001   6.950   5.136
 9389SOL    HW229067   2.003   6.923   4.975
 9390SOL     OW29068   3.872   5.495   5.016
 9390SOL    HW129069   3.883   5.540   4.927
 9390SOL    HW229070   3.778   5.505   5.048
 9391SOL     OW29071   2.359   0.767   5.033
 9391SOL    HW129072   2.365   0.817   4.947
 9391SOL    HW229073   2.265   0.739   5.049
 9392SOL     OW29074   6.959   0.457   5.408
 9392SOL    HW129075   7.004   0.483   5.494
 9392SOL    HW229076   6.893   0.384   5.425
 9393SOL     OW29077   2.781   0.263   5.221
 9393SOL    HW129078   2.737   0.264   5.131
 9393SOL    HW229079   2.742   0.336   5.278
 9394SOL     OW29080   0.016   1.557   2.158
 9394SOL    HW129081   6.960   1.603   2.117
 9394SOL    HW229082   7.012   1.467   2.191
 9395SOL     OW29083   2.544   1.890   0.056
 9395SOL    HW129084   2.518   1.911   0.150
 9395SOL    HW229085   2.562   1.975   0.006
 9396SOL     OW29086   1.184   5.606   3.743
 9396SOL    HW129087   1.175   5.645   3.651
 9396SOL    HW229088   1.094   5.601   3.786
 9397SOL     OW29089   3.221   0.148   0.263
 9397SOL    HW129090   3.181   0.238   0.278
 9397SOL    HW229091   3.259   0.113   0.349
 9398SOL     OW29092   1.171   0.186   5.494
 9398SOL    HW129093   1.120   0.129   5.560
 9398SOL    HW229094   1.240   0.130   5.449
 9399SOL     OW29095   0.230   1.780   6.566
 9399SOL    HW129096   0.188   1.870   6.573
 9399SOL    HW229097   0.328   1.787   6.583
 9400SOL     OW29098   4.368   2.549   1.678
 9400SOL    HW129099   4.408   2.633   1.716
 9400SOL    HW229100   4.270   2.564   1.661
 9401SOL     OW29101   4.599   0.011   3.213
 9401SOL    HW129102   4.525   0.078   3.205
 9401SOL    HW229103   4.564   6.949   3.251
 9402SOL     OW29104   1.204   5.014   3.819
 9402SOL    HW129105   1.274   4.991   3.887
 9402SOL    HW229106   1.140   5.079   3.858
 9403SOL     OW29107   5.822   1.182   3.098
 9403SOL    HW129108   5.767   1.237   3.035
 9403SOL    HW229109   5.761   1.131   3.159
 9404SOL     OW29110   0.569   3.170   6.355
 9404SOL    HW129111   0.595   3.185   6.260
 9404SOL    HW229112   0.630   3.103   6.397
 9405SOL     OW29113   0.400   6.076   2.346
 9405SOL    HW129114   0.345   6.006   2.300
 9405SOL    HW229115   0.443   6.135   2.278
 9406SOL     OW29116   6.957   2.875   6.396
 9406SOL    HW129117   6.899   2.796   6.417
 9406SOL    HW229118   0.019   2.869   6.448
 9407SOL     OW29119   2.725   5.299   3.014
 9407SOL    HW129120   2.628   5.296   2.993
 9407SOL    HW229121   2.739   5.317   3.111
 9408SOL     OW29122   3.937   1.680   6.257
 9408SOL    HW129123   3.941   1.581   6.246
 9408SOL    HW229124   3.946   1.725   6.168
 9409SOL     OW29125   5.796   4.610   6.325
 9409SOL    HW129126   5.749   4.533   6.368
 9409SOL    HW229127   5.729   4.681   6.301
 9410SOL     OW29128   2.718   6.209   1.702
 9410SOL    HW129129   2.713   6.115   1.737
 9410SOL    HW229130   2.804   6.222   1.653
 9411SOL     OW29131   4.391   3.784   1.614
 9411SOL    HW129132   4.319   3.717   1.637
 9411SOL    HW229133   4.480   3.746   1.639
 9412SOL     OW29134   0.167   3.035   1.572
 9412SOL    HW129135   0.069   3.015   1.561
 9412SOL    HW229136   0.178   3.127   1.610
 9413SOL     OW29137   3.492   6.024   4.452
 9413SOL    HW129138   3.520   5.980   4.537
 9413SOL    HW229139   3.573   6.056   4.402
 9414SOL     OW29140   3.256   0.854   3.834
 9414SOL    HW129141   3.172   0.807   3.808
 9414SOL    HW229142   3.260   0.943   3.788
 9415SOL     OW29143   2.649   0.087   1.967
 9415SOL    HW129144   2.584   0.155   1.934
 9415SOL    HW229145   2.706   0.056   1.891
 9416SOL     OW29146   0.872   1.728   0.981
 9416SOL    HW129147   0.801   1.798   0.983
 9416SOL    HW229148   0.959   1.767   1.009
 9417SOL     OW29149   3.777   6.687   5.546
 9417SOL    HW129150   3.749   6.750   5.619
 9417SOL    HW229151   3.735   6.598   5.561
 9418SOL     OW29152   3.362   6.063   1.514
 9418SOL    HW129153   3.434   6.128   1.540
 9418SOL    HW229154   3.273   6.098   1.544
 9419SOL     OW29155   3.184   5.019   5.772
 9419SOL    HW129156   3.132   4.983   5.694
 9419SOL    HW229157   3.122   5.068   5.834
 9420SOL     OW29158   0.497   2.453   4.856
 9420SOL    HW129159   0.500   2.529   4.920
 9420SOL    HW229160   0.431   2.472   4.783
 9421SOL     OW29161   1.691   6.187   4.904
 9421SOL    HW129162   1.728   6.150   4.820
 9421SOL    HW229163   1.763   6.234   4.955
 9422SOL     OW29164   4.935   6.468   3.002
 9422SOL    HW129165   4.904   6.375   2.982
 9422SOL    HW229166   5.031   6.478   2.974
 9423SOL     OW29167   4.315   0.718   3.301
 9423SOL    HW129168   4.399   0.709   3.355
 9423SOL    HW229169   4.335   0.764   3.215
 9424SOL     OW29170   4.847   0.985   5.220
 9424SOL    HW129171   4.927   1.045   5.220
 9424SOL    HW229172   4.764   1.041   5.229
 9425SOL     OW29173   6.644   3.421   6.380
 9425SOL    HW129174   6.568   3.482   6.401
 9425SOL    HW229175   6.722   3.474   6.347
 9426SOL     OW29176   2.809   2.141   6.783
 9426SOL    HW129177   2.781   2.228   6.742
 9426SOL    HW229178   2.838   2.078   6.711
 9427SOL     OW29179   2.728   5.326   4.508
 9427SOL    HW129180   2.743   5.360   4.601
 9427SOL    HW229181   2.786   5.377   4.444
 9428SOL     OW29182   5.368   0.506   1.123
 9428SOL    HW129183   5.285   0.526   1.174
 9428SOL    HW229184   5.345   0.472   1.032
 9429SOL     OW29185   1.795   3.820   2.319
 9429SOL    HW129186   1.803   3.779   2.228
 9429SOL    HW229187   1.887   3.834   2.357
 9430SOL     OW29188   0.012   4.491   2.021
 9430SOL    HW129189   0.091   4.552   2.015
 9430SOL    HW229190   0.017   4.422   1.950
 9431SOL     OW29191   5.761   3.814   1.148
 9431SOL    HW129192   5.783   3.755   1.225
 9431SOL    HW229193   5.748   3.908   1.180
 9432SOL     OW29194   5.345   1.222   3.100
 9432SOL    HW129195   5.385   1.172   3.024
 9432SOL    HW229196   5.410   1.292   3.131
 9433SOL     OW29197   3.752   4.845   3.401
 9433SOL    HW129198   3.790   4.885   3.485
 9433SOL    HW229199   3.826   4.806   3.347
 9434SOL     OW29200   5.231   5.245   3.347
 9434SOL    HW129201   5.216   5.149   3.369
 9434SOL    HW229202   5.316   5.255   3.295
 9435SOL     OW29203   0.490   2.215   4.633
 9435SOL    HW129204   0.560   2.284   4.616
 9435SOL    HW229205   0.447   2.231   4.722
 9436SOL     OW29206   1.003   3.472   1.751
 9436SOL    HW129207   0.956   3.440   1.834
 9436SOL    HW229208   1.101   3.457   1.761
 9437SOL     OW29209   2.176   6.355   3.142
 9437SOL    HW129210   2.130   6.431   3.188
 9437SOL    HW229211   2.256   6.327   3.195
 9438SOL     OW29212   0.350   6.853   2.029
 9438SOL    HW129213   0.401   6.938   2.021
 9438SOL    HW229214   0.258   6.865   1.992
 9439SOL     OW29215   0.633   2.448   1.695
 9439SOL    HW129216   0.709   2.506   1.725
 9439SOL    HW229217   0.550   2.503   1.685
 9440SOL     OW29218   4.123   5.448   3.968
 9440SOL    HW129219   4.161   5.356   3.977
 9440SOL    HW229220   4.047   5.447   3.903
 9441SOL     OW29221   1.578   3.490   4.982
 9441SOL    HW129222   1.497   3.453   4.937
 9441SOL    HW229223   1.657   3.432   4.960
 9442SOL     OW29224   4.552   3.322   0.205
 9442SOL    HW129225   4.552   3.280   0.115
 9442SOL    HW229226   4.530   3.419   0.197
 9443SOL     OW29227   2.403   5.102   1.338
 9443SOL    HW129228   2.365   5.020   1.295
 9443SOL    HW229229   2.330   5.150   1.388
 9444SOL     OW29230   1.245   4.036   6.895
 9444SOL    HW129231   1.302   4.059   6.974
 9444SOL    HW229232   1.206   4.120   6.856
 9445SOL     OW29233   5.758   3.640   2.759
 9445SOL    HW129234   5.698   3.705   2.805
 9445SOL    HW229235   5.771   3.669   2.664
 9446SOL     OW29236   6.689   6.421   4.205
 9446SOL    HW129237   6.763   6.354   4.213
 9446SOL    HW229238   6.602   6.374   4.194
 9447SOL     OW29239   6.133   3.450   3.638
 9447SOL    HW129240   6.142   3.549   3.627
 9447SOL    HW229241   6.223   3.410   3.652
 9448SOL     OW29242   6.579   6.754   6.267
 9448SOL    HW129243   6.589   6.696   6.347
 9448SOL    HW229244   6.630   6.839   6.282
 9449SOL     OW29245   0.062   6.019   6.944
 9449SOL    HW129246   0.112   6.081   6.883
 9449SOL    HW229247   6.999   6.062   6.970
 9450SOL     OW29248   3.188   5.459   5.038
 9450SOL    HW129249   3.247   5.413   5.105
 9450SOL    HW229250   3.092   5.441   5.060
 9451SOL     OW29251   3.818   6.394   6.163
 9451SOL    HW129252   3.815   6.494   6.165
 9451SOL    HW229253   3.775   6.362   6.078
 9452SOL     OW29254   1.590   3.775   0.590
 9452SOL    HW129255   1.518   3.807   0.651
 9452SOL    HW229256   1.627   3.853   0.539
 9453SOL     OW29257   2.401   5.368   3.631
 9453SOL    HW129258   2.476   5.346   3.694
 9453SOL    HW229259   2.367   5.460   3.649
 9454SOL     OW29260   2.063   3.587   6.903
 9454SOL    HW129261   2.087   3.667   6.849
 9454SOL    HW229262   2.015   3.521   6.845
 9455SOL     OW29263   4.069   1.740   2.828
 9455SOL    HW129264   4.069   1.840   2.834
 9455SOL    HW229265   4.158   1.705   2.860
 9456SOL     OW29266   0.850   3.598   0.774
 9456SOL    HW129267   0.831   3.537   0.696
 9456SOL    HW229268   0.776   3.664   0.783
 9457SOL     OW29269   2.428   4.226   5.294
 9457SOL    HW129270   2.389   4.296   5.235
 9457SOL    HW229271   2.424   4.137   5.247
 9458SOL     OW29272   1.177   2.862   6.958
 9458SOL    HW129273   1.129   2.949   6.945
 9458SOL    HW229274   1.254   2.857   6.894
 9459SOL     OW29275   5.417   4.694   2.304
 9459SOL    HW129276   5.369   4.655   2.225
 9459SOL    HW229277   5.369   4.667   2.388
 9460SOL     OW29278   0.152   2.623   4.045
 9460SOL    HW129279   0.183   2.597   3.954
 9460SOL    HW229280   0.161   2.722   4.056
 9461SOL     OW29281   6.619   1.674   2.456
 9461SOL    HW129282   6.708   1.684   2.411
 9461SOL    HW229283   6.590   1.763   2.491
 9462SOL     OW29284   2.128   3.658   2.832
 9462SOL    HW129285   2.075   3.690   2.754
 9462SOL    HW229286   2.193   3.728   2.860
 9463SOL     OW29287   0.296   0.762   1.396
 9463SOL    HW129288   0.290   0.706   1.478
 9463SOL    HW229289   0.375   0.733   1.341
 9464SOL     OW29290   5.958   6.970   0.920
 9464SOL    HW129291   6.024   6.961   0.994
 9464SOL    HW229292   5.957   6.886   0.866
 9465SOL     OW29293   0.952   5.960   3.418
 9465SOL    HW129294   0.869   5.991   3.464
 9465SOL    HW229295   0.955   5.860   3.419
 9466SOL     OW29296   4.277   4.556   5.452
 9466SOL    HW129297   4.274   4.524   5.547
 9466SOL    HW229298   4.217   4.500   5.396
 9467SOL     OW29299   1.251   2.390   1.393
 9467SOL    HW129300   1.167   2.339   1.415
 9467SOL    HW229301   1.305   2.337   1.328
 9468SOL     OW29302   6.179   2.343   6.300
 9468SOL    HW129303   6.117   2.310   6.371
 9468SOL    HW229304   6.171   2.285   6.219
 9469SOL     OW29305   5.938   6.255   1.425
 9469SOL    HW129306   5.875   6.314   1.475
 9469SOL    HW229307   5.954   6.291   1.333
 9470SOL     OW29308   4.789   4.222   5.441
 9470SOL    HW129309   4.797   4.160   5.518
 9470SOL    HW229310   4.761   4.312   5.473
 9471SOL     OW29311   6.444   1.340   4.376
 9471SOL    HW129312   6.348   1.354   4.351
 9471SOL    HW229313   6.456   1.364   4.473
 9472SOL     OW29314   6.017   3.364   4.628
 9472SOL    HW129315   6.065   3.333   4.546
 9472SOL    HW229316   5.987   3.285   4.681
 9473SOL     OW29317   2.757   5.318   5.590
 9473SOL    HW129318   2.847   5.352   5.564
 9473SOL    HW229319   2.763   5.220   5.607
 9474SOL     OW29320   6.762   3.295   0.549
 9474SOL    HW129321   6.710   3.374   0.583
 9474SOL    HW229322   6.796   3.314   0.457
 9475SOL     OW29323   2.882   3.601   0.241
 9475SOL    HW129324   2.875   3.587   0.339
 9475SOL    HW229325   2.900   3.514   0.195
 9476SOL     OW29326   3.057   3.354   5.417
 9476SOL    HW129327   3.089   3.341   5.511
 9476SOL    HW229328   3.133   3.384   5.359
 9477SOL     OW29329   0.279   3.858   2.415
 9477SOL    HW129330   0.343   3.857   2.493
 9477SOL    HW229331   0.198   3.804   2.438
 9478SOL     OW29332   5.395   3.002   6.088
 9478SOL    HW129333   5.479   2.954   6.064
 9478SOL    HW229334   5.358   2.964   6.173
 9479SOL     OW29335   4.577   6.541   6.986
 9479SOL    HW129336   4.673   6.562   6.965
 9479SOL    HW229337   4.532   6.624   7.020
 9480SOL     OW29338   4.610   3.738   0.860
 9480SOL    HW129339   4.595   3.695   0.949
 9480SOL    HW229340   4.699   3.710   0.824
 9481SOL     OW29341   5.693   3.556   1.773
 9481SOL    HW129342   5.675   3.516   1.863
 9481SOL    HW229343   5.782   3.523   1.739
 9482SOL     OW29344   6.824   0.537   3.091
 9482SOL    HW129345   6.907   0.538   3.148
 9482SOL    HW229346   6.747   0.575   3.143
 9483SOL     OW29347   1.287   1.314   1.207
 9483SOL    HW129348   1.377   1.308   1.164
 9483SOL    HW229349   1.245   1.402   1.185
 9484SOL     OW29350   4.351   1.382   3.199
 9484SOL    HW129351   4.431   1.387   3.259
 9484SOL    HW229352   4.380   1.352   3.108
 9485SOL     OW29353   0.790   0.550   2.239
 9485SOL    HW129354   0.785   0.451   2.249
 9485SOL    HW229355   0.878   0.583   2.274
 9486SOL     OW29356   2.686   5.298   1.544
 9486SOL    HW129357   2.657   5.220   1.488
 9486SOL    HW229358   2.701   5.268   1.637
 9487SOL     OW29359   2.941   3.366   3.337
 9487SOL    HW129360   2.944   3.426   3.258
 9487SOL    HW229361   2.858   3.385   3.391
 9488SOL     OW29362   1.616   6.194   1.343
 9488SOL    HW129363   1.599   6.269   1.281
 9488SOL    HW229364   1.631   6.110   1.291
 9489SOL     OW29365   4.089   3.831   1.418
 9489SOL    HW129366   4.160   3.761   1.422
 9489SOL    HW229367   4.041   3.825   1.331
 9490SOL     OW29368   6.649   5.480   0.893
 9490SOL    HW129369   6.569   5.536   0.916
 9490SOL    HW229370   6.622   5.384   0.890
 9491SOL     OW29371   6.818   4.218   3.954
 9491SOL    HW129372   6.764   4.250   3.876
 9491SOL    HW229373   6.756   4.189   4.028
 9492SOL     OW29374   3.386   2.871   3.080
 9492SOL    HW129375   3.304   2.871   3.138
 9492SOL    HW229376   3.467   2.861   3.137
 9493SOL     OW29377   3.631   5.643   3.871
 9493SOL    HW129378   3.691   5.619   3.796
 9493SOL    HW229379   3.571   5.566   3.893
 9494SOL     OW29380   4.354   4.704   1.054
 9494SOL    HW129381   4.268   4.752   1.075
 9494SOL    HW229382   4.419   4.718   1.128
 9495SOL     OW29383   6.220   1.677   4.136
 9495SOL    HW129384   6.299   1.698   4.078
 9495SOL    HW229385   6.193   1.582   4.121
 9496SOL     OW29386   5.543   4.799   0.980
 9496SOL    HW129387   5.615   4.807   0.911
 9496SOL    HW229388   5.504   4.707   0.978
 9497SOL     OW29389   6.411   5.170   6.654
 9497SOL    HW129390   6.431   5.193   6.749
 9497SOL    HW229391   6.336   5.104   6.651
 9498SOL     OW29392   5.311   0.294   4.854
 9498SOL    HW129393   5.345   0.388   4.855
 9498SOL    HW229394   5.330   0.251   4.942
 9499SOL     OW29395   2.509   5.193   6.483
 9499SOL    HW129396   2.583   5.191   6.551
 9499SOL    HW229397   2.425   5.158   6.525
 9500SOL     OW29398   4.686   0.163   1.382
 9500SOL    HW129399   4.741   0.199   1.457
 9500SOL    HW229400   4.742   0.157   1.299
 9501SOL     OW29401   2.683   1.451   4.877
 9501SOL    HW129402   2.735   1.420   4.797
 9501SOL    HW229403   2.626   1.529   4.852
 9502SOL     OW29404   0.336   2.209   4.859
 9502SOL    HW129405   0.257   2.225   4.801
 9502SOL    HW229406   0.306   2.192   4.953
 9503SOL     OW29407   0.698   1.282   0.913
 9503SOL    HW129408   0.777   1.278   0.974
 9503SOL    HW229409   0.636   1.355   0.944
 9504SOL     OW29410   6.947   2.040   0.933
 9504SOL    HW129411   6.922   2.115   0.873
 9504SOL    HW229412   6.905   2.053   1.023
 9505SOL     OW29413   5.620   4.584   3.565
 9505SOL    HW129414   5.674   4.654   3.516
 9505SOL    HW229415   5.523   4.604   3.554
 9506SOL     OW29416   0.296   2.776   6.712
 9506SOL    HW129417   0.307   2.873   6.734
 9506SOL    HW229418   0.253   2.729   6.790
 9507SOL     OW29419   1.169   1.465   3.356
 9507SOL    HW129420   1.087   1.522   3.350
 9507SOL    HW229421   1.198   1.439   3.264
 9508SOL     OW29422   6.539   3.716   0.893
 9508SOL    HW129423   6.537   3.641   0.827
 9508SOL    HW229424   6.475   3.698   0.967
 9509SOL     OW29425   0.980   0.557   5.164
 9509SOL    HW129426   0.933   0.527   5.247
 9509SOL    HW229427   0.912   0.586   5.096
 9510SOL     OW29428   1.062   3.858   2.403
 9510SOL    HW129429   1.073   3.956   2.388
 9510SOL    HW229430   0.981   3.841   2.458
 9511SOL     OW29431   0.669   1.431   6.682
 9511SOL    HW129432   0.758   1.387   6.673
 9511SOL    HW229433   0.664   1.511   6.621
 9512SOL     OW29434   5.831   1.320   1.565
 9512SOL    HW129435   5.888   1.238   1.556
 9512SOL    HW229436   5.873   1.382   1.631
 9513SOL     OW29437   1.894   3.204   5.440
 9513SOL    HW129438   1.820   3.264   5.408
 9513SOL    HW229439   1.902   3.211   5.539
 9514SOL     OW29440   2.312   4.310   6.888
 9514SOL    HW129441   2.225   4.355   6.909
 9514SOL    HW229442   2.296   4.216   6.860
 9515SOL     OW29443   1.260   5.757   0.842
 9515SOL    HW129444   1.297   5.686   0.783
 9515SOL    HW229445   1.312   5.842   0.829
 9516SOL     OW29446   5.766   3.494   4.982
 9516SOL    HW129447   5.765   3.466   5.078
 9516SOL    HW229448   5.857   3.525   4.957
 9517SOL     OW29449   1.027   4.354   0.569
 9517SOL    HW129450   1.089   4.428   0.544
 9517SOL    HW229451   1.053   4.317   0.658
 9518SOL     OW29452   1.302   2.079   0.026
 9518SOL    HW129453   1.299   2.018   6.970
 9518SOL    HW229454   1.214   2.124   0.036
 9519SOL     OW29455   3.577   4.160   4.357
 9519SOL    HW129456   3.537   4.252   4.366
 9519SOL    HW229457   3.508   4.091   4.380
 9520SOL     OW29458   0.672   1.547   3.218
 9520SOL    HW129459   0.632   1.573   3.130
 9520SOL    HW229460   0.621   1.470   3.256
 9521SOL     OW29461   3.661   4.347   1.217
 9521SOL    HW129462   3.712   4.265   1.244
 9521SOL    HW229463   3.604   4.325   1.138
 9522SOL     OW29464   4.162   5.295   1.720
 9522SOL    HW129465   4.203   5.368   1.666
 9522SOL    HW229466   4.062   5.303   1.715
 9523SOL     OW29467   2.450   5.307   4.427
 9523SOL    HW129468   2.549   5.322   4.429
 9523SOL    HW229469   2.405   5.390   4.393
 9524SOL     OW29470   2.317   3.013   0.571
 9524SOL    HW129471   2.293   3.030   0.475
 9524SOL    HW229472   2.258   2.941   0.607
 9525SOL     OW29473   2.630   2.184   5.608
 9525SOL    HW129474   2.717   2.134   5.609
 9525SOL    HW229475   2.649   2.283   5.611
 9526SOL     OW29476   6.035   4.309   0.970
 9526SOL    HW129477   6.095   4.257   0.910
 9526SOL    HW229478   6.089   4.367   1.030
 9527SOL     OW29479   1.161   0.338   4.603
 9527SOL    HW129480   1.175   0.384   4.515
 9527SOL    HW229481   1.250   0.321   4.646
 9528SOL     OW29482   0.067   1.532   0.820
 9528SOL    HW129483   0.041   1.628   0.834
 9528SOL    HW229484   0.020   1.496   0.740
 9529SOL     OW29485   6.143   3.423   6.228
 9529SOL    HW129486   6.149   3.424   6.128
 9529SOL    HW229487   6.179   3.337   6.263
 9530SOL     OW29488   1.808   3.125   3.275
 9530SOL    HW129489   1.904   3.145   3.256
 9530SOL    HW229490   1.750   3.183   3.218
 9531SOL     OW29491   4.981   4.377   2.354
 9531SOL    HW129492   5.016   4.447   2.416
 9531SOL    HW229493   4.886   4.357   2.378
 9532SOL     OW29494   0.292   6.108   0.981
 9532SOL    HW129495   0.197   6.132   0.959
 9532SOL    HW229496   0.315   6.143   1.071
 9533SOL     OW29497   0.396   5.957   4.993
 9533SOL    HW129498   0.461   5.960   5.068
 9533SOL    HW229499   0.417   6.029   4.927
 9534SOL     OW29500   6.553   4.237   4.926
 9534SOL    HW129501   6.638   4.186   4.940
 9534SOL    HW229502   6.511   4.210   4.840
 9535SOL     OW29503   1.841   0.702   5.816
 9535SOL    HW129504   1.917   0.715   5.879
 9535SOL    HW229505   1.827   0.786   5.763
 9536SOL     OW29506   3.301   4.178   5.260
 9536SOL    HW129507   3.283   4.126   5.176
 9536SOL    HW229508   3.221   4.235   5.282
 9537SOL     OW29509   2.621   0.025   4.274
 9537SOL    HW129510   2.641   6.986   4.198
 9537SOL    HW229511   2.696   0.022   4.340
 9538SOL     OW29512   5.626   0.740   4.132
 9538SOL    HW129513   5.612   0.644   4.157
 9538SOL    HW229514   5.590   0.757   4.040
 9539SOL     OW29515   3.299   3.789   4.293
 9539SOL    HW129516   3.369   3.739   4.243
 9539SOL    HW229517   3.268   3.734   4.371
 9540SOL     OW29518   6.029   4.997   4.213
 9540SOL    HW129519   6.075   4.909   4.223
 9540SOL    HW229520   5.991   5.025   4.300
 9541SOL     OW29521   3.120   0.052   6.203
 9541SOL    HW129522   3.060   0.061   6.283
 9541SOL    HW229523   3.159   0.141   6.180
 9542SOL     OW29524   4.874   4.380   5.083
 9542SOL    HW129525   4.784   4.393   5.041
 9542SOL    HW229526   4.939   4.445   5.043
 9543SOL     OW29527   3.583   0.534   5.468
 9543SOL    HW129528   3.617   0.574   5.383
 9543SOL    HW229529   3.647   0.554   5.543
 9544SOL     OW29530   6.293   2.566   3.849
 9544SOL    HW129531   6.232   2.644   3.866
 9544SOL    HW229532   6.246   2.501   3.789
 9545SOL     OW29533   5.740   5.977   4.063
 9545SOL    HW129534   5.752   5.884   4.027
 9545SOL    HW229535   5.794   6.041   4.010
 9546SOL     OW29536   4.068   2.171   5.591
 9546SOL    HW129537   4.000   2.102   5.565
 9546SOL    HW229538   4.031   2.263   5.573
 9547SOL     OW29539   2.445   4.840   4.468
 9547SOL    HW129540   2.466   4.926   4.515
 9547SOL    HW229541   2.519   4.817   4.405
 9548SOL     OW29542   6.175   4.679   5.561
 9548SOL    HW129543   6.264   4.710   5.595
 9548SOL    HW229544   6.180   4.662   5.463
 9549SOL     OW29545   3.117   2.392   1.432
 9549SOL    HW129546   3.216   2.402   1.422
 9549SOL    HW229547   3.096   2.356   1.523
 9550SOL     OW29548   6.983   1.183   0.635
 9550SOL    HW129549   6.945   1.274   0.618
 9550SOL    HW229550   0.048   1.192   0.681
 9551SOL     OW29551   5.877   2.220   6.076
 9551SOL    HW129552   5.783   2.189   6.087
 9551SOL    HW229553   5.889   2.307   6.123
 9552SOL     OW29554   1.642   6.402   4.404
 9552SOL    HW129555   1.676   6.443   4.489
 9552SOL    HW229556   1.571   6.461   4.365
 9553SOL     OW29557   5.964   2.256   6.802
 9553SOL    HW129558   5.873   2.293   6.818
 9553SOL    HW229559   6.025   2.329   6.772
 9554SOL     OW29560   2.443   0.019   2.200
 9554SOL    HW129561   2.494   7.015   2.118
 9554SOL    HW229562   2.502   0.015   2.280
 9555SOL     OW29563   1.190   0.944   2.637
 9555SOL    HW129564   1.200   0.955   2.736
 9555SOL    HW229565   1.278   0.920   2.597
 9556SOL     OW29566   2.126   4.172   1.408
 9556SOL    HW129567   2.084   4.081   1.410
 9556SOL    HW229568   2.144   4.199   1.314
 9557SOL     OW29569   6.652   6.019   2.250
 9557SOL    HW129570   6.617   5.941   2.197
 9557SOL    HW229571   6.752   6.020   2.245
 9558SOL     OW29572   5.950   6.223   5.630
 9558SOL    HW129573   5.963   6.127   5.608
 9558SOL    HW229574   5.955   6.277   5.546
 9559SOL     OW29575   0.300   4.905   0.993
 9559SOL    HW129576   0.323   4.971   0.921
 9559SOL    HW229577   0.333   4.940   1.081
 9560SOL     OW29578   2.211   1.560   3.437
 9560SOL    HW129579   2.251   1.643   3.476
 9560SOL    HW229580   2.266   1.481   3.463
 9561SOL     OW29581   2.154   0.366   0.518
 9561SOL    HW129582   2.103   0.423   0.454
 9561SOL    HW229583   2.135   0.396   0.612
 9562SOL     OW29584   2.678   0.437   5.397
 9562SOL    HW129585   2.632   0.524   5.417
 9562SOL    HW229586   2.732   0.408   5.476
 9563SOL     OW29587   6.959   6.410   0.610
 9563SOL    HW129588   0.035   6.390   0.611
 9563SOL    HW229589   6.927   6.412   0.515
 9564SOL     OW29590   2.973   0.802   0.477
 9564SOL    HW129591   2.948   0.719   0.526
 9564SOL    HW229592   2.907   0.874   0.497
 9565SOL     OW29593   4.023   0.803   4.594
 9565SOL    HW129594   4.029   0.721   4.651
 9565SOL    HW229595   3.936   0.804   4.546
 9566SOL     OW29596   2.555   5.021   0.009
 9566SOL    HW129597   2.608   4.991   0.088
 9566SOL    HW229598   2.558   5.121   0.003
 9567SOL     OW29599   4.971   5.334   0.598
 9567SOL    HW129600   4.911   5.321   0.518
 9567SOL    HW229601   5.066   5.331   0.569
 9568SOL     OW29602   4.569   2.813   6.293
 9568SOL    HW129603   4.635   2.801   6.219
 9568SOL    HW229604   4.480   2.836   6.255
 9569SOL     OW29605   6.969   1.234   2.236
 9569SOL    HW129606   6.916   1.200   2.314
 9569SOL    HW229607   0.044   1.229   2.258
 9570SOL     OW29608   0.663   3.252   1.673
 9570SOL    HW129609   0.585   3.279   1.616
 9570SOL    HW229610   0.746   3.253   1.618
 9571SOL     OW29611   3.461   4.129   5.984
 9571SOL    HW129612   3.538   4.137   6.047
 9571SOL    HW229613   3.377   4.157   6.031
 9572SOL     OW29614   2.216   4.967   1.890
 9572SOL    HW129615   2.257   5.037   1.831
 9572SOL    HW229616   2.286   4.900   1.915
 9573SOL     OW29617   0.772   2.987   6.409
 9573SOL    HW129618   0.828   2.925   6.463
 9573SOL    HW229619   0.832   3.051   6.360
 9574SOL     OW29620   3.988   3.646   3.279
 9574SOL    HW129621   3.959   3.702   3.357
 9574SOL    HW229622   3.948   3.554   3.287
 9575SOL     OW29623   0.593   0.950   1.277
 9575SOL    HW129624   0.655   0.955   1.355
 9575SOL    HW229625   0.642   0.976   1.194
 9576SOL     OW29626   1.880   0.822   1.573
 9576SOL    HW129627   1.868   0.892   1.502
 9576SOL    HW229628   1.839   0.855   1.659
 9577SOL     OW29629   1.312   0.834   6.456
 9577SOL    HW129630   1.276   0.741   6.464
 9577SOL    HW229631   1.406   0.831   6.421
 9578SOL     OW29632   0.272   3.684   3.490
 9578SOL    HW129633   0.268   3.658   3.394
 9578SOL    HW229634   0.307   3.608   3.544
 9579SOL     OW29635   1.684   5.009   2.736
 9579SOL    HW129636   1.725   4.918   2.743
 9579SOL    HW229637   1.625   5.013   2.655
 9580SOL     OW29638   4.798   4.103   0.758
 9580SOL    HW129639   4.764   4.041   0.829
 9580SOL    HW229640   4.779   4.064   0.668
 9581SOL     OW29641   0.052   5.383   5.718
 9581SOL    HW129642   0.142   5.383   5.673
 9581SOL    HW229643   0.063   5.356   5.814
 9582SOL     OW29644   4.937   5.071   6.119
 9582SOL    HW129645   4.911   5.074   6.023
 9582SOL    HW229646   4.891   4.994   6.164
 9583SOL     OW29647   3.802   4.120   1.264
 9583SOL    HW129648   3.767   4.027   1.279
 9583SOL    HW229649   3.860   4.120   1.183
 9584SOL     OW29650   0.116   5.533   6.923
 9584SOL    HW129651   0.086   5.621   6.885
 9584SOL    HW229652   0.206   5.510   6.885
 9585SOL     OW29653   6.822   0.327   4.916
 9585SOL    HW129654   6.774   0.280   4.990
 9585SOL    HW229655   6.855   0.416   4.948
 9586SOL     OW29656   5.527   5.020   1.897
 9586SOL    HW129657   5.521   4.953   1.972
 9586SOL    HW229658   5.570   4.977   1.818
 9587SOL     OW29659   0.643   0.779   1.716
 9587SOL    HW129660   0.626   0.715   1.641
 9587SOL    HW229661   0.689   0.730   1.790
 9588SOL     OW29662   6.587   0.985   1.134
 9588SOL    HW129663   6.556   0.936   1.216
 9588SOL    HW229664   6.526   0.967   1.058
 9589SOL     OW29665   2.257   5.024   6.962
 9589SOL    HW129666   2.335   4.962   6.948
 9589SOL    HW229667   2.290   5.109   7.004
 9590SOL     OW29668   6.560   3.137   1.926
 9590SOL    HW129669   6.641   3.184   1.960
 9590SOL    HW229670   6.478   3.183   1.961
 9591SOL     OW29671   2.953   6.401   5.685
 9591SOL    HW129672   2.906   6.488   5.701
 9591SOL    HW229673   3.017   6.412   5.609
 9592SOL     OW29674   3.987   4.440   1.158
 9592SOL    HW129675   3.894   4.403   1.164
 9592SOL    HW229676   4.000   4.483   1.069
 9593SOL     OW29677   0.045   0.561   5.661
 9593SOL    HW129678   0.134   0.602   5.680
 9593SOL    HW229679   6.996   0.620   5.696
 9594SOL     OW29680   1.530   5.590   2.554
 9594SOL    HW129681   1.459   5.615   2.619
 9594SOL    HW229682   1.533   5.491   2.543
 9595SOL     OW29683   0.564   4.257   5.228
 9595SOL    HW129684   0.642   4.303   5.186
 9595SOL    HW229685   0.481   4.312   5.214
 9596SOL     OW29686   6.801   5.493   6.393
 9596SOL    HW129687   6.816   5.522   6.487
 9596SOL    HW229688   6.703   5.475   6.380
 9597SOL     OW29689   0.531   4.239   1.604
 9597SOL    HW129690   0.499   4.145   1.614
 9597SOL    HW229691   0.615   4.240   1.550
 9598SOL     OW29692   1.589   3.595   3.978
 9598SOL    HW129693   1.669   3.565   4.031
 9598SOL    HW229694   1.616   3.665   3.912
 9599SOL     OW29695   4.139   0.184   4.659
 9599SOL    HW129696   4.073   0.247   4.701
 9599SOL    HW229697   4.091   0.124   4.595
 9600SOL     OW29698   2.152   6.773   6.407
 9600SOL    HW129699   2.125   6.868   6.424
 9600SOL    HW229700   2.138   6.719   6.490
 9601SOL     OW29701   5.295   3.949   1.110
 9601SOL    HW129702   5.342   3.904   1.034
 9601SOL    HW229703   5.322   4.045   1.113
 9602SOL     OW29704   6.687   5.185   6.255
 9602SOL    HW129705   6.593   5.155   6.239
 9602SOL    HW229706   6.697   5.212   6.351
 9603SOL     OW29707   3.796   1.532   3.884
 9603SOL    HW129708   3.746   1.457   3.840
 9603SOL    HW229709   3.790   1.614   3.828
 9604SOL     OW29710   3.996   0.039   6.922
 9604SOL    HW129711   3.904   0.012   6.894
 9604SOL    HW229712   4.049   0.067   6.842
 9605SOL     OW29713   0.812   5.268   3.415
 9605SOL    HW129714   0.744   5.249   3.345
 9605SOL    HW229715   0.900   5.288   3.372
 9606SOL     OW29716   1.838   6.473   6.416
 9606SOL    HW129717   1.792   6.512   6.496
 9606SOL    HW229718   1.822   6.375   6.413
 9607SOL     OW29719   2.144   1.799   6.977
 9607SOL    HW129720   2.110   1.728   6.914
 9607SOL    HW229721   2.068   1.835   0.008
 9608SOL     OW29722   6.401   5.801   2.374
 9608SOL    HW129723   6.486   5.806   2.425
 9608SOL    HW229724   6.420   5.798   2.276
 9609SOL     OW29725   2.170   4.213   6.373
 9609SOL    HW129726   2.107   4.247   6.443
 9609SOL    HW229727   2.264   4.217   6.408
 9610SOL     OW29728   1.497   5.207   4.354
 9610SOL    HW129729   1.402   5.234   4.335
 9610SOL    HW229730   1.552   5.288   4.370
 9611SOL     OW29731   0.396   6.499   6.867
 9611SOL    HW129732   0.377   6.402   6.856
 9611SOL    HW229733   0.382   6.546   6.780
 9612SOL     OW29734   0.695   4.136   2.023
 9612SOL    HW129735   0.660   4.224   1.991
 9612SOL    HW229736   0.623   4.066   2.014
 9613SOL     OW29737   4.965   6.522   3.286
 9613SOL    HW129738   4.954   6.491   3.192
 9613SOL    HW229739   4.900   6.474   3.345
 9614SOL     OW29740   3.338   2.261   0.598
 9614SOL    HW129741   3.397   2.264   0.517
 9614SOL    HW229742   3.254   2.312   0.581
 9615SOL     OW29743   1.297   0.209   0.672
 9615SOL    HW129744   1.391   0.242   0.672
 9615SOL    HW229745   1.277   0.168   0.761
 9616SOL     OW29746   4.309   3.594   1.388
 9616SOL    HW129747   4.384   3.528   1.390
 9616SOL    HW229748   4.243   3.573   1.460
 9617SOL     OW29749   2.181   2.977   3.283
 9617SOL    HW129750   2.213   2.889   3.247
 9617SOL    HW229751   2.113   2.960   3.354
 9618SOL     OW29752   3.886   6.636   5.282
 9618SOL    HW129753   3.942   6.553   5.285
 9618SOL    HW229754   3.863   6.665   5.375
 9619SOL     OW29755   1.274   6.712   0.454
 9619SOL    HW129756   1.205   6.644   0.429
 9619SOL    HW229757   1.230   6.797   0.482
 9620SOL     OW29758   4.356   2.210   0.048
 9620SOL    HW129759   4.391   2.185   0.139
 9620SOL    HW229760   4.258   2.227   0.053
 9621SOL     OW29761   0.511   0.962   2.170
 9621SOL    HW129762   0.547   0.997   2.084
 9621SOL    HW229763   0.498   0.863   2.163
 9622SOL     OW29764   6.642   0.730   0.424
 9622SOL    HW129765   6.620   0.662   0.494
 9622SOL    HW229766   6.613   0.696   0.334
 9623SOL     OW29767   3.102   4.761   6.213
 9623SOL    HW129768   3.031   4.785   6.280
 9623SOL    HW229769   3.141   4.845   6.175
 9624SOL     OW29770   6.733   4.515   2.325
 9624SOL    HW129771   6.811   4.530   2.385
 9624SOL    HW229772   6.682   4.600   2.314
 9625SOL     OW29773   5.035   6.038   0.320
 9625SOL    HW129774   5.075   6.073   0.404
 9625SOL    HW229775   5.090   5.961   0.286
 9626SOL     OW29776   2.968   6.161   6.886
 9626SOL    HW129777   3.046   6.222   6.877
 9626SOL    HW229778   2.975   6.109   6.971
 9627SOL     OW29779   6.774   5.140   3.326
 9627SOL    HW129780   6.781   5.158   3.424
 9627SOL    HW229781   6.859   5.167   3.281
 9628SOL     OW29782   5.534   5.272   6.486
 9628SOL    HW129783   5.579   5.273   6.397
 9628SOL    HW229784   5.501   5.179   6.505
 9629SOL     OW29785   0.438   6.307   2.952
 9629SOL    HW129786   0.518   6.357   2.919
 9629SOL    HW229787   0.465   6.215   2.980
 9630SOL     OW29788   6.513   6.145   5.608
 9630SOL    HW129789   6.546   6.054   5.584
 9630SOL    HW229790   6.502   6.151   5.708
 9631SOL     OW29791   6.059   0.313   0.139
 9631SOL    HW129792   6.135   0.265   0.097
 9631SOL    HW229793   5.977   0.303   0.082
 9632SOL     OW29794   2.550   5.476   2.610
 9632SOL    HW129795   2.625   5.450   2.670
 9632SOL    HW229796   2.535   5.405   2.542
 9633SOL     OW29797   5.094   4.919   7.020
 9633SOL    HW129798   5.192   4.906   7.010
 9633SOL    HW229799   5.057   4.847   0.057
 9634SOL     OW29800   0.988   0.046   4.206
 9634SOL    HW129801   1.078   0.010   4.229
 9634SOL    HW229802   0.948   0.090   4.286
 9635SOL     OW29803   1.306   4.528   5.805
 9635SOL    HW129804   1.318   4.477   5.720
 9635SOL    HW229805   1.209   4.530   5.829
 9636SOL     OW29806   3.953   2.009   6.089
 9636SOL    HW129807   3.989   2.068   6.016
 9636SOL    HW229808   3.886   2.061   6.143
 9637SOL     OW29809   2.705   1.601   6.725
 9637SOL    HW129810   2.726   1.605   6.627
 9637SOL    HW229811   2.620   1.549   6.739
 9638SOL     OW29812   0.010   3.460   0.202
 9638SOL    HW129813   6.937   3.455   0.231
 9638SOL    HW229814   0.069   3.453   0.283
 9639SOL     OW29815   3.622   1.524   2.100
 9639SOL    HW129816   3.715   1.509   2.065
 9639SOL    HW229817   3.588   1.612   2.066
 9640SOL     OW29818   3.368   1.926   2.855
 9640SOL    HW129819   3.404   1.980   2.931
 9640SOL    HW229820   3.415   1.950   2.771
 9641SOL     OW29821   5.223   6.295   1.043
 9641SOL    HW129822   5.276   6.320   0.962
 9641SOL    HW229823   5.212   6.375   1.103
 9642SOL     OW29824   2.965   5.891   4.870
 9642SOL    HW129825   3.053   5.921   4.833
 9642SOL    HW229826   2.898   5.965   4.862
 9643SOL     OW29827   6.160   4.565   4.061
 9643SOL    HW129828   6.253   4.554   4.026
 9643SOL    HW229829   6.155   4.648   4.117
 9644SOL     OW29830   1.142   5.189   4.691
 9644SOL    HW129831   1.091   5.207   4.776
 9644SOL    HW229832   1.090   5.125   4.634
 9645SOL     OW29833   3.773   4.887   3.676
 9645SOL    HW129834   3.755   4.985   3.677
 9645SOL    HW229835   3.723   4.843   3.750
 9646SOL     OW29836   2.925   4.859   1.903
 9646SOL    HW129837   2.889   4.766   1.916
 9646SOL    HW229838   2.975   4.887   1.985
 9647SOL     OW29839   6.882   5.544   1.242
 9647SOL    HW129840   6.799   5.564   1.295
 9647SOL    HW229841   6.962   5.552   1.302
 9648SOL     OW29842   3.942   1.921   0.014
 9648SOL    HW129843   3.864   1.858   0.010
 9648SOL    HW229844   3.974   1.940   6.944
 9649SOL     OW29845   2.864   5.577   0.042
 9649SOL    HW129846   2.890   5.624   0.127
 9649SOL    HW229847   2.811   5.640   7.007
 9650SOL     OW29848   4.956   4.320   3.437
 9650SOL    HW129849   4.891   4.395   3.423
 9650SOL    HW229850   4.908   4.242   3.475
 9651SOL     OW29851   6.718   0.855   6.837
 9651SOL    HW129852   6.636   0.904   6.806
 9651SOL    HW229853   6.755   0.801   6.761
 9652SOL     OW29854   2.196   4.459   0.604
 9652SOL    HW129855   2.250   4.537   0.634
 9652SOL    HW229856   2.226   4.431   0.513
 9653SOL     OW29857   4.285   5.696   4.943
 9653SOL    HW129858   4.323   5.682   4.852
 9653SOL    HW229859   4.188   5.722   4.936
 9654SOL     OW29860   3.810   3.343   2.263
 9654SOL    HW129861   3.906   3.324   2.283
 9654SOL    HW229862   3.776   3.275   2.199
 9655SOL     OW29863   0.098   1.186   0.293
 9655SOL    HW129864   0.058   1.102   0.330
 9655SOL    HW229865   0.043   1.264   0.323
 9656SOL     OW29866   3.932   2.301   0.974
 9656SOL    HW129867   3.863   2.242   0.932
 9656SOL    HW229868   3.926   2.294   1.073
 9657SOL     OW29869   6.207   1.770   3.046
 9657SOL    HW129870   6.218   1.705   3.120
 9657SOL    HW229871   6.296   1.792   3.007
 9658SOL     OW29872   5.955   1.362   2.709
 9658SOL    HW129873   5.955   1.425   2.787
 9658SOL    HW229874   5.946   1.268   2.743
 9659SOL     OW29875   6.942   3.900   0.582
 9659SOL    HW129876   6.941   3.834   0.506
 9659SOL    HW229877   6.858   3.892   0.634
 9660SOL     OW29878   6.919   5.814   1.775
 9660SOL    HW129879   6.976   5.835   1.695
 9660SOL    HW229880   6.931   5.718   1.801
 9661SOL     OW29881   3.226   6.191   2.069
 9661SOL    HW129882   3.235   6.290   2.079
 9661SOL    HW229883   3.314   6.152   2.042
 9662SOL     OW29884   5.044   2.627   4.889
 9662SOL    HW129885   5.113   2.696   4.868
 9662SOL    HW229886   4.954   2.670   4.894
 9663SOL     OW29887   0.585   6.191   4.089
 9663SOL    HW129888   0.635   6.276   4.076
 9663SOL    HW229889   0.555   6.183   4.184
 9664SOL     OW29890   5.707   6.400   4.128
 9664SOL    HW129891   5.775   6.469   4.101
 9664SOL    HW229892   5.628   6.446   4.168
 9665SOL     OW29893   5.263   6.286   0.005
 9665SOL    HW129894   5.285   6.340   0.086
 9665SOL    HW229895   5.191   6.220   0.027
 9666SOL     OW29896   5.891   3.886   1.577
 9666SOL    HW129897   5.915   3.789   1.575
 9666SOL    HW229898   5.974   3.942   1.578
 9667SOL     OW29899   3.903   3.367   5.261
 9667SOL    HW129900   3.966   3.350   5.185
 9667SOL    HW229901   3.820   3.412   5.226
 9668SOL     OW29902   6.697   1.159   5.914
 9668SOL    HW129903   6.616   1.101   5.917
 9668SOL    HW229904   6.719   1.180   5.819
 9669SOL     OW29905   1.688   0.284   1.913
 9669SOL    HW129906   1.648   0.361   1.864
 9669SOL    HW229907   1.668   0.293   2.011
 9670SOL     OW29908   6.050   4.713   6.334
 9670SOL    HW129909   5.956   4.687   6.357
 9670SOL    HW229910   6.100   4.733   6.418
 9671SOL     OW29911   6.073   5.223   6.746
 9671SOL    HW129912   5.978   5.240   6.720
 9671SOL    HW229913   6.105   5.296   6.806
 9672SOL     OW29914   1.527   6.032   4.323
 9672SOL    HW129915   1.492   6.068   4.409
 9672SOL    HW229916   1.511   5.933   4.319
 9673SOL     OW29917   5.253   3.888   0.364
 9673SOL    HW129918   5.265   3.902   0.265
 9673SOL    HW229919   5.340   3.860   0.404
 9674SOL     OW29920   2.663   5.988   3.058
 9674SOL    HW129921   2.622   5.957   2.973
 9674SOL    HW229922   2.725   5.918   3.094
 9675SOL     OW29923   5.979   2.252   0.496
 9675SOL    HW129924   5.982   2.152   0.496
 9675SOL    HW229925   5.897   2.283   0.449
 9676SOL     OW29926   1.082   3.744   5.897
 9676SOL    HW129927   0.998   3.778   5.856
 9676SOL    HW229928   1.121   3.815   5.956
 9677SOL     OW29929   1.388   5.355   5.045
 9677SOL    HW129930   1.392   5.288   4.970
 9677SOL    HW229931   1.306   5.340   5.100
 9678SOL     OW29932   3.188   3.562   3.419
 9678SOL    HW129933   3.104   3.616   3.406
 9678SOL    HW229934   3.163   3.467   3.440
 9679SOL     OW29935   2.574   0.997   2.281
 9679SOL    HW129936   2.564   1.075   2.219
 9679SOL    HW229937   2.511   0.924   2.253
 9680SOL     OW29938   5.245   0.756   3.323
 9680SOL    HW129939   5.167   0.817   3.338
 9680SOL    HW229940   5.311   0.768   3.397
 9681SOL     OW29941   3.116   1.214   0.365
 9681SOL    HW129942   3.143   1.132   0.416
 9681SOL    HW229943   3.161   1.294   0.405
 9682SOL     OW29944   5.104   4.799   4.271
 9682SOL    HW129945   5.006   4.792   4.258
 9682SOL    HW229946   5.141   4.710   4.298
 9683SOL     OW29947   2.397   5.427   0.910
 9683SOL    HW129948   2.440   5.347   0.950
 9683SOL    HW229949   2.466   5.483   0.864
 9684SOL     OW29950   0.605   3.020   5.306
 9684SOL    HW129951   0.551   3.096   5.269
 9684SOL    HW229952   0.545   2.940   5.319
 9685SOL     OW29953   2.407   4.369   1.427
 9685SOL    HW129954   2.330   4.309   1.448
 9685SOL    HW229955   2.460   4.331   1.351
 9686SOL     OW29956   6.782   1.573   6.990
 9686SOL    HW129957   6.775   1.482   6.950
 9686SOL    HW229958   6.855   1.624   6.945
 9687SOL     OW29959   1.784   0.834   4.248
 9687SOL    HW129960   1.876   0.797   4.231
 9687SOL    HW229961   1.731   0.830   4.164
 9688SOL     OW29962   0.333   2.308   2.318
 9688SOL    HW129963   0.293   2.232   2.368
 9688SOL    HW229964   0.261   2.357   2.269
 9689SOL     OW29965   1.329   6.009   0.003
 9689SOL    HW129966   1.241   5.965   0.019
 9689SOL    HW229967   1.376   5.965   6.950
 9690SOL     OW29968   6.005   6.017   6.639
 9690SOL    HW129969   6.091   5.999   6.591
 9690SOL    HW229970   6.024   6.034   6.736
 9691SOL     OW29971   2.668   5.073   1.408
 9691SOL    HW129972   2.678   5.030   1.497
 9691SOL    HW229973   2.578   5.052   1.370
 9692SOL     OW29974   3.572   5.522   2.873
 9692SOL    HW129975   3.560   5.563   2.963
 9692SOL    HW229976   3.604   5.592   2.809
 9693SOL     OW29977   6.121   5.232   1.497
 9693SOL    HW129978   6.176   5.294   1.442
 9693SOL    HW229979   6.145   5.242   1.594
 9694SOL     OW29980   2.181   0.779   0.236
 9694SOL    HW129981   2.251   0.713   0.210
 9694SOL    HW229982   2.162   0.840   0.159
 9695SOL     OW29983   0.213   3.707   2.075
 9695SOL    HW129984   0.250   3.631   2.129
 9695SOL    HW229985   0.242   3.794   2.115
 9696SOL     OW29986   4.994   3.506   0.780
 9696SOL    HW129987   5.036   3.415   0.773
 9696SOL    HW229988   5.045   3.561   0.846
 9697SOL     OW29989   0.527   6.104   6.286
 9697SOL    HW129990   0.467   6.131   6.211
 9697SOL    HW229991   0.572   6.018   6.264
 9698SOL     OW29992   4.547   1.411   5.804
 9698SOL    HW129993   4.593   1.332   5.763
 9698SOL    HW229994   4.529   1.479   5.733
 9699SOL     OW29995   0.110   4.976   6.554
 9699SOL    HW129996   0.197   5.025   6.550
 9699SOL    HW229997   0.035   5.040   6.568
 9700SOL     OW29998   4.415   5.082   5.002
 9700SOL    HW129999   4.437   5.043   4.912
 9700SOL    HW230000   4.346   5.025   5.047
 9701SOL     OW30001   4.067   5.300   4.902
 9701SOL    HW130002   4.008   5.368   4.947
 9701SOL    HW230003   4.036   5.208   4.926
 9702SOL     OW30004   4.909   0.326   6.906
 9702SOL    HW130005   4.960   0.389   6.966
 9702SOL    HW230006   4.834   0.376   6.863
 9703SOL     OW30007   4.299   4.607   3.982
 9703SOL    HW130008   4.316   4.647   4.072
 9703SOL    HW230009   4.221   4.652   3.939
 9704SOL     OW30010   2.992   1.015   3.080
 9704SOL    HW130011   3.006   1.114   3.083
 9704SOL    HW230012   2.909   0.992   3.130
 9705SOL     OW30013   5.937   4.830   6.102
 9705SOL    HW130014   5.968   4.835   6.197
 9705SOL    HW230015   5.957   4.740   6.064
 9706SOL     OW30016   0.536   2.883   1.082
 9706SOL    HW130017   0.595   2.953   1.121
 9706SOL    HW230018   0.526   2.808   1.147
 9707SOL     OW30019   6.448   4.618   1.548
 9707SOL    HW130020   6.496   4.551   1.491
 9707SOL    HW230021   6.351   4.620   1.524
 9708SOL     OW30022   1.500   2.187   2.308
 9708SOL    HW130023   1.535   2.160   2.398
 9708SOL    HW230024   1.539   2.275   2.282
 9709SOL     OW30025   5.724   6.308   2.823
 9709SOL    HW130026   5.817   6.337   2.798
 9709SOL    HW230027   5.660   6.381   2.802
 9710SOL     OW30028   6.913   1.682   1.928
 9710SOL    HW130029   6.828   1.694   1.979
 9710SOL    HW230030   6.921   1.587   1.899
 9711SOL     OW30031   2.089   4.490   6.094
 9711SOL    HW130032   2.135   4.542   6.022
 9711SOL    HW230033   2.093   4.393   6.073
 9712SOL     OW30034   6.238   4.745   6.116
 9712SOL    HW130035   6.206   4.710   6.029
 9712SOL    HW230036   6.166   4.736   6.185
 9713SOL     OW30037   1.407   4.984   3.364
 9713SOL    HW130038   1.471   5.059   3.347
 9713SOL    HW230039   1.351   5.006   3.444
 9714SOL     OW30040   3.164   1.002   0.534
 9714SOL    HW130041   3.136   0.909   0.510
 9714SOL    HW230042   3.099   1.042   0.598
 9715SOL     OW30043   5.175   3.897   6.244
 9715SOL    HW130044   5.270   3.928   6.244
 9715SOL    HW230045   5.162   3.830   6.318
 9716SOL     OW30046   3.975   3.161   0.176
 9716SOL    HW130047   4.036   3.106   0.119
 9716SOL    HW230048   3.924   3.225   0.118
 9717SOL     OW30049   5.286   5.946   6.271
 9717SOL    HW130050   5.203   5.995   6.244
 9717SOL    HW230051   5.355   6.013   6.301
 9718SOL     OW30052   5.080   2.640   0.879
 9718SOL    HW130053   4.986   2.616   0.901
 9718SOL    HW230054   5.141   2.567   0.910
 9719SOL     OW30055   6.945   1.799   6.498
 9719SOL    HW130056   6.978   1.891   6.521
 9719SOL    HW230057   7.019   1.747   6.456
 9720SOL     OW30058   0.115   5.589   2.282
 9720SOL    HW130059   0.038   5.572   2.221
 9720SOL    HW230060   0.116   5.686   2.309
 9721SOL     OW30061   0.107   2.398   1.679
 9721SOL    HW130062   0.125   2.466   1.751
 9721SOL    HW230063   0.118   2.306   1.716
 9722SOL     OW30064   6.709   0.376   4.222
 9722SOL    HW130065   6.624   0.428   4.213
 9722SOL    HW230066   6.725   0.353   4.318
 9723SOL     OW30067   2.177   6.014   3.074
 9723SOL    HW130068   2.256   6.061   3.115
 9723SOL    HW230069   2.105   6.081   3.056
 9724SOL     OW30070   1.717   3.983   0.463
 9724SOL    HW130071   1.680   3.972   0.371
 9724SOL    HW230072   1.674   4.062   0.507
 9725SOL     OW30073   3.401   4.550   6.490
 9725SOL    HW130074   3.308   4.543   6.455
 9725SOL    HW230075   3.429   4.646   6.494
 9726SOL     OW30076   5.031   0.274   4.032
 9726SOL    HW130077   5.109   0.236   3.982
 9726SOL    HW230078   5.061   0.312   4.119
 9727SOL     OW30079   0.412   3.692   5.626
 9727SOL    HW130080   0.480   3.715   5.555
 9727SOL    HW230081   0.421   3.595   5.650
 9728SOL     OW30082   0.435   0.593   6.298
 9728SOL    HW130083   0.515   0.585   6.239
 9728SOL    HW230084   0.356   0.623   6.243
 9729SOL     OW30085   0.824   4.361   3.226
 9729SOL    HW130086   0.803   4.412   3.310
 9729SOL    HW230087   0.897   4.295   3.244
 9730SOL     OW30088   0.814   3.299   3.405
 9730SOL    HW130089   0.905   3.331   3.433
 9730SOL    HW230090   0.824   3.221   3.343
 9731SOL     OW30091   4.306   3.978   1.035
 9731SOL    HW130092   4.258   4.046   1.091
 9731SOL    HW230093   4.357   3.916   1.095
 9732SOL     OW30094   6.058   5.635   2.799
 9732SOL    HW130095   6.113   5.690   2.862
 9732SOL    HW230096   6.065   5.673   2.707
 9733SOL     OW30097   5.757   5.177   1.077
 9733SOL    HW130098   5.744   5.144   0.984
 9733SOL    HW230099   5.854   5.174   1.100
 9734SOL     OW30100   6.208   1.105   2.246
 9734SOL    HW130101   6.189   1.174   2.176
 9734SOL    HW230102   6.252   1.148   2.325
 9735SOL     OW30103   2.508   4.721   3.130
 9735SOL    HW130104   2.445   4.796   3.152
 9735SOL    HW230105   2.585   4.722   3.193
 9736SOL     OW30106   6.187   1.912   6.475
 9736SOL    HW130107   6.102   1.870   6.505
 9736SOL    HW230108   6.241   1.846   6.423
 9737SOL     OW30109   6.357   3.063   4.458
 9737SOL    HW130110   6.324   3.155   4.436
 9737SOL    HW230111   6.279   3.000   4.462
 9738SOL     OW30112   1.820   6.860   1.308
 9738SOL    HW130113   1.863   6.921   1.375
 9738SOL    HW230114   1.780   6.915   1.234
 9739SOL     OW30115   5.891   5.133   2.287
 9739SOL    HW130116   5.922   5.190   2.364
 9739SOL    HW230117   5.808   5.172   2.248
 9740SOL     OW30118   6.436   2.242   2.656
 9740SOL    HW130119   6.439   2.168   2.723
 9740SOL    HW230120   6.486   2.321   2.690
 9741SOL     OW30121   5.034   1.901   3.052
 9741SOL    HW130122   5.036   1.932   2.957
 9741SOL    HW230123   5.114   1.844   3.070
 9742SOL     OW30124   3.843   0.053   1.636
 9742SOL    HW130125   3.895   6.996   1.665
 9742SOL    HW230126   3.906   0.127   1.613
 9743SOL     OW30127   0.918   1.975   4.445
 9743SOL    HW130128   0.856   2.001   4.372
 9743SOL    HW230129   0.990   2.044   4.454
 9744SOL     OW30130   0.412   0.660   3.135
 9744SOL    HW130131   0.489   0.615   3.092
 9744SOL    HW230132   0.340   0.677   3.067
 9745SOL     OW30133   6.516   2.909   6.220
 9745SOL    HW130134   6.519   2.848   6.299
 9745SOL    HW230135   6.566   2.993   6.240
 9746SOL     OW30136   6.589   0.809   5.845
 9746SOL    HW130137   6.521   0.736   5.836
 9746SOL    HW230138   6.543   0.898   5.838
 9747SOL     OW30139   2.106   0.340   1.415
 9747SOL    HW130140   2.190   0.363   1.366
 9747SOL    HW230141   2.116   0.363   1.511
 9748SOL     OW30142   0.573   1.808   3.642
 9748SOL    HW130143   0.507   1.785   3.570
 9748SOL    HW230144   0.572   1.906   3.658
 9749SOL     OW30145   1.822   1.558   5.117
 9749SOL    HW130146   1.788   1.556   5.023
 9749SOL    HW230147   1.854   1.467   5.143
 9750SOL     OW30148   5.815   4.432   3.387
 9750SOL    HW130149   5.835   4.530   3.379
 9750SOL    HW230150   5.724   4.420   3.425
 9751SOL     OW30151   1.228   0.876   0.404
 9751SOL    HW130152   1.245   0.944   0.475
 9751SOL    HW230153   1.135   0.888   0.368
 9752SOL     OW30154   5.264   1.941   6.291
 9752SOL    HW130155   5.339   2.004   6.308
 9752SOL    HW230156   5.301   1.855   6.255
 9753SOL     OW30157   6.142   5.973   5.558
 9753SOL    HW130158   6.129   5.963   5.656
 9753SOL    HW230159   6.058   5.945   5.510
 9754SOL     OW30160   0.936   1.489   6.523
 9754SOL    HW130161   0.850   1.473   6.475
 9754SOL    HW230162   0.952   1.417   6.589
 9755SOL     OW30163   4.193   4.077   5.412
 9755SOL    HW130164   4.104   4.051   5.451
 9755SOL    HW230165   4.228   4.002   5.356
 9756SOL     OW30166   5.954   3.310   0.377
 9756SOL    HW130167   5.913   3.236   0.324
 9756SOL    HW230168   6.050   3.320   0.352
 9757SOL     OW30169   5.534   3.644   3.323
 9757SOL    HW130170   5.628   3.615   3.306
 9757SOL    HW230171   5.513   3.724   3.267
 9758SOL     OW30172   2.324   6.902   6.950
 9758SOL    HW130173   2.373   6.815   6.953
 9758SOL    HW230174   2.275   6.909   6.863
 9759SOL     OW30175   2.139   6.753   6.709
 9759SOL    HW130176   2.066   6.799   6.761
 9759SOL    HW230177   2.195   6.822   6.663
 9760SOL     OW30178   4.730   3.211   5.273
 9760SOL    HW130179   4.762   3.294   5.318
 9760SOL    HW230180   4.768   3.207   5.181
 9761SOL     OW30181   6.127   0.431   2.233
 9761SOL    HW130182   6.050   0.478   2.189
 9761SOL    HW230183   6.093   0.376   2.309
 9762SOL     OW30184   3.303   1.994   4.384
 9762SOL    HW130185   3.245   1.934   4.439
 9762SOL    HW230186   3.351   2.059   4.444
 9763SOL     OW30187   5.185   1.885   1.859
 9763SOL    HW130188   5.144   1.964   1.813
 9763SOL    HW230189   5.251   1.917   1.928
 9764SOL     OW30190   0.621   2.754   2.758
 9764SOL    HW130191   0.669   2.699   2.827
 9764SOL    HW230192   0.686   2.783   2.688
 9765SOL     OW30193   6.677   1.422   2.981
 9765SOL    HW130194   6.719   1.361   2.914
 9765SOL    HW230195   6.732   1.423   3.064
 9766SOL     OW30196   2.720   0.565   3.517
 9766SOL    HW130197   2.652   0.623   3.564
 9766SOL    HW230198   2.678   0.477   3.494
 9767SOL     OW30199   5.181   1.964   5.692
 9767SOL    HW130200   5.123   1.982   5.771
 9767SOL    HW230201   5.194   1.865   5.682
 9768SOL     OW30202   5.275   1.726   2.424
 9768SOL    HW130203   5.335   1.688   2.354
 9768SOL    HW230204   5.201   1.777   2.381
 9769SOL     OW30205   2.508   0.419   2.516
 9769SOL    HW130206   2.566   0.378   2.587
 9769SOL    HW230207   2.415   0.382   2.525
 9770SOL     OW30208   5.358   0.272   6.925
 9770SOL    HW130209   5.425   0.246   6.855
 9770SOL    HW230210   5.336   0.192   6.981
 9771SOL     OW30211   2.708   5.622   1.168
 9771SOL    HW130212   2.623   5.649   1.123
 9771SOL    HW230213   2.687   5.574   1.253
 9772SOL     OW30214   1.287   6.248   2.696
 9772SOL    HW130215   1.348   6.191   2.641
 9772SOL    HW230216   1.197   6.205   2.703
 9773SOL     OW30217   5.396   6.495   3.942
 9773SOL    HW130218   5.435   6.582   3.913
 9773SOL    HW230219   5.391   6.491   4.041
 9774SOL     OW30220   6.416   4.922   1.525
 9774SOL    HW130221   6.367   4.944   1.609
 9774SOL    HW230222   6.471   4.839   1.540
 9775SOL     OW30223   2.479   0.948   3.751
 9775SOL    HW130224   2.577   0.965   3.762
 9775SOL    HW230225   2.440   1.016   3.689
 9776SOL     OW30226   0.431   5.392   4.623
 9776SOL    HW130227   0.476   5.455   4.686
 9776SOL    HW230228   0.369   5.442   4.564
 9777SOL     OW30229   5.157   4.354   6.247
 9777SOL    HW130230   5.186   4.383   6.156
 9777SOL    HW230231   5.156   4.432   6.309
 9778SOL     OW30232   0.822   0.795   3.582
 9778SOL    HW130233   0.859   0.755   3.498
 9778SOL    HW230234   0.823   0.895   3.575
 9779SOL     OW30235   2.097   0.638   4.984
 9779SOL    HW130236   2.132   0.547   5.005
 9779SOL    HW230237   1.998   0.640   4.998
 9780SOL     OW30238   2.436   1.570   0.832
 9780SOL    HW130239   2.532   1.595   0.846
 9780SOL    HW230240   2.419   1.555   0.735
 9781SOL     OW30241   1.515   3.871   4.274
 9781SOL    HW130242   1.538   3.869   4.176
 9781SOL    HW230243   1.521   3.965   4.307
 9782SOL     OW30244   6.571   0.621   1.992
 9782SOL    HW130245   6.472   0.634   2.001
 9782SOL    HW230246   6.593   0.525   2.007
 9783SOL     OW30247   5.085   2.186   3.256
 9783SOL    HW130248   5.062   2.267   3.202
 9783SOL    HW230249   5.138   2.123   3.200
 9784SOL     OW30250   3.871   1.608   4.395
 9784SOL    HW130251   3.802   1.595   4.323
 9784SOL    HW230252   3.863   1.535   4.462
 9785SOL     OW30253   6.506   3.870   5.514
 9785SOL    HW130254   6.409   3.849   5.505
 9785SOL    HW230255   6.545   3.816   5.589
 9786SOL     OW30256   2.409   4.578   6.549
 9786SOL    HW130257   2.449   4.572   6.641
 9786SOL    HW230258   2.312   4.600   6.557
 9787SOL     OW30259   4.478   3.493   1.666
 9787SOL    HW130260   4.394   3.546   1.678
 9787SOL    HW230261   4.457   3.410   1.613
 9788SOL     OW30262   0.476   0.263   3.723
 9788SOL    HW130263   0.433   0.351   3.705
 9788SOL    HW230264   0.532   0.270   3.806
 9789SOL     OW30265   1.227   5.636   0.246
 9789SOL    HW130266   1.322   5.666   0.237
 9789SOL    HW230267   1.225   5.545   0.286
 9790SOL     OW30268   5.640   3.884   5.666
 9790SOL    HW130269   5.548   3.922   5.673
 9790SOL    HW230270   5.667   3.846   5.754
 9791SOL     OW30271   0.205   1.669   3.011
 9791SOL    HW130272   0.113   1.631   3.017
 9791SOL    HW230273   0.258   1.617   2.942
 9792SOL     OW30274   5.487   5.444   2.026
 9792SOL    HW130275   5.459   5.540   2.023
 9792SOL    HW230276   5.426   5.393   2.087
 9793SOL     OW30277   5.544   4.899   3.592
 9793SOL    HW130278   5.481   4.879   3.517
 9793SOL    HW230279   5.564   4.997   3.592
 9794SOL     OW30280   6.298   4.644   6.818
 9794SOL    HW130281   6.337   4.717   6.874
 9794SOL    HW230282   6.224   4.680   6.762
 9795SOL     OW30283   1.656   2.172   4.207
 9795SOL    HW130284   1.748   2.139   4.227
 9795SOL    HW230285   1.633   2.245   4.271
 9796SOL     OW30286   4.000   2.655   1.414
 9796SOL    HW130287   3.935   2.661   1.338
 9796SOL    HW230288   4.092   2.639   1.379
 9797SOL     OW30289   3.411   5.369   6.798
 9797SOL    HW130290   3.361   5.308   6.860
 9797SOL    HW230291   3.508   5.349   6.802
 9798SOL     OW30292   3.002   0.344   1.094
 9798SOL    HW130293   2.930   0.397   1.051
 9798SOL    HW230294   3.059   0.404   1.151
 9799SOL     OW30295   3.344   3.854   3.306
 9799SOL    HW130296   3.412   3.802   3.357
 9799SOL    HW230297   3.336   3.818   3.213
 9800SOL     OW30298   3.232   6.565   5.169
 9800SOL    HW130299   3.225   6.478   5.121
 9800SOL    HW230300   3.192   6.556   5.260
 9801SOL     OW30301   4.755   4.376   0.539
 9801SOL    HW130302   4.763   4.356   0.442
 9801SOL    HW230303   4.837   4.425   0.570
 9802SOL     OW30304   0.788   2.720   1.731
 9802SOL    HW130305   0.880   2.748   1.707
 9802SOL    HW230306   0.726   2.798   1.726
 9803SOL     OW30307   6.077   1.555   0.521
 9803SOL    HW130308   5.987   1.539   0.562
 9803SOL    HW230309   6.143   1.579   0.592
 9804SOL     OW30310   0.974   6.463   2.872
 9804SOL    HW130311   0.983   6.445   2.774
 9804SOL    HW230312   0.937   6.555   2.886
 9805SOL     OW30313   0.956   5.975   5.468
 9805SOL    HW130314   0.983   5.927   5.552
 9805SOL    HW230315   0.870   5.938   5.434
 9806SOL     OW30316   1.408   1.974   0.252
 9806SOL    HW130317   1.370   2.006   0.165
 9806SOL    HW230318   1.461   1.891   0.236
 9807SOL     OW30319   1.869   3.072   6.971
 9807SOL    HW130320   1.890   2.993   6.913
 9807SOL    HW230321   1.845   3.150   6.914
 9808SOL     OW30322   5.954   1.402   5.576
 9808SOL    HW130323   6.048   1.403   5.542
 9808SOL    HW230324   5.896   1.459   5.518
 9809SOL     OW30325   0.929   1.903   6.671
 9809SOL    HW130326   0.969   1.815   6.647
 9809SOL    HW230327   0.869   1.892   6.750
 9810SOL     OW30328   2.524   2.515   4.079
 9810SOL    HW130329   2.446   2.454   4.070
 9810SOL    HW230330   2.498   2.595   4.133
 9811SOL     OW30331   5.389   5.527   4.042
 9811SOL    HW130332   5.337   5.554   4.124
 9811SOL    HW230333   5.341   5.560   3.961
 9812SOL     OW30334   2.914   2.384   5.660
 9812SOL    HW130335   2.990   2.433   5.704
 9812SOL    HW230336   2.912   2.290   5.693
 9813SOL     OW30337   6.102   0.556   6.989
 9813SOL    HW130338   6.142   0.470   6.957
 9813SOL    HW230339   6.004   0.556   6.969
 9814SOL     OW30340   0.479   1.278   6.931
 9814SOL    HW130341   0.538   1.345   6.976
 9814SOL    HW230342   0.489   1.189   6.976
 9815SOL     OW30343   6.101   3.662   2.547
 9815SOL    HW130344   6.067   3.607   2.623
 9815SOL    HW230345   6.161   3.606   2.490
 9816SOL     OW30346   0.128   1.757   6.125
 9816SOL    HW130347   0.138   1.704   6.209
 9816SOL    HW230348   0.201   1.825   6.121
 9817SOL     OW30349   2.641   5.712   2.491
 9817SOL    HW130350   2.735   5.699   2.463
 9817SOL    HW230351   2.613   5.636   2.550
 9818SOL     OW30352   1.623   1.153   4.256
 9818SOL    HW130353   1.619   1.092   4.177
 9818SOL    HW230354   1.710   1.140   4.304
 9819SOL     OW30355   4.935   3.091   4.850
 9819SOL    HW130356   5.016   3.142   4.824
 9819SOL    HW230357   4.942   3.063   4.946
 9820SOL     OW30358   3.699   3.221   6.543
 9820SOL    HW130359   3.634   3.151   6.574
 9820SOL    HW230360   3.649   3.303   6.514
 9821SOL     OW30361   4.797   0.733   0.528
 9821SOL    HW130362   4.853   0.809   0.561
 9821SOL    HW230363   4.768   0.751   0.434
 9822SOL     OW30364   2.872   5.070   3.569
 9822SOL    HW130365   2.911   4.994   3.517
 9822SOL    HW230366   2.782   5.045   3.603
 9823SOL     OW30367   2.207   0.054   1.804
 9823SOL    HW130368   2.135   0.026   1.740
 9823SOL    HW230369   2.272   7.002   1.815
 9824SOL     OW30370   1.949   5.646   4.592
 9824SOL    HW130371   1.977   5.550   4.593
 9824SOL    HW230372   1.962   5.683   4.500
 9825SOL     OW30373   5.477   6.727   4.925
 9825SOL    HW130374   5.563   6.677   4.934
 9825SOL    HW230375   5.404   6.675   4.969
 9826SOL     OW30376   3.620   6.271   5.543
 9826SOL    HW130377   3.629   6.358   5.591
 9826SOL    HW230378   3.680   6.270   5.463
 9827SOL     OW30379   2.211   3.880   3.430
 9827SOL    HW130380   2.182   3.832   3.513
 9827SOL    HW230381   2.166   3.839   3.351
 9828SOL     OW30382   2.939   2.142   5.110
 9828SOL    HW130383   2.951   2.137   5.209
 9828SOL    HW230384   3.024   2.174   5.068
 9829SOL     OW30385   4.318   5.819   6.283
 9829SOL    HW130386   4.250   5.777   6.343
 9829SOL    HW230387   4.273   5.878   6.217
 9830SOL     OW30388   4.920   1.903   1.668
 9830SOL    HW130389   4.936   1.867   1.576
 9830SOL    HW230390   4.875   1.833   1.723
 9831SOL     OW30391   0.803   4.807   2.330
 9831SOL    HW130392   0.724   4.863   2.307
 9831SOL    HW230393   0.775   4.734   2.393
 9832SOL     OW30394   4.519   5.601   2.264
 9832SOL    HW130395   4.509   5.580   2.361
 9832SOL    HW230396   4.480   5.527   2.210
 9833SOL     OW30397   3.430   3.232   3.316
 9833SOL    HW130398   3.448   3.211   3.220
 9833SOL    HW230399   3.333   3.252   3.327
 9834SOL     OW30400   2.181   4.834   5.695
 9834SOL    HW130401   2.252   4.904   5.681
 9834SOL    HW230402   2.107   4.847   5.630
 9835SOL     OW30403   3.646   3.327   4.196
 9835SOL    HW130404   3.549   3.345   4.184
 9835SOL    HW230405   3.676   3.360   4.285
 9836SOL     OW30406   0.868   4.343   4.225
 9836SOL    HW130407   0.780   4.348   4.272
 9836SOL    HW230408   0.919   4.264   4.258
 9837SOL     OW30409   5.332   0.705   2.471
 9837SOL    HW130410   5.306   0.711   2.374
 9837SOL    HW230411   5.284   0.627   2.513
 9838SOL     OW30412   1.719   6.369   0.799
 9838SOL    HW130413   1.748   6.311   0.723
 9838SOL    HW230414   1.729   6.465   0.773
 9839SOL     OW30415   4.678   6.523   2.972
 9839SOL    HW130416   4.646   6.430   2.954
 9839SOL    HW230417   4.773   6.521   3.001
 9840SOL     OW30418   5.014   1.748   0.505
 9840SOL    HW130419   4.995   1.841   0.473
 9840SOL    HW230420   4.958   1.730   0.587
 9841SOL     OW30421   1.544   4.741   3.619
 9841SOL    HW130422   1.641   4.765   3.620
 9841SOL    HW230423   1.496   4.798   3.553
 9842SOL     OW30424   3.338   3.207   0.775
 9842SOL    HW130425   3.241   3.228   0.764
 9842SOL    HW230426   3.364   3.217   0.871
 9843SOL     OW30427   0.083   0.089   1.792
 9843SOL    HW130428   0.104   0.177   1.834
 9843SOL    HW230429   7.019   0.095   1.743
 9844SOL     OW30430   5.954   1.196   4.118
 9844SOL    HW130431   6.051   1.175   4.120
 9844SOL    HW230432   5.901   1.111   4.123
 9845SOL     OW30433   1.562   2.433   2.448
 9845SOL    HW130434   1.571   2.527   2.483
 9845SOL    HW230435   1.470   2.420   2.412
 9846SOL     OW30436   4.548   1.713   1.135
 9846SOL    HW130437   4.606   1.690   1.057
 9846SOL    HW230438   4.588   1.789   1.185
 9847SOL     OW30439   3.840   2.899   2.536
 9847SOL    HW130440   3.866   2.897   2.439
 9847SOL    HW230441   3.893   2.970   2.583
 9848SOL     OW30442   4.040   4.746   6.079
 9848SOL    HW130443   4.101   4.819   6.049
 9848SOL    HW230444   3.948   4.763   6.044
 9849SOL     OW30445   0.850   6.929   6.526
 9849SOL    HW130446   0.817   7.014   6.567
 9849SOL    HW230447   0.774   6.865   6.516
 9850SOL     OW30448   0.106   0.731   3.632
 9850SOL    HW130449   0.031   0.676   3.597
 9850SOL    HW230450   0.106   0.727   3.732
 9851SOL     OW30451   2.326   6.537   4.334
 9851SOL    HW130452   2.350   6.619   4.282
 9851SOL    HW230453   2.378   6.535   4.419
 9852SOL     OW30454   1.677   1.729   5.315
 9852SOL    HW130455   1.734   1.711   5.395
 9852SOL    HW230456   1.710   1.673   5.238
 9853SOL     OW30457   6.371   3.560   5.447
 9853SOL    HW130458   6.436   3.499   5.491
 9853SOL    HW230459   6.284   3.557   5.497
 9854SOL     OW30460   0.692   5.272   4.679
 9854SOL    HW130461   0.774   5.298   4.628
 9854SOL    HW230462   0.611   5.288   4.624
 9855SOL     OW30463   1.564   3.402   0.825
 9855SOL    HW130464   1.503   3.335   0.783
 9855SOL    HW230465   1.622   3.357   0.893
 9856SOL     OW30466   5.697   4.663   4.122
 9856SOL    HW130467   5.732   4.674   4.215
 9856SOL    HW230468   5.769   4.628   4.063
 9857SOL     OW30469   5.769   2.911   2.800
 9857SOL    HW130470   5.705   2.987   2.794
 9857SOL    HW230471   5.729   2.830   2.756
 9858SOL     OW30472   0.761   6.911   1.496
 9858SOL    HW130473   0.859   6.916   1.512
 9858SOL    HW230474   0.713   6.969   1.562
 9859SOL     OW30475   6.718   4.588   4.231
 9859SOL    HW130476   6.720   4.655   4.156
 9859SOL    HW230477   6.663   4.625   4.306
 9860SOL     OW30478   1.631   2.215   4.768
 9860SOL    HW130479   1.556   2.179   4.713
 9860SOL    HW230480   1.639   2.163   4.852
 9861SOL     OW30481   2.995   0.555   3.547
 9861SOL    HW130482   2.895   0.547   3.542
 9861SOL    HW230483   3.036   0.512   3.467
 9862SOL     OW30484   2.501   3.292   0.860
 9862SOL    HW130485   2.438   3.356   0.815
 9862SOL    HW230486   2.521   3.216   0.797
 9863SOL     OW30487   3.193   5.645   1.096
 9863SOL    HW130488   3.205   5.742   1.074
 9863SOL    HW230489   3.114   5.635   1.157
 9864SOL     OW30490   3.339   0.638   5.234
 9864SOL    HW130491   3.301   0.640   5.141
 9864SOL    HW230492   3.264   0.629   5.300
 9865SOL     OW30493   0.846   6.474   4.754
 9865SOL    HW130494   0.809   6.392   4.799
 9865SOL    HW230495   0.928   6.449   4.702
 9866SOL     OW30496   5.927   4.392   4.870
 9866SOL    HW130497   5.997   4.359   4.806
 9866SOL    HW230498   5.837   4.369   4.834
 9867SOL     OW30499   6.161   2.449   2.367
 9867SOL    HW130500   6.230   2.377   2.356
 9867SOL    HW230501   6.206   2.534   2.393
 9868SOL     OW30502   0.273   3.451   4.561
 9868SOL    HW130503   0.211   3.387   4.606
 9868SOL    HW230504   0.349   3.401   4.520
 9869SOL     OW30505   0.671   2.944   0.840
 9869SOL    HW130506   0.591   2.928   0.897
 9869SOL    HW230507   0.754   2.928   0.894
 9870SOL     OW30508   4.166   0.598   2.877
 9870SOL    HW130509   4.156   0.570   2.972
 9870SOL    HW230510   4.107   0.676   2.858
 9871SOL     OW30511   6.761   3.232   5.425
 9871SOL    HW130512   6.709   3.205   5.505
 9871SOL    HW230513   6.774   3.332   5.425
 9872SOL     OW30514   2.745   5.229   4.973
 9872SOL    HW130515   2.684   5.189   4.905
 9872SOL    HW230516   2.800   5.158   5.016
 9873SOL     OW30517   2.370   2.418   6.077
 9873SOL    HW130518   2.376   2.376   6.168
 9873SOL    HW230519   2.458   2.408   6.031
 9874SOL     OW30520   0.284   3.266   5.497
 9874SOL    HW130521   0.295   3.238   5.401
 9874SOL    HW230522   0.237   3.195   5.548
 9875SOL     OW30523   6.809   5.897   2.703
 9875SOL    HW130524   6.837   5.814   2.655
 9875SOL    HW230525   6.864   5.974   2.670
 9876SOL     OW30526   5.352   1.053   4.019
 9876SOL    HW130527   5.299   0.970   4.036
 9876SOL    HW230528   5.289   1.127   3.995
 9877SOL     OW30529   6.830   4.600   4.509
 9877SOL    HW130530   6.793   4.547   4.585
 9877SOL    HW230531   6.826   4.546   4.425
 9878SOL     OW30532   2.289   3.565   6.279
 9878SOL    HW130533   2.388   3.550   6.277
 9878SOL    HW230534   2.266   3.645   6.223
 9879SOL     OW30535   0.055   4.658   5.282
 9879SOL    HW130536   0.052   4.566   5.243
 9879SOL    HW230537   0.089   4.654   5.376
 9880SOL     OW30538   2.445   0.273   0.640
 9880SOL    HW130539   2.400   0.346   0.588
 9880SOL    HW230540   2.427   0.185   0.596
 9881SOL     OW30541   6.658   1.186   4.411
 9881SOL    HW130542   6.715   1.172   4.330
 9881SOL    HW230543   6.585   1.251   4.390
 9882SOL     OW30544   3.351   3.644   5.235
 9882SOL    HW130545   3.414   3.708   5.280
 9882SOL    HW230546   3.403   3.565   5.201
 9883SOL     OW30547   1.638   5.711   1.794
 9883SOL    HW130548   1.638   5.725   1.893
 9883SOL    HW230549   1.609   5.617   1.773
 9884SOL     OW30550   3.699   2.211   0.495
 9884SOL    HW130551   3.607   2.191   0.463
 9884SOL    HW230552   3.734   2.134   0.548
 9885SOL     OW30553   0.711   3.045   4.066
 9885SOL    HW130554   0.699   3.130   4.118
 9885SOL    HW230555   0.665   2.970   4.114
 9886SOL     OW30556   6.561   6.604   1.691
 9886SOL    HW130557   6.635   6.550   1.732
 9886SOL    HW230558   6.474   6.576   1.731
 9887SOL     OW30559   3.516   0.342   0.412
 9887SOL    HW130560   3.484   0.437   0.422
 9887SOL    HW230561   3.450   0.280   0.454
 9888SOL     OW30562   5.761   6.093   3.174
 9888SOL    HW130563   5.771   6.191   3.195
 9888SOL    HW230564   5.695   6.053   3.237
 9889SOL     OW30565   1.258   5.393   2.383
 9889SOL    HW130566   1.201   5.439   2.316
 9889SOL    HW230567   1.223   5.411   2.475
 9890SOL     OW30568   6.761   2.922   0.735
 9890SOL    HW130569   6.817   3.002   0.712
 9890SOL    HW230570   6.686   2.914   0.669
 9891SOL     OW30571   5.490   4.810   1.515
 9891SOL    HW130572   5.523   4.904   1.529
 9891SOL    HW230573   5.523   4.776   1.427
 9892SOL     OW30574   2.789   5.589   3.930
 9892SOL    HW130575   2.737   5.524   3.875
 9892SOL    HW230576   2.726   5.645   3.984
 9893SOL     OW30577   6.539   6.332   2.708
 9893SOL    HW130578   6.543   6.420   2.660
 9893SOL    HW230579   6.563   6.259   2.644
 9894SOL     OW30580   3.153   1.139   6.489
 9894SOL    HW130581   3.128   1.236   6.479
 9894SOL    HW230582   3.155   1.097   6.398
 9895SOL     OW30583   6.404   2.091   5.668
 9895SOL    HW130584   6.356   2.064   5.584
 9895SOL    HW230585   6.353   2.163   5.714
 9896SOL     OW30586   4.980   2.378   0.749
 9896SOL    HW130587   4.897   2.407   0.797
 9896SOL    HW230588   5.043   2.455   0.740
 9897SOL     OW30589   5.007   1.314   2.404
 9897SOL    HW130590   4.983   1.411   2.407
 9897SOL    HW230591   5.060   1.291   2.486
 9898SOL     OW30592   0.716   5.665   5.049
 9898SOL    HW130593   0.761   5.754   5.050
 9898SOL    HW230594   0.767   5.603   4.988
 9899SOL     OW30595   6.282   4.515   2.207
 9899SOL    HW130596   6.302   4.603   2.251
 9899SOL    HW230597   6.345   4.501   2.131
 9900SOL     OW30598   2.095   1.931   2.729
 9900SOL    HW130599   2.059   1.862   2.665
 9900SOL    HW230600   2.025   2.001   2.744
 9901SOL     OW30601   1.356   2.794   0.315
 9901SOL    HW130602   1.418   2.871   0.296
 9901SOL    HW230603   1.405   2.724   0.366
 9902SOL     OW30604   3.425   3.065   1.430
 9902SOL    HW130605   3.445   3.148   1.379
 9902SOL    HW230606   3.460   2.986   1.379
 9903SOL     OW30607   4.494   0.589   2.453
 9903SOL    HW130608   4.425   0.516   2.456
 9903SOL    HW230609   4.493   0.639   2.540
 9904SOL     OW30610   6.919   3.376   6.757
 9904SOL    HW130611   6.838   3.353   6.812
 9904SOL    HW230612   6.999   3.381   6.817
 9905SOL     OW30613   2.555   6.570   0.523
 9905SOL    HW130614   2.534   6.540   0.429
 9905SOL    HW230615   2.481   6.543   0.584
 9906SOL     OW30616   1.553   3.125   0.277
 9906SOL    HW130617   1.478   3.172   0.324
 9906SOL    HW230618   1.534   3.122   0.179
 9907SOL     OW30619   2.614   6.877   3.466
 9907SOL    HW130620   2.548   6.944   3.500
 9907SOL    HW230621   2.571   6.822   3.395
 9908SOL     OW30622   0.636   3.252   5.896
 9908SOL    HW130623   0.696   3.303   5.835
 9908SOL    HW230624   0.611   3.309   5.974
 9909SOL     OW30625   3.252   0.622   3.102
 9909SOL    HW130626   3.166   0.572   3.108
 9909SOL    HW230627   3.239   0.716   3.135
 9910SOL     OW30628   0.468   5.053   1.688
 9910SOL    HW130629   0.394   5.115   1.712
 9910SOL    HW230630   0.552   5.082   1.735
 9911SOL     OW30631   4.769   5.171   3.214
 9911SOL    HW130632   4.732   5.150   3.123
 9911SOL    HW230633   4.850   5.229   3.204
 9912SOL     OW30634   4.537   0.879   2.352
 9912SOL    HW130635   4.600   0.891   2.428
 9912SOL    HW230636   4.498   0.787   2.355
 9913SOL     OW30637   6.291   3.221   2.143
 9913SOL    HW130638   6.231   3.290   2.184
 9913SOL    HW230639   6.236   3.144   2.111
 9914SOL     OW30640   1.102   0.757   6.044
 9914SOL    HW130641   1.028   0.802   6.094
 9914SOL    HW230642   1.065   0.682   5.990
 9915SOL     OW30643   5.106   3.402   4.263
 9915SOL    HW130644   5.193   3.351   4.270
 9915SOL    HW230645   5.114   3.472   4.192
 9916SOL     OW30646   2.871   2.254   3.942
 9916SOL    HW130647   2.859   2.163   3.901
 9916SOL    HW230648   2.810   2.319   3.897
 9917SOL     OW30649   3.155   3.000   4.381
 9917SOL    HW130650   3.179   2.953   4.296
 9917SOL    HW230651   3.200   2.954   4.458
 9918SOL     OW30652   1.289   1.575   0.543
 9918SOL    HW130653   1.367   1.527   0.582
 9918SOL    HW230654   1.272   1.659   0.595
 9919SOL     OW30655   2.262   5.135   2.183
 9919SOL    HW130656   2.170   5.097   2.170
 9919SOL    HW230657   2.328   5.061   2.194
 9920SOL     OW30658   3.390   1.091   3.157
 9920SOL    HW130659   3.431   1.170   3.204
 9920SOL    HW230660   3.348   1.122   3.072
 9921SOL     OW30661   5.847   6.019   4.328
 9921SOL    HW130662   5.811   5.994   4.238
 9921SOL    HW230663   5.791   6.093   4.367
 9922SOL     OW30664   4.530   4.286   0.739
 9922SOL    HW130665   4.563   4.356   0.803
 9922SOL    HW230666   4.574   4.298   0.650
 9923SOL     OW30667   6.728   3.043   0.455
 9923SOL    HW130668   6.734   3.140   0.479
 9923SOL    HW230669   6.745   3.031   0.357
 9924SOL     OW30670   5.475   2.056   2.334
 9924SOL    HW130671   5.567   2.077   2.303
 9924SOL    HW230672   5.479   1.991   2.411
 9925SOL     OW30673   2.091   4.142   5.244
 9925SOL    HW130674   2.168   4.169   5.187
 9925SOL    HW230675   2.058   4.052   5.215
 9926SOL     OW30676   3.396   2.394   1.423
 9926SOL    HW130677   3.445   2.396   1.510
 9926SOL    HW230678   3.397   2.301   1.386
 9927SOL     OW30679   0.794   2.403   1.289
 9927SOL    HW130680   0.695   2.419   1.294
 9927SOL    HW230681   0.842   2.489   1.308
 9928SOL     OW30682   6.370   4.888   2.169
 9928SOL    HW130683   6.413   4.979   2.169
 9928SOL    HW230684   6.271   4.898   2.165
 9929SOL     OW30685   2.786   4.160   5.359
 9929SOL    HW130686   2.724   4.081   5.357
 9929SOL    HW230687   2.735   4.243   5.334
 9930SOL     OW30688   7.008   6.979   5.794
 9930SOL    HW130689   6.927   6.978   5.734
 9930SOL    HW230690   6.997   0.027   5.864
 9931SOL     OW30691   0.434   5.522   4.897
 9931SOL    HW130692   0.454   5.599   4.836
 9931SOL    HW230693   0.337   5.499   4.890
 9932SOL     OW30694   2.018   2.147   0.381
 9932SOL    HW130695   1.965   2.230   0.368
 9932SOL    HW230696   2.017   2.121   0.477
 9933SOL     OW30697   1.871   1.058   4.016
 9933SOL    HW130698   1.923   1.138   3.987
 9933SOL    HW230699   1.894   0.980   3.957
 9934SOL     OW30700   5.983   1.984   0.535
 9934SOL    HW130701   5.894   1.949   0.503
 9934SOL    HW230702   6.055   1.918   0.511
 9935SOL     OW30703   2.837   1.776   0.538
 9935SOL    HW130704   2.854   1.688   0.494
 9935SOL    HW230705   2.824   1.847   0.468
 9936SOL     OW30706   5.850   4.834   5.465
 9936SOL    HW130707   5.788   4.763   5.500
 9936SOL    HW230708   5.860   4.824   5.366
 9937SOL     OW30709   1.380   0.765   3.207
 9937SOL    HW130710   1.467   0.759   3.159
 9937SOL    HW230711   1.357   0.862   3.222
 9938SOL     OW30712   5.541   0.409   3.660
 9938SOL    HW130713   5.441   0.402   3.670
 9938SOL    HW230714   5.561   0.462   3.578
 9939SOL     OW30715   2.174   2.545   0.874
 9939SOL    HW130716   2.205   2.598   0.796
 9939SOL    HW230717   2.192   2.448   0.858
 9940SOL     OW30718   0.105   0.365   3.683
 9940SOL    HW130719   0.113   0.448   3.739
 9940SOL    HW230720   0.014   0.362   3.641
 9941SOL     OW30721   3.142   5.371   6.144
 9941SOL    HW130722   3.232   5.394   6.181
 9941SOL    HW230723   3.125   5.424   6.061
 9942SOL     OW30724   4.651   4.734   2.639
 9942SOL    HW130725   4.693   4.766   2.724
 9942SOL    HW230726   4.597   4.652   2.658
 9943SOL     OW30727   0.555   4.581   5.886
 9943SOL    HW130728   0.600   4.492   5.894
 9943SOL    HW230729   0.540   4.620   5.977
 9944SOL     OW30730   0.112   5.691   6.142
 9944SOL    HW130731   0.094   5.632   6.221
 9944SOL    HW230732   0.026   5.710   6.095
 9945SOL     OW30733   5.407   3.685   6.808
 9945SOL    HW130734   5.310   3.696   6.831
 9945SOL    HW230735   5.439   3.595   6.838
 9946SOL     OW30736   6.384   0.426   3.475
 9946SOL    HW130737   6.401   0.392   3.382
 9946SOL    HW230738   6.337   0.356   3.529
 9947SOL     OW30739   1.734   1.748   4.005
 9947SOL    HW130740   1.706   1.666   3.956
 9947SOL    HW230741   1.671   1.822   3.985
 9948SOL     OW30742   6.904   5.748   5.223
 9948SOL    HW130743   6.992   5.715   5.258
 9948SOL    HW230744   6.901   5.737   5.124
 9949SOL     OW30745   0.343   4.905   4.102
 9949SOL    HW130746   0.254   4.901   4.147
 9949SOL    HW230747   0.412   4.940   4.165
 9950SOL     OW30748   6.772   5.190   5.916
 9950SOL    HW130749   6.689   5.135   5.903
 9950SOL    HW230750   6.820   5.158   5.998
 9951SOL     OW30751   1.531   2.315   2.721
 9951SOL    HW130752   1.532   2.391   2.656
 9951SOL    HW230753   1.596   2.244   2.691
 9952SOL     OW30754   1.439   3.885   1.406
 9952SOL    HW130755   1.487   3.949   1.345
 9952SOL    HW230756   1.422   3.929   1.494
 9953SOL     OW30757   5.605   2.118   3.315
 9953SOL    HW130758   5.674   2.160   3.255
 9953SOL    HW230759   5.651   2.068   3.388
 9954SOL     OW30760   1.640   1.026   5.019
 9954SOL    HW130761   1.578   0.950   5.000
 9954SOL    HW230762   1.715   1.025   4.952
 9955SOL     OW30763   4.919   3.442   6.837
 9955SOL    HW130764   4.941   3.470   6.744
 9955SOL    HW230765   4.893   3.345   6.837
 9956SOL     OW30766   6.977   4.051   2.651
 9956SOL    HW130767   6.916   4.002   2.713
 9956SOL    HW230768   0.048   4.043   2.683
 9957SOL     OW30769   5.246   6.922   1.309
 9957SOL    HW130770   5.195   6.882   1.384
 9957SOL    HW230771   5.307   6.994   1.343
 9958SOL     OW30772   3.283   5.804   5.854
 9958SOL    HW130773   3.211   5.874   5.858
 9958SOL    HW230774   3.247   5.721   5.812
 9959SOL     OW30775   4.162   3.196   1.780
 9959SOL    HW130776   4.131   3.126   1.716
 9959SOL    HW230777   4.260   3.184   1.798
 9960SOL     OW30778   0.294   6.512   1.521
 9960SOL    HW130779   0.344   6.482   1.602
 9960SOL    HW230780   0.360   6.533   1.448
 9961SOL     OW30781   2.277   4.149   2.704
 9961SOL    HW130782   2.252   4.069   2.759
 9961SOL    HW230783   2.260   4.232   2.757
 9962SOL     OW30784   3.647   0.849   2.142
 9962SOL    HW130785   3.716   0.914   2.110
 9962SOL    HW230786   3.585   0.895   2.206
 9963SOL     OW30787   2.589   3.409   6.976
 9963SOL    HW130788   2.657   3.385   6.907
 9963SOL    HW230789   2.617   3.372   0.042
 9964SOL     OW30790   3.432   5.163   5.665
 9964SOL    HW130791   3.359   5.106   5.703
 9964SOL    HW230792   3.496   5.105   5.614
 9965SOL     OW30793   3.395   5.629   4.550
 9965SOL    HW130794   3.383   5.696   4.623
 9965SOL    HW230795   3.379   5.672   4.462
 9966SOL     OW30796   2.743   5.324   2.242
 9966SOL    HW130797   2.768   5.413   2.205
 9966SOL    HW230798   2.826   5.269   2.253
 9967SOL     OW30799   6.165   5.272   3.233
 9967SOL    HW130800   6.143   5.367   3.256
 9967SOL    HW230801   6.249   5.270   3.179
 9968SOL     OW30802   3.854   5.387   0.018
 9968SOL    HW130803   3.786   5.418   0.084
 9968SOL    HW230804   3.851   5.446   6.960
 9969SOL     OW30805   1.467   3.072   4.465
 9969SOL    HW130806   1.506   3.103   4.552
 9969SOL    HW230807   1.480   3.142   4.395
 9970SOL     OW30808   6.344   5.316   1.257
 9970SOL    HW130809   6.301   5.262   1.184
 9970SOL    HW230810   6.393   5.255   1.319
 9971SOL     OW30811   2.201   2.403   1.357
 9971SOL    HW130812   2.248   2.486   1.390
 9971SOL    HW230813   2.161   2.355   1.435
 9972SOL     OW30814   2.684   3.921   0.870
 9972SOL    HW130815   2.717   3.899   0.962
 9972SOL    HW230816   2.598   3.873   0.853
 9973SOL     OW30817   4.405   2.407   4.374
 9973SOL    HW130818   4.353   2.475   4.322
 9973SOL    HW230819   4.342   2.345   4.421
 9974SOL     OW30820   0.495   2.505   2.687
 9974SOL    HW130821   0.457   2.469   2.771
 9974SOL    HW230822   0.512   2.604   2.697
 9975SOL     OW30823   0.339   5.447   6.344
 9975SOL    HW130824   0.241   5.468   6.345
 9975SOL    HW230825   0.354   5.358   6.302
 9976SOL     OW30826   0.825   5.154   5.247
 9976SOL    HW130827   0.811   5.243   5.292
 9976SOL    HW230828   0.867   5.090   5.311
 9977SOL     OW30829   5.421   4.551   5.798
 9977SOL    HW130830   5.339   4.579   5.847
 9977SOL    HW230831   5.396   4.491   5.722
 9978SOL     OW30832   6.910   1.653   5.261
 9978SOL    HW130833   6.931   1.747   5.289
 9978SOL    HW230834   6.934   1.590   5.335
 9979SOL     OW30835   6.354   3.978   6.501
 9979SOL    HW130836   6.281   3.970   6.433
 9979SOL    HW230837   6.325   3.933   6.586
 9980SOL     OW30838   1.874   0.272   0.546
 9980SOL    HW130839   1.967   0.245   0.521
 9980SOL    HW230840   1.863   0.266   0.645
 9981SOL     OW30841   2.618   2.068   0.272
 9981SOL    HW130842   2.710   2.037   0.248
 9981SOL    HW230843   2.598   2.153   0.223
 9982SOL     OW30844   1.010   1.299   4.361
 9982SOL    HW130845   1.024   1.292   4.262
 9982SOL    HW230846   1.072   1.236   4.408
 9983SOL     OW30847   0.220   1.104   1.730
 9983SOL    HW130848   0.250   1.164   1.804
 9983SOL    HW230849   0.300   1.064   1.685
 9984SOL     OW30850   0.936   6.099   0.150
 9984SOL    HW130851   0.897   6.190   0.140
 9984SOL    HW230852   1.010   6.101   0.217
 9985SOL     OW30853   2.651   5.977   1.362
 9985SOL    HW130854   2.736   5.929   1.383
 9985SOL    HW230855   2.594   5.979   1.444
 9986SOL     OW30856   5.516   5.037   1.107
 9986SOL    HW130857   5.522   4.941   1.079
 9986SOL    HW230858   5.605   5.081   1.094
 9987SOL     OW30859   6.355   2.803   2.050
 9987SOL    HW130860   6.352   2.722   2.108
 9987SOL    HW230861   6.386   2.882   2.103
 9988SOL     OW30862   6.690   5.237   4.512
 9988SOL    HW130863   6.650   5.244   4.603
 9988SOL    HW230864   6.760   5.165   4.511
 9989SOL     OW30865   6.107   4.342   2.321
 9989SOL    HW130866   6.190   4.390   2.290
 9989SOL    HW230867   6.103   4.345   2.421
 9990SOL     OW30868   2.428   6.947   3.132
 9990SOL    HW130869   2.425   6.862   3.184
 9990SOL    HW230870   2.523   6.968   3.107
 9991SOL     OW30871   2.168   3.726   3.637
 9991SOL    HW130872   2.102   3.651   3.640
 9991SOL    HW230873   2.191   3.753   3.731
 9992SOL     OW30874   3.664   3.922   0.875
 9992SOL    HW130875   3.603   3.875   0.812
 9992SOL    HW230876   3.633   3.907   0.969
 9993SOL     OW30877   3.862   6.913   3.638
 9993SOL    HW130878   3.960   6.913   3.617
 9993SOL    HW230879   3.815   6.846   3.581
 9994SOL     OW30880   6.835   3.920   2.440
 9994SOL    HW130881   6.869   3.990   2.502
 9994SOL    HW230882   6.819   3.961   2.349
 9995SOL     OW30883   3.121   1.184   3.650
 9995SOL    HW130884   3.221   1.191   3.653
 9995SOL    HW230885   3.085   1.190   3.743
 9996SOL     OW30886   2.409   3.669   1.704
 9996SOL    HW130887   2.408   3.575   1.740
 9996SOL    HW230888   2.504   3.698   1.688
 9997SOL     OW30889   5.426   1.060   2.166
 9997SOL    HW130890   5.486   1.137   2.190
 9997SOL    HW230891   5.474   0.974   2.182
 9998SOL     OW30892   5.763   3.800   1.960
 9998SOL    HW130893   5.737   3.891   1.927
 9998SOL    HW230894   5.744   3.733   1.889
 9999SOL     OW30895   0.157   5.718   5.179
 9999SOL    HW130896   0.183   5.814   5.164
 9999SOL    HW230897   0.216   5.678   5.249
10000SOL     OW30898   5.585   2.300   0.184
10000SOL    HW130899   5.491   2.322   0.209
10000SOL    HW230900   5.586   2.249   0.098
10001SOL     OW30901   3.696   0.654   1.353
10001SOL    HW130902   3.720   0.623   1.445
10001SOL    HW230903   3.748   0.736   1.330
10002SOL     OW30904   1.995   1.079   1.817
10002SOL    HW130905   1.909   1.109   1.860
10002SOL    HW230906   2.028   0.998   1.863
10003SOL     OW30907   2.932   2.178   2.304
10003SOL    HW130908   2.846   2.154   2.350
10003SOL    HW230909   2.911   2.230   2.221
10004SOL     OW30910   5.498   2.868   5.060
10004SOL    HW130911   5.399   2.872   5.070
10004SOL    HW230912   5.534   2.791   5.112
10005SOL     OW30913   3.497   5.327   2.465
10005SOL    HW130914   3.496   5.244   2.520
10005SOL    HW230915   3.421   5.386   2.491
10006SOL     OW30916   6.269   0.413   5.166
10006SOL    HW130917   6.270   0.324   5.120
10006SOL    HW230918   6.219   0.479   5.110
10007SOL     OW30919   0.882   3.223   3.955
10007SOL    HW130920   0.872   3.286   4.033
10007SOL    HW230921   0.822   3.144   3.969
10008SOL     OW30922   4.905   0.987   3.929
10008SOL    HW130923   4.879   0.957   3.837
10008SOL    HW230924   4.823   1.004   3.983
10009SOL     OW30925   1.562   4.084   1.249
10009SOL    HW130926   1.500   4.105   1.173
10009SOL    HW230927   1.606   4.168   1.280
10010SOL     OW30928   2.813   6.238   0.146
10010SOL    HW130929   2.875   6.159   0.149
10010SOL    HW230930   2.758   6.233   0.063
10011SOL     OW30931   0.529   4.213   6.504
10011SOL    HW130932   0.472   4.154   6.447
10011SOL    HW230933   0.472   4.256   6.574
10012SOL     OW30934   5.275   0.369   2.023
10012SOL    HW130935   5.270   0.269   2.028
10012SOL    HW230936   5.285   0.406   2.116
10013SOL     OW30937   2.022   2.228   4.195
10013SOL    HW130938   2.024   2.232   4.295
10013SOL    HW230939   1.969   2.149   4.166
10014SOL     OW30940   1.385   1.052   1.207
10014SOL    HW130941   1.330   1.017   1.131
10014SOL    HW230942   1.354   1.144   1.231
10015SOL     OW30943   4.070   5.109   0.223
10015SOL    HW130944   4.087   5.106   0.124
10015SOL    HW230945   4.108   5.194   0.260
10016SOL     OW30946   1.796   0.708   4.856
10016SOL    HW130947   1.835   0.800   4.847
10016SOL    HW230948   1.809   0.676   4.950
10017SOL     OW30949   2.064   1.876   3.005
10017SOL    HW130950   2.114   1.952   3.046
10017SOL    HW230951   2.127   1.815   2.957
10018SOL     OW30952   6.763   4.687   5.552
10018SOL    HW130953   6.784   4.678   5.649
10018SOL    HW230954   6.807   4.613   5.501
10019SOL     OW30955   0.805   1.744   2.990
10019SOL    HW130956   0.708   1.764   2.977
10019SOL    HW230957   0.858   1.827   2.977
10020SOL     OW30958   0.501   0.647   1.276
10020SOL    HW130959   0.530   0.551   1.276
10020SOL    HW230960   0.582   0.706   1.272
10021SOL     OW30961   0.882   2.409   2.266
10021SOL    HW130962   0.912   2.371   2.354
10021SOL    HW230963   0.887   2.337   2.196
10022SOL     OW30964   3.498   6.977   0.802
10022SOL    HW130965   3.535   0.031   0.749
10022SOL    HW230966   3.547   6.893   0.779
10023SOL     OW30967   1.864   5.220   4.354
10023SOL    HW130968   1.809   5.264   4.424
10023SOL    HW230969   1.804   5.170   4.291
10024SOL     OW30970   2.174   5.657   1.985
10024SOL    HW130971   2.133   5.581   2.035
10024SOL    HW230972   2.256   5.626   1.937
10025SOL     OW30973   1.534   2.926   2.077
10025SOL    HW130974   1.538   2.931   1.977
10025SOL    HW230975   1.560   2.835   2.107
10026SOL     OW30976   4.877   0.284   3.059
10026SOL    HW130977   4.975   0.306   3.065
10026SOL    HW230978   4.824   0.369   3.065
10027SOL     OW30979   0.722   2.608   5.259
10027SOL    HW130980   0.719   2.638   5.355
10027SOL    HW230981   0.670   2.671   5.203
10028SOL     OW30982   1.924   1.556   2.073
10028SOL    HW130983   1.960   1.645   2.043
10028SOL    HW230984   1.901   1.501   1.993
10029SOL     OW30985   1.656   2.157   3.379
10029SOL    HW130986   1.649   2.182   3.283
10029SOL    HW230987   1.566   2.134   3.415
10030SOL     OW30988   3.148   0.208   4.975
10030SOL    HW130989   3.200   0.236   5.057
10030SOL    HW230990   3.178   0.118   4.946
10031SOL     OW30991   5.504   4.829   4.787
10031SOL    HW130992   5.435   4.761   4.762
10031SOL    HW230993   5.466   4.889   4.858
10032SOL     OW30994   4.371   0.513   5.529
10032SOL    HW130995   4.329   0.423   5.515
10032SOL    HW230996   4.370   0.535   5.626
10033SOL     OW30997   4.657   2.524   3.869
10033SOL    HW130998   4.662   2.427   3.893
10033SOL    HW230999   4.621   2.576   3.946
10034SOL     OW31000   3.199   0.396   3.689
10034SOL    HW131001   3.179   0.299   3.674
10034SOL    HW231002   3.132   0.451   3.640
10035SOL     OW31003   6.532   4.827   1.179
10035SOL    HW131004   6.609   4.891   1.187
10035SOL    HW231005   6.505   4.820   1.083
10036SOL     OW31006   6.754   0.333   0.335
10036SOL    HW131007   6.813   0.355   0.257
10036SOL    HW231008   6.806   0.346   0.420
10037SOL     OW31009   5.840   0.747   0.107
10037SOL    HW131010   5.910   0.689   0.149
10037SOL    HW231011   5.763   0.758   0.170
10038SOL     OW31012   4.324   7.017   6.585
10038SOL    HW131013   4.326   6.937   6.646
10038SOL    HW231014   4.260   7.000   6.510
10039SOL     OW31015   4.561   6.464   5.444
10039SOL    HW131016   4.584   6.445   5.349
10039SOL    HW231017   4.463   6.448   5.458
10040SOL     OW31018   4.327   5.539   6.127
10040SOL    HW131019   4.411   5.505   6.169
10040SOL    HW231020   4.295   5.620   6.176
10041SOL     OW31021   4.684   6.150   6.776
10041SOL    HW131022   4.713   6.246   6.772
10041SOL    HW231023   4.636   6.127   6.691
10042SOL     OW31024   1.335   2.074   4.832
10042SOL    HW131025   1.282   2.154   4.861
10042SOL    HW231026   1.389   2.040   4.909
10043SOL     OW31027   0.374   2.072   4.127
10043SOL    HW131028   0.403   2.134   4.200
10043SOL    HW231029   0.330   1.992   4.167
10044SOL     OW31030   2.837   1.611   4.529
10044SOL    HW131031   2.741   1.603   4.504
10044SOL    HW231032   2.870   1.702   4.502
10045SOL     OW31033   5.174   6.680   3.904
10045SOL    HW131034   5.164   6.596   3.851
10045SOL    HW231035   5.271   6.698   3.921
10046SOL     OW31036   1.725   3.887   1.286
10046SOL    HW131037   1.711   3.854   1.380
10046SOL    HW231038   1.685   3.978   1.277
10047SOL     OW31039   6.367   3.422   5.014
10047SOL    HW131040   6.416   3.431   4.927
10047SOL    HW231041   6.383   3.503   5.070
10048SOL     OW31042   5.559   1.685   2.643
10048SOL    HW131043   5.565   1.722   2.550
10048SOL    HW231044   5.649   1.691   2.687
10049SOL     OW31045   0.734   0.085   6.703
10049SOL    HW131046   0.706   0.143   6.627
10049SOL    HW231047   0.743   0.141   6.786
10050SOL     OW31048   6.546   2.584   5.062
10050SOL    HW131049   6.603   2.650   5.012
10050SOL    HW231050   6.536   2.501   5.006
10051SOL     OW31051   6.215   2.454   5.131
10051SOL    HW131052   6.306   2.458   5.091
10051SOL    HW231053   6.184   2.546   5.155
10052SOL     OW31054   2.874   2.256   2.740
10052SOL    HW131055   2.799   2.259   2.674
10052SOL    HW231056   2.923   2.343   2.739
10053SOL     OW31057   3.479   5.885   1.752
10053SOL    HW131058   3.457   5.921   1.661
10053SOL    HW231059   3.472   5.785   1.750
10054SOL     OW31060   4.988   4.892   6.401
10054SOL    HW131061   4.912   4.879   6.337
10054SOL    HW231062   4.975   4.977   6.451
10055SOL     OW31063   6.230   2.178   5.036
10055SOL    HW131064   6.241   2.190   4.938
10055SOL    HW231065   6.261   2.260   5.083
10056SOL     OW31066   5.572   4.531   1.974
10056SOL    HW131067   5.538   4.471   1.901
10056SOL    HW231068   5.646   4.484   2.022
10057SOL     OW31069   4.076   1.900   4.392
10057SOL    HW131070   3.976   1.906   4.397
10057SOL    HW231071   4.106   1.928   4.301
10058SOL     OW31072   0.535   3.874   4.426
10058SOL    HW131073   0.625   3.840   4.399
10058SOL    HW231074   0.534   3.890   4.525
10059SOL     OW31075   4.940   6.874   1.051
10059SOL    HW131076   4.955   6.967   1.084
10059SOL    HW231077   5.005   6.812   1.095
10060SOL     OW31078   1.604   1.687   1.291
10060SOL    HW131079   1.660   1.628   1.233
10060SOL    HW231080   1.529   1.634   1.331
10061SOL     OW31081   4.888   1.405   4.373
10061SOL    HW131082   4.960   1.385   4.439
10061SOL    HW231083   4.812   1.451   4.419
10062SOL     OW31084   6.646   0.315   4.508
10062SOL    HW131085   6.656   0.218   4.532
10062SOL    HW231086   6.638   0.369   4.592
10063SOL     OW31087   2.161   1.419   4.253
10063SOL    HW131088   2.102   1.349   4.293
10063SOL    HW231089   2.107   1.479   4.195
10064SOL     OW31090   4.850   6.615   0.175
10064SOL    HW131091   4.791   6.565   0.239
10064SOL    HW231092   4.897   6.688   0.224
10065SOL     OW31093   1.897   6.976   2.396
10065SOL    HW131094   1.909   6.877   2.391
10065SOL    HW231095   1.840   7.006   2.320
10066SOL     OW31096   1.182   2.544   3.672
10066SOL    HW131097   1.140   2.490   3.744
10066SOL    HW231098   1.244   2.612   3.712
10067SOL     OW31099   6.468   4.331   4.508
10067SOL    HW131100   6.485   4.294   4.417
10067SOL    HW231101   6.377   4.303   4.539
10068SOL     OW31102   0.211   3.443   2.975
10068SOL    HW131103   0.123   3.488   2.990
10068SOL    HW231104   0.264   3.496   2.908
10069SOL     OW31105   2.021   5.383   3.257
10069SOL    HW131106   1.945   5.318   3.263
10069SOL    HW231107   2.051   5.406   3.350
10070SOL     OW31108   6.804   0.239   5.319
10070SOL    HW131109   6.865   0.227   5.240
10070SOL    HW231110   6.804   0.156   5.374
10071SOL     OW31111   6.157   6.013   3.710
10071SOL    HW131112   6.223   5.941   3.692
10071SOL    HW231113   6.126   6.007   3.805
10072SOL     OW31114   0.081   6.203   4.136
10072SOL    HW131115   0.124   6.280   4.089
10072SOL    HW231116   0.022   6.154   4.073
10073SOL     OW31117   5.948   4.385   5.133
10073SOL    HW131118   5.940   4.363   5.035
10073SOL    HW231119   5.922   4.304   5.186
10074SOL     OW31120   1.473   0.793   5.337
10074SOL    HW131121   1.486   0.864   5.268
10074SOL    HW231122   1.546   0.799   5.405
10075SOL     OW31123   1.774   2.834   2.887
10075SOL    HW131124   1.773   2.917   2.831
10075SOL    HW231125   1.828   2.763   2.841
10076SOL     OW31126   0.113   0.080   3.774
10076SOL    HW131127   0.107   0.169   3.729
10076SOL    HW231128   0.054   0.079   3.854
10077SOL     OW31129   3.943   2.920   6.567
10077SOL    HW131130   3.930   2.998   6.507
10077SOL    HW231131   3.897   2.840   6.529
10078SOL     OW31132   0.497   5.075   3.880
10078SOL    HW131133   0.451   4.999   3.926
10078SOL    HW231134   0.436   5.154   3.877
10079SOL     OW31135   6.791   3.904   2.774
10079SOL    HW131136   6.738   3.898   2.859
10079SOL    HW231137   6.835   3.815   2.757
10080SOL     OW31138   4.263   1.512   5.510
10080SOL    HW131139   4.166   1.500   5.534
10080SOL    HW231140   4.270   1.570   5.429
10081SOL     OW31141   0.274   0.075   0.810
10081SOL    HW131142   0.226   0.125   0.738
10081SOL    HW231143   0.226   7.012   0.829
10082SOL     OW31144   0.050   4.769   1.537
10082SOL    HW131145   7.004   4.789   1.607
10082SOL    HW231146   0.031   4.825   1.456
10083SOL     OW31147   4.993   1.272   3.319
10083SOL    HW131148   4.940   1.199   3.274
10083SOL    HW231149   5.078   1.233   3.356
10084SOL     OW31150   2.096   0.460   5.372
10084SOL    HW131151   2.135   0.478   5.282
10084SOL    HW231152   2.057   0.545   5.409
10085SOL     OW31153   1.646   5.794   2.074
10085SOL    HW131154   1.745   5.808   2.072
10085SOL    HW231155   1.619   5.756   2.162
10086SOL     OW31156   4.436   5.285   2.189
10086SOL    HW131157   4.404   5.262   2.098
10086SOL    HW231158   4.357   5.302   2.249
10087SOL     OW31159   0.163   0.191   4.046
10087SOL    HW131160   0.200   0.151   3.963
10087SOL    HW231161   0.064   0.178   4.048
10088SOL     OW31162   6.391   0.229   1.215
10088SOL    HW131163   6.299   0.195   1.235
10088SOL    HW231164   6.430   0.269   1.298
10089SOL     OW31165   2.983   1.907   2.239
10089SOL    HW131166   2.967   2.005   2.246
10089SOL    HW231167   3.044   1.889   2.161
10090SOL     OW31168   1.261   4.737   1.510
10090SOL    HW131169   1.176   4.691   1.482
10090SOL    HW231170   1.326   4.668   1.543
10091SOL     OW31171   0.564   3.919   6.335
10091SOL    HW131172   0.633   3.856   6.371
10091SOL    HW231173   0.482   3.868   6.310
10092SOL     OW31174   1.984   2.726   5.276
10092SOL    HW131175   1.922   2.773   5.339
10092SOL    HW231176   2.039   2.793   5.227
10093SOL     OW31177   6.815   3.580   5.169
10093SOL    HW131178   6.827   3.512   5.096
10093SOL    HW231179   6.830   3.537   5.258
10094SOL     OW31180   2.464   5.603   2.299
10094SOL    HW131181   2.511   5.631   2.383
10094SOL    HW231182   2.443   5.505   2.304
10095SOL     OW31183   6.066   1.835   5.345
10095SOL    HW131184   5.998   1.862   5.413
10095SOL    HW231185   6.075   1.735   5.345
10096SOL     OW31186   4.438   4.912   2.423
10096SOL    HW131187   4.354   4.923   2.370
10096SOL    HW231188   4.419   4.853   2.502
10097SOL     OW31189   1.050   0.848   0.002
10097SOL    HW131190   0.999   0.782   6.969
10097SOL    HW231191   1.015   0.846   0.096
10098SOL     OW31192   2.733   0.602   4.698
10098SOL    HW131193   2.723   0.525   4.761
10098SOL    HW231194   2.803   0.665   4.732
10099SOL     OW31195   0.289   5.078   0.791
10099SOL    HW131196   0.310   5.147   0.860
10099SOL    HW231197   0.335   5.100   0.705
10100SOL     OW31198   5.084   0.131   4.749
10100SOL    HW131199   5.162   0.151   4.808
10100SOL    HW231200   5.093   0.181   4.663
10101SOL     OW31201   6.119   4.099   1.586
10101SOL    HW131202   6.104   4.197   1.574
10101SOL    HW231203   6.183   4.084   1.661
10102SOL     OW31204   0.554   1.175   2.369
10102SOL    HW131205   0.591   1.121   2.294
10102SOL    HW231206   0.530   1.266   2.335
10103SOL     OW31207   2.648   0.180   5.834
10103SOL    HW131208   2.646   0.127   5.749
10103SOL    HW231209   2.730   0.157   5.886
10104SOL     OW31210   2.263   1.970   3.770
10104SOL    HW131211   2.317   2.022   3.836
10104SOL    HW231212   2.188   1.924   3.818
10105SOL     OW31213   1.650   0.904   0.619
10105SOL    HW131214   1.656   0.970   0.694
10105SOL    HW231215   1.590   0.941   0.548
10106SOL     OW31216   4.189   6.461   0.434
10106SOL    HW131217   4.218   6.556   0.444
10106SOL    HW231218   4.112   6.443   0.495
10107SOL     OW31219   6.911   1.570   6.173
10107SOL    HW131220   6.991   1.628   6.190
10107SOL    HW231221   6.835   1.600   6.231
10108SOL     OW31222   6.580   6.990   0.074
10108SOL    HW131223   6.611   0.006   0.161
10108SOL    HW231224   6.570   0.040   0.006
10109SOL     OW31225   5.193   6.885   0.442
10109SOL    HW131226   5.286   6.848   0.443
10109SOL    HW231227   5.130   6.817   0.405
10110SOL     OW31228   3.791   5.188   4.773
10110SOL    HW131229   3.867   5.221   4.717
10110SOL    HW231230   3.720   5.258   4.779
10111SOL     OW31231   5.733   3.345   3.633
10111SOL    HW131232   5.719   3.275   3.562
10111SOL    HW231233   5.650   3.353   3.689
10112SOL     OW31234   5.460   3.413   3.799
10112SOL    HW131235   5.435   3.318   3.781
10112SOL    HW231236   5.426   3.440   3.889
10113SOL     OW31237   4.134   0.149   6.724
10113SOL    HW131238   4.181   0.066   6.694
10113SOL    HW231239   4.106   0.201   6.643
10114SOL     OW31240   5.216   1.266   0.941
10114SOL    HW131241   5.222   1.363   0.964
10114SOL    HW231242   5.198   1.213   1.024
10115SOL     OW31243   3.753   1.533   4.810
10115SOL    HW131244   3.706   1.621   4.819
10115SOL    HW231245   3.713   1.481   4.734
10116SOL     OW31246   0.549   6.304   0.506
10116SOL    HW131247   0.460   6.283   0.545
10116SOL    HW231248   0.566   6.403   0.514
10117SOL     OW31249   6.387   5.571   5.755
10117SOL    HW131250   6.321   5.543   5.685
10117SOL    HW231251   6.427   5.659   5.729
10118SOL     OW31252   1.952   4.459   2.709
10118SOL    HW131253   1.973   4.465   2.806
10118SOL    HW231254   1.853   4.444   2.697
10119SOL     OW31255   0.513   5.403   4.311
10119SOL    HW131256   0.524   5.422   4.214
10119SOL    HW231257   0.468   5.481   4.356
10120SOL     OW31258   1.807   3.374   5.121
10120SOL    HW131259   1.836   3.440   5.052
10120SOL    HW231260   1.765   3.421   5.198
10121SOL     OW31261   6.226   3.913   6.720
10121SOL    HW131262   6.240   3.981   6.792
10121SOL    HW231263   6.128   3.907   6.698
10122SOL     OW31264   6.338   3.388   1.930
10122SOL    HW131265   6.301   3.479   1.912
10122SOL    HW231266   6.300   3.353   2.015
10123SOL     OW31267   5.441   6.610   6.832
10123SOL    HW131268   5.378   6.687   6.820
10123SOL    HW231269   5.407   6.531   6.781
10124SOL     OW31270   1.325   3.993   0.424
10124SOL    HW131271   1.260   3.996   0.501
10124SOL    HW231272   1.306   3.912   0.369
10125SOL     OW31273   2.060   1.309   1.942
10125SOL    HW131274   2.062   1.223   1.891
10125SOL    HW231275   1.977   1.313   1.998
10126SOL     OW31276   0.015   6.429   6.432
10126SOL    HW131277   0.018   6.430   6.532
10126SOL    HW231278   0.072   6.503   6.396
10127SOL     OW31279   2.870   4.485   6.455
10127SOL    HW131280   2.813   4.441   6.386
10127SOL    HW231281   2.835   4.577   6.474
10128SOL     OW31282   2.984   1.141   0.683
10128SOL    HW131283   2.911   1.087   0.641
10128SOL    HW231284   2.964   1.238   0.672
10129SOL     OW31285   5.962   1.937   2.025
10129SOL    HW131286   6.045   1.993   2.018
10129SOL    HW231287   5.937   1.903   1.935
10130SOL     OW31288   1.246   3.470   1.874
10130SOL    HW131289   1.286   3.482   1.783
10130SOL    HW231290   1.215   3.558   1.909
10131SOL     OW31291   1.278   0.053   4.595
10131SOL    HW131292   1.365   0.052   4.645
10131SOL    HW231293   1.279   0.129   4.529
10132SOL     OW31294   3.843   0.637   4.203
10132SOL    HW131295   3.820   0.544   4.234
10132SOL    HW231296   3.845   0.698   4.282
10133SOL     OW31297   3.886   6.148   0.902
10133SOL    HW131298   3.974   6.106   0.880
10133SOL    HW231299   3.838   6.091   0.968
10134SOL     OW31300   0.171   6.116   3.200
10134SOL    HW131301   0.237   6.186   3.228
10134SOL    HW231302   0.105   6.156   3.136
10135SOL     OW31303   4.943   3.374   3.426
10135SOL    HW131304   4.875   3.302   3.439
10135SOL    HW231305   5.026   3.334   3.386
10136SOL     OW31306   5.510   1.132   2.435
10136SOL    HW131307   5.578   1.070   2.396
10136SOL    HW231308   5.500   1.212   2.376
10137SOL     OW31309   6.762   3.570   4.184
10137SOL    HW131310   6.790   3.613   4.099
10137SOL    HW231311   6.715   3.637   4.242
10138SOL     OW31312   5.287   3.517   0.302
10138SOL    HW131313   5.247   3.530   0.393
10138SOL    HW231314   5.381   3.551   0.302
10139SOL     OW31315   2.919   3.683   3.690
10139SOL    HW131316   2.932   3.587   3.715
10139SOL    HW231317   2.853   3.726   3.752
10140SOL     OW31318   5.906   5.807   0.326
10140SOL    HW131319   6.000   5.821   0.294
10140SOL    HW231320   5.846   5.791   0.248
10141SOL     OW31321   3.943   1.321   5.673
10141SOL    HW131322   3.981   1.310   5.580
10141SOL    HW231323   4.000   1.386   5.724
10142SOL     OW31324   6.491   6.887   5.680
10142SOL    HW131325   6.501   6.954   5.606
10142SOL    HW231326   6.493   6.795   5.642
10143SOL     OW31327   5.466   1.213   6.731
10143SOL    HW131328   5.451   1.257   6.820
10143SOL    HW231329   5.405   1.134   6.722
10144SOL     OW31330   2.930   0.386   6.059
10144SOL    HW131331   3.008   0.446   6.038
10144SOL    HW231332   2.908   0.393   6.156
10145SOL     OW31333   3.065   4.905   4.046
10145SOL    HW131334   2.971   4.911   4.013
10145SOL    HW231335   3.127   4.902   3.968
10146SOL     OW31336   4.645   4.509   4.980
10146SOL    HW131337   4.546   4.500   4.973
10146SOL    HW231338   4.667   4.593   5.030
10147SOL     OW31339   5.710   3.817   5.305
10147SOL    HW131340   5.656   3.853   5.229
10147SOL    HW231341   5.649   3.778   5.374
10148SOL     OW31342   5.120   4.586   6.367
10148SOL    HW131343   5.156   4.601   6.460
10148SOL    HW231344   5.020   4.590   6.369
10149SOL     OW31345   5.733   3.143   0.792
10149SOL    HW131346   5.821   3.118   0.752
10149SOL    HW231347   5.707   3.075   0.860
10150SOL     OW31348   3.650   3.527   0.363
10150SOL    HW131349   3.738   3.572   0.345
10150SOL    HW231350   3.577   3.578   0.318
10151SOL     OW31351   0.608   5.791   0.097
10151SOL    HW131352   0.581   5.743   0.013
10151SOL    HW231353   0.653   5.877   0.073
10152SOL     OW31354   0.166   5.478   4.258
10152SOL    HW131355   0.161   5.560   4.201
10152SOL    HW231356   0.225   5.496   4.337
10153SOL     OW31357   4.518   6.085   3.696
10153SOL    HW131358   4.542   6.169   3.745
10153SOL    HW231359   4.601   6.037   3.668
10154SOL     OW31360   4.248   6.513   5.432
10154SOL    HW131361   4.161   6.518   5.482
10154SOL    HW231362   4.257   6.592   5.372
10155SOL     OW31363   4.154   2.249   6.061
10155SOL    HW131364   4.057   2.268   6.047
10155SOL    HW231365   4.208   2.317   6.012
10156SOL     OW31366   6.337   0.671   2.091
10156SOL    HW131367   6.279   0.594   2.117
10156SOL    HW231368   6.302   0.755   2.133
10157SOL     OW31369   0.237   1.762   0.575
10157SOL    HW131370   0.250   1.756   0.674
10157SOL    HW231371   0.254   1.672   0.535
10158SOL     OW31372   5.949   5.655   0.585
10158SOL    HW131373   5.901   5.689   0.666
10158SOL    HW231374   6.027   5.715   0.565
10159SOL     OW31375   2.029   3.121   0.723
10159SOL    HW131376   1.968   3.156   0.653
10159SOL    HW231377   2.077   3.040   0.689
10160SOL     OW31378   1.784   3.182   2.113
10160SOL    HW131379   1.703   3.200   2.057
10160SOL    HW231380   1.787   3.084   2.136
10161SOL     OW31381   3.566   3.107   1.065
10161SOL    HW131382   3.532   3.013   1.073
10161SOL    HW231383   3.664   3.105   1.045
10162SOL     OW31384   3.305   4.357   1.184
10162SOL    HW131385   3.218   4.335   1.140
10162SOL    HW231386   3.320   4.295   1.261
10163SOL     OW31387   5.877   4.148   6.771
10163SOL    HW131388   5.874   4.096   6.856
10163SOL    HW231389   5.821   4.230   6.779
10164SOL     OW31390   6.168   3.521   3.918
10164SOL    HW131391   6.215   3.511   4.006
10164SOL    HW231392   6.193   3.445   3.859
10165SOL     OW31393   6.546   1.847   2.958
10165SOL    HW131394   6.486   1.769   2.940
10165SOL    HW231395   6.624   1.816   3.013
10166SOL     OW31396   3.109   1.878   1.831
10166SOL    HW131397   3.068   1.967   1.848
10166SOL    HW231398   3.106   1.823   1.915
10167SOL     OW31399   1.290   4.758   6.830
10167SOL    HW131400   1.260   4.757   6.925
10167SOL    HW231401   1.378   4.805   6.822
10168SOL     OW31402   5.985   2.690   6.396
10168SOL    HW131403   6.027   2.627   6.332
10168SOL    HW231404   5.889   2.704   6.372
10169SOL     OW31405   6.469   4.527   3.513
10169SOL    HW131406   6.403   4.569   3.451
10169SOL    HW231407   6.545   4.590   3.529
10170SOL     OW31408   6.786   5.373   5.285
10170SOL    HW131409   6.843   5.326   5.353
10170SOL    HW231410   6.731   5.443   5.331
10171SOL     OW31411   0.063   2.183   4.432
10171SOL    HW131412   0.125   2.127   4.487
10171SOL    HW231413   0.114   2.255   4.386
10172SOL     OW31414   0.245   6.002   5.279
10172SOL    HW131415   0.255   6.065   5.203
10172SOL    HW231416   0.332   5.994   5.329
10173SOL     OW31417   1.824   2.448   0.651
10173SOL    HW131418   1.910   2.428   0.699
10173SOL    HW231419   1.755   2.477   0.718
10174SOL     OW31420   5.310   4.527   3.671
10174SOL    HW131421   5.251   4.580   3.611
10174SOL    HW231422   5.319   4.434   3.635
10175SOL     OW31423   6.013   1.748   2.858
10175SOL    HW131424   6.084   1.775   2.923
10175SOL    HW231425   5.993   1.825   2.796
10176SOL     OW31426   0.551   3.330   5.250
10176SOL    HW131427   0.620   3.314   5.321
10176SOL    HW231428   0.597   3.351   5.163
10177SOL     OW31429   2.282   1.219   1.353
10177SOL    HW131430   2.361   1.165   1.323
10177SOL    HW231431   2.244   1.268   1.275
10178SOL     OW31432   0.310   0.920   6.429
10178SOL    HW131433   0.283   0.881   6.341
10178SOL    HW231434   0.318   0.846   6.497
10179SOL     OW31435   0.490   2.580   6.681
10179SOL    HW131436   0.418   2.649   6.691
10179SOL    HW231437   0.568   2.606   6.738
10180SOL     OW31438   3.770   0.594   5.660
10180SOL    HW131439   3.810   0.666   5.717
10180SOL    HW231440   3.841   0.548   5.608
10181SOL     OW31441   6.171   3.649   1.355
10181SOL    HW131442   6.107   3.587   1.310
10181SOL    HW231443   6.145   3.744   1.335
10182SOL     OW31444   4.549   0.758   1.571
10182SOL    HW131445   4.456   0.778   1.600
10182SOL    HW231446   4.611   0.771   1.648
10183SOL     OW31447   6.650   3.008   6.662
10183SOL    HW131448   6.715   3.017   6.587
10183SOL    HW231449   6.580   3.080   6.655
10184SOL     OW31450   4.342   0.907   6.132
10184SOL    HW131451   4.333   0.826   6.073
10184SOL    HW231452   4.369   0.877   6.224
10185SOL     OW31453   6.153   6.180   2.932
10185SOL    HW131454   6.105   6.211   2.850
10185SOL    HW231455   6.251   6.186   2.917
10186SOL     OW31456   5.718   3.803   3.978
10186SOL    HW131457   5.708   3.743   4.057
10186SOL    HW231458   5.793   3.771   3.921
10187SOL     OW31459   1.181   3.388   0.302
10187SOL    HW131460   1.096   3.431   0.272
10187SOL    HW231461   1.161   3.296   0.335
10188SOL     OW31462   4.016   4.763   0.467
10188SOL    HW131463   3.993   4.783   0.371
10188SOL    HW231464   4.059   4.843   0.508
10189SOL     OW31465   0.537   1.073   6.355
10189SOL    HW131466   0.481   1.006   6.404
10189SOL    HW231467   0.579   1.136   6.421
10190SOL     OW31468   4.851   3.248   1.130
10190SOL    HW131469   4.877   3.151   1.132
10190SOL    HW231470   4.756   3.256   1.099
10191SOL     OW31471   4.063   6.029   6.393
10191SOL    HW131472   4.055   5.957   6.461
10191SOL    HW231473   4.030   6.115   6.432
10192SOL     OW31474   4.296   1.664   5.300
10192SOL    HW131475   4.373   1.711   5.257
10192SOL    HW231476   4.218   1.664   5.238
10193SOL     OW31477   3.567   2.850   2.146
10193SOL    HW131478   3.526   2.850   2.237
10193SOL    HW231479   3.494   2.844   2.077
10194SOL     OW31480   5.042   6.157   6.128
10194SOL    HW131481   5.033   6.252   6.158
10194SOL    HW231482   4.957   6.108   6.145
10195SOL     OW31483   6.580   5.974   0.212
10195SOL    HW131484   6.507   5.992   0.147
10195SOL    HW231485   6.628   6.059   0.233
10196SOL     OW31486   4.543   2.000   4.109
10196SOL    HW131487   4.497   1.921   4.150
10196SOL    HW231488   4.488   2.035   4.034
10197SOL     OW31489   5.410   1.615   4.652
10197SOL    HW131490   5.500   1.619   4.695
10197SOL    HW231491   5.357   1.695   4.679
10198SOL     OW31492   2.904   6.800   2.599
10198SOL    HW131493   3.000   6.826   2.593
10198SOL    HW231494   2.893   6.704   2.572
10199SOL     OW31495   1.531   2.837   0.763
10199SOL    HW131496   1.517   2.918   0.820
10199SOL    HW231497   1.628   2.829   0.740
10200SOL     OW31498   4.810   2.600   6.013
10200SOL    HW131499   4.792   2.544   5.932
10200SOL    HW231500   4.831   2.541   6.091
10201SOL     OW31501   1.304   5.133   0.338
10201SOL    HW131502   1.280   5.227   0.362
10201SOL    HW231503   1.382   5.133   0.276
10202SOL     OW31504   3.108   5.048   1.003
10202SOL    HW131505   3.149   5.138   1.019
10202SOL    HW231506   3.133   5.016   0.912
10203SOL     OW31507   6.838   3.207   2.498
10203SOL    HW131508   6.928   3.165   2.484
10203SOL    HW231509   6.767   3.142   2.473
10204SOL     OW31510   4.251   5.607   6.841
10204SOL    HW131511   4.323   5.654   6.789
10204SOL    HW231512   4.231   5.519   6.798
10205SOL     OW31513   2.401   0.783   2.165
10205SOL    HW131514   2.437   0.699   2.125
10205SOL    HW231515   2.392   0.853   2.094
10206SOL     OW31516   6.992   6.819   6.436
10206SOL    HW131517   6.894   6.806   6.451
10206SOL    HW231518   0.021   6.782   6.513
10207SOL     OW31519   0.891   2.406   6.699
10207SOL    HW131520   0.938   2.438   6.781
10207SOL    HW231521   0.850   2.484   6.651
10208SOL     OW31522   6.368   5.197   4.091
10208SOL    HW131523   6.440   5.262   4.070
10208SOL    HW231524   6.312   5.182   4.009
10209SOL     OW31525   0.315   6.718   0.028
10209SOL    HW131526   0.348   6.645   6.991
10209SOL    HW231527   0.375   6.797   0.021
10210SOL     OW31528   4.867   6.268   1.763
10210SOL    HW131529   4.823   6.338   1.706
10210SOL    HW231530   4.882   6.305   1.855
10211SOL     OW31531   5.080   6.347   4.404
10211SOL    HW131532   5.056   6.432   4.451
10211SOL    HW231533   5.176   6.349   4.378
10212SOL     OW31534   0.211   0.198   5.419
10212SOL    HW131535   0.305   0.226   5.439
10212SOL    HW231536   0.190   0.113   5.466
10213SOL     OW31537   5.687   2.358   2.019
10213SOL    HW131538   5.752   2.302   2.070
10213SOL    HW231539   5.729   2.390   1.935
10214SOL     OW31540   0.236   1.733   1.648
10214SOL    HW131541   0.195   1.692   1.567
10214SOL    HW231542   0.167   1.789   1.695
10215SOL     OW31543   3.807   3.368   3.997
10215SOL    HW131544   3.765   3.329   3.915
10215SOL    HW231545   3.745   3.356   4.075
10216SOL     OW31546   6.857   1.406   1.588
10216SOL    HW131547   6.908   1.470   1.530
10216SOL    HW231548   6.760   1.410   1.563
10217SOL     OW31549   2.810   1.582   3.521
10217SOL    HW131550   2.780   1.581   3.616
10217SOL    HW231551   2.907   1.605   3.516
10218SOL     OW31552   0.908   1.062   1.795
10218SOL    HW131553   0.861   1.126   1.856
10218SOL    HW231554   0.925   1.107   1.707
10219SOL     OW31555   0.332   2.333   2.821
10219SOL    HW131556   0.348   2.250   2.768
10219SOL    HW231557   0.234   2.353   2.822
10220SOL     OW31558   4.825   1.880   0.956
10220SOL    HW131559   4.753   1.862   0.889
10220SOL    HW231560   4.783   1.902   1.044
10221SOL     OW31561   1.842   3.885   4.132
10221SOL    HW131562   1.830   3.916   4.226
10221SOL    HW231563   1.754   3.891   4.084
10222SOL     OW31564   3.059   4.332   5.359
10222SOL    HW131565   3.012   4.404   5.308
10222SOL    HW231566   2.995   4.289   5.423
10223SOL     OW31567   2.461   5.189   1.030
10223SOL    HW131568   2.463   5.257   1.104
10223SOL    HW231569   2.544   5.134   1.033
10224SOL     OW31570   6.333   2.485   5.981
10224SOL    HW131571   6.390   2.552   5.934
10224SOL    HW231572   6.237   2.506   5.966
10225SOL     OW31573   1.322   6.154   5.136
10225SOL    HW131574   1.381   6.200   5.203
10225SOL    HW231575   1.248   6.215   5.110
10226SOL     OW31576   2.151   0.501   5.939
10226SOL    HW131577   2.136   0.493   5.841
10226SOL    HW231578   2.244   0.472   5.962
10227SOL     OW31579   5.286   4.969   0.940
10227SOL    HW131580   5.326   4.902   0.877
10227SOL    HW231581   5.347   4.979   1.019
10228SOL     OW31582   0.560   6.245   1.929
10228SOL    HW131583   0.500   6.303   1.873
10228SOL    HW231584   0.655   6.265   1.907
10229SOL     OW31585   1.888   3.009   4.950
10229SOL    HW131586   1.978   3.053   4.945
10229SOL    HW231587   1.901   2.911   4.967
10230SOL     OW31588   6.372   6.457   2.974
10230SOL    HW131589   6.355   6.366   2.935
10230SOL    HW231590   6.331   6.463   3.065
10231SOL     OW31591   6.235   4.678   5.286
10231SOL    HW131592   6.311   4.629   5.243
10231SOL    HW231593   6.248   4.777   5.272
10232SOL     OW31594   3.175   1.484   3.982
10232SOL    HW131595   3.167   1.532   3.895
10232SOL    HW231596   3.158   1.548   4.057
10233SOL     OW31597   3.769   3.759   5.041
10233SOL    HW131598   3.764   3.765   5.140
10233SOL    HW231599   3.858   3.792   5.010
10234SOL     OW31600   5.244   0.451   0.895
10234SOL    HW131601   5.171   0.514   0.868
10234SOL    HW231602   5.258   0.384   0.822
10235SOL     OW31603   3.462   2.102   1.380
10235SOL    HW131604   3.400   2.030   1.409
10235SOL    HW231605   3.501   2.080   1.291
10236SOL     OW31606   2.119   1.304   1.130
10236SOL    HW131607   2.147   1.308   1.034
10236SOL    HW231608   2.068   1.219   1.145
10237SOL     OW31609   0.489   4.893   6.037
10237SOL    HW131610   0.420   4.840   6.085
10237SOL    HW231611   0.454   4.920   5.947
10238SOL     OW31612   3.995   3.926   1.971
10238SOL    HW131613   4.008   3.946   2.068
10238SOL    HW231614   3.996   3.827   1.957
10239SOL     OW31615   2.063   4.045   5.835
10239SOL    HW131616   2.037   4.139   5.813
10239SOL    HW231617   2.160   4.043   5.860
10240SOL     OW31618   1.996   4.658   2.371
10240SOL    HW131619   1.982   4.756   2.357
10240SOL    HW231620   2.034   4.617   2.289
10241SOL     OW31621   0.232   6.351   3.371
10241SOL    HW131622   0.203   6.400   3.288
10241SOL    HW231623   0.151   6.328   3.425
10242SOL     OW31624   0.005   1.162   1.571
10242SOL    HW131625   0.079   1.141   1.636
10242SOL    HW231626   7.004   1.259   1.578
10243SOL     OW31627   2.477   4.533   2.647
10243SOL    HW131628   2.532   4.522   2.564
10243SOL    HW231629   2.527   4.589   2.713
10244SOL     OW31630   1.382   4.071   0.991
10244SOL    HW131631   1.318   4.015   1.043
10244SOL    HW231632   1.454   4.013   0.953
10245SOL     OW31633   3.732   3.655   1.526
10245SOL    HW131634   3.775   3.725   1.583
10245SOL    HW231635   3.710   3.576   1.583
10246SOL     OW31636   3.427   3.259   3.610
10246SOL    HW131637   3.347   3.316   3.628
10246SOL    HW231638   3.455   3.270   3.514
10247SOL     OW31639   6.815   4.327   6.400
10247SOL    HW131640   6.858   4.339   6.311
10247SOL    HW231641   6.769   4.239   6.404
10248SOL     OW31642   1.640   6.429   2.889
10248SOL    HW131643   1.598   6.484   2.817
10248SOL    HW231644   1.735   6.456   2.900
10249SOL     OW31645   2.594   6.169   6.569
10249SOL    HW131646   2.614   6.075   6.597
10249SOL    HW231647   2.660   6.199   6.500
10250SOL     OW31648   6.313   2.466   1.639
10250SOL    HW131649   6.384   2.478   1.707
10250SOL    HW231650   6.234   2.421   1.681
10251SOL     OW31651   2.176   1.210   5.136
10251SOL    HW131652   2.173   1.132   5.074
10251SOL    HW231653   2.252   1.270   5.111
10252SOL     OW31654   3.711   4.423   6.081
10252SOL    HW131655   3.653   4.345   6.106
10252SOL    HW231656   3.692   4.449   5.986
10253SOL     OW31657   2.943   0.001   0.591
10253SOL    HW131658   2.895   7.015   0.679
10253SOL    HW231659   2.880   7.004   0.516
10254SOL     OW31660   5.118   1.436   5.593
10254SOL    HW131661   5.021   1.435   5.616
10254SOL    HW231662   5.164   1.360   5.637
10255SOL     OW31663   2.503   6.017   1.609
10255SOL    HW131664   2.440   5.946   1.637
10255SOL    HW231665   2.464   6.107   1.628
10256SOL     OW31666   4.949   2.093   1.889
10256SOL    HW131667   4.929   2.049   1.802
10256SOL    HW231668   4.922   2.190   1.885
10257SOL     OW31669   1.529   4.603   4.640
10257SOL    HW131670   1.464   4.539   4.598
10257SOL    HW231671   1.556   4.672   4.573
10258SOL     OW31672   3.425   1.368   3.912
10258SOL    HW131673   3.341   1.418   3.934
10258SOL    HW231674   3.408   1.270   3.919
10259SOL     OW31675   1.270   5.199   3.095
10259SOL    HW131676   1.286   5.104   3.122
10259SOL    HW231677   1.199   5.202   3.025
10260SOL     OW31678   1.589   1.197   3.693
10260SOL    HW131679   1.584   1.268   3.623
10260SOL    HW231680   1.592   1.240   3.784
10261SOL     OW31681   6.955   4.910   2.443
10261SOL    HW131682   6.944   5.003   2.407
10261SOL    HW231683   6.865   4.867   2.453
10262SOL     OW31684   2.725   0.083   5.584
10262SOL    HW131685   2.763   0.031   5.507
10262SOL    HW231686   2.796   0.143   5.621
10263SOL     OW31687   5.893   0.094   6.975
10263SOL    HW131688   5.831   0.163   7.014
10263SOL    HW231689   5.858   0.003   6.998
10264SOL     OW31690   5.933   6.621   6.667
10264SOL    HW131691   5.985   6.571   6.735
10264SOL    HW231692   5.996   6.671   6.607
10265SOL     OW31693   2.784   2.933   1.442
10265SOL    HW131694   2.811   2.851   1.493
10265SOL    HW231695   2.701   2.971   1.484
10266SOL     OW31696   4.082   3.248   3.922
10266SOL    HW131697   4.055   3.316   3.990
10266SOL    HW231698   4.177   3.221   3.939
10267SOL     OW31699   5.835   2.855   0.086
10267SOL    HW131700   5.845   2.756   0.076
10267SOL    HW231701   5.910   2.891   0.141
10268SOL     OW31702   5.943   5.851   2.551
10268SOL    HW131703   5.920   5.859   2.648
10268SOL    HW231704   5.894   5.921   2.499
10269SOL     OW31705   0.216   3.625   6.832
10269SOL    HW131706   0.294   3.562   6.828
10269SOL    HW231707   0.215   3.670   6.921
10270SOL     OW31708   4.011   4.838   2.689
10270SOL    HW131709   4.019   4.845   2.590
10270SOL    HW231710   3.982   4.926   2.727
10271SOL     OW31711   3.623   2.639   6.586
10271SOL    HW131712   3.542   2.587   6.562
10271SOL    HW231713   3.697   2.576   6.612
10272SOL     OW31714   1.599   1.406   5.259
10272SOL    HW131715   1.505   1.397   5.225
10272SOL    HW231716   1.660   1.353   5.201
10273SOL     OW31717   2.733   5.337   2.738
10273SOL    HW131718   2.824   5.343   2.696
10273SOL    HW231719   2.744   5.324   2.837
10274SOL     OW31720   0.518   5.764   5.633
10274SOL    HW131721   0.514   5.771   5.533
10274SOL    HW231722   0.523   5.668   5.659
10275SOL     OW31723   0.385   6.611   2.527
10275SOL    HW131724   0.465   6.555   2.551
10275SOL    HW231725   0.356   6.591   2.434
10276SOL     OW31726   5.074   5.063   5.467
10276SOL    HW131727   4.983   5.091   5.496
10276SOL    HW231728   5.135   5.059   5.546
10277SOL     OW31729   1.125   5.762   4.110
10277SOL    HW131730   1.162   5.846   4.070
10277SOL    HW231731   1.152   5.683   4.054
10278SOL     OW31732   0.749   2.098   4.030
10278SOL    HW131733   0.771   2.180   3.979
10278SOL    HW231734   0.677   2.047   3.983
10279SOL     OW31735   1.839   5.189   3.883
10279SOL    HW131736   1.819   5.269   3.939
10279SOL    HW231737   1.839   5.107   3.941
10280SOL     OW31738   0.123   3.085   0.449
10280SOL    HW131739   0.171   3.005   0.486
10280SOL    HW231740   0.044   3.106   0.507
10281SOL     OW31741   5.641   1.500   3.090
10281SOL    HW131742   5.676   1.426   3.033
10281SOL    HW231743   5.597   1.569   3.033
10282SOL     OW31744   5.595   3.402   4.346
10282SOL    HW131745   5.689   3.403   4.380
10282SOL    HW231746   5.533   3.374   4.419
10283SOL     OW31747   1.397   2.910   1.073
10283SOL    HW131748   1.466   2.911   1.145
10283SOL    HW231749   1.325   2.844   1.096
10284SOL     OW31750   5.438   2.186   4.812
10284SOL    HW131751   5.382   2.227   4.884
10284SOL    HW231752   5.534   2.210   4.827
10285SOL     OW31753   5.479   0.068   2.426
10285SOL    HW131754   5.496   7.017   2.361
10285SOL    HW231755   5.381   0.087   2.429
10286SOL     OW31756   3.245   1.899   3.183
10286SOL    HW131757   3.239   1.828   3.112
10286SOL    HW231758   3.333   1.945   3.177
10287SOL     OW31759   2.011   6.478   1.575
10287SOL    HW131760   1.998   6.430   1.662
10287SOL    HW231761   2.105   6.510   1.568
10288SOL     OW31762   4.844   5.523   3.383
10288SOL    HW131763   4.807   5.507   3.474
10288SOL    HW231764   4.901   5.445   3.356
10289SOL     OW31765   2.568   6.252   7.003
10289SOL    HW131766   2.516   6.256   0.066
10289SOL    HW231767   2.513   6.291   6.929
10290SOL     OW31768   3.212   3.875   2.684
10290SOL    HW131769   3.260   3.835   2.606
10290SOL    HW231770   3.115   3.853   2.679
10291SOL     OW31771   3.878   1.533   2.871
10291SOL    HW131772   3.910   1.483   2.952
10291SOL    HW231773   3.934   1.615   2.859
10292SOL     OW31774   1.443   1.110   5.363
10292SOL    HW131775   1.374   1.109   5.291
10292SOL    HW231776   1.408   1.064   5.444
10293SOL     OW31777   2.029   3.878   2.412
10293SOL    HW131778   2.047   3.816   2.488
10293SOL    HW231779   2.018   3.971   2.447
10294SOL     OW31780   5.702   2.959   3.208
10294SOL    HW131781   5.608   2.977   3.178
10294SOL    HW231782   5.721   2.861   3.200
10295SOL     OW31783   0.255   4.315   5.451
10295SOL    HW131784   0.270   4.359   5.363
10295SOL    HW231785   0.195   4.235   5.439
10296SOL     OW31786   5.227   1.702   0.093
10296SOL    HW131787   5.282   1.744   0.021
10296SOL    HW231788   5.171   1.772   0.137
10297SOL     OW31789   1.819   0.118   6.411
10297SOL    HW131790   1.914   0.087   6.418
10297SOL    HW231791   1.786   0.143   6.502
10298SOL     OW31792   2.548   4.301   1.650
10298SOL    HW131793   2.510   4.338   1.566
10298SOL    HW231794   2.475   4.261   1.705
10299SOL     OW31795   4.767   4.513   2.916
10299SOL    HW131796   4.835   4.488   2.984
10299SOL    HW231797   4.766   4.613   2.905
10300SOL     OW31798   1.508   4.048   2.352
10300SOL    HW131799   1.545   4.141   2.364
10300SOL    HW231800   1.437   4.031   2.421
10301SOL     OW31801   5.563   2.476   4.315
10301SOL    HW131802   5.480   2.525   4.287
10301SOL    HW231803   5.543   2.423   4.397
10302SOL     OW31804   1.913   6.790   3.864
10302SOL    HW131805   1.843   6.719   3.874
10302SOL    HW231806   1.901   6.858   3.936
10303SOL     OW31807   1.803   6.064   2.905
10303SOL    HW131808   1.714   6.104   2.928
10303SOL    HW231809   1.869   6.136   2.886
10304SOL     OW31810   5.342   6.758   1.611
10304SOL    HW131811   5.266   6.761   1.546
10304SOL    HW231812   5.344   6.843   1.664
10305SOL     OW31813   1.136   4.598   6.683
10305SOL    HW131814   1.079   4.536   6.737
10305SOL    HW231815   1.190   4.656   6.745
10306SOL     OW31816   5.048   6.873   6.311
10306SOL    HW131817   4.953   6.842   6.317
10306SOL    HW231818   5.066   6.907   6.219
10307SOL     OW31819   2.948   2.168   5.374
10307SOL    HW131820   2.880   2.229   5.333
10307SOL    HW231821   2.911   2.127   5.457
10308SOL     OW31822   2.010   4.240   3.374
10308SOL    HW131823   2.064   4.193   3.303
10308SOL    HW231824   1.924   4.272   3.334
10309SOL     OW31825   7.019   1.296   5.751
10309SOL    HW131826   7.000   1.307   5.848
10309SOL    HW231827   6.942   1.250   5.707
10310SOL     OW31828   3.237   3.369   1.196
10310SOL    HW131829   3.294   3.417   1.129
10310SOL    HW231830   3.292   3.299   1.242
10311SOL     OW31831   6.799   6.117   0.564
10311SOL    HW131832   6.894   6.128   0.593
10311SOL    HW231833   6.783   6.022   0.536
10312SOL     OW31834   3.601   6.103   2.581
10312SOL    HW131835   3.564   6.010   2.574
10312SOL    HW231836   3.700   6.100   2.570
10313SOL     OW31837   4.601   6.646   1.832
10313SOL    HW131838   4.602   6.614   1.737
10313SOL    HW231839   4.693   6.638   1.871
10314SOL     OW31840   6.537   0.900   2.033
10314SOL    HW131841   6.559   0.803   2.025
10314SOL    HW231842   6.443   0.915   2.000
10315SOL     OW31843   4.999   5.976   5.635
10315SOL    HW131844   5.041   5.923   5.562
10315SOL    HW231845   5.026   6.072   5.627
10316SOL     OW31846   5.804   1.720   4.135
10316SOL    HW131847   5.786   1.785   4.209
10316SOL    HW231848   5.831   1.632   4.174
10317SOL     OW31849   4.810   5.970   4.375
10317SOL    HW131850   4.858   6.042   4.426
10317SOL    HW231851   4.866   5.940   4.298
10318SOL     OW31852   5.635   6.091   6.850
10318SOL    HW131853   5.569   6.149   6.803
10318SOL    HW231854   5.592   6.003   6.873
10319SOL     OW31855   1.348   2.634   5.745
10319SOL    HW131856   1.342   2.703   5.817
10319SOL    HW231857   1.271   2.571   5.753
10320SOL     OW31858   0.107   0.984   2.796
10320SOL    HW131859   0.069   0.981   2.704
10320SOL    HW231860   0.202   0.952   2.794
10321SOL     OW31861   4.114   1.831   1.775
10321SOL    HW131862   4.178   1.879   1.835
10321SOL    HW231863   4.127   1.732   1.784
10322SOL     OW31864   6.223   5.638   5.273
10322SOL    HW131865   6.141   5.683   5.308
10322SOL    HW231866   6.221   5.636   5.173
10323SOL     OW31867   5.984   2.920   5.527
10323SOL    HW131868   5.923   2.995   5.553
10323SOL    HW231869   5.976   2.902   5.429
10324SOL     OW31870   3.677   3.362   2.495
10324SOL    HW131871   3.627   3.448   2.498
10324SOL    HW231872   3.699   3.339   2.400
10325SOL     OW31873   0.249   3.975   2.176
10325SOL    HW131874   0.233   3.947   2.271
10325SOL    HW231875   0.236   4.074   2.168
10326SOL     OW31876   3.201   4.261   0.210
10326SOL    HW131877   3.143   4.187   0.242
10326SOL    HW231878   3.232   4.242   0.117
10327SOL     OW31879   2.416   1.525   1.461
10327SOL    HW131880   2.319   1.547   1.472
10327SOL    HW231881   2.433   1.434   1.498
10328SOL     OW31882   5.764   2.660   0.968
10328SOL    HW131883   5.764   2.696   0.875
10328SOL    HW231884   5.779   2.734   1.034
10329SOL     OW31885   3.603   0.160   3.965
10329SOL    HW131886   3.566   0.074   4.000
10329SOL    HW231887   3.530   0.228   3.962
10330SOL     OW31888   4.739   0.331   2.209
10330SOL    HW131889   4.777   0.312   2.299
10330SOL    HW231890   4.671   0.404   2.216
10331SOL     OW31891   6.866   1.053   5.476
10331SOL    HW131892   6.965   1.039   5.480
10331SOL    HW231893   6.824   0.979   5.425
10332SOL     OW31894   6.898   0.008   0.666
10332SOL    HW131895   6.811   7.013   0.712
10332SOL    HW231896   6.892   7.004   0.570
10333SOL     OW31897   6.499   4.625   4.409
10333SOL    HW131898   6.495   4.527   4.430
10333SOL    HW231899   6.432   4.674   4.464
10334SOL     OW31900   4.094   6.680   3.706
10334SOL    HW131901   4.160   6.650   3.774
10334SOL    HW231902   4.004   6.691   3.749
10335SOL     OW31903   2.865   4.447   0.024
10335SOL    HW131904   2.922   4.472   6.969
10335SOL    HW231905   2.874   4.349   0.042
10336SOL     OW31906   6.817   6.263   2.538
10336SOL    HW131907   6.893   6.200   2.556
10336SOL    HW231908   6.847   6.356   2.560
10337SOL     OW31909   6.863   6.381   6.099
10337SOL    HW131910   6.805   6.442   6.044
10337SOL    HW231911   6.805   6.313   6.144
10338SOL     OW31912   2.169   6.076   2.616
10338SOL    HW131913   2.178   6.057   2.518
10338SOL    HW231914   2.073   6.098   2.636
10339SOL     OW31915   3.454   4.505   0.080
10339SOL    HW131916   3.422   4.490   0.174
10339SOL    HW231917   3.385   4.555   0.028
10340SOL     OW31918   1.696   4.510   0.929
10340SOL    HW131919   1.790   4.519   0.963
10340SOL    HW231920   1.648   4.598   0.941
10341SOL     OW31921   1.930   3.355   1.682
10341SOL    HW131922   1.917   3.391   1.590
10341SOL    HW231923   2.006   3.403   1.726
10342SOL     OW31924   1.246   0.422   5.354
10342SOL    HW131925   1.249   0.395   5.258
10342SOL    HW231926   1.225   0.342   5.410
10343SOL     OW31927   3.408   5.975   6.739
10343SOL    HW131928   3.388   5.956   6.642
10343SOL    HW231929   3.335   5.935   6.795
10344SOL     OW31930   4.623   4.418   1.508
10344SOL    HW131931   4.654   4.513   1.519
10344SOL    HW231932   4.641   4.367   1.592
10345SOL     OW31933   1.968   1.264   6.694
10345SOL    HW131934   1.933   1.179   6.733
10345SOL    HW231935   1.895   1.313   6.647
10346SOL     OW31936   6.658   6.896   1.712
10346SOL    HW131937   6.675   6.803   1.678
10346SOL    HW231938   6.570   6.899   1.759
10347SOL     OW31939   4.791   2.187   2.823
10347SOL    HW131940   4.810   2.098   2.782
10347SOL    HW231941   4.790   2.179   2.922
10348SOL     OW31942   6.512   1.483   0.363
10348SOL    HW131943   6.415   1.467   0.344
10348SOL    HW231944   6.522   1.527   0.452
10349SOL     OW31945   6.941   0.768   0.990
10349SOL    HW131946   6.940   0.673   0.958
10349SOL    HW231947   6.916   0.770   1.087
10350SOL     OW31948   1.989   6.894   5.324
10350SOL    HW131949   2.077   6.912   5.368
10350SOL    HW231950   1.945   6.815   5.368
10351SOL     OW31951   4.874   5.416   6.330
10351SOL    HW131952   4.839   5.474   6.404
10351SOL    HW231953   4.817   5.428   6.249
10352SOL     OW31954   4.221   2.532   6.427
10352SOL    HW131955   4.251   2.610   6.482
10352SOL    HW231956   4.291   2.461   6.429
10353SOL     OW31957   0.090   2.740   6.007
10353SOL    HW131958   0.133   2.802   6.073
10353SOL    HW231959   0.126   2.647   6.020
10354SOL     OW31960   5.845   2.818   1.996
10354SOL    HW131961   5.791   2.883   1.943
10354SOL    HW231962   5.934   2.805   1.952
10355SOL     OW31963   1.823   0.211   1.681
10355SOL    HW131964   1.777   0.253   1.759
10355SOL    HW231965   1.763   0.144   1.639
10356SOL     OW31966   7.013   4.645   5.738
10356SOL    HW131967   6.999   4.741   5.713
10356SOL    HW231968   0.072   4.610   5.691
10357SOL     OW31969   2.741   3.285   5.992
10357SOL    HW131970   2.733   3.231   6.076
10357SOL    HW231971   2.676   3.360   5.994
10358SOL     OW31972   6.435   3.110   2.709
10358SOL    HW131973   6.509   3.174   2.687
10358SOL    HW231974   6.474   3.027   2.749
10359SOL     OW31975   6.705   1.744   1.602
10359SOL    HW131976   6.768   1.820   1.587
10359SOL    HW231977   6.685   1.700   1.514
10360SOL     OW31978   4.606   5.689   2.636
10360SOL    HW131979   4.508   5.703   2.621
10360SOL    HW231980   4.623   5.679   2.734
10361SOL     OW31981   3.103   0.287   2.859
10361SOL    HW131982   3.031   0.353   2.837
10361SOL    HW231983   3.191   0.322   2.829
10362SOL     OW31984   1.005   4.997   4.085
10362SOL    HW131985   1.042   5.072   4.031
10362SOL    HW231986   0.918   5.024   4.127
10363SOL     OW31987   4.395   2.168   0.932
10363SOL    HW131988   4.403   2.155   0.834
10363SOL    HW231989   4.300   2.156   0.960
10364SOL     OW31990   4.121   3.642   2.385
10364SOL    HW131991   4.028   3.636   2.349
10364SOL    HW231992   4.131   3.580   2.463
10365SOL     OW31993   5.091   4.233   5.671
10365SOL    HW131994   5.022   4.167   5.699
10365SOL    HW231995   5.090   4.244   5.572
10366SOL     OW31996   4.574   0.214   4.005
10366SOL    HW131997   4.650   0.234   4.067
10366SOL    HW231998   4.509   0.291   4.006
10367SOL     OW31999   6.915   1.422   1.863
10367SOL    HW132000   6.887   1.399   1.769
10367SOL    HW232001   6.950   1.339   1.908
10368SOL     OW32002   1.957   0.823   2.268
10368SOL    HW132003   1.899   0.880   2.327
10368SOL    HW232004   2.045   0.808   2.311
10369SOL     OW32005   4.019   1.323   5.418
10369SOL    HW132006   3.950   1.257   5.389
10369SOL    HW232007   3.997   1.412   5.380
10370SOL     OW32008   5.573   1.883   5.536
10370SOL    HW132009   5.591   1.948   5.609
10370SOL    HW232010   5.482   1.899   5.498
10371SOL     OW32011   1.863   6.054   4.150
10371SOL    HW132012   1.789   6.077   4.087
10371SOL    HW232013   1.835   6.075   4.243
10372SOL     OW32014   1.625   1.539   0.309
10372SOL    HW132015   1.698   1.504   0.250
10372SOL    HW232016   1.617   1.481   0.390
10373SOL     OW32017   2.037   6.656   4.323
10373SOL    HW132018   2.112   6.606   4.367
10373SOL    HW232019   2.029   6.626   4.227
10374SOL     OW32020   4.188   1.139   2.677
10374SOL    HW132021   4.264   1.126   2.614
10374SOL    HW232022   4.116   1.072   2.657
10375SOL     OW32023   3.099   1.404   6.441
10375SOL    HW132024   3.031   1.390   6.369
10375SOL    HW232025   3.078   1.489   6.491
10376SOL     OW32026   1.124   6.298   4.216
10376SOL    HW132027   1.099   6.391   4.187
10376SOL    HW232028   1.203   6.268   4.163
10377SOL     OW32029   6.776   1.439   3.805
10377SOL    HW132030   6.856   1.470   3.752
10377SOL    HW232031   6.780   1.479   3.897
10378SOL     OW32032   5.969   0.199   6.134
10378SOL    HW132033   6.034   0.163   6.200
10378SOL    HW232034   5.987   0.297   6.119
10379SOL     OW32035   3.044   6.443   4.843
10379SOL    HW132036   3.030   6.361   4.898
10379SOL    HW232037   2.960   6.466   4.794
10380SOL     OW32038   0.723   2.163   4.295
10380SOL    HW132039   0.744   2.129   4.203
10380SOL    HW232040   0.631   2.133   4.322
10381SOL     OW32041   4.393   4.449   0.337
10381SOL    HW132042   4.345   4.525   0.379
10381SOL    HW232043   4.349   4.363   0.363
10382SOL     OW32044   2.154   4.385   0.326
10382SOL    HW132045   2.179   4.301   0.278
10382SOL    HW232046   2.180   4.464   0.270
10383SOL     OW32047   6.728   3.889   0.730
10383SOL    HW132048   6.667   3.962   0.699
10383SOL    HW232049   6.676   3.821   0.782
10384SOL     OW32050   0.734   6.749   0.742
10384SOL    HW132051   0.749   6.837   0.787
10384SOL    HW232052   0.761   6.675   0.803
10385SOL     OW32053   3.076   6.524   5.477
10385SOL    HW132054   2.987   6.568   5.467
10385SOL    HW232055   3.148   6.593   5.482
10386SOL     OW32056   6.228   2.320   5.757
10386SOL    HW132057   6.224   2.413   5.793
10386SOL    HW232058   6.245   2.323   5.659
10387SOL     OW32059   4.540   1.940   2.880
10387SOL    HW132060   4.584   1.866   2.931
10387SOL    HW232061   4.452   1.962   2.922
10388SOL     OW32062   2.110   5.674   2.628
10388SOL    HW132063   2.027   5.729   2.624
10388SOL    HW232064   2.149   5.679   2.720
10389SOL     OW32065   0.151   6.850   1.828
10389SOL    HW132066   0.104   6.937   1.818
10389SOL    HW232067   0.188   6.821   1.740
10390SOL     OW32068   2.597   2.526   1.499
10390SOL    HW132069   2.621   2.537   1.595
10390SOL    HW232070   2.505   2.559   1.483
10391SOL     OW32071   1.061   5.782   4.580
10391SOL    HW132072   1.159   5.786   4.561
10391SOL    HW232073   1.022   5.874   4.577
10392SOL     OW32074   6.725   4.530   0.124
10392SOL    HW132075   6.664   4.608   0.120
10392SOL    HW232076   6.819   4.560   0.104
10393SOL     OW32077   2.277   2.363   2.436
10393SOL    HW132078   2.230   2.284   2.397
10393SOL    HW232079   2.230   2.392   2.519
10394SOL     OW32080   2.338   6.321   4.634
10394SOL    HW132081   2.436   6.316   4.616
10394SOL    HW232082   2.317   6.274   4.720
10395SOL     OW32083   6.888   0.722   3.504
10395SOL    HW132084   6.837   0.697   3.422
10395SOL    HW232085   6.825   0.729   3.581
10396SOL     OW32086   2.338   0.408   4.302
10396SOL    HW132087   2.343   0.465   4.220
10396SOL    HW232088   2.317   0.466   4.381
10397SOL     OW32089   3.125   1.993   3.718
10397SOL    HW132090   3.147   2.040   3.804
10397SOL    HW232091   3.049   1.930   3.733
10398SOL     OW32092   5.770   2.492   0.290
10398SOL    HW132093   5.851   2.472   0.234
10398SOL    HW232094   5.696   2.430   0.265
10399SOL     OW32095   4.279   1.744   4.482
10399SOL    HW132096   4.248   1.665   4.535
10399SOL    HW232097   4.201   1.801   4.458
10400SOL     OW32098   3.840   5.560   0.957
10400SOL    HW132099   3.914   5.627   0.945
10400SOL    HW232100   3.843   5.524   1.050
10401SOL     OW32101   0.395   0.380   2.934
10401SOL    HW132102   0.319   0.389   2.871
10401SOL    HW232103   0.361   0.357   3.025
10402SOL     OW32104   0.215   2.817   5.687
10402SOL    HW132105   0.196   2.743   5.623
10402SOL    HW232106   0.201   2.784   5.781
10403SOL     OW32107   5.307   1.568   2.763
10403SOL    HW132108   5.391   1.604   2.803
10403SOL    HW232109   5.327   1.485   2.711
10404SOL     OW32110   0.300   6.513   3.597
10404SOL    HW132111   0.317   6.455   3.517
10404SOL    HW232112   0.248   6.594   3.568
10405SOL     OW32113   1.332   5.540   4.671
10405SOL    HW132114   1.403   5.604   4.643
10405SOL    HW232115   1.335   5.527   4.770
10406SOL     OW32116   2.124   3.683   5.118
10406SOL    HW132117   2.160   3.592   5.137
10406SOL    HW232118   2.148   3.744   5.194
10407SOL     OW32119   1.676   0.690   6.827
10407SOL    HW132120   1.747   0.691   6.757
10407SOL    HW232121   1.714   0.723   6.914
10408SOL     OW32122   3.458   6.086   1.922
10408SOL    HW132123   3.464   6.012   1.855
10408SOL    HW232124   3.549   6.106   1.958
10409SOL     OW32125   0.286   3.900   0.878
10409SOL    HW132126   0.386   3.910   0.871
10409SOL    HW232127   0.245   3.991   0.886
10410SOL     OW32128   5.108   1.449   1.218
10410SOL    HW132129   5.169   1.369   1.220
10410SOL    HW232130   5.108   1.493   1.307
10411SOL     OW32131   3.614   5.469   4.555
10411SOL    HW132132   3.537   5.532   4.547
10411SOL    HW232133   3.627   5.444   4.651
10412SOL     OW32134   0.497   1.154   0.794
10412SOL    HW132135   0.594   1.179   0.794
10412SOL    HW232136   0.444   1.226   0.838
10413SOL     OW32137   0.276   2.136   0.848
10413SOL    HW132138   0.202   2.187   0.805
10413SOL    HW232139   0.278   2.157   0.946
10414SOL     OW32140   4.770   6.693   6.005
10414SOL    HW132141   4.712   6.726   5.931
10414SOL    HW232142   4.771   6.593   6.003
10415SOL     OW32143   2.542   4.482   3.666
10415SOL    HW132144   2.482   4.408   3.635
10415SOL    HW232145   2.560   4.545   3.591
10416SOL     OW32146   6.204   1.020   5.389
10416SOL    HW132147   6.152   1.009   5.305
10416SOL    HW232148   6.147   0.996   5.467
10417SOL     OW32149   4.721   4.119   4.118
10417SOL    HW132150   4.622   4.133   4.130
10417SOL    HW232151   4.765   4.207   4.099
10418SOL     OW32152   6.268   4.304   5.306
10418SOL    HW132153   6.291   4.233   5.240
10418SOL    HW232154   6.286   4.271   5.399
10419SOL     OW32155   3.143   0.546   5.467
10419SOL    HW132156   3.078   0.478   5.432
10419SOL    HW232157   3.218   0.498   5.514
10420SOL     OW32158   6.668   3.293   3.725
10420SOL    HW132159   6.739   3.321   3.789
10420SOL    HW232160   6.672   3.194   3.711
10421SOL     OW32161   1.539   3.148   4.696
10421SOL    HW132162   1.536   3.082   4.771
10421SOL    HW232163   1.629   3.192   4.694
10422SOL     OW32164   6.549   3.386   5.607
10422SOL    HW132165   6.570   3.288   5.612
10422SOL    HW232166   6.597   3.434   5.681
10423SOL     OW32167   4.160   4.925   5.138
10423SOL    HW132168   4.085   4.884   5.190
10423SOL    HW232169   4.154   4.897   5.042
10424SOL     OW32170   4.142   2.328   0.269
10424SOL    HW132171   4.093   2.289   0.346
10424SOL    HW232172   4.120   2.425   0.261
10425SOL     OW32173   0.315   6.133   1.674
10425SOL    HW132174   0.320   6.221   1.722
10425SOL    HW232175   0.350   6.061   1.733
10426SOL     OW32176   5.603   3.442   5.379
10426SOL    HW132177   5.574   3.537   5.391
10426SOL    HW232178   5.587   3.391   5.464
10427SOL     OW32179   5.176   6.729   6.754
10427SOL    HW132180   5.082   6.751   6.780
10427SOL    HW232181   5.227   6.813   6.738
10428SOL     OW32182   2.166   1.685   4.381
10428SOL    HW132183   2.193   1.588   4.377
10428SOL    HW232184   2.219   1.731   4.453
10429SOL     OW32185   0.867   3.719   3.352
10429SOL    HW132186   0.822   3.808   3.344
10429SOL    HW232187   0.799   3.648   3.367
10430SOL     OW32188   4.007   6.140   4.564
10430SOL    HW132189   3.995   6.108   4.470
10430SOL    HW232190   3.919   6.135   4.612
10431SOL     OW32191   2.852   1.035   4.523
10431SOL    HW132192   2.904   1.080   4.451
10431SOL    HW232193   2.839   0.939   4.500
10432SOL     OW32194   0.180   1.802   5.461
10432SOL    HW132195   0.102   1.852   5.423
10432SOL    HW232196   0.218   1.742   5.391
10433SOL     OW32197   6.878   6.394   2.128
10433SOL    HW132198   6.937   6.358   2.201
10433SOL    HW232199   6.861   6.323   2.061
10434SOL     OW32200   4.618   6.392   4.906
10434SOL    HW132201   4.549   6.323   4.882
10434SOL    HW232202   4.596   6.478   4.861
10435SOL     OW32203   1.660   2.212   5.990
10435SOL    HW132204   1.754   2.196   6.019
10435SOL    HW232205   1.609   2.253   6.066
10436SOL     OW32206   6.582   4.004   3.911
10436SOL    HW132207   6.608   4.036   4.002
10436SOL    HW232208   6.570   3.905   3.912
10437SOL     OW32209   5.577   4.990   5.251
10437SOL    HW132210   5.652   4.931   5.222
10437SOL    HW232211   5.510   4.936   5.303
10438SOL     OW32212   6.882   5.972   5.833
10438SOL    HW132213   6.894   5.894   5.894
10438SOL    HW232214   6.908   5.945   5.740
10439SOL     OW32215   5.750   1.529   5.324
10439SOL    HW132216   5.686   1.568   5.390
10439SOL    HW232217   5.711   1.444   5.287
10440SOL     OW32218   6.886   6.812   6.876
10440SOL    HW132219   6.953   6.755   6.923
10440SOL    HW232220   6.800   6.812   6.928
10441SOL     OW32221   2.970   1.241   1.151
10441SOL    HW132222   2.956   1.148   1.119
10441SOL    HW232223   3.051   1.245   1.210
10442SOL     OW32224   4.370   0.362   4.593
10442SOL    HW132225   4.320   0.281   4.623
10442SOL    HW232226   4.463   0.337   4.567
10443SOL     OW32227   6.539   2.509   2.736
10443SOL    HW132228   6.445   2.543   2.724
10443SOL    HW232229   6.563   2.513   2.833
10444SOL     OW32230   3.514   5.093   2.624
10444SOL    HW132231   3.582   5.028   2.658
10444SOL    HW232232   3.490   5.158   2.696
10445SOL     OW32233   0.487   3.921   2.617
10445SOL    HW132234   0.529   4.010   2.631
10445SOL    HW232235   0.472   3.877   2.706
10446SOL     OW32236   1.733   3.920   6.224
10446SOL    HW132237   1.755   4.018   6.231
10446SOL    HW232238   1.650   3.909   6.170
10447SOL     OW32239   6.639   0.339   2.230
10447SOL    HW132240   6.624   0.256   2.282
10447SOL    HW232241   6.683   0.408   2.288
10448SOL     OW32242   3.302   0.450   2.745
10448SOL    HW132243   3.400   0.437   2.729
10448SOL    HW232244   3.287   0.541   2.784
10449SOL     OW32245   2.911   5.568   6.534
10449SOL    HW132246   2.862   5.514   6.466
10449SOL    HW232247   2.898   5.666   6.514
10450SOL     OW32248   6.897   0.755   6.435
10450SOL    HW132249   6.799   0.776   6.437
10450SOL    HW232250   6.948   0.836   6.408
10451SOL     OW32251   3.289   6.916   2.800
10451SOL    HW132252   3.286   6.954   2.892
10451SOL    HW232253   3.383   6.892   2.777
10452SOL     OW32254   6.705   3.320   2.920
10452SOL    HW132255   6.787   3.374   2.937
10452SOL    HW232256   6.731   3.226   2.899
10453SOL     OW32257   4.523   6.230   2.434
10453SOL    HW132258   4.577   6.295   2.382
10453SOL    HW232259   4.583   6.165   2.480
10454SOL     OW32260   5.444   1.052   0.992
10454SOL    HW132261   5.419   1.033   1.087
10454SOL    HW232262   5.379   1.119   0.954
10455SOL     OW32263   0.155   5.695   4.107
10455SOL    HW132264   0.178   5.792   4.117
10455SOL    HW232265   0.177   5.665   4.015
10456SOL     OW32266   0.387   5.670   0.677
10456SOL    HW132267   0.430   5.643   0.590
10456SOL    HW232268   0.372   5.768   0.677
10457SOL     OW32269   3.996   2.892   0.489
10457SOL    HW132270   4.044   2.977   0.467
10457SOL    HW232271   4.062   2.821   0.513
10458SOL     OW32272   6.256   6.532   6.661
10458SOL    HW132273   6.302   6.549   6.574
10458SOL    HW232274   6.231   6.435   6.667
10459SOL     OW32275   4.887   5.118   1.053
10459SOL    HW132276   4.871   5.194   1.115
10459SOL    HW232277   4.811   5.053   1.061
10460SOL     OW32278   0.560   3.719   1.868
10460SOL    HW132279   0.596   3.640   1.918
10460SOL    HW232280   0.628   3.749   1.801
10461SOL     OW32281   6.379   4.883   5.557
10461SOL    HW132282   6.460   4.838   5.519
10461SOL    HW232283   6.397   4.981   5.567
10462SOL     OW32284   6.044   2.242   2.856
10462SOL    HW132285   6.104   2.274   2.782
10462SOL    HW232286   5.948   2.256   2.830
10463SOL     OW32287   4.466   2.178   5.845
10463SOL    HW132288   4.456   2.128   5.759
10463SOL    HW232289   4.405   2.138   5.914
10464SOL     OW32290   5.853   6.277   2.103
10464SOL    HW132291   5.953   6.285   2.101
10464SOL    HW232292   5.821   6.235   2.018
10465SOL     OW32293   4.737   5.621   1.707
10465SOL    HW132294   4.733   5.703   1.764
10465SOL    HW232295   4.759   5.647   1.613
10466SOL     OW32296   4.823   4.595   5.768
10466SOL    HW132297   4.883   4.650   5.826
10466SOL    HW232298   4.731   4.595   5.808
10467SOL     OW32299   1.747   2.189   0.530
10467SOL    HW132300   1.689   2.220   0.454
10467SOL    HW232301   1.783   2.269   0.578
10468SOL     OW32302   4.313   4.960   4.103
10468SOL    HW132303   4.386   4.903   4.142
10468SOL    HW232304   4.265   4.908   4.032
10469SOL     OW32305   4.462   4.128   5.818
10469SOL    HW132306   4.510   4.040   5.820
10469SOL    HW232307   4.529   4.202   5.814
10470SOL     OW32308   2.368   1.351   3.419
10470SOL    HW132309   2.376   1.324   3.323
10470SOL    HW232310   2.459   1.372   3.455
10471SOL     OW32311   2.554   0.591   0.729
10471SOL    HW132312   2.516   0.674   0.768
10471SOL    HW232313   2.496   0.513   0.751
10472SOL     OW32314   2.778   5.729   0.411
10472SOL    HW132315   2.855   5.698   0.356
10472SOL    HW232316   2.811   5.783   0.489
10473SOL     OW32317   5.794   6.894   5.785
10473SOL    HW132318   5.852   6.869   5.863
10473SOL    HW232319   5.787   6.994   5.780
10474SOL     OW32320   4.294   1.125   3.860
10474SOL    HW132321   4.236   1.149   3.782
10474SOL    HW232322   4.385   1.164   3.846
10475SOL     OW32323   3.313   6.832   2.133
10475SOL    HW132324   3.242   6.798   2.194
10475SOL    HW232325   3.271   6.881   2.056
10476SOL     OW32326   4.951   6.434   6.282
10476SOL    HW132327   4.970   6.499   6.209
10476SOL    HW232328   4.932   6.483   6.367
10477SOL     OW32329   6.714   0.987   4.916
10477SOL    HW132330   6.687   1.057   4.849
10477SOL    HW232331   6.632   0.949   4.958
10478SOL     OW32332   6.720   6.472   6.984
10478SOL    HW132333   6.692   6.561   7.018
10478SOL    HW232334   6.813   6.451   7.016
10479SOL     OW32335   6.463   1.182   2.115
10479SOL    HW132336   6.519   1.173   2.198
10479SOL    HW232337   6.443   1.091   2.079
10480SOL     OW32338   1.073   1.118   2.227
10480SOL    HW132339   1.074   1.028   2.184
10480SOL    HW232340   1.066   1.107   2.326
10481SOL     OW32341   1.850   6.573   2.916
10481SOL    HW132342   1.869   6.627   2.834
10481SOL    HW232343   1.909   6.604   2.991
10482SOL     OW32344   6.330   5.338   4.571
10482SOL    HW132345   6.282   5.328   4.484
10482SOL    HW232346   6.290   5.414   4.623
10483SOL     OW32347   5.008   5.596   0.436
10483SOL    HW132348   4.916   5.587   0.476
10483SOL    HW232349   5.008   5.559   0.343
10484SOL     OW32350   4.992   1.694   1.858
10484SOL    HW132351   5.065   1.763   1.864
10484SOL    HW232352   4.978   1.653   1.948
10485SOL     OW32353   2.902   4.374   0.521
10485SOL    HW132354   2.878   4.455   0.575
10485SOL    HW232355   2.989   4.390   0.475
10486SOL     OW32356   0.297   0.786   0.525
10486SOL    HW132357   0.233   0.780   0.448
10486SOL    HW232358   0.283   0.708   0.587
10487SOL     OW32359   4.828   0.172   1.627
10487SOL    HW132360   4.765   0.137   1.696
10487SOL    HW232361   4.816   0.271   1.619
10488SOL     OW32362   3.291   1.669   5.444
10488SOL    HW132363   3.343   1.734   5.499
10488SOL    HW232364   3.240   1.718   5.373
10489SOL     OW32365   0.477   6.800   5.230
10489SOL    HW132366   0.441   6.818   5.321
10489SOL    HW232367   0.466   6.882   5.173
10490SOL     OW32368   6.102   1.281   1.252
10490SOL    HW132369   6.137   1.200   1.204
10490SOL    HW232370   6.177   1.346   1.267
10491SOL     OW32371   1.491   3.551   6.972
10491SOL    HW132372   1.391   3.556   6.978
10491SOL    HW232373   1.519   3.554   6.877
10492SOL     OW32374   5.862   4.184   5.334
10492SOL    HW132375   5.888   4.254   5.401
10492SOL    HW232376   5.823   4.105   5.382
10493SOL     OW32377   3.518   0.646   1.676
10493SOL    HW132378   3.555   0.692   1.757
10493SOL    HW232379   3.590   0.591   1.634
10494SOL     OW32380   5.312   3.744   5.848
10494SOL    HW132381   5.261   3.823   5.815
10494SOL    HW232382   5.395   3.775   5.895
10495SOL     OW32383   2.546   6.937   0.079
10495SOL    HW132384   2.474   6.943   0.010
10495SOL    HW232385   2.507   6.907   0.166
10496SOL     OW32386   0.195   4.432   6.463
10496SOL    HW132387   0.265   4.412   6.531
10496SOL    HW232388   0.104   4.431   6.506
10497SOL     OW32389   2.273   6.848   2.273
10497SOL    HW132390   2.344   6.911   2.243
10497SOL    HW232391   2.278   6.764   2.219
10498SOL     OW32392   3.140   5.708   1.465
10498SOL    HW132393   3.157   5.666   1.554
10498SOL    HW232394   3.108   5.637   1.401
10499SOL     OW32395   3.519   6.906   2.548
10499SOL    HW132396   3.584   6.891   2.622
10499SOL    HW232397   3.569   6.927   2.464
10500SOL     OW32398   0.024   0.978   6.390
10500SOL    HW132399   0.079   1.025   6.458
10500SOL    HW232400   0.048   1.012   6.299
10501SOL     OW32401   2.431   5.706   3.053
10501SOL    HW132402   2.410   5.684   2.958
10501SOL    HW232403   2.346   5.726   3.103
10502SOL     OW32404   2.805   0.473   0.947
10502SOL    HW132405   2.803   0.567   0.915
10502SOL    HW232406   2.800   0.411   0.869
10503SOL     OW32407   3.816   2.781   0.644
10503SOL    HW132408   3.871   2.821   0.571
10503SOL    HW232409   3.749   2.718   0.606
10504SOL     OW32410   2.010   1.667   6.784
10504SOL    HW132411   1.920   1.707   6.764
10504SOL    HW232412   2.061   1.657   6.699
10505SOL     OW32413   5.139   6.175   0.578
10505SOL    HW132414   5.156   6.145   0.672
10505SOL    HW232415   5.042   6.191   0.565
10506SOL     OW32416   6.937   5.342   0.016
10506SOL    HW132417   6.986   5.426   7.015
10506SOL    HW232418   6.974   5.304   0.100
10507SOL     OW32419   2.293   0.133   0.060
10507SOL    HW132420   2.377   0.188   0.059
10507SOL    HW232421   2.313   0.042   0.024
10508SOL     OW32422   6.330   6.666   4.487
10508SOL    HW132423   6.349   6.626   4.576
10508SOL    HW232424   6.232   6.683   4.479
10509SOL     OW32425   0.667   6.712   4.686
10509SOL    HW132426   0.655   6.779   4.612
10509SOL    HW232427   0.750   6.660   4.671
10510SOL     OW32428   4.858   6.124   6.465
10510SOL    HW132429   4.842   6.100   6.369
10510SOL    HW232430   4.829   6.219   6.481
10511SOL     OW32431   4.522   1.645   1.875
10511SOL    HW132432   4.556   1.554   1.850
10511SOL    HW232433   4.448   1.636   1.941
10512SOL     OW32434   3.875   6.968   5.417
10512SOL    HW132435   3.915   6.879   5.440
10512SOL    HW232436   3.816   6.999   5.492
10513SOL     OW32437   6.621   2.960   4.260
10513SOL    HW132438   6.537   3.005   4.228
10513SOL    HW232439   6.598   2.893   4.330
10514SOL     OW32440   6.912   3.748   0.326
10514SOL    HW132441   6.959   3.660   0.332
10514SOL    HW232442   6.949   3.800   0.249
10515SOL     OW32443   0.622   3.174   2.817
10515SOL    HW132444   0.602   3.272   2.819
10515SOL    HW232445   0.704   3.159   2.760
10516SOL     OW32446   3.843   1.103   0.294
10516SOL    HW132447   3.869   1.012   0.327
10516SOL    HW232448   3.918   1.141   0.239
10517SOL     OW32449   0.216   2.812   2.399
10517SOL    HW132450   0.263   2.725   2.415
10517SOL    HW232451   0.269   2.886   2.441
10518SOL     OW32452   1.309   5.245   6.749
10518SOL    HW132453   1.344   5.215   6.660
10518SOL    HW232454   1.240   5.315   6.736
10519SOL     OW32455   2.158   3.201   6.879
10519SOL    HW132456   2.166   3.283   6.936
10519SOL    HW232457   2.250   3.168   6.856
10520SOL     OW32458   1.058   2.631   6.797
10520SOL    HW132459   1.135   2.576   6.766
10520SOL    HW232460   1.088   2.691   6.871
10521SOL     OW32461   5.545   6.029   2.062
10521SOL    HW132462   5.548   6.061   2.157
10521SOL    HW232463   5.634   6.046   2.019
10522SOL     OW32464   6.237   0.396   6.273
10522SOL    HW132465   6.165   0.418   6.207
10522SOL    HW232466   6.285   0.480   6.299
10523SOL     OW32467   0.668   4.733   4.069
10523SOL    HW132468   0.628   4.643   4.087
10523SOL    HW232469   0.732   4.727   3.992
10524SOL     OW32470   1.614   0.620   4.663
10524SOL    HW132471   1.665   0.643   4.745
10524SOL    HW232472   1.605   0.701   4.605
10525SOL     OW32473   3.169   6.799   5.994
10525SOL    HW132474   3.137   6.775   6.085
10525SOL    HW232475   3.245   6.864   6.002
10526SOL     OW32476   0.811   6.986   3.649
10526SOL    HW132477   0.870   6.938   3.714
10526SOL    HW232478   0.849   6.978   3.557
10527SOL     OW32479   6.341   1.942   4.796
10527SOL    HW132480   6.285   2.020   4.768
10527SOL    HW232481   6.438   1.964   4.783
10528SOL     OW32482   1.952   3.494   6.105
10528SOL    HW132483   1.987   3.573   6.055
10528SOL    HW232484   2.024   3.456   6.163
10529SOL     OW32485   2.256   5.854   4.217
10529SOL    HW132486   2.342   5.802   4.208
10529SOL    HW232487   2.229   5.856   4.313
10530SOL     OW32488   2.134   0.566   6.716
10530SOL    HW132489   2.115   0.487   6.658
10530SOL    HW232490   2.233   0.580   6.722
10531SOL     OW32491   1.214   3.226   3.860
10531SOL    HW132492   1.244   3.293   3.927
10531SOL    HW232493   1.114   3.215   3.865
10532SOL     OW32494   1.179   4.659   6.207
10532SOL    HW132495   1.185   4.698   6.115
10532SOL    HW232496   1.269   4.662   6.251
10533SOL     OW32497   2.713   1.215   5.032
10533SOL    HW132498   2.708   1.124   4.991
10533SOL    HW232499   2.709   1.284   4.960
10534SOL     OW32500   5.898   5.790   1.586
10534SOL    HW132501   5.997   5.780   1.589
10534SOL    HW232502   5.875   5.886   1.567
10535SOL     OW32503   0.748   1.833   1.314
10535SOL    HW132504   0.699   1.868   1.234
10535SOL    HW232505   0.705   1.869   1.397
10536SOL     OW32506   3.762   0.730   3.069
10536SOL    HW132507   3.802   0.709   3.159
10536SOL    HW232508   3.718   0.820   3.072
10537SOL     OW32509   3.799   5.365   4.397
10537SOL    HW132510   3.754   5.288   4.353
10537SOL    HW232511   3.734   5.413   4.455
10538SOL     OW32512   5.298   2.659   0.577
10538SOL    HW132513   5.205   2.684   0.605
10538SOL    HW232514   5.318   2.566   0.607
10539SOL     OW32515   0.272   3.695   0.062
10539SOL    HW132516   0.366   3.710   0.092
10539SOL    HW232517   0.213   3.764   0.103
10540SOL     OW32518   1.457   3.024   4.949
10540SOL    HW132519   1.441   2.936   4.994
10540SOL    HW232520   1.539   3.066   4.988
10541SOL     OW32521   4.020   3.902   2.243
10541SOL    HW132522   4.082   3.850   2.302
10541SOL    HW232523   3.941   3.931   2.296
10542SOL     OW32524   6.810   0.733   5.695
10542SOL    HW132525   6.762   0.748   5.782
10542SOL    HW232526   6.893   0.790   5.693
10543SOL     OW32527   0.473   1.109   5.343
10543SOL    HW132528   0.445   1.092   5.437
10543SOL    HW232529   0.405   1.167   5.297
10544SOL     OW32530   2.016   6.758   2.017
10544SOL    HW132531   1.953   6.702   2.071
10544SOL    HW232532   2.108   6.721   2.024
10545SOL     OW32533   6.056   1.200   2.942
10545SOL    HW132534   5.959   1.199   2.968
10545SOL    HW232535   6.074   1.273   2.877
10546SOL     OW32536   1.417   0.889   6.744
10546SOL    HW132537   1.387   0.846   6.659
10546SOL    HW232538   1.341   0.940   6.784
10547SOL     OW32539   5.519   2.559   2.246
10547SOL    HW132540   5.592   2.495   2.224
10547SOL    HW232541   5.546   2.651   2.218
10548SOL     OW32542   5.303   4.342   4.827
10548SOL    HW132543   5.382   4.344   4.888
10548SOL    HW232544   5.258   4.253   4.834
10549SOL     OW32545   6.870   0.062   1.658
10549SOL    HW132546   6.802   0.001   1.700
10549SOL    HW232547   6.887   0.033   1.564
10550SOL     OW32548   4.185   6.296   4.711
10550SOL    HW132549   4.166   6.392   4.688
10550SOL    HW232550   4.119   6.237   4.666
10551SOL     OW32551   1.941   2.763   6.735
10551SOL    HW132552   1.894   2.724   6.814
10551SOL    HW232553   1.873   2.804   6.673
10552SOL     OW32554   3.352   1.441   6.325
10552SOL    HW132555   3.383   1.460   6.419
10552SOL    HW232556   3.254   1.420   6.325
10553SOL     OW32557   0.610   5.009   1.438
10553SOL    HW132558   0.520   5.038   1.470
10553SOL    HW232559   0.652   4.949   1.506
10554SOL     OW32560   5.159   5.172   0.185
10554SOL    HW132561   5.098   5.098   0.157
10554SOL    HW232562   5.105   5.249   0.218
10555SOL     OW32563   1.948   3.511   0.683
10555SOL    HW132564   1.889   3.438   0.649
10555SOL    HW232565   2.033   3.513   0.629
10556SOL     OW32566   2.228   2.403   4.869
10556SOL    HW132567   2.315   2.452   4.869
10556SOL    HW232568   2.210   2.368   4.961
10557SOL     OW32569   2.476   2.133   3.157
10557SOL    HW132570   2.481   2.135   3.257
10557SOL    HW232571   2.485   2.227   3.122
10558SOL     OW32572   4.044   0.691   3.536
10558SOL    HW132573   4.051   0.774   3.591
10558SOL    HW232574   4.014   0.615   3.595
10559SOL     OW32575   4.685   0.446   1.164
10559SOL    HW132576   4.719   0.476   1.253
10559SOL    HW232577   4.604   0.499   1.140
10560SOL     OW32578   3.473   5.987   3.674
10560SOL    HW132579   3.410   6.064   3.664
10560SOL    HW232580   3.566   6.016   3.652
10561SOL     OW32581   3.233   4.614   1.117
10561SOL    HW132582   3.138   4.611   1.087
10561SOL    HW232583   3.271   4.521   1.118
10562SOL     OW32584   4.579   5.877   0.211
10562SOL    HW132585   4.516   5.913   0.143
10562SOL    HW232586   4.639   5.950   0.244
10563SOL     OW32587   0.393   1.510   3.988
10563SOL    HW132588   0.376   1.570   4.066
10563SOL    HW232589   0.362   1.417   4.010
10564SOL     OW32590   5.753   6.607   2.008
10564SOL    HW132591   5.785   6.696   1.975
10564SOL    HW232592   5.832   6.547   2.022
10565SOL     OW32593   6.724   0.464   6.410
10565SOL    HW132594   6.800   0.403   6.433
10565SOL    HW232595   6.703   0.456   6.313
10566SOL     OW32596   4.126   2.609   0.231
10566SOL    HW132597   4.080   2.643   0.148
10566SOL    HW232598   4.224   2.626   0.224
10567SOL     OW32599   2.610   1.935   4.060
10567SOL    HW132600   2.667   1.853   4.059
10567SOL    HW232601   2.611   1.975   4.151
10568SOL     OW32602   6.282   2.114   0.930
10568SOL    HW132603   6.328   2.159   1.007
10568SOL    HW232604   6.184   2.138   0.931
10569SOL     OW32605   5.831   2.424   1.798
10569SOL    HW132606   5.804   2.510   1.755
10569SOL    HW232607   5.919   2.394   1.762
10570SOL     OW32608   1.746   5.112   3.445
10570SOL    HW132609   1.797   5.165   3.513
10570SOL    HW232610   1.653   5.147   3.438
10571SOL     OW32611   6.975   5.356   4.634
10571SOL    HW132612   6.917   5.284   4.672
10571SOL    HW232613   0.048   5.327   4.639
10572SOL     OW32614   0.005   4.327   3.797
10572SOL    HW132615   6.993   4.322   3.704
10572SOL    HW232616   6.977   4.264   3.855
10573SOL     OW32617   4.339   0.397   5.200
10573SOL    HW132618   4.350   0.302   5.230
10573SOL    HW232619   4.282   0.446   5.265
10574SOL     OW32620   1.212   1.621   3.976
10574SOL    HW132621   1.253   1.710   3.998
10574SOL    HW232622   1.238   1.596   3.883
10575SOL     OW32623   0.060   1.441   2.920
10575SOL    HW132624   0.047   1.346   2.947
10575SOL    HW232625   0.076   1.445   2.821
10576SOL     OW32626   0.277   5.637   5.444
10576SOL    HW132627   0.276   5.544   5.480
10576SOL    HW232628   0.371   5.671   5.442
10577SOL     OW32629   1.839   2.676   6.955
10577SOL    HW132630   1.740   2.675   6.966
10577SOL    HW232631   1.884   2.674   0.021
10578SOL     OW32632   5.774   0.743   3.131
10578SOL    HW132633   5.802   0.811   3.064
10578SOL    HW232634   5.828   0.755   3.215
10579SOL     OW32635   4.679   1.953   1.186
10579SOL    HW132636   4.664   1.935   1.283
10579SOL    HW232637   4.654   2.048   1.166
10580SOL     OW32638   6.759   0.324   6.970
10580SOL    HW132639   6.671   0.275   6.967
10580SOL    HW232640   6.745   0.419   6.944
10581SOL     OW32641   0.092   0.320   3.132
10581SOL    HW132642   0.191   0.323   3.150
10581SOL    HW232643   0.045   0.386   3.189
10582SOL     OW32644   4.940   5.127   6.931
10582SOL    HW132645   4.995   5.201   6.892
10582SOL    HW232646   5.000   5.051   6.958
10583SOL     OW32647   3.729   1.431   5.240
10583SOL    HW132648   3.741   1.396   5.147
10583SOL    HW232649   3.817   1.458   5.277
10584SOL     OW32650   6.441   6.132   1.615
10584SOL    HW132651   6.385   6.049   1.615
10584SOL    HW232652   6.440   6.172   1.523
10585SOL     OW32653   2.165   2.975   5.598
10585SOL    HW132654   2.168   2.942   5.693
10585SOL    HW232655   2.107   2.915   5.544
10586SOL     OW32656   0.635   4.782   4.401
10586SOL    HW132657   0.650   4.878   4.426
10586SOL    HW232658   0.704   4.755   4.333
10587SOL     OW32659   5.836   4.148   0.097
10587SOL    HW132660   5.876   4.149   0.189
10587SOL    HW232661   5.902   4.109   0.032
10588SOL     OW32662   0.145   3.711   3.237
10588SOL    HW132663   0.086   3.699   3.158
10588SOL    HW232664   0.089   3.733   3.317
10589SOL     OW32665   6.391   1.383   4.648
10589SOL    HW132666   6.313   1.320   4.651
10589SOL    HW232667   6.430   1.392   4.740
10590SOL     OW32668   1.048   0.449   1.549
10590SOL    HW132669   0.988   0.370   1.541
10590SOL    HW232670   1.131   0.424   1.599
10591SOL     OW32671   0.965   1.648   6.132
10591SOL    HW132672   1.015   1.680   6.052
10591SOL    HW232673   0.920   1.561   6.110
10592SOL     OW32674   6.362   3.210   0.962
10592SOL    HW132675   6.399   3.267   0.889
10592SOL    HW232676   6.281   3.162   0.929
10593SOL     OW32677   1.908   5.204   0.322
10593SOL    HW132678   1.966   5.184   0.401
10593SOL    HW232679   1.834   5.137   0.318
10594SOL     OW32680   5.292   0.726   2.198
10594SOL    HW132681   5.389   0.745   2.182
10594SOL    HW232682   5.240   0.749   2.116
10595SOL     OW32683   3.868   6.873   5.100
10595SOL    HW132684   3.849   6.813   5.178
10595SOL    HW232685   3.955   6.921   5.115
10596SOL     OW32686   4.747   0.104   7.022
10596SOL    HW132687   4.775   0.008   0.007
10596SOL    HW232688   4.817   0.156   6.972
10597SOL     OW32689   3.247   1.397   4.887
10597SOL    HW132690   3.210   1.449   4.811
10597SOL    HW232691   3.252   1.456   4.968
10598SOL     OW32692   3.003   2.492   6.841
10598SOL    HW132693   2.966   2.522   6.754
10598SOL    HW232694   2.987   2.563   6.910
10599SOL     OW32695   4.829   2.640   6.445
10599SOL    HW132696   4.895   2.695   6.392
10599SOL    HW232697   4.771   2.700   6.499
10600SOL     OW32698   1.927   2.643   0.470
10600SOL    HW132699   1.877   2.566   0.509
10600SOL    HW232700   2.026   2.630   0.483
10601SOL     OW32701   1.375   4.162   6.394
10601SOL    HW132702   1.433   4.192   6.319
10601SOL    HW232703   1.430   4.150   6.476
10602SOL     OW32704   5.049   2.204   3.535
10602SOL    HW132705   4.956   2.167   3.542
10602SOL    HW232706   5.076   2.207   3.439
10603SOL     OW32707   2.309   5.483   3.997
10603SOL    HW132708   2.237   5.483   3.927
10603SOL    HW232709   2.270   5.510   4.085
10604SOL     OW32710   5.848   3.958   5.509
10604SOL    HW132711   5.855   3.876   5.452
10604SOL    HW232712   5.767   3.950   5.568
10605SOL     OW32713   1.576   4.763   0.941
10605SOL    HW132714   1.647   4.812   0.891
10605SOL    HW232715   1.507   4.828   0.973
10606SOL     OW32716   6.652   0.087   1.997
10606SOL    HW132717   6.736   0.126   2.034
10606SOL    HW232718   6.659   7.010   1.997
10607SOL     OW32719   4.029   4.744   6.370
10607SOL    HW132720   4.038   4.752   6.270
10607SOL    HW232721   4.065   4.655   6.399
10608SOL     OW32722   5.029   2.028   5.932
10608SOL    HW132723   5.028   2.088   6.011
10608SOL    HW232724   4.964   2.062   5.863
10609SOL     OW32725   3.003   6.904   1.671
10609SOL    HW132726   2.997   6.805   1.685
10609SOL    HW232727   3.019   6.923   1.574
10610SOL     OW32728   1.258   3.225   6.051
10610SOL    HW132729   1.182   3.227   5.986
10610SOL    HW232730   1.251   3.144   6.109
10611SOL     OW32731   4.153   3.736   5.892
10611SOL    HW132732   4.149   3.806   5.962
10611SOL    HW232733   4.200   3.772   5.811
10612SOL     OW32734   2.958   0.633   5.659
10612SOL    HW132735   3.044   0.631   5.608
10612SOL    HW232736   2.900   0.558   5.628
10613SOL     OW32737   6.451   0.133   5.513
10613SOL    HW132738   6.418   0.215   5.559
10613SOL    HW232739   6.376   0.090   5.463
10614SOL     OW32740   6.570   2.497   4.470
10614SOL    HW132741   6.477   2.532   4.466
10614SOL    HW232742   6.576   2.412   4.417
10615SOL     OW32743   3.197   6.270   5.454
10615SOL    HW132744   3.137   6.348   5.474
10615SOL    HW232745   3.272   6.268   5.520
10616SOL     OW32746   2.589   6.549   1.118
10616SOL    HW132747   2.539   6.493   1.185
10616SOL    HW232748   2.572   6.646   1.137
10617SOL     OW32749   2.201   2.378   0.442
10617SOL    HW132750   2.207   2.442   0.366
10617SOL    HW232751   2.162   2.291   0.410
10618SOL     OW32752   6.460   3.582   6.419
10618SOL    HW132753   6.424   3.659   6.366
10618SOL    HW232754   6.383   3.534   6.464
10619SOL     OW32755   6.584   3.905   2.590
10619SOL    HW132756   6.659   3.904   2.657
10619SOL    HW232757   6.622   3.894   2.498
10620SOL     OW32758   1.714   5.220   5.635
10620SOL    HW132759   1.744   5.193   5.543
10620SOL    HW232760   1.614   5.212   5.640
10621SOL     OW32761   1.118   6.522   1.485
10621SOL    HW132762   1.120   6.606   1.431
10621SOL    HW232763   1.178   6.454   1.443
10622SOL     OW32764   4.926   0.822   1.181
10622SOL    HW132765   4.975   0.735   1.175
10622SOL    HW232766   4.846   0.811   1.240
10623SOL     OW32767   0.436   4.607   4.284
10623SOL    HW132768   0.362   4.649   4.231
10623SOL    HW232769   0.483   4.677   4.337
10624SOL     OW32770   0.657   1.787   4.417
10624SOL    HW132771   0.670   1.862   4.481
10624SOL    HW232772   0.727   1.792   4.345
10625SOL     OW32773   0.647   4.403   0.013
10625SOL    HW132774   0.697   4.333   6.986
10625SOL    HW232775   0.553   4.372   0.031
10626SOL     OW32776   2.340   3.048   0.943
10626SOL    HW132777   2.425   3.100   0.951
10626SOL    HW232778   2.354   2.970   0.881
10627SOL     OW32779   5.568   6.023   1.182
10627SOL    HW132780   5.622   6.090   1.232
10627SOL    HW232781   5.628   5.952   1.144
10628SOL     OW32782   4.946   5.747   6.989
10628SOL    HW132783   4.916   5.665   0.014
10628SOL    HW232784   4.867   5.799   6.957
10629SOL     OW32785   2.812   4.734   4.772
10629SOL    HW132786   2.730   4.708   4.721
10629SOL    HW232787   2.824   4.672   4.849
10630SOL     OW32788   6.599   1.419   4.162
10630SOL    HW132789   6.668   1.490   4.172
10630SOL    HW232790   6.572   1.385   4.252
10631SOL     OW32791   2.292   5.316   5.007
10631SOL    HW132792   2.366   5.267   4.962
10631SOL    HW232793   2.211   5.258   5.011
10632SOL     OW32794   5.587   1.564   3.820
10632SOL    HW132795   5.636   1.479   3.840
10632SOL    HW232796   5.591   1.624   3.900
10633SOL     OW32797   2.617   4.059   1.460
10633SOL    HW132798   2.518   4.075   1.452
10633SOL    HW232799   2.654   4.114   1.534
10634SOL     OW32800   2.966   5.601   1.244
10634SOL    HW132801   2.980   5.514   1.291
10634SOL    HW232802   2.882   5.597   1.190
10635SOL     OW32803   3.698   1.599   0.912
10635SOL    HW132804   3.657   1.508   0.906
10635SOL    HW232805   3.781   1.594   0.969
10636SOL     OW32806   1.193   1.288   1.469
10636SOL    HW132807   1.093   1.283   1.472
10636SOL    HW232808   1.224   1.282   1.375
10637SOL     OW32809   3.020   4.928   5.561
10637SOL    HW132810   2.935   4.892   5.598
10637SOL    HW232811   3.023   4.914   5.462
10638SOL     OW32812   0.244   5.431   3.066
10638SOL    HW132813   0.255   5.440   3.165
10638SOL    HW232814   0.206   5.516   3.029
10639SOL     OW32815   0.855   3.294   2.727
10639SOL    HW132816   0.855   3.385   2.687
10639SOL    HW232817   0.849   3.302   2.827
10640SOL     OW32818   3.824   0.080   5.692
10640SOL    HW132819   3.855   0.123   5.777
10640SOL    HW232820   3.746   0.131   5.655
10641SOL     OW32821   3.864   2.376   0.223
10641SOL    HW132822   3.817   2.422   0.148
10641SOL    HW232823   3.825   2.406   0.310
10642SOL     OW32824   6.492   2.894   1.679
10642SOL    HW132825   6.500   2.839   1.596
10642SOL    HW232826   6.475   2.989   1.655
10643SOL     OW32827   2.063   4.587   5.241
10643SOL    HW132828   2.160   4.601   5.220
10643SOL    HW232829   2.018   4.676   5.249
10644SOL     OW32830   5.821   2.223   3.191
10644SOL    HW132831   5.910   2.179   3.202
10644SOL    HW232832   5.822   2.281   3.110
10645SOL     OW32833   0.580   1.729   4.976
10645SOL    HW132834   0.551   1.782   4.897
10645SOL    HW232835   0.536   1.639   4.974
10646SOL     OW32836   0.425   1.479   6.198
10646SOL    HW132837   0.351   1.437   6.251
10646SOL    HW232838   0.442   1.572   6.232
10647SOL     OW32839   3.555   5.508   0.059
10647SOL    HW132840   3.597   5.503   0.150
10647SOL    HW232841   3.465   5.465   0.062
10648SOL     OW32842   4.840   4.352   6.047
10648SOL    HW132843   4.821   4.275   6.107
10648SOL    HW232844   4.755   4.396   6.021
10649SOL     OW32845   0.573   4.268   3.152
10649SOL    HW132846   0.663   4.306   3.173
10649SOL    HW232847   0.534   4.316   3.073
10650SOL     OW32848   1.111   6.733   2.762
10650SOL    HW132849   1.020   6.775   2.759
10650SOL    HW232850   1.117   6.661   2.693
10651SOL     OW32851   4.550   6.932   6.000
10651SOL    HW132852   4.604   7.013   6.021
10651SOL    HW232853   4.570   6.902   5.907
10652SOL     OW32854   3.689   0.158   6.484
10652SOL    HW132855   3.629   0.204   6.419
10652SOL    HW232856   3.752   0.098   6.435
10653SOL     OW32857   5.684   4.219   4.251
10653SOL    HW132858   5.668   4.150   4.320
10653SOL    HW232859   5.710   4.175   4.165
10654SOL     OW32860   4.441   1.482   1.232
10654SOL    HW132861   4.449   1.572   1.190
10654SOL    HW232862   4.349   1.445   1.216
10655SOL     OW32863   2.896   5.317   1.302
10655SOL    HW132864   2.919   5.238   1.359
10655SOL    HW232865   2.797   5.330   1.303
10656SOL     OW32866   6.009   2.536   0.776
10656SOL    HW132867   5.914   2.556   0.751
10656SOL    HW232868   6.035   2.592   0.855
10657SOL     OW32869   6.714   0.165   6.575
10657SOL    HW132870   6.757   0.104   6.641
10657SOL    HW232871   6.667   0.110   6.505
10658SOL     OW32872   6.204   3.634   4.386
10658SOL    HW132873   6.217   3.722   4.431
10658SOL    HW232874   6.240   3.638   4.293
10659SOL     OW32875   0.057   6.344   0.874
10659SOL    HW132876   0.026   6.255   0.909
10659SOL    HW232877   0.022   6.357   0.781
10660SOL     OW32878   5.191   4.210   6.469
10660SOL    HW132879   5.115   4.146   6.474
10660SOL    HW232880   5.193   4.254   6.380
10661SOL     OW32881   0.007   6.343   2.786
10661SOL    HW132882   0.082   6.340   2.720
10661SOL    HW232883   0.006   6.432   2.831
10662SOL     OW32884   5.686   0.606   2.008
10662SOL    HW132885   5.751   0.567   2.073
10662SOL    HW232886   5.617   0.537   1.984
10663SOL     OW32887   0.381   0.066   1.857
10663SOL    HW132888   0.407   0.147   1.910
10663SOL    HW232889   0.284   0.072   1.833
10664SOL     OW32890   1.722   4.543   5.307
10664SOL    HW132891   1.760   4.455   5.277
10664SOL    HW232892   1.703   4.600   5.227
10665SOL     OW32893   0.490   0.919   0.921
10665SOL    HW132894   0.581   0.929   0.962
10665SOL    HW232895   0.472   0.997   0.861
10666SOL     OW32896   3.189   4.851   0.456
10666SOL    HW132897   3.257   4.870   0.385
10666SOL    HW232898   3.115   4.918   0.450
10667SOL     OW32899   4.017   2.815   5.434
10667SOL    HW132900   4.025   2.913   5.414
10667SOL    HW232901   3.941   2.776   5.381
10668SOL     OW32902   1.328   2.026   5.167
10668SOL    HW132903   1.402   1.982   5.115
10668SOL    HW232904   1.242   2.017   5.117
10669SOL     OW32905   6.027   6.557   0.517
10669SOL    HW132906   6.043   6.615   0.437
10669SOL    HW232907   6.047   6.609   0.600
10670SOL     OW32908   4.826   3.826   5.263
10670SOL    HW132909   4.794   3.743   5.217
10670SOL    HW232910   4.801   3.905   5.207
10671SOL     OW32911   2.704   2.115   2.437
10671SOL    HW132912   2.705   2.089   2.533
10671SOL    HW232913   2.618   2.087   2.395
10672SOL     OW32914   6.807   2.498   0.550
10672SOL    HW132915   6.719   2.458   0.574
10672SOL    HW232916   6.836   2.560   0.623
10673SOL     OW32917   1.663   2.431   0.119
10673SOL    HW132918   1.737   2.378   0.079
10673SOL    HW232919   1.648   2.514   0.065
10674SOL     OW32920   3.384   3.507   1.017
10674SOL    HW132921   3.358   3.587   1.071
10674SOL    HW232922   3.333   3.505   0.932
10675SOL     OW32923   1.956   0.260   5.933
10675SOL    HW132924   1.988   0.309   5.852
10675SOL    HW232925   1.984   0.309   6.015
10676SOL     OW32926   6.373   6.637   6.422
10676SOL    HW132927   6.394   6.548   6.382
10676SOL    HW232928   6.377   6.708   6.352
10677SOL     OW32929   0.721   0.509   1.971
10677SOL    HW132930   0.809   0.463   1.954
10677SOL    HW232931   0.729   0.565   2.054
10678SOL     OW32932   3.742   5.320   2.960
10678SOL    HW132933   3.720   5.277   3.047
10678SOL    HW232934   3.664   5.374   2.928
10679SOL     OW32935   5.249   4.688   6.160
10679SOL    HW132936   5.192   4.644   6.230
10679SOL    HW232937   5.224   4.652   6.070
10680SOL     OW32938   1.979   2.071   3.778
10680SOL    HW132939   1.971   2.155   3.831
10680SOL    HW232940   2.075   2.046   3.767
10681SOL     OW32941   6.965   4.081   6.636
10681SOL    HW132942   7.016   3.995   6.626
10681SOL    HW232943   6.875   4.063   6.675
10682SOL     OW32944   1.898   2.108   2.723
10682SOL    HW132945   1.969   2.179   2.724
10682SOL    HW232946   1.866   2.092   2.816
10683SOL     OW32947   3.466   1.577   4.235
10683SOL    HW132948   3.433   1.607   4.145
10683SOL    HW232949   3.463   1.653   4.299
10684SOL     OW32950   4.421   3.565   0.367
10684SOL    HW132951   4.339   3.534   0.319
10684SOL    HW232952   4.401   3.573   0.465
10685SOL     OW32953   6.460   4.507   2.000
10685SOL    HW132954   6.558   4.498   2.021
10685SOL    HW232955   6.442   4.597   1.960
10686SOL     OW32956   3.649   5.222   6.825
10686SOL    HW132957   3.643   5.208   6.726
10686SOL    HW232958   3.647   5.134   6.871
10687SOL     OW32959   6.904   5.083   1.666
10687SOL    HW132960   6.910   5.033   1.752
10687SOL    HW232961   6.993   5.078   1.619
10688SOL     OW32962   6.671   4.844   2.552
10688SOL    HW132963   6.666   4.759   2.605
10688SOL    HW232964   6.665   4.922   2.613
10689SOL     OW32965   0.353   0.052   3.615
10689SOL    HW132966   0.260   0.053   3.652
10689SOL    HW232967   0.400   0.137   3.641
10690SOL     OW32968   5.929   5.422   4.034
10690SOL    HW132969   5.921   5.429   3.935
10690SOL    HW232970   5.897   5.332   4.064
10691SOL     OW32971   6.893   1.447   2.599
10691SOL    HW132972   6.816   1.427   2.539
10691SOL    HW232973   6.863   1.509   2.672
10692SOL     OW32974   3.214   5.168   3.380
10692SOL    HW132975   3.291   5.218   3.339
10692SOL    HW232976   3.135   5.173   3.320
10693SOL     OW32977   1.767   0.978   2.092
10693SOL    HW132978   1.836   0.907   2.108
10693SOL    HW232979   1.704   0.982   2.169
10694SOL     OW32980   3.677   5.902   1.403
10694SOL    HW132981   3.737   5.931   1.477
10694SOL    HW232982   3.635   5.814   1.425
10695SOL     OW32983   6.332   1.950   2.660
10695SOL    HW132984   6.378   1.984   2.742
10695SOL    HW232985   6.234   1.962   2.670
10696SOL     OW32986   6.865   4.776   2.155
10696SOL    HW132987   6.774   4.784   2.196
10696SOL    HW232988   6.930   4.747   2.225
10697SOL     OW32989   6.865   6.245   4.297
10697SOL    HW132990   6.892   6.290   4.382
10697SOL    HW232991   6.946   6.212   4.249
10698SOL     OW32992   3.351   6.579   4.473
10698SOL    HW132993   3.391   6.505   4.527
10698SOL    HW232994   3.305   6.540   4.393
10699SOL     OW32995   4.291   1.731   2.568
10699SOL    HW132996   4.327   1.690   2.484
10699SOL    HW232997   4.249   1.819   2.546
10700SOL     OW32998   1.083   0.149   0.509
10700SOL    HW132999   1.164   0.178   0.561
10700SOL    HW233000   1.010   0.216   0.520
10701SOL     OW33001   3.939   5.878   6.876
10701SOL    HW133002   3.852   5.883   6.925
10701SOL    HW233003   3.962   5.969   6.841
10702SOL     OW33004   6.107   2.821   2.298
10702SOL    HW133005   6.115   2.902   2.241
10702SOL    HW233006   6.181   2.757   2.277
10703SOL     OW33007   3.919   3.004   3.902
10703SOL    HW133008   3.844   3.015   3.968
10703SOL    HW233009   3.985   3.078   3.915
10704SOL     OW33010   5.018   5.783   1.753
10704SOL    HW133011   4.933   5.829   1.730
10704SOL    HW233012   5.072   5.840   1.815
10705SOL     OW33013   0.483   3.631   1.230
10705SOL    HW133014   0.452   3.618   1.324
10705SOL    HW233015   0.558   3.696   1.227
10706SOL     OW33016   4.407   6.677   2.411
10706SOL    HW133017   4.399   6.776   2.425
10706SOL    HW233018   4.316   6.636   2.408
10707SOL     OW33019   0.707   0.293   4.747
10707SOL    HW133020   0.715   0.195   4.764
10707SOL    HW233021   0.670   0.309   4.656
10708SOL     OW33022   5.029   0.807   2.058
10708SOL    HW133023   4.929   0.806   2.061
10708SOL    HW233024   5.064   0.881   2.115
10709SOL     OW33025   6.629   1.274   5.213
10709SOL    HW133026   6.619   1.176   5.230
10709SOL    HW233027   6.704   1.290   5.150
10710SOL     OW33028   0.992   6.815   4.879
10710SOL    HW133029   1.054   6.892   4.890
10710SOL    HW233030   0.932   6.810   4.959
10711SOL     OW33031   1.975   6.698   3.155
10711SOL    HW133032   2.072   6.717   3.171
10711SOL    HW233033   1.946   6.623   3.213
10712SOL     OW33034   3.640   0.966   3.118
10712SOL    HW133035   3.686   1.053   3.101
10712SOL    HW233036   3.544   0.983   3.138
10713SOL     OW33037   1.824   4.710   1.850
10713SOL    HW133038   1.737   4.741   1.887
10713SOL    HW233039   1.896   4.720   1.919
10714SOL     OW33040   6.858   3.219   5.109
10714SOL    HW133041   6.760   3.210   5.129
10714SOL    HW233042   6.910   3.161   5.171
10715SOL     OW33043   4.614   0.691   2.945
10715SOL    HW133044   4.694   0.645   2.906
10715SOL    HW233045   4.598   0.657   3.038
10716SOL     OW33046   0.152   2.378   3.171
10716SOL    HW133047   0.208   2.311   3.122
10716SOL    HW233048   0.124   2.451   3.107
10717SOL     OW33049   0.556   1.688   0.901
10717SOL    HW133050   0.592   1.606   0.947
10717SOL    HW233051   0.551   1.671   0.803
10718SOL     OW33052   6.283   5.227   0.096
10718SOL    HW133053   6.184   5.233   0.092
10718SOL    HW233054   6.310   5.182   0.181
10719SOL     OW33055   4.357   5.891   1.717
10719SOL    HW133056   4.373   5.973   1.662
10719SOL    HW233057   4.393   5.905   1.809
10720SOL     OW33058   6.384   3.779   6.243
10720SOL    HW133059   6.420   3.859   6.195
10720SOL    HW233060   6.420   3.695   6.201
10721SOL     OW33061   6.768   2.327   4.330
10721SOL    HW133062   6.754   2.354   4.235
10721SOL    HW233063   6.713   2.247   4.350
10722SOL     OW33064   0.113   3.262   0.028
10722SOL    HW133065   0.055   3.333   0.069
10722SOL    HW233066   0.168   3.219   0.100
10723SOL     OW33067   5.442   3.968   6.721
10723SOL    HW133068   5.526   3.976   6.774
10723SOL    HW233069   5.389   3.890   6.754
10724SOL     OW33070   3.791   6.685   5.914
10724SOL    HW133071   3.744   6.735   5.841
10724SOL    HW233072   3.865   6.630   5.874
10725SOL     OW33073   7.016   5.274   4.153
10725SOL    HW133074   6.969   5.226   4.226
10725SOL    HW233075   0.024   5.363   4.185
10726SOL     OW33076   5.983   7.005   5.318
10726SOL    HW133077   5.936   6.936   5.263
10726SOL    HW233078   5.952   0.073   5.291
10727SOL     OW33079   1.784   5.191   5.370
10727SOL    HW133080   1.873   5.235   5.368
10727SOL    HW233081   1.715   5.253   5.333
10728SOL     OW33082   5.969   6.831   2.045
10728SOL    HW133083   6.028   6.891   2.098
10728SOL    HW233084   6.024   6.758   2.003
10729SOL     OW33085   6.655   1.401   2.477
10729SOL    HW133086   6.627   1.492   2.448
10729SOL    HW233087   6.639   1.336   2.403
10730SOL     OW33088   2.543   6.574   1.867
10730SOL    HW133089   2.630   6.529   1.852
10730SOL    HW233090   2.506   6.605   1.779
10731SOL     OW33091   2.557   5.590   0.198
10731SOL    HW133092   2.558   5.510   0.259
10731SOL    HW233093   2.649   5.605   0.161
10732SOL     OW33094   6.996   0.337   2.873
10732SOL    HW133095   6.904   0.302   2.855
10732SOL    HW233096   0.003   0.306   2.963
10733SOL     OW33097   5.843   2.155   0.212
10733SOL    HW133098   5.743   2.161   0.217
10733SOL    HW233099   5.879   2.231   0.158
10734SOL     OW33100   1.012   0.557   6.582
10734SOL    HW133101   0.954   0.637   6.600
10734SOL    HW233102   1.039   0.557   6.486
10735SOL     OW33103   1.008   4.943   2.499
10735SOL    HW133104   0.930   4.886   2.527
10735SOL    HW233105   1.055   4.899   2.423
10736SOL     OW33106   0.728   1.004   3.117
10736SOL    HW133107   0.641   0.964   3.089
10736SOL    HW233108   0.712   1.095   3.155
10737SOL     OW33109   0.772   1.998   0.727
10737SOL    HW133110   0.690   1.953   0.763
10737SOL    HW233111   0.755   2.027   0.633
10738SOL     OW33112   2.570   0.029   2.444
10738SOL    HW133113   2.566   6.970   2.502
10738SOL    HW233114   2.656   0.077   2.458
10739SOL     OW33115   6.854   1.907   2.586
10739SOL    HW133116   6.760   1.900   2.554
10739SOL    HW233117   6.896   1.991   2.553
10740SOL     OW33118   1.523   5.650   5.611
10740SOL    HW133119   1.488   5.739   5.582
10740SOL    HW233120   1.462   5.578   5.578
10741SOL     OW33121   1.749   1.974   3.692
10741SOL    HW133122   1.748   1.971   3.592
10741SOL    HW233123   1.816   2.041   3.723
10742SOL     OW33124   6.112   7.002   2.193
10742SOL    HW133125   6.153   6.996   2.284
10742SOL    HW233126   6.167   0.039   2.135
10743SOL     OW33127   2.898   1.847   4.324
10743SOL    HW133128   2.906   1.942   4.294
10743SOL    HW233129   2.826   1.802   4.271
10744SOL     OW33130   3.190   1.194   2.075
10744SOL    HW133131   3.208   1.096   2.070
10744SOL    HW233132   3.175   1.220   2.170
10745SOL     OW33133   2.085   4.790   0.436
10745SOL    HW133134   2.160   4.749   0.384
10745SOL    HW233135   2.075   4.886   0.411
10746SOL     OW33136   1.851   5.560   1.450
10746SOL    HW133137   1.814   5.468   1.467
10746SOL    HW233138   1.843   5.615   1.533
10747SOL     OW33139   5.378   1.429   3.360
10747SOL    HW133140   5.405   1.458   3.451
10747SOL    HW233141   5.399   1.501   3.294
10748SOL     OW33142   5.276   5.829   1.328
10748SOL    HW133143   5.249   5.752   1.269
10748SOL    HW233144   5.261   5.915   1.279
10749SOL     OW33145   6.930   5.293   2.690
10749SOL    HW133146   6.972   5.244   2.767
10749SOL    HW233147   6.852   5.346   2.722
10750SOL     OW33148   4.784   4.100   4.840
10750SOL    HW133149   4.792   4.003   4.816
10750SOL    HW233150   4.758   4.109   4.936
10751SOL     OW33151   1.193   3.107   4.931
10751SOL    HW133152   1.275   3.049   4.933
10751SOL    HW233153   1.170   3.135   5.024
10752SOL     OW33154   5.933   4.581   6.644
10752SOL    HW133155   5.855   4.536   6.689
10752SOL    HW233156   5.988   4.512   6.597
10753SOL     OW33157   5.490   0.189   4.082
10753SOL    HW133158   5.536   0.157   4.165
10753SOL    HW233159   5.558   0.232   4.022
10754SOL     OW33160   1.800   2.300   2.391
10754SOL    HW133161   1.772   2.212   2.430
10754SOL    HW233162   1.730   2.369   2.412
10755SOL     OW33163   6.807   2.213   0.767
10755SOL    HW133164   6.841   2.208   0.673
10755SOL    HW233165   6.748   2.294   0.777
10756SOL     OW33166   6.023   2.971   0.217
10756SOL    HW133167   5.957   2.986   0.290
10756SOL    HW233168   6.115   2.995   0.250
10757SOL     OW33169   0.166   4.046   0.594
10757SOL    HW133170   0.227   3.985   0.645
10757SOL    HW233171   0.074   4.007   0.591
10758SOL     OW33172   0.492   5.486   5.684
10758SOL    HW133173   0.548   5.437   5.618
10758SOL    HW233174   0.493   5.438   5.772
10759SOL     OW33175   1.807   3.251   6.327
10759SOL    HW133176   1.817   3.349   6.311
10759SOL    HW233177   1.762   3.208   6.249
10760SOL     OW33178   0.185   6.007   1.453
10760SOL    HW133179   0.261   5.970   1.400
10760SOL    HW233180   0.220   6.060   1.530
10761SOL     OW33181   1.340   2.748   6.507
10761SOL    HW133182   1.251   2.711   6.482
10761SOL    HW233183   1.391   2.680   6.561
10762SOL     OW33184   5.047   0.778   5.261
10762SOL    HW133185   5.040   0.743   5.355
10762SOL    HW233186   4.966   0.831   5.239
10763SOL     OW33187   4.437   0.418   1.565
10763SOL    HW133188   4.370   0.459   1.626
10763SOL    HW233189   4.527   0.418   1.609
10764SOL     OW33190   5.164   1.492   6.141
10764SOL    HW133191   5.217   1.576   6.154
10764SOL    HW233192   5.067   1.511   6.156
10765SOL     OW33193   5.923   0.921   1.792
10765SOL    HW133194   5.965   0.984   1.857
10765SOL    HW233195   5.994   0.882   1.733
10766SOL     OW33196   2.249   3.341   0.186
10766SOL    HW133197   2.273   3.385   0.100
10766SOL    HW233198   2.156   3.302   0.179
10767SOL     OW33199   1.764   6.710   0.542
10767SOL    HW133200   1.813   6.734   0.625
10767SOL    HW233201   1.666   6.727   0.555
10768SOL     OW33202   5.669   5.507   0.208
10768SOL    HW133203   5.744   5.497   0.273
10768SOL    HW233204   5.688   5.583   0.146
10769SOL     OW33205   2.738   4.596   5.381
10769SOL    HW133206   2.803   4.564   5.312
10769SOL    HW233207   2.686   4.519   5.417
10770SOL     OW33208   5.428   0.257   4.583
10770SOL    HW133209   5.451   0.160   4.587
10770SOL    HW233210   5.373   0.282   4.662
10771SOL     OW33211   4.727   0.030   4.880
10771SOL    HW133212   4.656   6.993   4.843
10771SOL    HW233213   4.817   7.018   4.852
10772SOL     OW33214   6.789   6.773   3.615
10772SOL    HW133215   6.801   6.680   3.581
10772SOL    HW233216   6.874   6.804   3.657
10773SOL     OW33217   6.649   4.965   6.906
10773SOL    HW133218   6.673   4.898   6.836
10773SOL    HW233219   6.733   5.006   6.944
10774SOL     OW33220   1.390   2.408   0.999
10774SOL    HW133221   1.302   2.452   0.984
10774SOL    HW233222   1.382   2.342   1.073
10775SOL     OW33223   2.430   4.072   0.591
10775SOL    HW133224   2.466   3.982   0.566
10775SOL    HW233225   2.347   4.061   0.646
10776SOL     OW33226   0.033   6.630   1.950
10776SOL    HW133227   6.959   6.624   1.929
10776SOL    HW233228   0.072   6.711   1.904
10777SOL     OW33229   3.832   0.340   3.187
10777SOL    HW133230   3.823   0.391   3.102
10777SOL    HW233231   3.741   0.313   3.219
10778SOL     OW33232   6.953   6.983   4.948
10778SOL    HW133233   6.985   0.047   4.911
10778SOL    HW233234   6.863   6.995   4.989
10779SOL     OW33235   0.187   4.824   2.314
10779SOL    HW133236   0.251   4.773   2.372
10779SOL    HW233237   0.105   4.845   2.366
10780SOL     OW33238   0.502   5.712   3.892
10780SOL    HW133239   0.454   5.637   3.847
10780SOL    HW233240   0.440   5.790   3.903
10781SOL     OW33241   4.663   1.476   4.489
10781SOL    HW133242   4.637   1.498   4.395
10781SOL    HW233243   4.580   1.455   4.542
10782SOL     OW33244   6.099   2.385   3.661
10782SOL    HW133245   6.044   2.400   3.743
10782SOL    HW233246   6.105   2.470   3.608
10783SOL     OW33247   2.141   3.088   2.321
10783SOL    HW133248   2.177   3.003   2.281
10783SOL    HW233249   2.122   3.154   2.248
10784SOL     OW33250   2.793   6.656   1.509
10784SOL    HW133251   2.856   6.614   1.574
10784SOL    HW233252   2.842   6.677   1.424
10785SOL     OW33253   1.687   4.575   1.644
10785SOL    HW133254   1.750   4.604   1.716
10785SOL    HW233255   1.727   4.598   1.555
10786SOL     OW33256   5.252   2.388   2.224
10786SOL    HW133257   5.323   2.361   2.158
10786SOL    HW233258   5.248   2.488   2.230
10787SOL     OW33259   3.752   1.246   4.576
10787SOL    HW133260   3.735   1.218   4.671
10787SOL    HW233261   3.665   1.256   4.528
10788SOL     OW33262   1.912   4.294   0.382
10788SOL    HW133263   1.992   4.350   0.361
10788SOL    HW233264   1.866   4.330   0.463
10789SOL     OW33265   6.013   0.574   0.257
10789SOL    HW133266   6.097   0.628   0.248
10789SOL    HW233267   6.023   0.488   0.206
10790SOL     OW33268   0.430   0.788   5.510
10790SOL    HW133269   0.416   0.775   5.412
10790SOL    HW233270   0.522   0.824   5.526
10791SOL     OW33271   1.569   1.518   1.868
10791SOL    HW133272   1.657   1.565   1.869
10791SOL    HW233273   1.496   1.584   1.853
10792SOL     OW33274   3.164   3.290   1.850
10792SOL    HW133275   3.132   3.347   1.925
10792SOL    HW233276   3.165   3.194   1.878
10793SOL     OW33277   5.592   2.188   4.226
10793SOL    HW133278   5.512   2.223   4.179
10793SOL    HW233279   5.666   2.173   4.160
10794SOL     OW33280   3.577   4.185   2.155
10794SOL    HW133281   3.620   4.276   2.155
10794SOL    HW233282   3.607   4.134   2.235
10795SOL     OW33283   6.169   3.921   2.606
10795SOL    HW133284   6.188   3.936   2.509
10795SOL    HW233285   6.171   3.823   2.626
10796SOL     OW33286   3.065   0.070   6.724
10796SOL    HW133287   3.134   0.118   6.779
10796SOL    HW233288   2.974   0.107   6.746
10797SOL     OW33289   3.978   2.524   0.709
10797SOL    HW133290   4.036   2.579   0.649
10797SOL    HW233291   3.883   2.529   0.678
10798SOL     OW33292   2.102   0.250   0.190
10798SOL    HW133293   2.176   0.204   0.139
10798SOL    HW233294   2.049   0.307   0.128
10799SOL     OW33295   3.509   2.057   2.663
10799SOL    HW133296   3.421   2.063   2.616
10799SOL    HW233297   3.575   2.009   2.606
10800SOL     OW33298   2.068   6.187   0.822
10800SOL    HW133299   2.135   6.260   0.818
10800SOL    HW233300   2.109   6.106   0.863
10801SOL     OW33301   1.844   0.054   3.798
10801SOL    HW133302   1.764   0.114   3.796
10801SOL    HW233303   1.853   0.007   3.711
10802SOL     OW33304   2.364   2.750   4.699
10802SOL    HW133305   2.265   2.744   4.686
10802SOL    HW233306   2.393   2.846   4.698
10803SOL     OW33307   5.040   4.769   5.356
10803SOL    HW133308   5.005   4.858   5.384
10803SOL    HW233309   5.140   4.773   5.349
10804SOL     OW33310   0.054   4.456   0.681
10804SOL    HW133311   0.031   4.552   0.694
10804SOL    HW233312   0.133   4.433   0.738
10805SOL     OW33313   3.670   0.640   6.863
10805SOL    HW133314   3.606   0.681   6.798
10805SOL    HW233315   3.635   0.650   6.956
10806SOL     OW33316   5.479   4.387   0.180
10806SOL    HW133317   5.572   4.420   0.195
10806SOL    HW233318   5.476   4.335   0.095
10807SOL     OW33319   3.139   6.852   3.585
10807SOL    HW133320   3.110   6.777   3.526
10807SOL    HW233321   3.066   6.875   3.649
10808SOL     OW33322   0.086   3.877   0.165
10808SOL    HW133323   0.141   3.954   0.198
10808SOL    HW233324   0.045   3.901   0.077
10809SOL     OW33325   2.784   0.468   4.442
10809SOL    HW133326   2.790   0.538   4.514
10809SOL    HW233327   2.691   0.431   4.440
10810SOL     OW33328   0.900   1.570   5.708
10810SOL    HW133329   0.999   1.565   5.703
10810SOL    HW233330   0.860   1.534   5.624
10811SOL     OW33331   3.841   5.154   5.593
10811SOL    HW133332   3.833   5.214   5.674
10811SOL    HW233333   3.886   5.204   5.519
10812SOL     OW33334   0.530   3.336   2.085
10812SOL    HW133335   0.520   3.262   2.018
10812SOL    HW233336   0.601   3.399   2.055
10813SOL     OW33337   2.904   6.428   1.137
10813SOL    HW133338   2.975   6.464   1.198
10813SOL    HW233339   2.817   6.424   1.186
10814SOL     OW33340   1.465   0.463   5.580
10814SOL    HW133341   1.401   0.473   5.505
10814SOL    HW233342   1.424   0.407   5.652
10815SOL     OW33343   5.064   4.661   3.565
10815SOL    HW133344   5.037   4.648   3.469
10815SOL    HW233345   4.998   4.720   3.611
10816SOL     OW33346   1.957   1.152   2.194
10816SOL    HW133347   1.880   1.114   2.142
10816SOL    HW233348   1.923   1.225   2.254
10817SOL     OW33349   5.609   6.925   2.699
10817SOL    HW133350   5.561   6.886   2.778
10817SOL    HW233351   5.543   6.968   2.638
10818SOL     OW33352   5.943   2.328   5.758
10818SOL    HW133353   6.013   2.383   5.804
10818SOL    HW233354   5.983   2.285   5.677
10819SOL     OW33355   0.724   3.975   6.566
10819SOL    HW133356   0.665   4.028   6.506
10819SOL    HW233357   0.775   3.908   6.512
10820SOL     OW33358   0.196   6.603   4.395
10820SOL    HW133359   0.249   6.685   4.419
10820SOL    HW233360   0.256   6.523   4.400
10821SOL     OW33361   5.988   6.542   3.227
10821SOL    HW133362   6.055   6.482   3.183
10821SOL    HW233363   6.025   6.574   3.315
10822SOL     OW33364   1.414   3.116   2.477
10822SOL    HW133365   1.329   3.089   2.522
10822SOL    HW233366   1.399   3.199   2.424
10823SOL     OW33367   1.725   4.910   1.377
10823SOL    HW133368   1.791   4.967   1.328
10823SOL    HW233369   1.654   4.967   1.416
10824SOL     OW33370   4.872   6.772   3.526
10824SOL    HW133371   4.937   6.828   3.473
10824SOL    HW233372   4.859   6.813   3.616
10825SOL     OW33373   2.770   0.973   0.548
10825SOL    HW133374   2.704   0.907   0.512
10825SOL    HW233375   2.727   1.063   0.553
10826SOL     OW33376   6.515   3.520   2.842
10826SOL    HW133377   6.492   3.588   2.912
10826SOL    HW233378   6.584   3.457   2.879
10827SOL     OW33379   5.924   3.419   3.422
10827SOL    HW133380   5.845   3.408   3.482
10827SOL    HW233381   6.008   3.398   3.472
10828SOL     OW33382   0.957   5.973   1.887
10828SOL    HW133383   0.970   5.877   1.912
10828SOL    HW233384   1.044   6.013   1.859
10829SOL     OW33385   2.688   3.119   1.119
10829SOL    HW133386   2.702   3.184   1.194
10829SOL    HW233387   2.623   3.048   1.148
10830SOL     OW33388   5.575   2.437   3.592
10830SOL    HW133389   5.513   2.359   3.591
10830SOL    HW233390   5.661   2.412   3.547
10831SOL     OW33391   5.067   0.154   1.869
10831SOL    HW133392   5.009   0.233   1.890
10831SOL    HW233393   5.128   0.136   1.946
10832SOL     OW33394   0.732   2.306   0.588
10832SOL    HW133395   0.728   2.225   0.530
10832SOL    HW233396   0.828   2.330   0.606
10833SOL     OW33397   2.051   0.406   3.768
10833SOL    HW133398   2.106   0.330   3.732
10833SOL    HW233399   1.954   0.388   3.750
10834SOL     OW33400   0.686   1.218   5.667
10834SOL    HW133401   0.660   1.294   5.607
10834SOL    HW233402   0.714   1.253   5.756
10835SOL     OW33403   5.814   1.277   1.166
10835SOL    HW133404   5.768   1.241   1.247
10835SOL    HW233405   5.909   1.301   1.189
10836SOL     OW33406   6.937   1.739   5.757
10836SOL    HW133407   6.853   1.749   5.704
10836SOL    HW233408   6.996   1.672   5.713
10837SOL     OW33409   6.564   4.768   0.249
10837SOL    HW133410   6.609   4.858   0.246
10837SOL    HW233411   6.598   4.717   0.328
10838SOL     OW33412   6.052   0.568   5.048
10838SOL    HW133413   6.025   0.594   5.140
10838SOL    HW233414   5.995   0.491   5.017
10839SOL     OW33415   2.704   3.315   0.194
10839SOL    HW133416   2.703   3.215   0.193
10839SOL    HW233417   2.669   3.347   0.282
10840SOL     OW33418   3.585   5.650   1.426
10840SOL    HW133419   3.539   5.599   1.353
10840SOL    HW233420   3.678   5.615   1.436
10841SOL     OW33421   3.183   5.949   5.514
10841SOL    HW133422   3.084   5.959   5.505
10841SOL    HW233423   3.214   6.000   5.594
10842SOL     OW33424   6.078   3.198   0.884
10842SOL    HW133425   6.049   3.120   0.940
10842SOL    HW233426   6.047   3.184   0.790
10843SOL     OW33427   0.458   1.401   1.659
10843SOL    HW133428   0.363   1.379   1.678
10843SOL    HW233429   0.510   1.317   1.646
10844SOL     OW33430   0.194   6.264   4.360
10844SOL    HW133431   0.157   6.234   4.272
10844SOL    HW233432   0.119   6.293   4.419
10845SOL     OW33433   2.280   0.963   1.094
10845SOL    HW133434   2.321   0.987   1.182
10845SOL    HW233435   2.319   1.020   1.022
10846SOL     OW33436   4.853   2.195   1.011
10846SOL    HW133437   4.870   2.109   0.963
10846SOL    HW233438   4.755   2.203   1.032
10847SOL     OW33439   2.911   1.836   6.054
10847SOL    HW133440   2.815   1.851   6.031
10847SOL    HW233441   2.921   1.748   6.100
10848SOL     OW33442   2.902   1.589   6.919
10848SOL    HW133443   2.864   1.618   7.007
10848SOL    HW233444   2.832   1.599   6.848
10849SOL     OW33445   4.032   4.785   3.636
10849SOL    HW133446   3.941   4.826   3.644
10849SOL    HW233447   4.031   4.716   3.564
10850SOL     OW33448   3.600   0.036   7.018
10850SOL    HW133449   3.503   0.029   0.018
10850SOL    HW233450   3.612   0.026   6.919
10851SOL     OW33451   3.341   2.593   5.866
10851SOL    HW133452   3.439   2.613   5.855
10851SOL    HW233453   3.293   2.611   5.780
10852SOL     OW33454   0.398   0.296   6.633
10852SOL    HW133455   0.424   0.274   6.727
10852SOL    HW233456   0.298   0.302   6.627
10853SOL     OW33457   3.836   1.835   4.566
10853SOL    HW133458   3.858   1.761   4.503
10853SOL    HW233459   3.782   1.800   4.643
10854SOL     OW33460   6.054   6.996   6.587
10854SOL    HW133461   5.954   6.989   6.592
10854SOL    HW233462   6.079   0.029   6.508
10855SOL     OW33463   2.705   6.203   2.412
10855SOL    HW133464   2.629   6.254   2.451
10855SOL    HW233465   2.728   6.239   2.322
10856SOL     OW33466   5.753   0.615   0.666
10856SOL    HW133467   5.842   0.627   0.711
10856SOL    HW233468   5.767   0.577   0.575
10857SOL     OW33469   6.152   3.074   3.326
10857SOL    HW133470   6.087   3.137   3.284
10857SOL    HW233471   6.214   3.039   3.256
10858SOL     OW33472   2.179   2.924   6.431
10858SOL    HW133473   2.108   2.945   6.364
10858SOL    HW233474   2.145   2.942   6.523
10859SOL     OW33475   1.648   3.985   3.499
10859SOL    HW133476   1.591   3.964   3.419
10859SOL    HW233477   1.742   3.958   3.481
10860SOL     OW33478   6.650   1.247   6.408
10860SOL    HW133479   6.671   1.214   6.316
10860SOL    HW233480   6.697   1.190   6.476
10861SOL     OW33481   3.763   2.527   1.715
10861SOL    HW133482   3.722   2.615   1.739
10861SOL    HW233483   3.741   2.460   1.785
10862SOL     OW33484   2.598   1.526   6.248
10862SOL    HW133485   2.667   1.598   6.255
10862SOL    HW233486   2.568   1.499   6.340
10863SOL     OW33487   3.473   0.857   2.698
10863SOL    HW133488   3.425   0.779   2.740
10863SOL    HW233489   3.407   0.910   2.644
10864SOL     OW33490   2.012   4.579   1.323
10864SOL    HW133491   1.967   4.650   1.377
10864SOL    HW233492   1.946   4.507   1.301
10865SOL     OW33493   5.787   2.616   3.425
10865SOL    HW133494   5.790   2.516   3.429
10865SOL    HW233495   5.696   2.647   3.454
10866SOL     OW33496   5.654   3.401   0.928
10866SOL    HW133497   5.698   3.335   0.868
10866SOL    HW233498   5.700   3.489   0.920
10867SOL     OW33499   2.424   2.750   0.205
10867SOL    HW133500   2.419   2.653   0.182
10867SOL    HW233501   2.334   2.792   0.193
10868SOL     OW33502   1.190   2.418   2.990
10868SOL    HW133503   1.250   2.341   2.967
10868SOL    HW233504   1.116   2.424   2.924
10869NA      NA33505   0.698   2.175   6.348
10870NA      NA33506   4.417   4.581   5.243
10871NA      NA33507   2.064   4.654   2.587
10872NA      NA33508   5.315   4.621   3.900
10873NA      NA33509   4.383   2.402   5.158
10874NA      NA33510   3.256   4.271   1.641
10875NA      NA33511   1.036   4.749   0.092
10876NA      NA33512   4.064   4.025   1.559
10877NA      NA33513   4.364   4.130   0.851
10878NA      NA33514   3.671   1.077   5.462
10879NA      NA33515   5.128   5.552   1.704
10880NA      NA33516   1.675   0.561   5.694
10881NA      NA33517   4.877   4.871   2.206
10882NA      NA33518   3.609   3.392   0.538
   7.02283   7.02283   7.02283
