Generated by trjconv : CNT in water t= 429.00000
33518
    1C        C    1   2.848   2.776   4.745
    1C        C    2   2.897   2.720   4.865
    1C        C    3   2.845   2.779   4.981
    1C        C    4   2.847   2.774   4.259
    1C        C    5   2.903   2.732   4.382
    1C        C    6   2.846   2.776   4.503
    1C        C    7   3.012   2.640   4.626
    1C        C    8   2.898   2.724   4.623
    1C        C    9   3.076   2.601   4.745
    1C        C   10   3.009   2.634   4.865
    1C        C   11   3.182   2.489   4.977
    1C        C   12   3.064   2.564   4.973
    1C        C   13   2.854   2.776   3.769
    1C        C   14   2.900   2.723   3.892
    1C        C   15   2.848   2.771   4.015
    1C        C   16   3.020   2.648   4.137
    1C        C   17   2.903   2.727   4.138
    1C        C   18   3.085   2.623   4.260
    1C        C   19   3.025   2.660   4.382
    1C        C   20   3.209   2.557   4.503
    1C        C   21   3.081   2.616   4.505
    1C        C   22   3.277   2.531   4.624
    1C        C   23   3.208   2.549   4.746
    1C        C   24   3.412   2.481   4.868
    1C        C   25   3.270   2.499   4.864
    1C        C   26   3.491   2.477   4.984
    1C        C   27   2.857   2.777   3.279
    1C        C   28   2.914   2.733   3.401
    1C        C   29   2.859   2.778   3.523
    1C        C   30   3.023   2.649   3.648
    1C        C   31   2.909   2.732   3.647
    1C        C   32   3.078   2.606   3.771
    1C        C   33   3.016   2.642   3.893
    1C        C   34   3.208   2.552   4.015
    1C        C   35   3.080   2.611   4.015
    1C        C   36   3.280   2.537   4.136
    1C        C   37   3.215   2.567   4.258
    1C        C   38   3.417   2.510   4.381
    1C        C   39   3.279   2.543   4.381
    1C        C   40   3.487   2.504   4.503
    1C        C   41   3.415   2.503   4.625
    1C        C   42   3.628   2.480   4.743
    1C        C   43   3.486   2.484   4.746
    1C        C   44   3.705   2.483   4.862
    1C        C   45   3.630   2.474   4.980
    1C        C   46   2.839   2.757   2.792
    1C        C   47   2.899   2.714   2.913
    1C        C   48   2.849   2.766   3.034
    1C        C   49   3.025   2.648   3.160
    1C        C   50   2.909   2.728   3.157
    1C        C   51   3.083   2.608   3.282
    1C        C   52   3.024   2.644   3.404
    1C        C   53   3.213   2.551   3.528
    1C        C   54   3.084   2.608   3.527
    1C        C   55   3.279   2.528   3.651
    1C        C   56   3.209   2.553   3.771
    1C        C   57   3.415   2.501   3.894
    1C        C   58   3.277   2.532   3.893
    1C        C   59   3.487   2.497   4.015
    1C        C   60   3.418   2.507   4.139
    1C        C   61   3.630   2.499   4.259
    1C        C   62   3.489   2.494   4.261
    1C        C   63   3.701   2.501   4.381
    1C        C   64   3.629   2.502   4.502
    1C        C   65   3.836   2.541   4.621
    1C        C   66   3.700   2.504   4.624
    1C        C   67   3.904   2.560   4.743
    1C        C   68   3.838   2.530   4.863
    1C        C   69   4.052   2.587   4.977
    1C        C   70   3.923   2.533   4.975
    1C        C   71   2.827   2.740   2.305
    1C        C   72   2.880   2.693   2.427
    1C        C   73   2.832   2.750   2.548
    1C        C   74   3.004   2.625   2.673
    1C        C   75   2.889   2.706   2.669
    1C        C   76   3.074   2.597   2.792
    1C        C   77   3.016   2.635   2.915
    1C        C   78   3.207   2.543   3.037
    1C        C   79   3.080   2.605   3.037
    1C        C   80   3.278   2.526   3.158
    1C        C   81   3.212   2.550   3.281
    1C        C   82   3.414   2.495   3.402
    1C        C   83   3.277   2.527   3.404
    1C        C   84   3.484   2.487   3.524
    1C        C   85   3.416   2.495   3.648
    1C        C   86   3.625   2.495   3.769
    1C        C   87   3.484   2.487   3.772
    1C        C   88   3.696   2.511   3.891
    1C        C   89   3.628   2.500   4.015
    1C        C   90   3.836   2.542   4.134
    1C        C   91   3.699   2.507   4.136
    1C        C   92   3.900   2.571   4.256
    1C        C   93   3.837   2.539   4.378
    1C        C   94   4.024   2.642   4.499
    1C        C   95   3.904   2.567   4.500
    1C        C   96   4.089   2.675   4.620
    1C        C   97   4.029   2.629   4.740
    1C        C   98   4.188   2.767   4.860
    1C        C   99   4.100   2.654   4.860
    1C        C  100   4.213   2.845   4.974
    1C        C  101   2.819   2.731   2.069
    1C        C  102   2.986   2.588   2.194
    1C        C  103   2.877   2.681   2.186
    1C        C  104   3.062   2.573   2.314
    1C        C  105   2.998   2.616   2.432
    1C        C  106   3.197   2.532   2.551
    1C        C  107   3.066   2.586   2.552
    1C        C  108   3.270   2.512   2.670
    1C        C  109   3.201   2.536   2.791
    1C        C  110   3.408   2.493   2.914
    1C        C  111   3.269   2.514   2.913
    1C        C  112   3.484   2.483   3.033
    1C        C  113   3.416   2.495   3.157
    1C        C  114   3.627   2.494   3.278
    1C        C  115   3.485   2.488   3.280
    1C        C  116   3.694   2.510   3.401
    1C        C  117   3.625   2.498   3.524
    1C        C  118   3.831   2.542   3.644
    1C        C  119   3.694   2.506   3.647
    1C        C  120   3.897   2.569   3.767
    1C        C  121   3.833   2.545   3.890
    1C        C  122   4.025   2.639   4.012
    1C        C  123   3.901   2.569   4.011
    1C        C  124   4.086   2.678   4.133
    1C        C  125   4.024   2.640   4.254
    1C        C  126   4.189   2.772   4.378
    1C        C  127   4.081   2.682   4.376
    1C        C  128   4.240   2.826   4.498
    1C        C  129   4.192   2.771   4.619
    1C        C  130   4.320   2.940   4.741
    1C        C  131   4.245   2.820   4.740
    1C        C  132   4.353   3.005   4.862
    1C        C  133   4.290   2.960   4.979
    1C        C  134   3.170   2.467   2.084
    1C        C  135   3.037   2.509   2.086
    1C        C  136   3.259   2.477   2.192
    1C        C  137   3.193   2.519   2.310
    1C        C  138   3.403   2.479   2.427
    1C        C  139   3.264   2.499   2.431
    1C        C  140   3.476   2.477   2.548
    1C        C  141   3.409   2.486   2.672
    1C        C  142   3.621   2.491   2.788
    1C        C  143   3.481   2.481   2.793
    1C        C  144   3.692   2.499   2.910
    1C        C  145   3.625   2.489   3.033
    1C        C  146   3.833   2.532   3.155
    1C        C  147   3.696   2.497   3.155
    1C        C  148   3.898   2.564   3.277
    1C        C  149   3.831   2.544   3.400
    1C        C  150   4.023   2.632   3.522
    1C        C  151   3.898   2.567   3.522
    1C        C  152   4.082   2.672   3.644
    1C        C  153   4.018   2.641   3.766
    1C        C  154   4.187   2.769   3.885
    1C        C  155   4.077   2.681   3.888
    1C        C  156   4.242   2.815   4.008
    1C        C  157   4.195   2.768   4.133
    1C        C  158   4.335   2.926   4.252
    1C        C  159   4.243   2.819   4.255
    1C        C  160   4.372   2.988   4.374
    1C        C  161   4.326   2.938   4.498
    1C        C  162   4.436   3.120   4.616
    1C        C  163   4.364   2.998   4.620
    1C        C  164   4.464   3.186   4.738
    1C        C  165   4.430   3.123   4.859
    1C        C  166   4.515   3.325   4.976
    1C        C  167   4.478   3.191   4.972
    1C        C  168   3.477   2.433   2.073
    1C        C  169   3.399   2.461   2.186
    1C        C  170   3.616   2.471   2.301
    1C        C  171   3.474   2.469   2.305
    1C        C  172   3.688   2.490   2.421
    1C        C  173   3.617   2.483   2.543
    1C        C  174   3.825   2.538   2.664
    1C        C  175   3.688   2.503   2.664
    1C        C  176   3.894   2.559   2.785
    1C        C  177   3.830   2.532   2.908
    1C        C  178   4.017   2.627   3.031
    1C        C  179   3.896   2.554   3.031
    1C        C  180   4.079   2.670   3.151
    1C        C  181   4.022   2.631   3.274
    1C        C  182   4.192   2.755   3.397
    1C        C  183   4.081   2.667   3.398
    1C        C  184   4.242   2.809   3.518
    1C        C  185   4.191   2.761   3.641
    1C        C  186   4.331   2.922   3.763
    1C        C  187   4.242   2.813   3.762
    1C        C  188   4.368   2.983   3.885
    1C        C  189   4.330   2.925   4.008
    1C        C  190   4.443   3.106   4.128
    1C        C  191   4.378   2.981   4.129
    1C        C  192   4.469   3.175   4.249
    1C        C  193   4.441   3.111   4.372
    1C        C  194   4.515   3.312   4.491
    1C        C  195   4.472   3.177   4.493
    1C        C  196   4.524   3.388   4.610
    1C        C  197   4.513   3.320   4.733
    1C        C  198   4.554   3.533   4.848
    1C        C  199   4.535   3.392   4.854
    1C        C  200   4.581   3.618   4.960
    1C        C  201   3.615   2.410   2.072
    1C        C  202   3.826   2.510   2.178
    1C        C  203   3.692   2.460   2.181
    1C        C  204   3.895   2.541   2.298
    1C        C  205   3.825   2.522   2.420
    1C        C  206   4.018   2.616   2.542
    1C        C  207   3.890   2.556   2.540
    1C        C  208   4.077   2.660   2.663
    1C        C  209   4.019   2.625   2.787
    1C        C  210   4.190   2.750   2.907
    1C        C  211   4.077   2.665   2.909
    1C        C  212   4.244   2.800   3.028
    1C        C  213   4.192   2.754   3.151
    1C        C  214   4.332   2.911   3.270
    1C        C  215   4.243   2.802   3.274
    1C        C  216   4.365   2.976   3.391
    1C        C  217   4.329   2.920   3.516
    1C        C  218   4.429   3.105   3.637
    1C        C  219   4.371   2.976   3.639
    1C        C  220   4.461   3.167   3.760
    1C        C  221   4.439   3.106   3.886
    1C        C  222   4.503   3.310   4.003
    1C        C  223   4.469   3.172   4.006
    1C        C  224   4.517   3.380   4.125
    1C        C  225   4.504   3.312   4.248
    1C        C  226   4.531   3.523   4.367
    1C        C  227   4.519   3.383   4.369
    1C        C  228   4.521   3.599   4.486
    1C        C  229   4.536   3.529   4.607
    1C        C  230   4.509   3.743   4.725
    1C        C  231   4.543   3.605   4.726
    1C        C  232   4.501   3.821   4.843
    1C        C  233   4.549   3.755   4.957
    1C        C  234   4.019   2.612   2.060
    1C        C  235   3.901   2.538   2.063
    1C        C  236   4.080   2.654   2.178
    1C        C  237   4.020   2.610   2.298
    1C        C  238   4.196   2.730   2.420
    1C        C  239   4.083   2.644   2.420
    1C        C  240   4.246   2.787   2.539
    1C        C  241   4.188   2.747   2.662
    1C        C  242   4.335   2.902   2.784
    1C        C  243   4.240   2.797   2.784
    1C        C  244   4.380   2.962   2.904
    1C        C  245   4.332   2.910   3.026
    1C        C  246   4.435   3.096   3.145
    1C        C  247   4.374   2.969   3.148
    1C        C  248   4.456   3.162   3.268
    1C        C  249   4.431   3.101   3.393
    1C        C  250   4.499   3.303   3.515
    1C        C  251   4.459   3.167   3.514
    1C        C  252   4.511   3.373   3.637
    1C        C  253   4.499   3.303   3.760
    1C        C  254   4.526   3.518   3.876
    1C        C  255   4.512   3.377   3.879
    1C        C  256   4.521   3.588   3.999
    1C        C  257   4.519   3.521   4.123
    1C        C  258   4.500   3.733   4.241
    1C        C  259   4.520   3.593   4.245
    1C        C  260   4.478   3.805   4.360
    1C        C  261   4.493   3.738   4.483
    1C        C  262   4.426   3.940   4.603
    1C        C  263   4.481   3.810   4.604
    1C        C  264   4.391   4.007   4.723
    1C        C  265   4.434   3.945   4.842
    1C        C  266   4.316   4.128   4.958
    1C        C  267   4.391   4.011   4.958
    1C        C  268   4.264   2.771   2.061
    1C        C  269   4.196   2.735   2.179
    1C        C  270   4.340   2.892   2.300
    1C        C  271   4.250   2.782   2.300
    1C        C  272   4.378   2.956   2.420
    1C        C  273   4.335   2.896   2.541
    1C        C  274   4.443   3.083   2.661
    1C        C  275   4.375   2.959   2.661
    1C        C  276   4.472   3.154   2.779
    1C        C  277   4.445   3.088   2.901
    1C        C  278   4.506   3.292   3.025
    1C        C  279   4.471   3.155   3.022
    1C        C  280   4.514   3.365   3.145
    1C        C  281   4.501   3.296   3.268
    1C        C  282   4.520   3.508   3.387
    1C        C  283   4.512   3.367   3.390
    1C        C  284   4.518   3.582   3.507
    1C        C  285   4.517   3.514   3.631
    1C        C  286   4.493   3.725   3.752
    1C        C  287   4.518   3.586   3.753
    1C        C  288   4.476   3.792   3.875
    1C        C  289   4.498   3.727   3.998
    1C        C  290   4.430   3.931   4.115
    1C        C  291   4.485   3.801   4.118
    1C        C  292   4.398   3.998   4.235
    1C        C  293   4.424   3.936   4.360
    1C        C  294   4.323   4.125   4.478
    1C        C  295   4.392   4.001   4.481
    1C        C  296   4.282   4.187   4.598
    1C        C  297   4.322   4.131   4.722
    1C        C  298   4.198   4.314   4.836
    1C        C  299   4.278   4.195   4.841
    1C        C  300   4.168   4.400   4.946
    1C        C  301   4.350   2.880   2.063
    1C        C  302   4.470   3.065   2.177
    1C        C  303   4.400   2.940   2.180
    1C        C  304   4.481   3.142   2.295
    1C        C  305   4.444   3.081   2.417
    1C        C  306   4.518   3.281   2.536
    1C        C  307   4.474   3.146   2.539
    1C        C  308   4.517   3.358   2.655
    1C        C  309   4.496   3.293   2.779
    1C        C  310   4.524   3.501   2.897
    1C        C  311   4.516   3.360   2.901
    1C        C  312   4.522   3.575   3.018
    1C        C  313   4.519   3.506   3.141
    1C        C  314   4.484   3.715   3.262
    1C        C  315   4.512   3.576   3.264
    1C        C  316   4.475   3.787   3.383
    1C        C  317   4.495   3.722   3.507
    1C        C  318   4.429   3.925   3.627
    1C        C  319   4.477   3.792   3.628
    1C        C  320   4.395   3.988   3.749
    1C        C  321   4.426   3.924   3.871
    1C        C  322   4.317   4.108   3.990
    1C        C  323   4.398   3.993   3.991
    1C        C  324   4.274   4.164   4.112
    1C        C  325   4.319   4.115   4.237
    1C        C  326   4.184   4.284   4.354
    1C        C  327   4.281   4.181   4.355
    1C        C  328   4.133   4.336   4.475
    1C        C  329   4.187   4.291   4.597
    1C        C  330   4.021   4.436   4.712
    1C        C  331   4.137   4.354   4.714
    1C        C  332   3.971   4.494   4.830
    1C        C  333   4.056   4.484   4.942
    1C        C  334   4.549   3.265   2.063
    1C        C  335   4.531   3.126   2.063
    1C        C  336   4.535   3.348   2.175
    1C        C  337   4.511   3.281   2.296
    1C        C  338   4.527   3.496   2.411
    1C        C  339   4.523   3.355   2.416
    1C        C  340   4.518   3.569   2.532
    1C        C  341   4.518   3.499   2.654
    1C        C  342   4.500   3.712   2.773
    1C        C  343   4.516   3.572   2.775
    1C        C  344   4.479   3.782   2.894
    1C        C  345   4.496   3.714   3.016
    1C        C  346   4.428   3.916   3.136
    1C        C  347   4.471   3.781   3.138
    1C        C  348   4.398   3.982   3.257
    1C        C  349   4.430   3.921   3.380
    1C        C  350   4.316   4.099   3.501
    1C        C  351   4.399   3.984   3.502
    1C        C  352   4.274   4.160   3.622
    1C        C  353   4.315   4.105   3.745
    1C        C  354   4.174   4.264   3.866
    1C        C  355   4.269   4.158   3.867
    1C        C  356   4.122   4.314   3.987
    1C        C  357   4.176   4.267   4.109
    1C        C  358   4.010   4.399   4.230
    1C        C  359   4.129   4.322   4.230
    1C        C  360   3.948   4.441   4.350
    1C        C  361   4.015   4.415   4.471
    1C        C  362   3.825   4.517   4.592
    1C        C  363   3.953   4.459   4.590
    1C        C  364   3.761   4.548   4.714
    1C        C  365   3.841   4.549   4.830
    1C        C  366   3.629   4.590   4.949
    1C        C  367   3.767   4.578   4.946
    1C        C  368   4.506   3.561   2.051
    1C        C  369   4.524   3.489   2.170
    1C        C  370   4.501   3.705   2.287
    1C        C  371   4.519   3.565   2.288
    1C        C  372   4.485   3.778   2.407
    1C        C  373   4.499   3.709   2.530
    1C        C  374   4.426   3.910   2.648
    1C        C  375   4.481   3.780   2.651
    1C        C  376   4.392   3.974   2.770
    1C        C  377   4.426   3.913   2.893
    1C        C  378   4.314   4.093   3.011
    1C        C  379   4.399   3.980   3.014
    1C        C  380   4.269   4.149   3.133
    1C        C  381   4.314   4.096   3.256
    1C        C  382   4.172   4.253   3.377
    1C        C  383   4.271   4.152   3.379
    1C        C  384   4.120   4.302   3.498
    1C        C  385   4.171   4.256   3.622
    1C        C  386   4.003   4.386   3.743
    1C        C  387   4.118   4.305   3.743
    1C        C  388   3.944   4.429   3.864
    1C        C  389   4.005   4.394   3.986
    1C        C  390   3.818   4.489   4.107
    1C        C  391   3.947   4.433   4.109
    1C        C  392   3.750   4.515   4.228
    1C        C  393   3.820   4.500   4.350
    1C        C  394   3.614   4.555   4.475
    1C        C  395   3.754   4.532   4.471
    1C        C  396   3.544   4.567   4.596
    1C        C  397   3.621   4.566   4.715
    1C        C  398   3.409   4.551   4.839
    1C        C  399   3.548   4.578   4.835
    1C        C  400   3.336   4.518   4.954
    1C        C  401   4.503   3.700   2.048
    1C        C  402   4.455   3.913   2.166
    1C        C  403   4.490   3.776   2.165
    1C        C  404   4.413   3.978   2.284
    1C        C  405   4.435   3.910   2.406
    1C        C  406   4.318   4.091   2.524
    1C        C  407   4.398   3.974   2.526
    1C        C  408   4.274   4.150   2.644
    1C        C  409   4.313   4.091   2.766
    1C        C  410   4.172   4.248   2.889
    1C        C  411   4.271   4.148   2.888
    1C        C  412   4.120   4.296   3.011
    1C        C  413   4.172   4.252   3.135
    1C        C  414   4.000   4.379   3.253
    1C        C  415   4.116   4.299   3.255
    1C        C  416   3.940   4.412   3.376
    1C        C  417   4.004   4.382   3.498
    1C        C  418   3.813   4.477   3.615
    1C        C  419   3.943   4.422   3.620
    1C        C  420   3.748   4.503   3.738
    1C        C  421   3.814   4.486   3.861
    1C        C  422   3.611   4.537   3.987
    1C        C  423   3.749   4.508   3.985
    1C        C  424   3.541   4.544   4.109
    1C        C  425   3.611   4.541   4.232
    1C        C  426   3.400   4.546   4.354
    1C        C  427   3.541   4.555   4.354
    1C        C  428   3.331   4.544   4.478
    1C        C  429   3.403   4.557   4.599
    1C        C  430   3.194   4.517   4.723
    1C        C  431   3.332   4.552   4.721
    1C        C  432   3.123   4.488   4.842
    1C        C  433   3.200   4.489   4.959
    1C        C  434   4.386   4.120   2.052
    1C        C  435   4.449   3.995   2.052
    1C        C  436   4.301   4.161   2.159
    1C        C  437   4.334   4.096   2.281
    1C        C  438   4.181   4.249   2.401
    1C        C  439   4.282   4.150   2.401
    1C        C  440   4.120   4.294   2.520
    1C        C  441   4.174   4.250   2.643
    1C        C  442   4.006   4.378   2.763
    1C        C  443   4.121   4.296   2.766
    1C        C  444   3.941   4.410   2.884
    1C        C  445   4.001   4.372   3.006
    1C        C  446   3.808   4.460   3.127
    1C        C  447   3.940   4.408   3.128
    1C        C  448   3.742   4.483   3.250
    1C        C  449   3.810   4.469   3.373
    1C        C  450   3.604   4.523   3.495
    1C        C  451   3.743   4.496   3.494
    1C        C  452   3.539   4.536   3.620
    1C        C  453   3.610   4.535   3.742
    1C        C  454   3.400   4.546   3.864
    1C        C  455   3.541   4.545   3.865
    1C        C  456   3.332   4.537   3.987
    1C        C  457   3.399   4.542   4.112
    1C        C  458   3.190   4.509   4.231
    1C        C  459   3.328   4.540   4.233
    1C        C  460   3.126   4.486   4.355
    1C        C  461   3.193   4.513   4.477
    1C        C  462   3.001   4.431   4.600
    1C        C  463   3.128   4.493   4.600
    1C        C  464   2.934   4.394   4.719
    1C        C  465   2.988   4.440   4.842
    1C        C  466   2.794   4.337   4.959
    1C        C  467   2.900   4.428   4.954
    1C        C  468   4.125   4.290   2.040
    1C        C  469   4.189   4.251   2.159
    1C        C  470   4.012   4.378   2.275
    1C        C  471   4.129   4.297   2.279
    1C        C  472   3.943   4.406   2.395
    1C        C  473   4.000   4.368   2.518
    1C        C  474   3.813   4.465   2.642
    1C        C  475   3.942   4.408   2.640
    1C        C  476   3.746   4.493   2.763
    1C        C  477   3.812   4.467   2.885
    1C        C  478   3.604   4.519   3.007
    1C        C  479   3.742   4.489   3.006
    1C        C  480   3.535   4.530   3.130
    1C        C  481   3.605   4.517   3.252
    1C        C  482   3.393   4.536   3.378
    1C        C  483   3.534   4.532   3.373
    1C        C  484   3.325   4.534   3.502
    1C        C  485   3.398   4.540   3.622
    1C        C  486   3.189   4.501   3.744
    1C        C  487   3.326   4.537   3.744
    1C        C  488   3.126   4.474   3.868
    1C        C  489   3.196   4.500   3.988
    1C        C  490   3.000   4.417   4.112
    1C        C  491   3.124   4.484   4.109
    1C        C  492   2.944   4.379   4.236
    1C        C  493   3.000   4.422   4.358
    1C        C  494   2.833   4.295   4.480
    1C        C  495   2.939   4.389   4.481
    1C        C  496   2.778   4.248   4.601
    1C        C  497   2.819   4.310   4.721
    1C        C  498   2.662   4.167   4.842
    1C        C  499   2.751   4.276   4.840
    1C        C  500   2.593   4.120   4.954
    1C        C  501   4.002   4.353   2.038
    1C        C  502   3.816   4.466   2.152
    1C        C  503   3.943   4.405   2.155
    1C        C  504   3.745   4.483   2.273
    1C        C  505   3.813   4.460   2.395
    1C        C  506   3.607   4.504   2.519
    1C        C  507   3.746   4.480   2.518
    1C        C  508   3.536   4.512   2.640
    1C        C  509   3.605   4.508   2.763
    1C        C  510   3.393   4.529   2.885
    1C        C  511   3.534   4.522   2.884
    1C        C  512   3.324   4.523   3.008
    1C        C  513   3.394   4.532   3.131
    1C        C  514   3.187   4.497   3.254
    1C        C  515   3.325   4.528   3.254
    1C        C  516   3.122   4.473   3.377
    1C        C  517   3.188   4.497   3.500
    1C        C  518   2.997   4.409   3.623
    1C        C  519   3.123   4.474   3.623
    1C        C  520   2.941   4.372   3.747
    1C        C  521   3.002   4.407   3.870
    1C        C  522   2.834   4.278   3.992
    1C        C  523   2.942   4.369   3.992
    1C        C  524   2.786   4.234   4.117
    1C        C  525   2.837   4.287   4.237
    1C        C  526   2.693   4.132   4.361
    1C        C  527   2.783   4.242   4.359
    1C        C  528   2.654   4.074   4.484
    1C        C  529   2.688   4.140   4.604
    1C        C  530   2.576   3.963   4.730
    1C        C  531   2.630   4.095   4.725
    1C        C  532   2.538   3.904   4.853
    1C        C  533   2.532   3.994   4.965
    1C        C  534   3.615   4.547   2.039
    1C        C  535   3.750   4.512   2.037
    1C        C  536   3.534   4.534   2.157
    1C        C  537   3.605   4.507   2.277
    1C        C  538   3.393   4.521   2.400
    1C        C  539   3.534   4.514   2.398
    1C        C  540   3.322   4.515   2.522
    1C        C  541   3.395   4.522   2.643
    1C        C  542   3.185   4.482   2.765
    1C        C  543   3.322   4.518   2.763
    1C        C  544   3.121   4.458   2.889
    1C        C  545   3.187   4.490   3.010
    1C        C  546   2.997   4.401   3.135
    1C        C  547   3.120   4.470   3.132
    1C        C  548   2.938   4.362   3.258
    1C        C  549   2.998   4.406   3.378
    1C        C  550   2.833   4.277   3.505
    1C        C  551   2.937   4.371   3.501
    1C        C  552   2.781   4.228   3.627
    1C        C  553   2.831   4.283   3.748
    1C        C  554   2.700   4.115   3.872
    1C        C  555   2.784   4.228   3.869
    1C        C  556   2.660   4.061   3.996
    1C        C  557   2.701   4.121   4.118
    1C        C  558   2.592   3.944   4.245
    1C        C  559   2.652   4.071   4.241
    1C        C  560   2.561   3.880   4.368
    1C        C  561   2.589   3.949   4.488
    1C        C  562   2.531   3.750   4.616
    1C        C  563   2.558   3.888   4.612
    1C        C  564   2.516   3.682   4.739
    1C        C  565   2.518   3.762   4.857
    1C        C  566   2.524   3.551   4.975
    1C        C  567   2.527   3.690   4.976
    1C        C  568   3.324   4.475   2.041
    1C        C  569   3.393   4.515   2.156
    1C        C  570   3.183   4.476   2.281
    1C        C  571   3.321   4.511   2.279
    1C        C  572   3.116   4.454   2.403
    1C        C  573   3.185   4.481   2.524
    1C        C  574   2.988   4.396   2.648
    1C        C  575   3.114   4.460   2.645
    1C        C  576   2.927   4.363   2.770
    1C        C  577   2.994   4.397   2.890
    1C        C  578   2.829   4.269   3.016
    1C        C  579   2.938   4.358   3.014
    1C        C  580   2.778   4.223   3.139
    1C        C  581   2.829   4.273   3.261
    1C        C  582   2.699   4.108   3.383
    1C        C  583   2.782   4.223   3.385
    1C        C  584   2.659   4.052   3.506
    1C        C  585   2.700   4.113   3.627
    1C        C  586   2.590   3.932   3.752
    1C        C  587   2.662   4.054   3.750
    1C        C  588   2.570   3.871   3.878
    1C        C  589   2.597   3.935   4.001
    1C        C  590   2.526   3.740   4.128
    1C        C  591   2.564   3.876   4.125
    1C        C  592   2.516   3.673   4.252
    1C        C  593   2.526   3.743   4.374
    1C        C  594   2.510   3.534   4.497
    1C        C  595   2.517   3.675   4.497
    1C        C  596   2.511   3.466   4.620
    1C        C  597   2.512   3.540   4.740
    1C        C  598   2.543   3.329   4.863
    1C        C  599   2.523   3.469   4.862
    1C        C  600   2.529   3.250   4.978
    1C        C  601   3.192   4.435   2.043
    1C        C  602   2.982   4.393   2.161
    1C        C  603   3.116   4.443   2.160
    1C        C  604   2.923   4.357   2.285
    1C        C  605   2.987   4.395   2.405
    1C        C  606   2.817   4.268   2.527
    1C        C  607   2.926   4.358   2.527
    1C        C  608   2.766   4.219   2.649
    1C        C  609   2.821   4.270   2.770
    1C        C  610   2.690   4.108   2.895
    1C        C  611   2.779   4.218   2.894
    1C        C  612   2.650   4.053   3.019
    1C        C  613   2.694   4.109   3.140
    1C        C  614   2.596   3.921   3.263
    1C        C  615   2.657   4.048   3.262
    1C        C  616   2.564   3.863   3.388
    1C        C  617   2.592   3.928   3.510
    1C        C  618   2.525   3.727   3.637
    1C        C  619   2.563   3.863   3.633
    1C        C  620   2.515   3.663   3.763
    1C        C  621   2.530   3.735   3.884
    1C        C  622   2.506   3.526   4.009
    1C        C  623   2.516   3.667   4.007
    1C        C  624   2.508   3.458   4.132
    1C        C  625   2.505   3.532   4.252
    1C        C  626   2.532   3.322   4.378
    1C        C  627   2.510   3.462   4.375
    1C        C  628   2.545   3.253   4.500
    1C        C  629   2.531   3.326   4.620
    1C        C  630   2.595   3.121   4.743
    1C        C  631   2.553   3.257   4.742
    1C        C  632   2.617   3.052   4.866
    1C        C  633   2.560   3.113   4.982
    1C        C  634   2.782   4.302   2.056
    1C        C  635   2.892   4.389   2.050
    1C        C  636   2.751   4.223   2.167
    1C        C  637   2.808   4.273   2.286
    1C        C  638   2.674   4.107   2.408
    1C        C  639   2.761   4.219   2.407
    1C        C  640   2.639   4.048   2.531
    1C        C  641   2.679   4.109   2.652
    1C        C  642   2.581   3.922   2.776
    1C        C  643   2.644   4.048   2.775
    1C        C  644   2.561   3.857   2.900
    1C        C  645   2.585   3.928   3.020
    1C        C  646   2.526   3.722   3.146
    1C        C  647   2.565   3.858   3.141
    1C        C  648   2.510   3.655   3.269
    1C        C  649   2.524   3.728   3.390
    1C        C  650   2.500   3.519   3.517
    1C        C  651   2.512   3.660   3.513
    1C        C  652   2.506   3.453   3.641
    1C        C  653   2.506   3.522   3.764
    1C        C  654   2.534   3.315   3.890
    1C        C  655   2.505   3.454   3.887
    1C        C  656   2.554   3.250   4.014
    1C        C  657   2.534   3.319   4.135
    1C        C  658   2.608   3.121   4.258
    1C        C  659   2.553   3.251   4.258
    1C        C  660   2.637   3.059   4.382
    1C        C  661   2.595   3.121   4.502
    1C        C  662   2.711   2.941   4.622
    1C        C  663   2.628   3.055   4.623
    1C        C  664   2.751   2.879   4.743
    1C        C  665   2.701   2.936   4.863
    1C        C  666   2.745   2.876   4.982
    1C        C  667   2.680   4.021   2.052
    1C        C  668   2.683   4.099   2.168
    1C        C  669   2.585   3.909   2.289
    1C        C  670   2.638   4.042   2.289
    1C        C  671   2.556   3.846   2.412
    1C        C  672   2.582   3.919   2.531
    1C        C  673   2.512   3.721   2.659
    1C        C  674   2.554   3.856   2.654
    1C        C  675   2.497   3.650   2.781
    1C        C  676   2.516   3.723   2.901
    1C        C  677   2.503   3.513   3.028
    1C        C  678   2.509   3.654   3.024
    1C        C  679   2.503   3.444   3.152
    1C        C  680   2.501   3.514   3.274
    1C        C  681   2.527   3.305   3.400
    1C        C  682   2.506   3.445   3.397
    1C        C  683   2.540   3.238   3.524
    1C        C  684   2.528   3.313   3.643
    1C        C  685   2.603   3.116   3.768
    1C        C  686   2.550   3.247   3.767
    1C        C  687   2.639   3.057   3.891
    1C        C  688   2.604   3.118   4.014
    1C        C  689   2.712   2.936   4.134
    1C        C  690   2.637   3.056   4.136
    1C        C  691   2.760   2.885   4.256
    1C        C  692   2.715   2.942   4.378
    1C        C  693   2.753   2.882   4.500
    1C        C  694   2.630   3.890   2.055
    1C        C  695   2.520   3.703   2.174
    1C        C  696   2.575   3.833   2.171
    1C        C  697   2.501   3.636   2.297
    1C        C  698   2.515   3.711   2.416
    1C        C  699   2.487   3.506   2.542
    1C        C  700   2.497   3.647   2.540
    1C        C  701   2.498   3.435   2.663
    1C        C  702   2.496   3.509   2.784
    1C        C  703   2.524   3.300   2.911
    1C        C  704   2.505   3.440   2.907
    1C        C  705   2.543   3.234   3.034
    1C        C  706   2.532   3.306   3.155
    1C        C  707   2.595   3.104   3.278
    1C        C  708   2.549   3.238   3.278
    1C        C  709   2.635   3.047   3.401
    1C        C  710   2.601   3.110   3.523
    1C        C  711   2.715   2.936   3.647
    1C        C  712   2.632   3.051   3.647
    1C        C  713   2.760   2.882   3.770
    1C        C  714   2.718   2.940   3.892
    1C        C  715   2.758   2.879   4.013
    1C        C  716   2.444   3.499   2.060
    1C        C  717   2.487   3.632   2.057
    1C        C  718   2.462   3.423   2.180
    1C        C  719   2.474   3.497   2.300
    1C        C  720   2.509   3.290   2.426
    1C        C  721   2.479   3.428   2.424
    1C        C  722   2.530   3.220   2.546
    1C        C  723   2.519   3.295   2.665
    1C        C  724   2.584   3.097   2.790
    1C        C  725   2.534   3.229   2.789
    1C        C  726   2.618   3.034   2.912
    1C        C  727   2.585   3.099   3.033
    1C        C  728   2.711   2.929   3.156
    1C        C  729   2.622   3.038   3.156
    1C        C  730   2.759   2.879   3.279
    1C        C  731   2.716   2.932   3.402
    1C        C  732   2.763   2.882   3.526
    1C        C  733   2.479   3.197   2.072
    1C        C  734   2.484   3.281   2.184
    1C        C  735   2.584   3.090   2.304
    1C        C  736   2.524   3.219   2.305
    1C        C  737   2.610   3.021   2.425
    1C        C  738   2.583   3.089   2.546
    1C        C  739   2.698   2.914   2.670
    1C        C  740   2.619   3.031   2.670
    1C        C  741   2.743   2.860   2.792
    1C        C  742   2.702   2.921   2.913
    1C        C  743   2.751   2.869   3.035
    1C        C  744   2.543   3.073   2.071
    1C        C  745   2.687   2.904   2.183
    1C        C  746   2.612   3.023   2.183
    1C        C  747   2.733   2.847   2.304
    1C        C  748   2.685   2.902   2.425
    1C        C  749   2.740   2.857   2.547
    1C        C  750   2.730   2.838   2.067
    1C        C  751   3.652   2.278   2.016
    1C        O  752   3.669   2.171   2.081
    1C        O  753   3.700   2.283   1.885
    1C        C  754   4.640   3.055   1.992
    1C        O  755   4.635   3.014   1.873
    1C        O  756   4.766   3.031   2.047
    1C        C  757   4.455   4.218   1.964
    1C        O  758   4.560   4.274   2.005
    1C        O  759   4.444   4.213   1.825
    1C        C  760   3.570   4.623   1.920
    1C        O  761   3.605   4.743   1.908
    1C        O  762   3.526   4.567   1.799
    1C        C  763   2.883   4.507   1.961
    1C        O  764   2.902   4.499   1.836
    1C        O  765   2.792   4.613   1.972
    1C        C  766   2.331   3.473   1.968
    1C        O  767   2.354   3.455   1.846
    1C        O  768   2.217   3.410   2.021
    1C        C  769   4.695   3.588   5.050
    1C        O  770   4.699   3.605   5.175
    1C        O  771   4.824   3.616   5.005
    1C        C  772   4.268   4.444   5.046
    1C        O  773   4.234   4.460   5.166
    1C        O  774   4.380   4.518   5.005
    1C        C  775   4.147   2.511   5.060
    1C        O  776   4.186   2.395   5.031
    1C        O  777   4.137   2.515   5.200
    1C        C  778   2.888   4.543   5.046
    1C        O  779   2.859   4.655   4.996
    1C        O  780   2.962   4.551   5.165
    1C        C  781   2.488   3.042   5.089
    1C        O  782   2.373   2.989   5.085
    1C        O  783   2.503   3.064   5.226
    1C        C  784   2.432   3.987   5.073
    1C        O  785   2.319   4.039   5.050
    1C        O  786   2.466   3.977   5.209
    1C        C  787   2.943   2.434   2.000
    1C        O  788   2.937   2.464   1.878
    1C        O  789   2.922   2.298   2.022
    1C        C  790   3.203   2.399   5.093
    1C        O  791   3.219   2.275   5.087
    1C        O  792   3.195   2.449   5.224
    1C        H  793   4.285   3.017   5.070
    1C        H  794   4.160   2.820   5.064
    1C        H  795   4.508   3.134   5.058
    1C        H  796   4.485   3.378   5.064
    1C        H  797   4.593   3.815   5.033
    1C        H  798   4.443   3.987   5.049
    1C        H  799   4.263   4.144   5.050
    1C        H  800   4.021   4.527   5.034
    1C        H  801   3.819   4.610   5.034
    1C        H  802   3.592   4.531   5.031
    1C        H  803   3.369   4.564   5.045
    1C        H  804   3.158   4.477   5.057
    1C        H  805   3.899   2.473   5.060
    1C        H  806   3.679   2.455   5.073
    1C        H  807   2.994   2.541   5.051
    1C        H  808   3.452   2.433   5.073
    1C        H  809   2.914   2.796   5.061
    1C        H  810   2.673   2.871   5.061
    1C        H  811   2.532   3.301   5.072
    1C        H  812   2.543   3.511   5.073
    1C        H  813   2.548   3.739   5.069
    1C        H  814   2.586   4.182   5.041
    1C        H  815   2.802   4.270   5.042
    1C        H  816   2.696   2.878   1.974
    1C        H  817   2.819   2.669   1.982
    1C        H  818   3.210   2.444   1.987
    1C        H  819   3.428   2.447   1.978
    1C        H  820   3.846   2.533   1.971
    1C        H  821   4.078   2.601   1.972
    1C        H  822   4.298   2.692   1.998
    1C        H  823   4.402   2.891   1.970
    1C        H  824   4.620   3.297   1.990
    1C        H  825   4.529   3.511   1.959
    1C        H  826   4.460   3.744   1.961
    1C        H  827   3.800   4.493   1.944
    1C        H  828   3.993   4.417   1.952
    1C        H  829   4.177   4.280   1.947
    1C        H  830   4.513   3.966   1.972
    1C        H  831   2.668   3.823   1.981
    1C        H  832   2.666   4.070   1.958
    1C        H  833   2.702   4.320   1.987
    1C        H  834   3.378   4.432   1.959
    1C        H  835   3.158   4.371   1.964
    1C        H  836   2.574   3.042   1.973
    1C        H  837   2.413   3.221   1.992
    1C        H  838   2.474   3.689   1.967
    2V3OU   H29  839   2.809   3.547   5.093
    2V3OU   C27  840   2.784   3.503   5.193
    2V3OU   H27  841   2.720   3.570   5.255
    2V3OU   H28  842   2.729   3.408   5.169
    2V3OU   O11  843   2.906   3.476   5.262
    2V3OU   C15  844   2.917   3.393   5.372
    2V3OU   C13  845   3.046   3.378   5.426
    2V3OU   C14  846   3.072   3.273   5.515
    2V3OU   C16  847   2.967   3.192   5.555
    2V3OU    H6  848   2.990   3.103   5.616
    2V3OU   C12  849   3.211   3.227   5.536
    2V3OU    O2  850   3.242   3.121   5.594
    2V3OU   C10  851   3.322   3.312   5.490
    2V3OU    C8  852   3.455   3.273   5.504
    2V3OU   O10  853   3.486   3.155   5.563
    2V3OU   H26  854   3.399   3.119   5.584
    2V3OU    C6  855   3.564   3.344   5.446
    2V3OU    C5  856   3.538   3.461   5.374
    2V3OU    C4  857   3.704   3.292   5.445
    2V3OU    H4  858   3.722   3.231   5.538
    2V3OU    H5  859   3.718   3.222   5.357
    2V3OU    C2  860   3.815   3.398   5.442
    2V3OU    O6  861   3.805   3.472   5.563
    2V3OU   H21  862   3.767   3.556   5.532
    2V3OU    C3  863   3.781   3.493   5.327
    2V3OU    H2  864   3.863   3.568   5.316
    2V3OU    H3  865   3.780   3.438   5.229
    2V3OU   C25  866   3.949   3.328   5.423
    2V3OU    O7  867   3.995   3.303   5.311
    2V3OU   C26  868   4.022   3.292   5.552
    2V3OU   H22  869   4.057   3.382   5.608
    2V3OU   H23  870   4.111   3.227   5.530
    2V3OU    O8  871   3.959   3.204   5.643
    2V3OU   H24  872   3.923   3.260   5.714
    2V3OU    C1  873   3.645   3.560   5.339
    2V3OU    H1  874   3.623   3.614   5.243
    2V3OU    O3  875   3.658   3.652   5.448
    2V3OU   C19  876   3.617   3.789   5.452
    2V3OU    H9  877   3.518   3.798   5.398
    2V3OU    O4  878   3.709   3.851   5.365
    2V3OU   C20  879   3.844   3.875   5.408
    2V3OU   H10  880   3.883   3.770   5.419
    2V3OU   C24  881   3.610   3.857   5.589
    2V3OU   H16  882   3.546   3.798   5.659
    2V3OU   H17  883   3.560   3.956   5.569
    2V3OU   C23  884   3.754   3.874   5.639
    2V3OU   H15  885   3.792   3.767   5.654
    2V3OU    N1  886   3.743   3.952   5.761
    2V3OU   H19  887   3.817   3.925   5.822
    2V3OU   H20  888   3.652   3.936   5.798
    2V3OU   C21  889   3.850   3.949   5.542
    2V3OU   H11  890   3.955   3.929   5.580
    2V3OU    O5  891   3.828   4.089   5.548
    2V3OU   H18  892   3.778   4.105   5.630
    2V3OU   C22  893   3.913   3.951   5.296
    2V3OU   H12  894   3.859   4.048   5.276
    2V3OU   H13  895   3.901   3.895   5.199
    2V3OU   H14  896   4.023   3.952   5.315
    2V3OU   C11  897   3.156   3.471   5.395
    2V3OU    O1  898   3.134   3.589   5.361
    2V3OU    C9  899   3.296   3.424   5.408
    2V3OU    C7  900   3.401   3.493   5.348
    2V3OU    O9  901   3.385   3.615   5.286
    2V3OU   H25  902   3.290   3.629   5.271
    2V3OU   C17  903   2.812   3.313   5.421
    2V3OU    H7  904   2.708   3.335   5.399
    2V3OU   C18  905   2.838   3.205   5.505
    2V3OU    H8  906   2.752   3.141   5.533
    3SOL     OW  907   3.994   3.932   4.479
    3SOL    HW1  908   3.973   3.995   4.554
    3SOL    HW2  909   4.036   3.849   4.516
    4SOL     OW  910   6.257   0.065   0.337
    4SOL    HW1  911   6.345   0.018   0.345
    4SOL    HW2  912   6.268   0.146   0.280
    5SOL     OW  913   4.387   1.579   1.485
    5SOL    HW1  914   4.371   1.673   1.455
    5SOL    HW2  915   4.299   1.531   1.489
    6SOL     OW  916   5.378   0.630   2.604
    6SOL    HW1  917   5.373   0.718   2.556
    6SOL    HW2  918   5.295   0.577   2.585
    7SOL     OW  919   2.427   4.330   3.272
    7SOL    HW1  920   2.467   4.379   3.194
    7SOL    HW2  921   2.482   4.348   3.353
    8SOL     OW  922   2.032   3.485   5.731
    8SOL    HW1  923   1.982   3.477   5.645
    8SOL    HW2  924   2.010   3.407   5.790
    9SOL     OW  925   6.037   1.124   6.751
    9SOL    HW1  926   6.079   1.122   6.842
    9SOL    HW2  927   5.941   1.098   6.758
   10SOL     OW  928   4.709   5.068   3.239
   10SOL    HW1  929   4.742   5.122   3.317
   10SOL    HW2  930   4.743   5.107   3.154
   11SOL     OW  931   2.380   0.690   0.691
   11SOL    HW1  932   2.316   0.615   0.709
   11SOL    HW2  933   2.474   0.654   0.690
   12SOL     OW  934   2.989   5.208   3.323
   12SOL    HW1  935   2.973   5.200   3.421
   12SOL    HW2  936   2.995   5.305   3.298
   13SOL     OW  937   4.769   6.130   1.563
   13SOL    HW1  938   4.705   6.133   1.485
   13SOL    HW2  939   4.732   6.184   1.638
   14SOL     OW  940   4.375   5.218   5.033
   14SOL    HW1  941   4.381   5.278   5.113
   14SOL    HW2  942   4.447   5.242   4.968
   15SOL     OW  943   6.879   5.695   6.014
   15SOL    HW1  944   6.827   5.779   6.031
   15SOL    HW2  945   6.848   5.624   6.078
   16SOL     OW  946   0.994   3.717   5.466
   16SOL    HW1  947   0.920   3.651   5.478
   16SOL    HW2  948   1.082   3.672   5.482
   17SOL     OW  949   6.207   1.088   5.071
   17SOL    HW1  950   6.248   1.151   5.137
   17SOL    HW2  951   6.113   1.068   5.099
   18SOL     OW  952   3.239   0.993   5.963
   18SOL    HW1  953   3.181   0.938   5.904
   18SOL    HW2  954   3.319   1.025   5.911
   19SOL     OW  955   1.430   1.323   3.160
   19SOL    HW1  956   1.465   1.399   3.213
   19SOL    HW2  957   1.330   1.328   3.156
   20SOL     OW  958   5.767   1.908   5.391
   20SOL    HW1  959   5.685   1.873   5.435
   20SOL    HW2  960   5.743   1.984   5.331
   21SOL     OW  961   2.484   4.960   2.634
   21SOL    HW1  962   2.523   4.954   2.542
   21SOL    HW2  963   2.454   5.054   2.651
   22SOL     OW  964   1.804   6.206   5.768
   22SOL    HW1  965   1.836   6.141   5.699
   22SOL    HW2  966   1.745   6.274   5.725
   23SOL     OW  967   5.191   4.077   2.052
   23SOL    HW1  968   5.198   4.131   1.968
   23SOL    HW2  969   5.283   4.065   2.091
   24SOL     OW  970   4.425   0.895   1.712
   24SOL    HW1  971   4.390   0.931   1.625
   24SOL    HW2  972   4.351   0.854   1.763
   25SOL     OW  973   2.313   0.465   3.955
   25SOL    HW1  974   2.291   0.523   4.034
   25SOL    HW2  975   2.334   0.372   3.987
   26SOL     OW  976   0.818   3.303   6.853
   26SOL    HW1  977   0.832   3.360   6.772
   26SOL    HW2  978   0.892   3.236   6.859
   27SOL     OW  979   6.996   0.980   0.958
   27SOL    HW1  980   0.048   0.914   0.940
   27SOL    HW2  981   7.005   1.057   0.896
   28SOL     OW  982   2.599   0.980   4.689
   28SOL    HW1  983   2.595   0.940   4.598
   28SOL    HW2  984   2.687   0.960   4.731
   29SOL     OW  985   0.048   0.547   0.971
   29SOL    HW1  986   7.003   0.621   0.958
   29SOL    HW2  987   0.084   0.551   1.064
   30SOL     OW  988   4.179   0.612   5.130
   30SOL    HW1  989   4.216   0.637   5.220
   30SOL    HW2  990   4.244   0.552   5.084
   31SOL     OW  991   1.094   3.181   4.910
   31SOL    HW1  992   1.193   3.173   4.926
   31SOL    HW2  993   1.050   3.218   4.992
   32SOL     OW  994   2.128   0.231   1.205
   32SOL    HW1  995   2.100   0.323   1.176
   32SOL    HW2  996   2.051   0.168   1.194
   33SOL     OW  997   0.461   5.249   5.902
   33SOL    HW1  998   0.517   5.172   5.932
   33SOL    HW2  999   0.518   5.331   5.897
   34SOL     OW 1000   2.358   5.403   5.274
   34SOL    HW1 1001   2.340   5.481   5.214
   34SOL    HW2 1002   2.330   5.425   5.367
   35SOL     OW 1003   3.201   3.025   0.370
   35SOL    HW1 1004   3.248   2.953   0.319
   35SOL    HW2 1005   3.146   2.984   0.442
   36SOL     OW 1006   4.583   0.545   4.571
   36SOL    HW1 1007   4.491   0.582   4.560
   36SOL    HW2 1008   4.644   0.616   4.606
   37SOL     OW 1009   2.713   0.871   3.679
   37SOL    HW1 1010   2.800   0.920   3.690
   37SOL    HW2 1011   2.683   0.878   3.584
   38SOL     OW 1012   0.312   4.713   2.420
   38SOL    HW1 1013   0.218   4.699   2.389
   38SOL    HW2 1014   0.312   4.736   2.517
   39SOL     OW 1015   6.689   5.407   5.893
   39SOL    HW1 1016   6.650   5.484   5.945
   39SOL    HW2 1017   6.789   5.414   5.892
   40SOL     OW 1018   3.735   0.745   6.470
   40SOL    HW1 1019   3.744   0.650   6.440
   40SOL    HW2 1020   3.654   0.786   6.427
   41SOL     OW 1021   6.095   4.132   1.605
   41SOL    HW1 1022   6.100   4.164   1.511
   41SOL    HW2 1023   6.007   4.086   1.621
   42SOL     OW 1024   2.384   5.721   5.974
   42SOL    HW1 1025   2.412   5.802   5.923
   42SOL    HW2 1026   2.377   5.643   5.912
   43SOL     OW 1027   4.783   6.483   4.549
   43SOL    HW1 1028   4.735   6.510   4.632
   43SOL    HW2 1029   4.773   6.554   4.480
   44SOL     OW 1030   6.258   1.696   5.994
   44SOL    HW1 1031   6.311   1.780   5.995
   44SOL    HW2 1032   6.166   1.714   5.959
   45SOL     OW 1033   3.505   5.048   6.960
   45SOL    HW1 1034   3.560   5.065   6.879
   45SOL    HW2 1035   3.444   4.970   6.944
   46SOL     OW 1036   0.647   2.867   4.258
   46SOL    HW1 1037   0.563   2.885   4.207
   46SOL    HW2 1038   0.692   2.953   4.282
   47SOL     OW 1039   5.852   3.186   1.609
   47SOL    HW1 1040   5.860   3.092   1.577
   47SOL    HW2 1041   5.769   3.196   1.664
   48SOL     OW 1042   6.113   3.443   0.821
   48SOL    HW1 1043   6.149   3.535   0.810
   48SOL    HW2 1044   6.169   3.379   0.769
   49SOL     OW 1045   4.105   3.144   0.400
   49SOL    HW1 1046   4.030   3.107   0.455
   49SOL    HW2 1047   4.179   3.173   0.460
   50SOL     OW 1048   6.865   3.622   6.536
   50SOL    HW1 1049   6.788   3.666   6.490
   50SOL    HW2 1050   6.833   3.540   6.584
   51SOL     OW 1051   2.691   5.863   2.906
   51SOL    HW1 1052   2.742   5.792   2.857
   51SOL    HW2 1053   2.635   5.915   2.841
   52SOL     OW 1054   5.779   2.901   1.502
   52SOL    HW1 1055   5.788   2.805   1.473
   52SOL    HW2 1056   5.684   2.931   1.490
   53SOL     OW 1057   4.020   0.685   2.236
   53SOL    HW1 1058   3.942   0.742   2.259
   53SOL    HW2 1059   4.054   0.640   2.319
   54SOL     OW 1060   5.544   6.836   0.328
   54SOL    HW1 1061   5.510   6.907   0.389
   54SOL    HW2 1062   5.521   6.746   0.366
   55SOL     OW 1063   1.224   3.421   6.187
   55SOL    HW1 1064   1.305   3.439   6.130
   55SOL    HW2 1065   1.228   3.478   6.269
   56SOL     OW 1066   1.212   2.553   0.114
   56SOL    HW1 1067   1.283   2.542   0.045
   56SOL    HW2 1068   1.250   2.533   0.205
   57SOL     OW 1069   4.537   0.442   6.877
   57SOL    HW1 1070   4.560   0.399   6.790
   57SOL    HW2 1071   4.587   0.397   6.951
   58SOL     OW 1072   0.773   0.537   6.013
   58SOL    HW1 1073   0.693   0.477   6.011
   58SOL    HW2 1074   0.745   0.629   6.043
   59SOL     OW 1075   5.240   3.269   5.851
   59SOL    HW1 1076   5.297   3.243   5.930
   59SOL    HW2 1077   5.212   3.365   5.860
   60SOL     OW 1078   5.463   0.284   2.725
   60SOL    HW1 1079   5.387   0.338   2.761
   60SOL    HW2 1080   5.514   0.339   2.659
   61SOL     OW 1081   6.724   6.949   5.240
   61SOL    HW1 1082   6.791   0.001   5.246
   61SOL    HW2 1083   6.732   6.890   5.320
   62SOL     OW 1084   0.083   2.259   2.157
   62SOL    HW1 1085   0.004   2.321   2.152
   62SOL    HW2 1086   0.167   2.313   2.145
   63SOL     OW 1087   4.594   5.828   5.006
   63SOL    HW1 1088   4.666   5.868   4.950
   63SOL    HW2 1089   4.524   5.788   4.948
   64SOL     OW 1090   0.706   4.539   0.152
   64SOL    HW1 1091   0.756   4.476   0.212
   64SOL    HW2 1092   0.752   4.542   0.063
   65SOL     OW 1093   0.767   6.974   5.476
   65SOL    HW1 1094   0.704   6.971   5.553
   65SOL    HW2 1095   0.830   6.896   5.481
   66SOL     OW 1096   4.339   0.845   2.176
   66SOL    HW1 1097   4.265   0.788   2.139
   66SOL    HW2 1098   4.340   0.837   2.275
   67SOL     OW 1099   0.817   2.194   0.917
   67SOL    HW1 1100   0.847   2.287   0.895
   67SOL    HW2 1101   0.717   2.190   0.917
   68SOL     OW 1102   6.877   1.886   5.568
   68SOL    HW1 1103   6.891   1.853   5.475
   68SOL    HW2 1104   6.956   1.861   5.624
   69SOL     OW 1105   0.824   5.281   6.215
   69SOL    HW1 1106   0.809   5.255   6.310
   69SOL    HW2 1107   0.885   5.215   6.171
   70SOL     OW 1108   5.167   3.466   4.248
   70SOL    HW1 1109   5.076   3.500   4.223
   70SOL    HW2 1110   5.216   3.537   4.298
   71SOL     OW 1111   4.586   1.468   4.201
   71SOL    HW1 1112   4.631   1.556   4.216
   71SOL    HW2 1113   4.627   1.422   4.122
   72SOL     OW 1114   0.403   0.943   3.727
   72SOL    HW1 1115   0.452   0.906   3.648
   72SOL    HW2 1116   0.466   0.994   3.785
   73SOL     OW 1117   2.832   0.811   1.319
   73SOL    HW1 1118   2.891   0.878   1.364
   73SOL    HW2 1119   2.739   0.820   1.353
   74SOL     OW 1120   1.810   2.366   0.638
   74SOL    HW1 1121   1.854   2.341   0.724
   74SOL    HW2 1122   1.876   2.410   0.578
   75SOL     OW 1123   4.105   2.942   0.192
   75SOL    HW1 1124   4.098   2.991   0.106
   75SOL    HW2 1125   4.119   3.007   0.267
   76SOL     OW 1126   3.418   4.773   5.219
   76SOL    HW1 1127   3.329   4.813   5.241
   76SOL    HW2 1128   3.475   4.842   5.175
   77SOL     OW 1129   1.661   4.534   4.331
   77SOL    HW1 1130   1.675   4.583   4.417
   77SOL    HW2 1131   1.596   4.459   4.346
   78SOL     OW 1132   4.988   1.764   0.873
   78SOL    HW1 1133   4.963   1.712   0.954
   78SOL    HW2 1134   5.081   1.800   0.884
   79SOL     OW 1135   1.787   5.015   2.694
   79SOL    HW1 1136   1.801   5.095   2.635
   79SOL    HW2 1137   1.867   4.956   2.689
   80SOL     OW 1138   4.632   2.120   4.645
   80SOL    HW1 1139   4.634   2.068   4.731
   80SOL    HW2 1140   4.571   2.198   4.655
   81SOL     OW 1141   3.123   5.485   1.498
   81SOL    HW1 1142   3.215   5.462   1.465
   81SOL    HW2 1143   3.055   5.436   1.444
   82SOL     OW 1144   1.736   5.842   1.445
   82SOL    HW1 1145   1.684   5.771   1.399
   82SOL    HW2 1146   1.703   5.932   1.416
   83SOL     OW 1147   5.162   1.132   4.679
   83SOL    HW1 1148   5.074   1.111   4.722
   83SOL    HW2 1149   5.227   1.058   4.696
   84SOL     OW 1150   5.640   2.476   2.633
   84SOL    HW1 1151   5.663   2.386   2.598
   84SOL    HW2 1152   5.666   2.482   2.730
   85SOL     OW 1153   1.968   0.577   3.914
   85SOL    HW1 1154   2.023   0.500   3.946
   85SOL    HW2 1155   2.003   0.608   3.825
   86SOL     OW 1156   5.336   0.784   6.753
   86SOL    HW1 1157   5.290   0.870   6.773
   86SOL    HW2 1158   5.385   0.791   6.666
   87SOL     OW 1159   2.972   4.285   0.251
   87SOL    HW1 1160   2.875   4.303   0.237
   87SOL    HW2 1161   3.016   4.270   0.162
   88SOL     OW 1162   3.218   3.499   0.183
   88SOL    HW1 1163   3.221   3.577   0.244
   88SOL    HW2 1164   3.245   3.416   0.233
   89SOL     OW 1165   2.973   3.528   2.824
   89SOL    HW1 1166   3.035   3.452   2.806
   89SOL    HW2 1167   2.885   3.493   2.856
   90SOL     OW 1168   4.849   4.198   3.139
   90SOL    HW1 1169   4.813   4.127   3.078
   90SOL    HW2 1170   4.867   4.157   3.229
   91SOL     OW 1171   4.830   4.937   5.572
   91SOL    HW1 1172   4.803   4.910   5.664
   91SOL    HW2 1173   4.866   5.030   5.573
   92SOL     OW 1174   5.730   4.244   6.424
   92SOL    HW1 1175   5.641   4.227   6.382
   92SOL    HW2 1176   5.717   4.285   6.514
   93SOL     OW 1177   2.865   3.432   2.039
   93SOL    HW1 1178   2.776   3.446   1.996
   93SOL    HW2 1179   2.907   3.349   2.002
   94SOL     OW 1180   3.232   1.651   5.509
   94SOL    HW1 1181   3.234   1.719   5.436
   94SOL    HW2 1182   3.155   1.670   5.570
   95SOL     OW 1183   0.636   0.285   4.726
   95SOL    HW1 1184   0.623   0.347   4.804
   95SOL    HW2 1185   0.728   0.298   4.689
   96SOL     OW 1186   5.105   4.773   0.221
   96SOL    HW1 1187   5.030   4.801   0.280
   96SOL    HW2 1188   5.112   4.673   0.222
   97SOL     OW 1189   2.801   5.016   5.723
   97SOL    HW1 1190   2.899   5.032   5.718
   97SOL    HW2 1191   2.783   4.933   5.775
   98SOL     OW 1192   1.257   2.710   3.220
   98SOL    HW1 1193   1.254   2.795   3.273
   98SOL    HW2 1194   1.353   2.687   3.200
   99SOL     OW 1195   3.916   3.031   4.729
   99SOL    HW1 1196   3.864   3.065   4.651
   99SOL    HW2 1197   3.953   2.941   4.708
  100SOL     OW 1198   7.021   0.183   3.621
  100SOL    HW1 1199   0.068   0.133   3.674
  100SOL    HW2 1200   0.033   0.197   3.528
  101SOL     OW 1201   6.883   3.522   2.489
  101SOL    HW1 1202   6.785   3.505   2.503
  101SOL    HW2 1203   6.895   3.602   2.431
  102SOL     OW 1204   3.038   0.175   0.614
  102SOL    HW1 1205   2.974   0.154   0.688
  102SOL    HW2 1206   3.022   0.268   0.581
  103SOL     OW 1207   2.163   0.834   1.892
  103SOL    HW1 1208   2.175   0.925   1.931
  103SOL    HW2 1209   2.123   0.842   1.800
  104SOL     OW 1210   1.082   4.928   1.369
  104SOL    HW1 1211   1.161   4.916   1.309
  104SOL    HW2 1212   1.005   4.966   1.316
  105SOL     OW 1213   5.327   1.186   5.818
  105SOL    HW1 1214   5.257   1.134   5.770
  105SOL    HW2 1215   5.417   1.156   5.787
  106SOL     OW 1216   5.591   5.424   2.243
  106SOL    HW1 1217   5.658   5.390   2.308
  106SOL    HW2 1218   5.633   5.494   2.185
  107SOL     OW 1219   5.661   0.647   1.042
  107SOL    HW1 1220   5.616   0.577   0.988
  107SOL    HW2 1221   5.705   0.713   0.980
  108SOL     OW 1222   1.908   0.994   5.639
  108SOL    HW1 1223   1.878   0.905   5.673
  108SOL    HW2 1224   1.848   1.066   5.674
  109SOL     OW 1225   1.993   1.067   4.075
  109SOL    HW1 1226   2.018   0.980   4.117
  109SOL    HW2 1227   1.898   1.089   4.095
  110SOL     OW 1228   2.977   4.571   5.634
  110SOL    HW1 1229   3.065   4.598   5.596
  110SOL    HW2 1230   2.923   4.525   5.563
  111SOL     OW 1231   6.713   1.770   1.770
  111SOL    HW1 1232   6.638   1.751   1.706
  111SOL    HW2 1233   6.756   1.684   1.797
  112SOL     OW 1234   4.747   0.069   6.571
  112SOL    HW1 1235   4.779   0.036   6.660
  112SOL    HW2 1236   4.667   0.015   6.543
  113SOL     OW 1237   6.552   6.144   1.651
  113SOL    HW1 1238   6.578   6.229   1.606
  113SOL    HW2 1239   6.496   6.089   1.589
  114SOL     OW 1240   0.420   3.813   3.322
  114SOL    HW1 1241   0.494   3.875   3.296
  114SOL    HW2 1242   0.364   3.793   3.241
  115SOL     OW 1243   6.050   0.993   3.797
  115SOL    HW1 1244   5.978   1.029   3.856
  115SOL    HW2 1245   6.010   0.966   3.709
  116SOL     OW 1246   1.201   4.979   0.795
  116SOL    HW1 1247   1.228   5.028   0.713
  116SOL    HW2 1248   1.267   4.906   0.815
  117SOL     OW 1249   2.158   1.681   6.931
  117SOL    HW1 1250   2.227   1.717   6.869
  117SOL    HW2 1251   2.116   1.599   6.890
  118SOL     OW 1252   1.315   1.635   4.303
  118SOL    HW1 1253   1.266   1.548   4.292
  118SOL    HW2 1254   1.263   1.708   4.260
  119SOL     OW 1255   6.779   6.080   6.435
  119SOL    HW1 1256   6.828   6.044   6.514
  119SOL    HW2 1257   6.709   6.014   6.407
  120SOL     OW 1258   4.814   2.496   4.702
  120SOL    HW1 1259   4.715   2.480   4.711
  120SOL    HW2 1260   4.863   2.431   4.761
  121SOL     OW 1261   1.619   4.149   6.799
  121SOL    HW1 1262   1.602   4.051   6.788
  121SOL    HW2 1263   1.585   4.178   6.889
  122SOL     OW 1264   0.744   4.103   6.987
  122SOL    HW1 1265   0.681   4.036   6.947
  122SOL    HW2 1266   0.813   4.129   6.918
  123SOL     OW 1267   1.388   1.338   1.848
  123SOL    HW1 1268   1.396   1.311   1.752
  123SOL    HW2 1269   1.383   1.437   1.854
  124SOL     OW 1270   2.219   2.875   0.487
  124SOL    HW1 1271   2.203   2.777   0.495
  124SOL    HW2 1272   2.314   2.892   0.462
  125SOL     OW 1273   3.864   3.541   0.308
  125SOL    HW1 1274   3.937   3.609   0.318
  125SOL    HW2 1275   3.876   3.491   0.221
  126SOL     OW 1276   3.569   3.555   4.350
  126SOL    HW1 1277   3.571   3.486   4.422
  126SOL    HW2 1278   3.597   3.643   4.387
  127SOL     OW 1279   0.354   5.974   6.237
  127SOL    HW1 1280   0.334   5.926   6.322
  127SOL    HW2 1281   0.297   5.937   6.164
  128SOL     OW 1282   5.008   3.567   0.725
  128SOL    HW1 1283   4.989   3.586   0.822
  128SOL    HW2 1284   5.007   3.469   0.709
  129SOL     OW 1285   1.565   5.808   0.996
  129SOL    HW1 1286   1.545   5.722   0.950
  129SOL    HW2 1287   1.569   5.794   1.095
  130SOL     OW 1288   5.172   2.536   4.834
  130SOL    HW1 1289   5.143   2.625   4.869
  130SOL    HW2 1290   5.212   2.548   4.743
  131SOL     OW 1291   6.934   2.411   3.918
  131SOL    HW1 1292   6.915   2.327   3.867
  131SOL    HW2 1293   7.018   2.400   3.972
  132SOL     OW 1294   4.148   3.542   2.388
  132SOL    HW1 1295   4.115   3.452   2.363
  132SOL    HW2 1296   4.228   3.533   2.448
  133SOL     OW 1297   5.598   6.359   5.785
  133SOL    HW1 1298   5.519   6.393   5.835
  133SOL    HW2 1299   5.627   6.272   5.824
  134SOL     OW 1300   5.050   1.012   1.761
  134SOL    HW1 1301   4.964   1.029   1.714
  134SOL    HW2 1302   5.041   1.037   1.858
  135SOL     OW 1303   4.960   3.663   4.098
  135SOL    HW1 1304   4.986   3.716   4.018
  135SOL    HW2 1305   4.923   3.724   4.168
  136SOL     OW 1306   3.499   6.644   5.543
  136SOL    HW1 1307   3.474   6.681   5.633
  136SOL    HW2 1308   3.545   6.716   5.490
  137SOL     OW 1309   3.074   2.454   5.687
  137SOL    HW1 1310   3.087   2.380   5.621
  137SOL    HW2 1311   3.079   2.542   5.640
  138SOL     OW 1312   1.257   5.845   5.987
  138SOL    HW1 1313   1.288   5.854   5.893
  138SOL    HW2 1314   1.219   5.753   6.001
  139SOL     OW 1315   1.964   5.921   0.243
  139SOL    HW1 1316   1.991   5.987   0.314
  139SOL    HW2 1317   1.978   5.962   0.153
  140SOL     OW 1318   2.381   0.286   2.232
  140SOL    HW1 1319   2.400   0.345   2.154
  140SOL    HW2 1320   2.289   0.306   2.267
  141SOL     OW 1321   6.575   3.863   0.322
  141SOL    HW1 1322   6.537   3.955   0.310
  141SOL    HW2 1323   6.665   3.869   0.365
  142SOL     OW 1324   1.527   4.139   2.472
  142SOL    HW1 1325   1.442   4.163   2.426
  142SOL    HW2 1326   1.597   4.116   2.404
  143SOL     OW 1327   4.941   6.667   2.105
  143SOL    HW1 1328   5.032   6.674   2.148
  143SOL    HW2 1329   4.942   6.597   2.035
  144SOL     OW 1330   3.377   5.121   3.731
  144SOL    HW1 1331   3.468   5.082   3.744
  144SOL    HW2 1332   3.361   5.191   3.801
  145SOL     OW 1333   0.070   5.068   3.177
  145SOL    HW1 1334   0.055   5.054   3.275
  145SOL    HW2 1335   0.131   4.997   3.142
  146SOL     OW 1336   5.774   1.488   6.565
  146SOL    HW1 1337   5.758   1.410   6.505
  146SOL    HW2 1338   5.695   1.549   6.562
  147SOL     OW 1339   4.874   1.165   5.186
  147SOL    HW1 1340   4.847   1.069   5.193
  147SOL    HW2 1341   4.963   1.177   5.231
  148SOL     OW 1342   1.438   5.389   0.426
  148SOL    HW1 1343   1.512   5.402   0.492
  148SOL    HW2 1344   1.353   5.424   0.465
  149SOL     OW 1345   1.848   3.098   5.671
  149SOL    HW1 1346   1.844   3.015   5.727
  149SOL    HW2 1347   1.923   3.089   5.604
  150SOL     OW 1348   4.247   1.774   4.835
  150SOL    HW1 1349   4.218   1.699   4.895
  150SOL    HW2 1350   4.270   1.737   4.745
  151SOL     OW 1351   4.183   2.716   0.838
  151SOL    HW1 1352   4.255   2.658   0.876
  151SOL    HW2 1353   4.133   2.760   0.912
  152SOL     OW 1354   1.140   1.585   0.255
  152SOL    HW1 1355   1.156   1.549   0.164
  152SOL    HW2 1356   1.225   1.623   0.292
  153SOL     OW 1357   3.052   1.185   3.699
  153SOL    HW1 1358   3.029   1.272   3.656
  153SOL    HW2 1359   3.133   1.197   3.757
  154SOL     OW 1360   5.871   1.430   1.416
  154SOL    HW1 1361   5.955   1.481   1.399
  154SOL    HW2 1362   5.878   1.383   1.504
  155SOL     OW 1363   1.745   0.126   2.194
  155SOL    HW1 1364   1.717   0.138   2.099
  155SOL    HW2 1365   1.819   0.059   2.199
  156SOL     OW 1366   5.151   2.304   0.483
  156SOL    HW1 1367   5.082   2.374   0.500
  156SOL    HW2 1368   5.192   2.320   0.393
  157SOL     OW 1369   4.571   5.208   0.054
  157SOL    HW1 1370   4.517   5.145   7.019
  157SOL    HW2 1371   4.652   5.160   0.088
  158SOL     OW 1372   0.378   3.011   3.050
  158SOL    HW1 1373   0.362   3.048   2.958
  158SOL    HW2 1374   0.363   3.083   3.118
  159SOL     OW 1375   5.797   5.490   0.377
  159SOL    HW1 1376   5.875   5.481   0.439
  159SOL    HW2 1377   5.764   5.399   0.352
  160SOL     OW 1378   6.235   6.853   1.225
  160SOL    HW1 1379   6.290   6.842   1.308
  160SOL    HW2 1380   6.154   6.794   1.231
  161SOL     OW 1381   0.185   6.625   0.375
  161SOL    HW1 1382   0.210   6.614   0.471
  161SOL    HW2 1383   0.179   6.536   0.331
  162SOL     OW 1384   3.999   6.951   6.997
  162SOL    HW1 1385   4.016   7.005   6.914
  162SOL    HW2 1386   3.920   6.892   6.982
  163SOL     OW 1387   6.614   3.748   3.188
  163SOL    HW1 1388   6.708   3.717   3.177
  163SOL    HW2 1389   6.552   3.671   3.171
  164SOL     OW 1390   2.003   2.360   3.610
  164SOL    HW1 1391   2.010   2.438   3.548
  164SOL    HW2 1392   2.005   2.275   3.558
  165SOL     OW 1393   0.687   6.359   3.454
  165SOL    HW1 1394   0.749   6.311   3.391
  165SOL    HW2 1395   0.741   6.412   3.519
  166SOL     OW 1396   6.876   3.555   2.798
  166SOL    HW1 1397   6.890   3.504   2.713
  166SOL    HW2 1398   6.796   3.518   2.846
  167SOL     OW 1399   4.916   2.122   6.708
  167SOL    HW1 1400   4.863   2.143   6.626
  167SOL    HW2 1401   4.877   2.169   6.786
  168SOL     OW 1402   5.056   4.298   2.136
  168SOL    HW1 1403   4.962   4.279   2.161
  168SOL    HW2 1404   5.101   4.213   2.109
  169SOL     OW 1405   6.158   2.110   1.401
  169SOL    HW1 1406   6.182   2.065   1.315
  169SOL    HW2 1407   6.064   2.144   1.396
  170SOL     OW 1408   0.470   5.232   3.012
  170SOL    HW1 1409   0.497   5.328   3.017
  170SOL    HW2 1410   0.552   5.175   3.001
  171SOL     OW 1411   3.147   4.090   0.350
  171SOL    HW1 1412   3.074   4.156   0.332
  171SOL    HW2 1413   3.212   4.129   0.416
  172SOL     OW 1414   6.716   1.772   0.319
  172SOL    HW1 1415   6.732   1.746   0.224
  172SOL    HW2 1416   6.626   1.740   0.348
  173SOL     OW 1417   0.039   2.150   5.219
  173SOL    HW1 1418   6.988   2.157   5.288
  173SOL    HW2 1419   0.078   2.240   5.201
  174SOL     OW 1420   6.336   5.206   5.511
  174SOL    HW1 1421   6.423   5.254   5.507
  174SOL    HW2 1422   6.261   5.271   5.496
  175SOL     OW 1423   0.898   6.910   1.104
  175SOL    HW1 1424   0.838   6.985   1.132
  175SOL    HW2 1425   0.846   6.824   1.102
  176SOL     OW 1426   5.613   4.761   2.280
  176SOL    HW1 1427   5.520   4.735   2.254
  176SOL    HW2 1428   5.612   4.802   2.371
  177SOL     OW 1429   5.903   2.304   4.402
  177SOL    HW1 1430   5.822   2.343   4.446
  177SOL    HW2 1431   5.964   2.265   4.472
  178SOL     OW 1432   1.915   6.362   5.216
  178SOL    HW1 1433   1.916   6.349   5.315
  178SOL    HW2 1434   1.852   6.297   5.174
  179SOL     OW 1435   3.879   4.706   1.171
  179SOL    HW1 1436   3.840   4.614   1.176
  179SOL    HW2 1437   3.808   4.773   1.193
  180SOL     OW 1438   4.515   1.729   0.776
  180SOL    HW1 1439   4.578   1.730   0.698
  180SOL    HW2 1440   4.457   1.648   0.770
  181SOL     OW 1441   3.189   2.142   5.568
  181SOL    HW1 1442   3.228   2.224   5.527
  181SOL    HW2 1443   3.158   2.079   5.497
  182SOL     OW 1444   5.015   2.496   6.813
  182SOL    HW1 1445   4.922   2.503   6.776
  182SOL    HW2 1446   5.031   2.403   6.844
  183SOL     OW 1447   3.566   1.712   3.511
  183SOL    HW1 1448   3.539   1.779   3.442
  183SOL    HW2 1449   3.658   1.732   3.543
  184SOL     OW 1450   6.113   6.108   3.779
  184SOL    HW1 1451   6.048   6.032   3.770
  184SOL    HW2 1452   6.129   6.126   3.876
  185SOL     OW 1453   6.973   1.600   4.363
  185SOL    HW1 1454   6.940   1.531   4.299
  185SOL    HW2 1455   6.895   1.647   4.404
  186SOL     OW 1456   4.651   5.857   4.008
  186SOL    HW1 1457   4.643   5.951   4.042
  186SOL    HW2 1458   4.737   5.817   4.042
  187SOL     OW 1459   4.415   6.492   1.651
  187SOL    HW1 1460   4.432   6.581   1.692
  187SOL    HW2 1461   4.497   6.435   1.656
  188SOL     OW 1462   1.776   2.766   3.137
  188SOL    HW1 1463   1.851   2.764   3.204
  188SOL    HW2 1464   1.809   2.728   3.050
  189SOL     OW 1465   6.217   5.115   6.327
  189SOL    HW1 1466   6.234   5.202   6.373
  189SOL    HW2 1467   6.193   5.045   6.394
  190SOL     OW 1468   6.117   0.364   6.978
  190SOL    HW1 1469   6.066   0.278   6.971
  190SOL    HW2 1470   6.201   0.357   6.923
  191SOL     OW 1471   6.641   1.307   5.508
  191SOL    HW1 1472   6.568   1.353   5.558
  191SOL    HW2 1473   6.681   1.236   5.567
  192SOL     OW 1474   0.731   5.609   0.642
  192SOL    HW1 1475   0.658   5.541   0.651
  192SOL    HW2 1476   0.709   5.689   0.698
  193SOL     OW 1477   2.893   5.942   6.247
  193SOL    HW1 1478   2.824   5.918   6.315
  193SOL    HW2 1479   2.949   5.861   6.227
  194SOL     OW 1480   3.921   6.751   2.009
  194SOL    HW1 1481   3.848   6.734   1.942
  194SOL    HW2 1482   3.890   6.817   2.076
  195SOL     OW 1483   3.270   1.023   1.618
  195SOL    HW1 1484   3.336   1.032   1.692
  195SOL    HW2 1485   3.205   0.950   1.640
  196SOL     OW 1486   2.232   1.103   0.648
  196SOL    HW1 1487   2.138   1.137   0.645
  196SOL    HW2 1488   2.247   1.041   0.570
  197SOL     OW 1489   2.211   6.324   0.601
  197SOL    HW1 1490   2.151   6.395   0.565
  197SOL    HW2 1491   2.253   6.274   0.525
  198SOL     OW 1492   4.396   6.964   6.751
  198SOL    HW1 1493   4.410   0.017   6.817
  198SOL    HW2 1494   4.299   6.943   6.744
  199SOL     OW 1495   6.690   6.245   2.962
  199SOL    HW1 1496   6.781   6.283   2.977
  199SOL    HW2 1497   6.654   6.209   3.048
  200SOL     OW 1498   0.426   3.795   3.582
  200SOL    HW1 1499   0.524   3.777   3.576
  200SOL    HW2 1500   0.388   3.803   3.490
  201SOL     OW 1501   3.343   0.759   0.061
  201SOL    HW1 1502   3.406   0.803   0.125
  201SOL    HW2 1503   3.373   0.777   6.989
  202SOL     OW 1504   3.797   0.079   3.145
  202SOL    HW1 1505   3.803   0.176   3.122
  202SOL    HW2 1506   3.789   0.069   3.244
  203SOL     OW 1507   5.440   3.729   6.018
  203SOL    HW1 1508   5.374   3.801   6.039
  203SOL    HW2 1509   5.500   3.759   5.944
  204SOL     OW 1510   2.309   6.975   0.627
  204SOL    HW1 1511   2.248   6.912   0.579
  204SOL    HW2 1512   2.316   6.949   0.723
  205SOL     OW 1513   6.061   1.658   0.818
  205SOL    HW1 1514   6.024   1.731   0.760
  205SOL    HW2 1515   6.026   1.570   0.785
  206SOL     OW 1516   1.038   4.591   2.040
  206SOL    HW1 1517   1.017   4.637   1.954
  206SOL    HW2 1518   1.136   4.601   2.060
  207SOL     OW 1519   4.396   0.671   5.876
  207SOL    HW1 1520   4.447   0.733   5.817
  207SOL    HW2 1521   4.460   0.605   5.917
  208SOL     OW 1522   4.761   5.573   6.182
  208SOL    HW1 1523   4.808   5.501   6.232
  208SOL    HW2 1524   4.667   5.545   6.164
  209SOL     OW 1525   6.569   5.367   5.540
  209SOL    HW1 1526   6.650   5.354   5.481
  209SOL    HW2 1527   6.537   5.461   5.531
  210SOL     OW 1528   4.187   2.659   1.241
  210SOL    HW1 1529   4.099   2.704   1.257
  210SOL    HW2 1530   4.184   2.611   1.153
  211SOL     OW 1531   1.567   1.143   1.018
  211SOL    HW1 1532   1.576   1.232   0.972
  211SOL    HW2 1533   1.473   1.132   1.051
  212SOL     OW 1534   0.595   4.840   4.073
  212SOL    HW1 1535   0.545   4.771   4.125
  212SOL    HW2 1536   0.687   4.807   4.052
  213SOL     OW 1537   5.543   2.107   6.778
  213SOL    HW1 1538   5.484   2.051   6.836
  213SOL    HW2 1539   5.634   2.114   6.819
  214SOL     OW 1540   0.844   0.263   2.512
  214SOL    HW1 1541   0.910   0.253   2.438
  214SOL    HW2 1542   0.751   0.259   2.475
  215SOL     OW 1543   3.430   3.252   2.707
  215SOL    HW1 1544   3.529   3.255   2.693
  215SOL    HW2 1545   3.410   3.238   2.804
  216SOL     OW 1546   0.840   0.126   5.961
  216SOL    HW1 1547   0.902   0.105   6.037
  216SOL    HW2 1548   0.891   0.173   5.889
  217SOL     OW 1549   1.090   3.195   3.486
  217SOL    HW1 1550   1.032   3.273   3.461
  217SOL    HW2 1551   1.051   3.111   3.451
  218SOL     OW 1552   1.390   3.519   5.503
  218SOL    HW1 1553   1.412   3.613   5.529
  218SOL    HW2 1554   1.468   3.459   5.526
  219SOL     OW 1555   4.784   5.111   0.183
  219SOL    HW1 1556   4.791   5.085   0.280
  219SOL    HW2 1557   4.875   5.116   0.143
  220SOL     OW 1558   2.469   5.546   0.561
  220SOL    HW1 1559   2.416   5.493   0.627
  220SOL    HW2 1560   2.514   5.484   0.496
  221SOL     OW 1561   5.649   1.958   4.348
  221SOL    HW1 1562   5.569   1.905   4.322
  221SOL    HW2 1563   5.639   2.052   4.314
  222SOL     OW 1564   0.411   5.826   5.519
  222SOL    HW1 1565   0.480   5.766   5.561
  222SOL    HW2 1566   0.414   5.916   5.563
  223SOL     OW 1567   6.938   4.087   2.003
  223SOL    HW1 1568   6.893   4.169   1.968
  223SOL    HW2 1569   6.930   4.014   1.936
  224SOL     OW 1570   3.030   2.320   1.684
  224SOL    HW1 1571   3.013   2.385   1.758
  224SOL    HW2 1572   3.022   2.367   1.596
  225SOL     OW 1573   5.732   1.038   0.044
  225SOL    HW1 1574   5.633   1.033   0.056
  225SOL    HW2 1575   5.761   1.134   0.053
  226SOL     OW 1576   0.124   5.860   0.967
  226SOL    HW1 1577   0.098   5.923   1.039
  226SOL    HW2 1578   0.042   5.821   0.924
  227SOL     OW 1579   1.651   3.466   3.663
  227SOL    HW1 1580   1.631   3.383   3.612
  227SOL    HW2 1581   1.577   3.532   3.649
  228SOL     OW 1582   4.748   6.734   3.715
  228SOL    HW1 1583   4.720   6.745   3.620
  228SOL    HW2 1584   4.669   6.709   3.770
  229SOL     OW 1585   6.281   5.853   2.432
  229SOL    HW1 1586   6.345   5.921   2.468
  229SOL    HW2 1587   6.329   5.767   2.417
  230SOL     OW 1588   2.279   4.286   5.110
  230SOL    HW1 1589   2.289   4.189   5.089
  230SOL    HW2 1590   2.303   4.340   5.030
  231SOL     OW 1591   0.675   2.602   6.194
  231SOL    HW1 1592   0.769   2.573   6.209
  231SOL    HW2 1593   0.617   2.565   6.267
  232SOL     OW 1594   2.117   4.453   6.677
  232SOL    HW1 1595   2.037   4.393   6.681
  232SOL    HW2 1596   2.114   4.517   6.754
  233SOL     OW 1597   2.287   1.155   5.798
  233SOL    HW1 1598   2.325   1.063   5.813
  233SOL    HW2 1599   2.340   1.222   5.849
  234SOL     OW 1600   2.887   5.375   6.501
  234SOL    HW1 1601   2.963   5.318   6.533
  234SOL    HW2 1602   2.811   5.316   6.474
  235SOL     OW 1603   3.044   3.668   4.540
  235SOL    HW1 1604   2.994   3.684   4.625
  235SOL    HW2 1605   3.024   3.743   4.476
  236SOL     OW 1606   6.568   2.181   5.471
  236SOL    HW1 1607   6.640   2.176   5.539
  236SOL    HW2 1608   6.487   2.224   5.511
  237SOL     OW 1609   0.249   7.015   1.175
  237SOL    HW1 1610   0.205   6.933   1.138
  237SOL    HW2 1611   0.250   0.064   1.104
  238SOL     OW 1612   5.633   2.893   2.860
  238SOL    HW1 1613   5.701   2.883   2.933
  238SOL    HW2 1614   5.671   2.948   2.786
  239SOL     OW 1615   6.553   5.734   6.700
  239SOL    HW1 1616   6.600   5.780   6.775
  239SOL    HW2 1617   6.476   5.791   6.669
  240SOL     OW 1618   0.252   4.121   6.022
  240SOL    HW1 1619   0.225   4.027   6.000
  240SOL    HW2 1620   0.338   4.120   6.073
  241SOL     OW 1621   0.183   0.932   3.096
  241SOL    HW1 1622   0.165   0.899   3.189
  241SOL    HW2 1623   0.151   0.865   3.029
  242SOL     OW 1624   1.624   3.849   4.201
  242SOL    HW1 1625   1.720   3.820   4.208
  242SOL    HW2 1626   1.564   3.770   4.210
  243SOL     OW 1627   5.811   6.887   5.380
  243SOL    HW1 1628   5.729   6.923   5.424
  243SOL    HW2 1629   5.791   6.869   5.283
  244SOL     OW 1630   5.617   2.229   5.485
  244SOL    HW1 1631   5.645   2.199   5.394
  244SOL    HW2 1632   5.568   2.155   5.531
  245SOL     OW 1633   5.693   2.437   4.017
  245SOL    HW1 1634   5.716   2.362   3.956
  245SOL    HW2 1635   5.723   2.523   3.977
  246SOL     OW 1636   5.063   3.402   3.411
  246SOL    HW1 1637   4.988   3.463   3.384
  246SOL    HW2 1638   5.025   3.319   3.451
  247SOL     OW 1639   2.369   1.440   3.287
  247SOL    HW1 1640   2.276   1.443   3.325
  247SOL    HW2 1641   2.434   1.421   3.360
  248SOL     OW 1642   6.297   1.579   3.243
  248SOL    HW1 1643   6.372   1.514   3.250
  248SOL    HW2 1644   6.281   1.600   3.146
  249SOL     OW 1645   3.506   6.870   3.704
  249SOL    HW1 1646   3.563   6.943   3.741
  249SOL    HW2 1647   3.416   6.906   3.681
  250SOL     OW 1648   5.583   3.163   5.952
  250SOL    HW1 1649   5.524   3.186   6.029
  250SOL    HW2 1650   5.626   3.247   5.917
  251SOL     OW 1651   4.243   2.636   0.048
  251SOL    HW1 1652   4.194   2.549   0.059
  251SOL    HW2 1653   4.271   2.669   0.138
  252SOL     OW 1654   0.202   0.645   6.011
  252SOL    HW1 1655   0.268   0.706   5.966
  252SOL    HW2 1656   0.125   0.629   5.949
  253SOL     OW 1657   3.197   3.418   0.486
  253SOL    HW1 1658   3.103   3.413   0.453
  253SOL    HW2 1659   3.213   3.506   0.531
  254SOL     OW 1660   5.866   2.809   4.994
  254SOL    HW1 1661   5.903   2.738   5.054
  254SOL    HW2 1662   5.767   2.804   4.994
  255SOL     OW 1663   2.708   1.917   3.184
  255SOL    HW1 1664   2.753   1.960   3.106
  255SOL    HW2 1665   2.620   1.961   3.200
  256SOL     OW 1666   5.797   5.221   0.315
  256SOL    HW1 1667   5.818   5.136   0.363
  256SOL    HW2 1668   5.705   5.216   0.277
  257SOL     OW 1669   2.684   6.052   5.907
  257SOL    HW1 1670   2.595   6.092   5.883
  257SOL    HW2 1671   2.711   6.085   5.998
  258SOL     OW 1672   5.599   4.357   4.725
  258SOL    HW1 1673   5.575   4.267   4.689
  258SOL    HW2 1674   5.682   4.350   4.780
  259SOL     OW 1675   1.854   1.988   2.463
  259SOL    HW1 1676   1.817   1.910   2.512
  259SOL    HW2 1677   1.779   2.037   2.418
  260SOL     OW 1678   5.062   0.358   5.743
  260SOL    HW1 1679   5.117   0.278   5.719
  260SOL    HW2 1680   5.109   0.411   5.814
  261SOL     OW 1681   0.955   3.943   2.380
  261SOL    HW1 1682   0.939   3.878   2.456
  261SOL    HW2 1683   1.053   3.951   2.364
  262SOL     OW 1684   0.844   4.409   2.128
  262SOL    HW1 1685   0.911   4.472   2.089
  262SOL    HW2 1686   0.892   4.333   2.172
  263SOL     OW 1687   1.082   2.085   4.328
  263SOL    HW1 1688   1.008   2.072   4.262
  263SOL    HW2 1689   1.044   2.090   4.420
  264SOL     OW 1690   2.468   4.845   6.226
  264SOL    HW1 1691   2.475   4.844   6.126
  264SOL    HW2 1692   2.418   4.927   6.255
  265SOL     OW 1693   5.175   3.802   4.599
  265SOL    HW1 1694   5.087   3.757   4.583
  265SOL    HW2 1695   5.249   3.735   4.592
  266SOL     OW 1696   4.651   1.716   0.525
  266SOL    HW1 1697   4.647   1.619   0.498
  266SOL    HW2 1698   4.591   1.769   0.466
  267SOL     OW 1699   1.499   2.174   5.977
  267SOL    HW1 1700   1.439   2.235   5.925
  267SOL    HW2 1701   1.504   2.204   6.072
  268SOL     OW 1702   4.115   4.844   4.866
  268SOL    HW1 1703   4.027   4.796   4.868
  268SOL    HW2 1704   4.177   4.803   4.933
  269SOL     OW 1705   0.483   1.871   5.677
  269SOL    HW1 1706   0.557   1.934   5.653
  269SOL    HW2 1707   0.503   1.826   5.764
  270SOL     OW 1708   5.478   1.235   3.046
  270SOL    HW1 1709   5.521   1.148   3.021
  270SOL    HW2 1710   5.451   1.232   3.142
  271SOL     OW 1711   1.463   0.836   0.183
  271SOL    HW1 1712   1.503   0.771   0.118
  271SOL    HW2 1713   1.370   0.857   0.155
  272SOL     OW 1714   3.392   6.252   3.382
  272SOL    HW1 1715   3.487   6.258   3.353
  272SOL    HW2 1716   3.333   6.282   3.307
  273SOL     OW 1717   2.373   6.450   5.242
  273SOL    HW1 1718   2.335   6.469   5.152
  273SOL    HW2 1719   2.334   6.365   5.278
  274SOL     OW 1720   6.246   2.203   1.734
  274SOL    HW1 1721   6.213   2.168   1.646
  274SOL    HW2 1722   6.245   2.129   1.801
  275SOL     OW 1723   6.555   5.971   5.267
  275SOL    HW1 1724   6.516   6.048   5.216
  275SOL    HW2 1725   6.511   5.887   5.237
  276SOL     OW 1726   6.709   6.044   3.672
  276SOL    HW1 1727   6.725   6.008   3.764
  276SOL    HW2 1728   6.658   6.130   3.679
  277SOL     OW 1729   4.269   1.403   5.518
  277SOL    HW1 1730   4.244   1.491   5.477
  277SOL    HW2 1731   4.368   1.396   5.526
  278SOL     OW 1732   5.960   3.210   2.637
  278SOL    HW1 1733   5.943   3.121   2.678
  278SOL    HW2 1734   5.881   3.270   2.653
  279SOL     OW 1735   0.053   2.862   4.237
  279SOL    HW1 1736   0.143   2.842   4.277
  279SOL    HW2 1737   0.055   2.953   4.197
  280SOL     OW 1738   3.664   0.653   3.970
  280SOL    HW1 1739   3.592   0.588   3.948
  280SOL    HW2 1740   3.645   0.741   3.926
  281SOL     OW 1741   4.905   6.133   3.933
  281SOL    HW1 1742   4.821   6.151   3.985
  281SOL    HW2 1743   4.979   6.110   3.997
  282SOL     OW 1744   4.506   1.850   0.313
  282SOL    HW1 1745   4.417   1.814   0.340
  282SOL    HW2 1746   4.494   1.913   0.236
  283SOL     OW 1747   6.378   2.015   4.831
  283SOL    HW1 1748   6.297   2.027   4.773
  283SOL    HW2 1749   6.459   2.012   4.773
  284SOL     OW 1750   5.626   5.662   3.966
  284SOL    HW1 1751   5.588   5.729   3.901
  284SOL    HW2 1752   5.710   5.624   3.929
  285SOL     OW 1753   4.013   0.713   6.335
  285SOL    HW1 1754   4.004   0.752   6.426
  285SOL    HW2 1755   3.931   0.659   6.313
  286SOL     OW 1756   3.319   4.951   4.906
  286SOL    HW1 1757   3.235   4.900   4.891
  286SOL    HW2 1758   3.366   4.966   4.819
  287SOL     OW 1759   2.811   6.948   5.972
  287SOL    HW1 1760   2.909   6.933   5.973
  287SOL    HW2 1761   2.790   0.010   5.920
  288SOL     OW 1762   3.517   1.005   0.938
  288SOL    HW1 1763   3.489   0.914   0.908
  288SOL    HW2 1764   3.438   1.057   0.969
  289SOL     OW 1765   6.613   6.111   4.248
  289SOL    HW1 1766   6.662   6.181   4.196
  289SOL    HW2 1767   6.565   6.154   4.324
  290SOL     OW 1768   3.399   0.926   5.188
  290SOL    HW1 1769   3.465   0.994   5.220
  290SOL    HW2 1770   3.440   0.835   5.196
  291SOL     OW 1771   4.225   6.933   4.848
  291SOL    HW1 1772   4.300   6.873   4.821
  291SOL    HW2 1773   4.256   6.994   4.921
  292SOL     OW 1774   4.355   0.360   3.746
  292SOL    HW1 1775   4.304   0.278   3.775
  292SOL    HW2 1776   4.432   0.332   3.688
  293SOL     OW 1777   5.936   6.915   2.420
  293SOL    HW1 1778   5.987   6.999   2.439
  293SOL    HW2 1779   5.924   6.862   2.504
  294SOL     OW 1780   6.381   0.800   5.814
  294SOL    HW1 1781   6.432   0.716   5.797
  294SOL    HW2 1782   6.424   0.851   5.889
  295SOL     OW 1783   0.895   1.731   5.024
  295SOL    HW1 1784   0.821   1.794   5.003
  295SOL    HW2 1785   0.892   1.708   5.122
  296SOL     OW 1786   0.262   2.315   1.783
  296SOL    HW1 1787   0.163   2.317   1.765
  296SOL    HW2 1788   0.295   2.409   1.793
  297SOL     OW 1789   5.801   3.722   3.751
  297SOL    HW1 1790   5.857   3.640   3.737
  297SOL    HW2 1791   5.711   3.708   3.710
  298SOL     OW 1792   3.411   0.862   6.846
  298SOL    HW1 1793   3.510   0.847   6.842
  298SOL    HW2 1794   3.375   0.871   6.754
  299SOL     OW 1795   2.203   1.375   6.351
  299SOL    HW1 1796   2.158   1.419   6.274
  299SOL    HW2 1797   2.299   1.358   6.329
  300SOL     OW 1798   4.001   0.447   2.819
  300SOL    HW1 1799   3.921   0.410   2.771
  300SOL    HW2 1800   4.016   0.541   2.790
  301SOL     OW 1801   6.412   5.188   1.095
  301SOL    HW1 1802   6.456   5.275   1.115
  301SOL    HW2 1803   6.394   5.139   1.180
  302SOL     OW 1804   6.163   5.746   0.874
  302SOL    HW1 1805   6.188   5.705   0.786
  302SOL    HW2 1806   6.135   5.675   0.938
  303SOL     OW 1807   5.790   5.602   2.086
  303SOL    HW1 1808   5.740   5.668   2.029
  303SOL    HW2 1809   5.836   5.651   2.160
  304SOL     OW 1810   1.988   0.011   5.577
  304SOL    HW1 1811   1.911   6.972   5.556
  304SOL    HW2 1812   1.985   0.035   5.674
  305SOL     OW 1813   1.453   2.963   2.494
  305SOL    HW1 1814   1.423   2.884   2.440
  305SOL    HW2 1815   1.551   2.956   2.512
  306SOL     OW 1816   6.615   0.086   2.705
  306SOL    HW1 1817   6.666   0.087   2.619
  306SOL    HW2 1818   6.602   0.180   2.737
  307SOL     OW 1819   3.693   2.985   3.212
  307SOL    HW1 1820   3.707   3.083   3.228
  307SOL    HW2 1821   3.627   2.950   3.278
  308SOL     OW 1822   5.883   1.588   3.952
  308SOL    HW1 1823   5.830   1.661   3.994
  308SOL    HW2 1824   5.877   1.595   3.853
  309SOL     OW 1825   0.687   6.115   6.018
  309SOL    HW1 1826   0.603   6.065   5.995
  309SOL    HW2 1827   0.746   6.058   6.075
  310SOL     OW 1828   5.369   6.528   4.961
  310SOL    HW1 1829   5.451   6.506   4.908
  310SOL    HW2 1830   5.381   6.496   5.055
  311SOL     OW 1831   2.144   5.568   2.749
  311SOL    HW1 1832   2.096   5.481   2.756
  311SOL    HW2 1833   2.238   5.557   2.782
  312SOL     OW 1834   4.587   2.011   3.091
  312SOL    HW1 1835   4.595   1.934   3.154
  312SOL    HW2 1836   4.504   2.001   3.036
  313SOL     OW 1837   4.130   3.569   3.449
  313SOL    HW1 1838   4.066   3.494   3.463
  313SOL    HW2 1839   4.087   3.640   3.394
  314SOL     OW 1840   2.204   6.371   5.686
  314SOL    HW1 1841   2.256   6.406   5.609
  314SOL    HW2 1842   2.221   6.428   5.766
  315SOL     OW 1843   6.650   1.579   3.273
  315SOL    HW1 1844   6.651   1.480   3.262
  315SOL    HW2 1845   6.720   1.620   3.214
  316SOL     OW 1846   3.820   0.937   5.218
  316SOL    HW1 1847   3.812   0.964   5.122
  316SOL    HW2 1848   3.735   0.959   5.266
  317SOL     OW 1849   1.032   1.258   1.609
  317SOL    HW1 1850   1.124   1.233   1.577
  317SOL    HW2 1851   1.027   1.358   1.619
  318SOL     OW 1852   0.118   0.402   5.211
  318SOL    HW1 1853   0.115   0.500   5.225
  318SOL    HW2 1854   0.057   0.377   5.135
  319SOL     OW 1855   1.594   2.546   2.671
  319SOL    HW1 1856   1.612   2.448   2.678
  319SOL    HW2 1857   1.665   2.589   2.616
  320SOL     OW 1858   6.131   2.986   6.674
  320SOL    HW1 1859   6.124   2.948   6.582
  320SOL    HW2 1860   6.087   2.925   6.739
  321SOL     OW 1861   4.269   3.238   1.236
  321SOL    HW1 1862   4.356   3.250   1.187
  321SOL    HW2 1863   4.287   3.219   1.332
  322SOL     OW 1864   3.748   3.512   6.174
  322SOL    HW1 1865   3.674   3.535   6.237
  322SOL    HW2 1866   3.770   3.414   6.182
  323SOL     OW 1867   0.182   3.238   3.629
  323SOL    HW1 1868   0.120   3.162   3.651
  323SOL    HW2 1869   0.204   3.289   3.712
  324SOL     OW 1870   0.779   0.068   3.756
  324SOL    HW1 1871   0.718   0.122   3.698
  324SOL    HW2 1872   0.852   0.127   3.792
  325SOL     OW 1873   0.510   3.576   2.574
  325SOL    HW1 1874   0.472   3.484   2.567
  325SOL    HW2 1875   0.526   3.613   2.483
  326SOL     OW 1876   0.723   6.425   6.598
  326SOL    HW1 1877   0.723   6.362   6.521
  326SOL    HW2 1878   0.803   6.408   6.655
  327SOL     OW 1879   4.053   5.094   3.178
  327SOL    HW1 1880   4.032   5.145   3.262
  327SOL    HW2 1881   4.053   4.996   3.197
  328SOL     OW 1882   2.338   4.302   2.283
  328SOL    HW1 1883   2.278   4.379   2.262
  328SOL    HW2 1884   2.368   4.308   2.379
  329SOL     OW 1885   3.627   3.861   1.965
  329SOL    HW1 1886   3.707   3.830   2.016
  329SOL    HW2 1887   3.649   3.946   1.918
  330SOL     OW 1888   3.570   5.305   0.242
  330SOL    HW1 1889   3.592   5.212   0.210
  330SOL    HW2 1890   3.643   5.368   0.215
  331SOL     OW 1891   5.522   5.466   6.561
  331SOL    HW1 1892   5.458   5.536   6.531
  331SOL    HW2 1893   5.604   5.509   6.599
  332SOL     OW 1894   5.285   2.020   2.872
  332SOL    HW1 1895   5.219   2.058   2.808
  332SOL    HW2 1896   5.364   1.985   2.822
  333SOL     OW 1897   3.651   1.275   6.210
  333SOL    HW1 1898   3.646   1.311   6.117
  333SOL    HW2 1899   3.712   1.196   6.212
  334SOL     OW 1900   3.365   3.591   3.702
  334SOL    HW1 1901   3.462   3.571   3.715
  334SOL    HW2 1902   3.354   3.688   3.682
  335SOL     OW 1903   3.056   0.783   5.851
  335SOL    HW1 1904   3.028   0.774   5.946
  335SOL    HW2 1905   3.031   0.701   5.801
  336SOL     OW 1906   3.133   1.646   2.950
  336SOL    HW1 1907   3.096   1.574   3.009
  336SOL    HW2 1908   3.057   1.700   2.913
  337SOL     OW 1909   2.016   0.509   5.845
  337SOL    HW1 1910   2.030   0.599   5.887
  337SOL    HW2 1911   2.105   0.466   5.828
  338SOL     OW 1912   4.586   1.726   1.637
  338SOL    HW1 1913   4.516   1.665   1.599
  338SOL    HW2 1914   4.542   1.799   1.689
  339SOL     OW 1915   3.766   5.086   4.906
  339SOL    HW1 1916   3.841   5.091   4.972
  339SOL    HW2 1917   3.773   5.162   4.842
  340SOL     OW 1918   4.449   1.801   3.514
  340SOL    HW1 1919   4.452   1.754   3.602
  340SOL    HW2 1920   4.381   1.874   3.518
  341SOL     OW 1921   5.828   6.949   4.060
  341SOL    HW1 1922   5.810   6.938   3.962
  341SOL    HW2 1923   5.848   6.860   4.101
  342SOL     OW 1924   5.240   2.138   1.634
  342SOL    HW1 1925   5.151   2.092   1.627
  342SOL    HW2 1926   5.292   2.097   1.709
  343SOL     OW 1927   1.045   5.863   3.060
  343SOL    HW1 1928   1.094   5.916   3.129
  343SOL    HW2 1929   0.946   5.868   3.077
  344SOL     OW 1930   1.696   1.311   1.883
  344SOL    HW1 1931   1.633   1.381   1.916
  344SOL    HW2 1932   1.783   1.319   1.931
  345SOL     OW 1933   6.088   3.415   4.164
  345SOL    HW1 1934   6.020   3.489   4.164
  345SOL    HW2 1935   6.106   3.387   4.070
  346SOL     OW 1936   1.680   6.894   2.893
  346SOL    HW1 1937   1.617   6.956   2.940
  346SOL    HW2 1938   1.706   6.934   2.805
  347SOL     OW 1939   2.767   5.145   0.593
  347SOL    HW1 1940   2.739   5.224   0.539
  347SOL    HW2 1941   2.736   5.061   0.549
  348SOL     OW 1942   5.152   5.576   2.344
  348SOL    HW1 1943   5.190   5.667   2.331
  348SOL    HW2 1944   5.160   5.524   2.258
  349SOL     OW 1945   6.809   3.903   1.365
  349SOL    HW1 1946   6.743   3.978   1.367
  349SOL    HW2 1947   6.829   3.879   1.270
  350SOL     OW 1948   3.531   2.967   0.019
  350SOL    HW1 1949   3.524   3.066   0.012
  350SOL    HW2 1950   3.616   2.942   0.065
  351SOL     OW 1951   3.644   4.202   1.453
  351SOL    HW1 1952   3.634   4.247   1.542
  351SOL    HW2 1953   3.598   4.113   1.456
  352SOL     OW 1954   4.149   6.735   2.938
  352SOL    HW1 1955   4.174   6.750   3.034
  352SOL    HW2 1956   4.183   6.646   2.909
  353SOL     OW 1957   2.309   6.112   6.665
  353SOL    HW1 1958   2.222   6.101   6.712
  353SOL    HW2 1959   2.376   6.048   6.703
  354SOL     OW 1960   6.833   2.539   0.543
  354SOL    HW1 1961   6.836   2.630   0.585
  354SOL    HW2 1962   6.739   2.517   0.518
  355SOL     OW 1963   2.278   2.355   2.446
  355SOL    HW1 1964   2.204   2.299   2.409
  355SOL    HW2 1965   2.295   2.329   2.541
  356SOL     OW 1966   1.292   0.186   6.130
  356SOL    HW1 1967   1.193   0.197   6.125
  356SOL    HW2 1968   1.315   0.110   6.191
  357SOL     OW 1969   5.776   6.894   4.704
  357SOL    HW1 1970   5.873   6.881   4.685
  357SOL    HW2 1971   5.725   6.897   4.617
  358SOL     OW 1972   5.258   6.144   0.769
  358SOL    HW1 1973   5.354   6.145   0.740
  358SOL    HW2 1974   5.234   6.234   0.807
  359SOL     OW 1975   2.928   2.064   1.946
  359SOL    HW1 1976   3.023   2.054   1.915
  359SOL    HW2 1977   2.911   2.158   1.974
  360SOL     OW 1978   1.249   4.285   3.940
  360SOL    HW1 1979   1.260   4.360   3.875
  360SOL    HW2 1980   1.270   4.318   4.032
  361SOL     OW 1981   6.694   6.246   3.246
  361SOL    HW1 1982   6.766   6.223   3.311
  361SOL    HW2 1983   6.638   6.165   3.229
  362SOL     OW 1984   3.912   4.480   0.965
  362SOL    HW1 1985   3.907   4.578   0.947
  362SOL    HW2 1986   3.998   4.458   1.011
  363SOL     OW 1987   6.227   5.171   2.460
  363SOL    HW1 1988   6.276   5.178   2.547
  363SOL    HW2 1989   6.132   5.197   2.473
  364SOL     OW 1990   0.458   5.371   6.956
  364SOL    HW1 1991   0.538   5.332   6.911
  364SOL    HW2 1992   0.486   5.421   0.016
  365SOL     OW 1993   3.583   1.719   2.322
  365SOL    HW1 1994   3.497   1.763   2.297
  365SOL    HW2 1995   3.612   1.753   2.411
  366SOL     OW 1996   5.713   2.930   0.853
  366SOL    HW1 1997   5.734   2.943   0.756
  366SOL    HW2 1998   5.673   3.014   0.890
  367SOL     OW 1999   4.445   2.055   5.834
  367SOL    HW1 2000   4.391   2.104   5.902
  367SOL    HW2 2001   4.455   2.112   5.752
  368SOL     OW 2002   6.374   1.947   5.939
  368SOL    HW1 2003   6.405   1.940   5.845
  368SOL    HW2 2004   6.313   2.026   5.949
  369SOL     OW 2005   5.505   3.746   2.702
  369SOL    HW1 2006   5.468   3.732   2.610
  369SOL    HW2 2007   5.518   3.844   2.719
  370SOL     OW 2008   2.192   2.840   4.331
  370SOL    HW1 2009   2.268   2.796   4.378
  370SOL    HW2 2010   2.163   2.921   4.383
  371SOL     OW 2011   2.136   4.155   0.173
  371SOL    HW1 2012   2.130   4.131   0.076
  371SOL    HW2 2013   2.124   4.253   0.184
  372SOL     OW 2014   2.768   6.796   5.620
  372SOL    HW1 2015   2.839   6.864   5.637
  372SOL    HW2 2016   2.801   6.728   5.555
  373SOL     OW 2017   6.190   6.432   4.617
  373SOL    HW1 2018   6.259   6.401   4.552
  373SOL    HW2 2019   6.102   6.389   4.596
  374SOL     OW 2020   2.682   1.721   2.395
  374SOL    HW1 2021   2.660   1.765   2.482
  374SOL    HW2 2022   2.602   1.671   2.361
  375SOL     OW 2023   1.286   4.524   5.044
  375SOL    HW1 2024   1.197   4.482   5.063
  375SOL    HW2 2025   1.283   4.571   4.956
  376SOL     OW 2026   2.823   1.007   4.052
  376SOL    HW1 2027   2.871   0.972   3.971
  376SOL    HW2 2028   2.746   0.947   4.073
  377SOL     OW 2029   1.687   2.096   6.676
  377SOL    HW1 2030   1.656   2.181   6.718
  377SOL    HW2 2031   1.609   2.043   6.644
  378SOL     OW 2032   2.775   1.824   0.920
  378SOL    HW1 2033   2.841   1.859   0.987
  378SOL    HW2 2034   2.791   1.868   0.832
  379SOL     OW 2035   6.085   2.652   6.610
  379SOL    HW1 2036   6.039   2.565   6.630
  379SOL    HW2 2037   6.019   2.715   6.569
  380SOL     OW 2038   3.744   1.706   1.380
  380SOL    HW1 2039   3.759   1.640   1.306
  380SOL    HW2 2040   3.685   1.666   1.450
  381SOL     OW 2041   1.615   4.364   3.367
  381SOL    HW1 2042   1.710   4.387   3.348
  381SOL    HW2 2043   1.608   4.321   3.457
  382SOL     OW 2044   6.377   0.751   0.335
  382SOL    HW1 2045   6.371   0.813   0.257
  382SOL    HW2 2046   6.294   0.759   0.390
  383SOL     OW 2047   4.115   2.781   1.550
  383SOL    HW1 2048   4.139   2.848   1.480
  383SOL    HW2 2049   4.034   2.731   1.521
  384SOL     OW 2050   6.475   3.779   4.976
  384SOL    HW1 2051   6.512   3.725   4.901
  384SOL    HW2 2052   6.476   3.876   4.952
  385SOL     OW 2053   4.493   4.938   6.781
  385SOL    HW1 2054   4.445   4.985   6.708
  385SOL    HW2 2055   4.514   4.844   6.753
  386SOL     OW 2056   4.510   0.201   4.479
  386SOL    HW1 2057   4.566   0.160   4.551
  386SOL    HW2 2058   4.449   0.270   4.518
  387SOL     OW 2059   2.282   5.075   3.376
  387SOL    HW1 2060   2.331   5.094   3.291
  387SOL    HW2 2061   2.196   5.127   3.377
  388SOL     OW 2062   1.883   2.718   6.552
  388SOL    HW1 2063   1.933   2.681   6.630
  388SOL    HW2 2064   1.945   2.726   6.474
  389SOL     OW 2065   2.919   3.694   3.171
  389SOL    HW1 2066   2.845   3.740   3.219
  389SOL    HW2 2067   2.918   3.721   3.074
  390SOL     OW 2068   2.415   1.296   3.988
  390SOL    HW1 2069   2.513   1.276   3.988
  390SOL    HW2 2070   2.392   1.345   3.904
  391SOL     OW 2071   1.221   2.732   6.820
  391SOL    HW1 2072   1.319   2.725   6.837
  391SOL    HW2 2073   1.196   2.677   6.741
  392SOL     OW 2074   2.436   5.239   1.660
  392SOL    HW1 2075   2.348   5.219   1.702
  392SOL    HW2 2076   2.437   5.333   1.626
  393SOL     OW 2077   6.113   4.495   4.905
  393SOL    HW1 2078   6.104   4.460   4.998
  393SOL    HW2 2079   6.073   4.429   4.841
  394SOL     OW 2080   6.745   6.452   0.185
  394SOL    HW1 2081   6.741   6.542   0.142
  394SOL    HW2 2082   6.834   6.410   0.166
  395SOL     OW 2083   5.116   4.089   2.413
  395SOL    HW1 2084   5.048   4.017   2.421
  395SOL    HW2 2085   5.071   4.177   2.401
  396SOL     OW 2086   3.313   3.882   3.022
  396SOL    HW1 2087   3.272   3.824   3.092
  396SOL    HW2 2088   3.264   3.969   3.019
  397SOL     OW 2089   4.493   2.225   5.610
  397SOL    HW1 2090   4.514   2.230   5.512
  397SOL    HW2 2091   4.555   2.284   5.661
  398SOL     OW 2092   0.798   5.407   2.370
  398SOL    HW1 2093   0.839   5.334   2.317
  398SOL    HW2 2094   0.790   5.489   2.314
  399SOL     OW 2095   4.622   5.479   1.458
  399SOL    HW1 2096   4.565   5.452   1.535
  399SOL    HW2 2097   4.718   5.482   1.487
  400SOL     OW 2098   0.173   6.723   5.405
  400SOL    HW1 2099   0.164   6.652   5.335
  400SOL    HW2 2100   0.120   6.697   5.486
  401SOL     OW 2101   4.527   1.495   6.249
  401SOL    HW1 2102   4.538   1.454   6.339
  401SOL    HW2 2103   4.482   1.430   6.187
  402SOL     OW 2104   6.254   6.232   2.593
  402SOL    HW1 2105   6.222   6.315   2.639
  402SOL    HW2 2106   6.180   6.193   2.538
  403SOL     OW 2107   4.731   2.483   6.021
  403SOL    HW1 2108   4.687   2.487   6.111
  403SOL    HW2 2109   4.819   2.531   6.025
  404SOL     OW 2110   1.574   6.731   3.495
  404SOL    HW1 2111   1.534   6.801   3.554
  404SOL    HW2 2112   1.668   6.757   3.471
  405SOL     OW 2113   1.701   2.659   1.126
  405SOL    HW1 2114   1.794   2.646   1.163
  405SOL    HW2 2115   1.656   2.732   1.176
  406SOL     OW 2116   1.127   2.640   4.266
  406SOL    HW1 2117   1.033   2.657   4.294
  406SOL    HW2 2118   1.152   2.546   4.289
  407SOL     OW 2119   3.100   0.171   4.631
  407SOL    HW1 2120   3.109   0.241   4.702
  407SOL    HW2 2121   3.041   0.097   4.664
  408SOL     OW 2122   1.168   0.051   3.220
  408SOL    HW1 2123   1.167   0.137   3.169
  408SOL    HW2 2124   1.138   6.998   3.161
  409SOL     OW 2125   6.299   3.192   2.880
  409SOL    HW1 2126   6.263   3.244   2.957
  409SOL    HW2 2127   6.261   3.227   2.795
  410SOL     OW 2128   2.212   0.134   0.394
  410SOL    HW1 2129   2.308   0.115   0.373
  410SOL    HW2 2130   2.180   0.071   0.465
  411SOL     OW 2131   5.610   5.201   6.589
  411SOL    HW1 2132   5.553   5.281   6.567
  411SOL    HW2 2133   5.700   5.211   6.545
  412SOL     OW 2134   3.622   6.329   2.940
  412SOL    HW1 2135   3.556   6.405   2.933
  412SOL    HW2 2136   3.704   6.352   2.888
  413SOL     OW 2137   3.343   5.388   0.375
  413SOL    HW1 2138   3.291   5.427   0.299
  413SOL    HW2 2139   3.438   5.373   0.346
  414SOL     OW 2140   4.331   5.113   1.434
  414SOL    HW1 2141   4.383   5.181   1.383
  414SOL    HW2 2142   4.336   5.134   1.532
  415SOL     OW 2143   1.235   5.903   0.689
  415SOL    HW1 2144   1.273   5.827   0.636
  415SOL    HW2 2145   1.136   5.900   0.685
  416SOL     OW 2146   4.098   5.580   4.695
  416SOL    HW1 2147   4.057   5.529   4.619
  416SOL    HW2 2148   4.027   5.634   4.741
  417SOL     OW 2149   3.243   6.284   1.950
  417SOL    HW1 2150   3.190   6.358   1.911
  417SOL    HW2 2151   3.192   6.243   2.026
  418SOL     OW 2152   4.689   6.381   0.222
  418SOL    HW1 2153   4.679   6.436   0.306
  418SOL    HW2 2154   4.727   6.292   0.245
  419SOL     OW 2155   0.525   0.789   0.782
  419SOL    HW1 2156   0.604   0.781   0.843
  419SOL    HW2 2157   0.449   0.735   0.819
  420SOL     OW 2158   5.929   3.796   1.491
  420SOL    HW1 2159   5.963   3.704   1.514
  420SOL    HW2 2160   5.924   3.851   1.574
  421SOL     OW 2161   1.323   4.656   6.401
  421SOL    HW1 2162   1.248   4.599   6.367
  421SOL    HW2 2163   1.354   4.622   6.489
  422SOL     OW 2164   5.529   4.769   0.442
  422SOL    HW1 2165   5.496   4.857   0.406
  422SOL    HW2 2166   5.509   4.697   0.376
  423SOL     OW 2167   6.007   3.247   0.027
  423SOL    HW1 2168   6.070   3.177   0.062
  423SOL    HW2 2169   5.945   3.205   6.983
  424SOL     OW 2170   2.877   3.675   0.390
  424SOL    HW1 2171   2.891   3.606   0.461
  424SOL    HW2 2172   2.943   3.749   0.401
  425SOL     OW 2173   5.410   1.766   1.535
  425SOL    HW1 2174   5.438   1.855   1.571
  425SOL    HW2 2175   5.313   1.751   1.556
  426SOL     OW 2176   5.120   2.619   5.415
  426SOL    HW1 2177   5.102   2.522   5.430
  426SOL    HW2 2178   5.184   2.630   5.340
  427SOL     OW 2179   5.657   4.389   1.913
  427SOL    HW1 2180   5.674   4.485   1.935
  427SOL    HW2 2181   5.613   4.382   1.824
  428SOL     OW 2182   4.286   0.592   5.390
  428SOL    HW1 2183   4.331   0.527   5.452
  428SOL    HW2 2184   4.296   0.685   5.427
  429SOL     OW 2185   1.821   5.062   0.293
  429SOL    HW1 2186   1.879   5.116   0.232
  429SOL    HW2 2187   1.739   5.114   0.315
  430SOL     OW 2188   1.823   6.790   4.422
  430SOL    HW1 2189   1.725   6.782   4.409
  430SOL    HW2 2190   1.871   6.768   4.336
  431SOL     OW 2191   3.254   1.082   6.986
  431SOL    HW1 2192   3.292   1.076   0.057
  431SOL    HW2 2193   3.300   1.018   6.926
  432SOL     OW 2194   0.025   2.285   0.268
  432SOL    HW1 2195   6.989   2.233   0.204
  432SOL    HW2 2196   0.115   2.301   0.227
  433SOL     OW 2197   2.779   0.375   4.218
  433SOL    HW1 2198   2.804   0.324   4.300
  433SOL    HW2 2199   2.825   0.464   4.219
  434SOL     OW 2200   5.286   4.737   1.123
  434SOL    HW1 2201   5.250   4.787   1.201
  434SOL    HW2 2202   5.211   4.690   1.075
  435SOL     OW 2203   3.664   2.955   5.853
  435SOL    HW1 2204   3.569   2.974   5.828
  435SOL    HW2 2205   3.725   3.003   5.789
  436SOL     OW 2206   1.456   0.138   1.253
  436SOL    HW1 2207   1.468   0.040   1.242
  436SOL    HW2 2208   1.540   0.178   1.289
  437SOL     OW 2209   6.896   6.739   6.625
  437SOL    HW1 2210   6.949   6.659   6.597
  437SOL    HW2 2211   6.922   6.766   6.717
  438SOL     OW 2212   1.903   2.664   2.161
  438SOL    HW1 2213   2.001   2.676   2.173
  438SOL    HW2 2214   1.853   2.726   2.221
  439SOL     OW 2215   6.177   4.611   3.374
  439SOL    HW1 2216   6.219   4.530   3.333
  439SOL    HW2 2217   6.088   4.587   3.413
  440SOL     OW 2218   0.975   2.171   4.564
  440SOL    HW1 2219   0.985   2.262   4.603
  440SOL    HW2 2220   0.942   2.108   4.635
  441SOL     OW 2221   1.189   1.751   3.241
  441SOL    HW1 2222   1.158   1.833   3.194
  441SOL    HW2 2223   1.110   1.693   3.264
  442SOL     OW 2224   0.473   4.218   0.083
  442SOL    HW1 2225   0.492   4.216   0.181
  442SOL    HW2 2226   0.540   4.162   0.035
  443SOL     OW 2227   1.279   4.618   4.788
  443SOL    HW1 2228   1.353   4.683   4.807
  443SOL    HW2 2229   1.317   4.529   4.765
  444SOL     OW 2230   4.644   2.889   6.151
  444SOL    HW1 2231   4.733   2.904   6.194
  444SOL    HW2 2232   4.585   2.968   6.167
  445SOL     OW 2233   2.037   5.513   3.240
  445SOL    HW1 2234   2.021   5.550   3.331
  445SOL    HW2 2235   2.031   5.587   3.173
  446SOL     OW 2236   3.864   4.838   3.553
  446SOL    HW1 2237   3.926   4.783   3.497
  446SOL    HW2 2238   3.879   4.935   3.535
  447SOL     OW 2239   0.178   4.428   6.560
  447SOL    HW1 2240   0.254   4.387   6.610
  447SOL    HW2 2241   0.092   4.386   6.590
  448SOL     OW 2242   3.684   0.567   5.123
  448SOL    HW1 2243   3.661   0.486   5.068
  448SOL    HW2 2244   3.772   0.552   5.168
  449SOL     OW 2245   5.087   0.914   5.025
  449SOL    HW1 2246   5.126   1.003   5.047
  449SOL    HW2 2247   5.160   0.847   5.014
  450SOL     OW 2248   0.350   6.003   3.657
  450SOL    HW1 2249   0.387   5.919   3.696
  450SOL    HW2 2250   0.421   6.074   3.659
  451SOL     OW 2251   0.997   2.225   2.134
  451SOL    HW1 2252   1.072   2.267   2.185
  451SOL    HW2 2253   1.031   2.189   2.047
  452SOL     OW 2254   6.678   5.859   6.887
  452SOL    HW1 2255   6.644   5.891   6.975
  452SOL    HW2 2256   6.768   5.817   6.899
  453SOL     OW 2257   3.060   0.911   6.581
  453SOL    HW1 2258   2.969   0.877   6.606
  453SOL    HW2 2259   3.063   1.010   6.595
  454SOL     OW 2260   6.683   6.107   6.003
  454SOL    HW1 2261   6.766   6.085   5.952
  454SOL    HW2 2262   6.620   6.159   5.945
  455SOL     OW 2263   6.791   0.446   4.452
  455SOL    HW1 2264   6.845   0.527   4.432
  455SOL    HW2 2265   6.733   0.464   4.532
  456SOL     OW 2266   4.792   5.466   5.481
  456SOL    HW1 2267   4.866   5.508   5.429
  456SOL    HW2 2268   4.705   5.510   5.459
  457SOL     OW 2269   2.059   3.994   3.185
  457SOL    HW1 2270   2.151   3.999   3.225
  457SOL    HW2 2271   2.063   3.938   3.102
  458SOL     OW 2272   5.430   5.570   5.363
  458SOL    HW1 2273   5.360   5.641   5.352
  458SOL    HW2 2274   5.503   5.585   5.296
  459SOL     OW 2275   1.558   0.068   3.829
  459SOL    HW1 2276   1.629   0.083   3.760
  459SOL    HW2 2277   1.499   0.149   3.835
  460SOL     OW 2278   0.288   1.503   2.152
  460SOL    HW1 2279   0.296   1.549   2.240
  460SOL    HW2 2280   0.192   1.482   2.134
  461SOL     OW 2281   4.944   6.925   4.822
  461SOL    HW1 2282   5.024   6.973   4.787
  461SOL    HW2 2283   4.973   6.840   4.866
  462SOL     OW 2284   4.149   2.256   5.918
  462SOL    HW1 2285   4.226   2.222   5.973
  462SOL    HW2 2286   4.177   2.339   5.869
  463SOL     OW 2287   6.582   5.532   2.837
  463SOL    HW1 2288   6.657   5.555   2.898
  463SOL    HW2 2289   6.550   5.615   2.791
  464SOL     OW 2290   2.532   1.801   6.519
  464SOL    HW1 2291   2.500   1.758   6.603
  464SOL    HW2 2292   2.615   1.853   6.536
  465SOL     OW 2293   0.901   1.776   4.628
  465SOL    HW1 2294   0.995   1.751   4.606
  465SOL    HW2 2295   0.861   1.826   4.551
  466SOL     OW 2296   0.142   6.182   3.794
  466SOL    HW1 2297   0.209   6.144   3.731
  466SOL    HW2 2298   0.181   6.186   3.886
  467SOL     OW 2299   0.994   0.074   6.190
  467SOL    HW1 2300   0.918   0.023   6.229
  467SOL    HW2 2301   1.021   0.148   6.252
  468SOL     OW 2302   3.209   6.168   0.605
  468SOL    HW1 2303   3.142   6.241   0.591
  468SOL    HW2 2304   3.167   6.080   0.585
  469SOL     OW 2305   3.029   4.612   0.320
  469SOL    HW1 2306   3.053   4.591   0.225
  469SOL    HW2 2307   3.053   4.707   0.339
  470SOL     OW 2308   3.270   0.367   2.487
  470SOL    HW1 2309   3.275   0.428   2.566
  470SOL    HW2 2310   3.357   0.370   2.437
  471SOL     OW 2311   1.649   2.436   4.481
  471SOL    HW1 2312   1.624   2.469   4.390
  471SOL    HW2 2313   1.731   2.483   4.513
  472SOL     OW 2314   4.985   3.567   6.739
  472SOL    HW1 2315   4.985   3.606   6.647
  472SOL    HW2 2316   4.933   3.627   6.800
  473SOL     OW 2317   0.512   2.742   1.117
  473SOL    HW1 2318   0.545   2.650   1.098
  473SOL    HW2 2319   0.470   2.780   1.034
  474SOL     OW 2320   4.730   5.100   3.783
  474SOL    HW1 2321   4.670   5.093   3.863
  474SOL    HW2 2322   4.825   5.091   3.812
  475SOL     OW 2323   6.322   0.571   6.716
  475SOL    HW1 2324   6.288   0.660   6.747
  475SOL    HW2 2325   6.350   0.517   6.796
  476SOL     OW 2326   6.814   4.120   2.254
  476SOL    HW1 2327   6.858   4.112   2.165
  476SOL    HW2 2328   6.879   4.159   2.320
  477SOL     OW 2329   2.314   4.955   4.924
  477SOL    HW1 2330   2.388   4.964   4.990
  477SOL    HW2 2331   2.237   4.906   4.966
  478SOL     OW 2332   3.118   6.154   2.178
  478SOL    HW1 2333   3.163   6.141   2.266
  478SOL    HW2 2334   3.026   6.190   2.192
  479SOL     OW 2335   4.510   1.988   0.076
  479SOL    HW1 2336   4.439   2.051   0.044
  479SOL    HW2 2337   4.580   1.979   0.005
  480SOL     OW 2338   1.819   0.175   6.945
  480SOL    HW1 2339   1.750   0.228   6.994
  480SOL    HW2 2340   1.902   0.169   7.000
  481SOL     OW 2341   2.152   6.838   0.965
  481SOL    HW1 2342   2.248   6.812   0.976
  481SOL    HW2 2343   2.096   6.756   0.953
  482SOL     OW 2344   4.868   4.396   2.441
  482SOL    HW1 2345   4.848   4.310   2.393
  482SOL    HW2 2346   4.793   4.460   2.425
  483SOL     OW 2347   5.471   2.530   1.465
  483SOL    HW1 2348   5.505   2.491   1.551
  483SOL    HW2 2349   5.375   2.504   1.453
  484SOL     OW 2350   1.245   2.557   5.093
  484SOL    HW1 2351   1.213   2.564   5.188
  484SOL    HW2 2352   1.262   2.649   5.058
  485SOL     OW 2353   4.281   5.792   2.102
  485SOL    HW1 2354   4.277   5.792   2.202
  485SOL    HW2 2355   4.362   5.742   2.072
  486SOL     OW 2356   0.502   1.446   0.873
  486SOL    HW1 2357   0.490   1.440   0.972
  486SOL    HW2 2358   0.454   1.370   0.830
  487SOL     OW 2359   0.844   1.504   6.672
  487SOL    HW1 2360   0.752   1.465   6.662
  487SOL    HW2 2361   0.912   1.431   6.659
  488SOL     OW 2362   0.991   0.552   1.364
  488SOL    HW1 2363   0.991   0.647   1.332
  488SOL    HW2 2364   0.998   0.491   1.285
  489SOL     OW 2365   3.447   5.997   0.083
  489SOL    HW1 2366   3.410   5.947   0.005
  489SOL    HW2 2367   3.384   5.988   0.161
  490SOL     OW 2368   6.708   5.861   4.249
  490SOL    HW1 2369   6.662   5.950   4.254
  490SOL    HW2 2370   6.648   5.795   4.204
  491SOL     OW 2371   6.834   2.507   3.343
  491SOL    HW1 2372   6.903   2.572   3.376
  491SOL    HW2 2373   6.875   2.416   3.336
  492SOL     OW 2374   3.166   0.356   4.841
  492SOL    HW1 2375   3.200   0.437   4.793
  492SOL    HW2 2376   3.093   0.382   4.904
  493SOL     OW 2377   5.696   5.569   5.965
  493SOL    HW1 2378   5.621   5.505   5.952
  493SOL    HW2 2379   5.709   5.623   5.882
  494SOL     OW 2380   0.486   6.645   0.063
  494SOL    HW1 2381   0.564   6.599   0.106
  494SOL    HW2 2382   0.426   6.576   0.021
  495SOL     OW 2383   5.603   5.931   3.253
  495SOL    HW1 2384   5.544   5.856   3.222
  495SOL    HW2 2385   5.698   5.906   3.237
  496SOL     OW 2386   5.141   3.052   2.728
  496SOL    HW1 2387   5.118   2.986   2.800
  496SOL    HW2 2388   5.059   3.103   2.702
  497SOL     OW 2389   3.385   1.447   5.447
  497SOL    HW1 2390   3.447   1.481   5.376
  497SOL    HW2 2391   3.321   1.520   5.472
  498SOL     OW 2392   1.297   4.359   1.523
  498SOL    HW1 2393   1.375   4.348   1.461
  498SOL    HW2 2394   1.269   4.269   1.557
  499SOL     OW 2395   3.206   0.670   4.109
  499SOL    HW1 2396   3.191   0.584   4.061
  499SOL    HW2 2397   3.196   0.746   4.045
  500SOL     OW 2398   1.154   3.733   3.221
  500SOL    HW1 2399   1.176   3.783   3.304
  500SOL    HW2 2400   1.221   3.755   3.149
  501SOL     OW 2401   3.433   0.525   0.856
  501SOL    HW1 2402   3.432   0.470   0.940
  501SOL    HW2 2403   3.442   0.464   0.777
  502SOL     OW 2404   5.991   4.456   6.455
  502SOL    HW1 2405   5.957   4.425   6.544
  502SOL    HW2 2406   5.976   4.384   6.387
  503SOL     OW 2407   5.817   5.021   6.040
  503SOL    HW1 2408   5.830   5.019   6.139
  503SOL    HW2 2409   5.896   5.067   5.998
  504SOL     OW 2410   2.722   6.385   3.694
  504SOL    HW1 2411   2.807   6.423   3.656
  504SOL    HW2 2412   2.649   6.392   3.626
  505SOL     OW 2413   3.302   0.501   5.637
  505SOL    HW1 2414   3.383   0.546   5.675
  505SOL    HW2 2415   3.256   0.564   5.574
  506SOL     OW 2416   1.884   5.298   4.859
  506SOL    HW1 2417   1.911   5.231   4.789
  506SOL    HW2 2418   1.965   5.343   4.896
  507SOL     OW 2419   3.697   0.338   4.220
  507SOL    HW1 2420   3.642   0.420   4.233
  507SOL    HW2 2421   3.726   0.303   4.309
  508SOL     OW 2422   6.175   3.662   2.807
  508SOL    HW1 2423   6.257   3.702   2.764
  508SOL    HW2 2424   6.105   3.647   2.737
  509SOL     OW 2425   3.311   1.666   1.741
  509SOL    HW1 2426   3.245   1.663   1.816
  509SOL    HW2 2427   3.403   1.672   1.778
  510SOL     OW 2428   6.642   4.805   5.880
  510SOL    HW1 2429   6.642   4.870   5.803
  510SOL    HW2 2430   6.557   4.813   5.931
  511SOL     OW 2431   0.324   6.411   0.007
  511SOL    HW1 2432   0.306   6.337   0.071
  511SOL    HW2 2433   0.238   6.447   6.992
  512SOL     OW 2434   0.191   3.381   0.337
  512SOL    HW1 2435   0.215   3.355   0.243
  512SOL    HW2 2436   0.122   3.317   0.372
  513SOL     OW 2437   6.088   6.489   3.192
  513SOL    HW1 2438   6.001   6.526   3.159
  513SOL    HW2 2439   6.163   6.527   3.138
  514SOL     OW 2440   6.660   2.143   4.131
  514SOL    HW1 2441   6.659   2.243   4.125
  514SOL    HW2 2442   6.754   2.110   4.131
  515SOL     OW 2443   2.163   0.092   6.029
  515SOL    HW1 2444   2.125   0.119   5.940
  515SOL    HW2 2445   2.110   0.015   6.066
  516SOL     OW 2446   2.679   4.394   1.720
  516SOL    HW1 2447   2.756   4.445   1.756
  516SOL    HW2 2448   2.608   4.386   1.791
  517SOL     OW 2449   5.400   5.835   2.568
  517SOL    HW1 2450   5.333   5.827   2.494
  517SOL    HW2 2451   5.409   5.930   2.595
  518SOL     OW 2452   2.902   1.815   1.797
  518SOL    HW1 2453   2.900   1.907   1.836
  518SOL    HW2 2454   2.883   1.748   1.869
  519SOL     OW 2455   7.020   0.673   4.849
  519SOL    HW1 2456   0.084   0.709   4.887
  519SOL    HW2 2457   0.008   0.575   4.833
  520SOL     OW 2458   5.483   4.608   6.458
  520SOL    HW1 2459   5.511   4.519   6.493
  520SOL    HW2 2460   5.548   4.678   6.488
  521SOL     OW 2461   6.333   2.562   6.540
  521SOL    HW1 2462   6.248   2.606   6.569
  521SOL    HW2 2463   6.335   2.468   6.574
  522SOL     OW 2464   3.900   2.940   5.639
  522SOL    HW1 2465   3.975   2.906   5.697
  522SOL    HW2 2466   3.905   3.040   5.636
  523SOL     OW 2467   0.219   5.125   3.671
  523SOL    HW1 2468   0.223   5.212   3.720
  523SOL    HW2 2469   0.240   5.050   3.734
  524SOL     OW 2470   2.605   1.164   6.611
  524SOL    HW1 2471   2.522   1.172   6.665
  524SOL    HW2 2472   2.638   1.256   6.586
  525SOL     OW 2473   2.813   3.346   6.403
  525SOL    HW1 2474   2.858   3.258   6.388
  525SOL    HW2 2475   2.857   3.393   6.480
  526SOL     OW 2476   2.910   6.877   4.913
  526SOL    HW1 2477   2.904   6.904   4.817
  526SOL    HW2 2478   2.819   6.851   4.946
  527SOL     OW 2479   6.195   3.396   6.243
  527SOL    HW1 2480   6.166   3.485   6.205
  527SOL    HW2 2481   6.234   3.410   6.334
  528SOL     OW 2482   1.210   1.097   3.855
  528SOL    HW1 2483   1.301   1.059   3.873
  528SOL    HW2 2484   1.210   1.140   3.764
  529SOL     OW 2485   0.360   5.343   4.746
  529SOL    HW1 2486   0.422   5.281   4.696
  529SOL    HW2 2487   0.324   5.412   4.683
  530SOL     OW 2488   2.573   2.873   5.416
  530SOL    HW1 2489   2.486   2.845   5.456
  530SOL    HW2 2490   2.557   2.936   5.340
  531SOL     OW 2491   0.245   0.975   1.713
  531SOL    HW1 2492   0.219   0.911   1.640
  531SOL    HW2 2493   0.163   1.007   1.760
  532SOL     OW 2494   0.747   2.863   6.101
  532SOL    HW1 2495   0.723   2.780   6.151
  532SOL    HW2 2496   0.810   2.840   6.027
  533SOL     OW 2497   4.920   5.585   4.331
  533SOL    HW1 2498   5.004   5.532   4.324
  533SOL    HW2 2499   4.889   5.586   4.427
  534SOL     OW 2500   5.510   5.173   3.499
  534SOL    HW1 2501   5.500   5.137   3.591
  534SOL    HW2 2502   5.603   5.156   3.466
  535SOL     OW 2503   0.945   4.490   4.120
  535SOL    HW1 2504   1.007   4.544   4.176
  535SOL    HW2 2505   0.879   4.443   4.178
  536SOL     OW 2506   0.049   5.078   2.154
  536SOL    HW1 2507   7.018   4.994   2.139
  536SOL    HW2 2508   0.147   5.059   2.140
  537SOL     OW 2509   2.137   6.453   3.941
  537SOL    HW1 2510   2.180   6.368   3.972
  537SOL    HW2 2511   2.202   6.503   3.883
  538SOL     OW 2512   1.680   5.915   3.508
  538SOL    HW1 2513   1.600   5.971   3.531
  538SOL    HW2 2514   1.740   5.910   3.587
  539SOL     OW 2515   0.045   5.964   0.447
  539SOL    HW1 2516   0.036   5.947   0.349
  539SOL    HW2 2517   0.068   5.878   0.494
  540SOL     OW 2518   0.479   1.850   2.054
  540SOL    HW1 2519   0.463   1.811   2.145
  540SOL    HW2 2520   0.395   1.893   2.021
  541SOL     OW 2521   2.922   6.430   4.370
  541SOL    HW1 2522   3.019   6.406   4.365
  541SOL    HW2 2523   2.870   6.353   4.406
  542SOL     OW 2524   6.519   6.665   6.884
  542SOL    HW1 2525   6.483   6.593   6.943
  542SOL    HW2 2526   6.546   6.627   6.796
  543SOL     OW 2527   0.562   4.902   5.794
  543SOL    HW1 2528   0.466   4.930   5.797
  543SOL    HW2 2529   0.605   4.939   5.712
  544SOL     OW 2530   1.373   4.290   1.232
  544SOL    HW1 2531   1.372   4.357   1.158
  544SOL    HW2 2532   1.291   4.233   1.227
  545SOL     OW 2533   3.642   1.733   3.150
  545SOL    HW1 2534   3.639   1.644   3.196
  545SOL    HW2 2535   3.558   1.747   3.099
  546SOL     OW 2536   1.805   3.273   1.761
  546SOL    HW1 2537   1.835   3.199   1.702
  546SOL    HW2 2538   1.834   3.255   1.855
  547SOL     OW 2539   2.269   1.362   6.805
  547SOL    HW1 2540   2.368   1.366   6.815
  547SOL    HW2 2541   2.239   1.428   6.736
  548SOL     OW 2542   3.549   2.921   2.978
  548SOL    HW1 2543   3.509   2.829   2.971
  548SOL    HW2 2544   3.610   2.925   3.057
  549SOL     OW 2545   4.194   3.601   1.797
  549SOL    HW1 2546   4.279   3.651   1.780
  549SOL    HW2 2547   4.117   3.665   1.797
  550SOL     OW 2548   6.918   3.029   3.091
  550SOL    HW1 2549   6.929   3.128   3.093
  550SOL    HW2 2550   6.968   2.989   3.169
  551SOL     OW 2551   0.041   2.028   0.576
  551SOL    HW1 2552   0.039   2.009   0.674
  551SOL    HW2 2553   0.008   2.121   0.559
  552SOL     OW 2554   3.511   5.912   0.503
  552SOL    HW1 2555   3.439   5.867   0.556
  552SOL    HW2 2556   3.589   5.849   0.493
  553SOL     OW 2557   1.547   6.526   2.695
  553SOL    HW1 2558   1.578   6.579   2.616
  553SOL    HW2 2559   1.611   6.538   2.770
  554SOL     OW 2560   5.172   0.227   6.427
  554SOL    HW1 2561   5.173   0.127   6.428
  554SOL    HW2 2562   5.203   0.262   6.515
  555SOL     OW 2563   2.333   5.252   4.176
  555SOL    HW1 2564   2.381   5.244   4.263
  555SOL    HW2 2565   2.397   5.241   4.101
  556SOL     OW 2566   6.070   2.381   4.179
  556SOL    HW1 2567   6.165   2.353   4.194
  556SOL    HW2 2568   6.014   2.349   4.255
  557SOL     OW 2569   0.201   6.205   6.512
  557SOL    HW1 2570   0.163   6.237   6.425
  557SOL    HW2 2571   0.154   6.121   6.539
  558SOL     OW 2572   4.093   3.637   5.342
  558SOL    HW1 2573   4.015   3.599   5.293
  558SOL    HW2 2574   4.169   3.572   5.338
  559SOL     OW 2575   6.711   6.337   6.500
  559SOL    HW1 2576   6.741   6.242   6.488
  559SOL    HW2 2577   6.759   6.396   6.436
  560SOL     OW 2578   3.519   6.643   0.658
  560SOL    HW1 2579   3.539   6.565   0.598
  560SOL    HW2 2580   3.426   6.637   0.692
  561SOL     OW 2581   5.778   0.081   6.514
  561SOL    HW1 2582   5.714   0.158   6.506
  561SOL    HW2 2583   5.841   0.082   6.437
  562SOL     OW 2584   4.608   1.010   6.306
  562SOL    HW1 2585   4.530   1.064   6.336
  562SOL    HW2 2586   4.661   1.062   6.240
  563SOL     OW 2587   2.789   6.619   3.413
  563SOL    HW1 2588   2.832   6.532   3.437
  563SOL    HW2 2589   2.735   6.607   3.329
  564SOL     OW 2590   2.357   2.310   6.251
  564SOL    HW1 2591   2.422   2.244   6.289
  564SOL    HW2 2592   2.368   2.398   6.297
  565SOL     OW 2593   4.635   2.999   5.476
  565SOL    HW1 2594   4.615   2.904   5.450
  565SOL    HW2 2595   4.684   3.044   5.400
  566SOL     OW 2596   4.264   4.726   3.784
  566SOL    HW1 2597   4.170   4.758   3.773
  566SOL    HW2 2598   4.291   4.674   3.703
  567SOL     OW 2599   3.217   3.196   4.008
  567SOL    HW1 2600   3.199   3.127   3.937
  567SOL    HW2 2601   3.267   3.273   3.967
  568SOL     OW 2602   3.846   2.496   1.134
  568SOL    HW1 2603   3.844   2.496   1.234
  568SOL    HW2 2604   3.940   2.507   1.103
  569SOL     OW 2605   1.395   3.045   0.426
  569SOL    HW1 2606   1.450   2.977   0.378
  569SOL    HW2 2607   1.304   3.050   0.384
  570SOL     OW 2608   1.307   6.011   0.161
  570SOL    HW1 2609   1.373   6.084   0.144
  570SOL    HW2 2610   1.250   5.998   0.080
  571SOL     OW 2611   2.867   5.797   2.426
  571SOL    HW1 2612   2.828   5.741   2.499
  571SOL    HW2 2613   2.926   5.741   2.368
  572SOL     OW 2614   2.348   4.622   5.786
  572SOL    HW1 2615   2.318   4.611   5.691
  572SOL    HW2 2616   2.284   4.575   5.847
  573SOL     OW 2617   3.569   1.588   5.282
  573SOL    HW1 2618   3.657   1.589   5.330
  573SOL    HW2 2619   3.585   1.592   5.183
  574SOL     OW 2620   2.381   1.941   4.562
  574SOL    HW1 2621   2.420   2.030   4.584
  574SOL    HW2 2622   2.401   1.877   4.637
  575SOL     OW 2623   6.251   3.758   0.755
  575SOL    HW1 2624   6.234   3.755   0.854
  575SOL    HW2 2625   6.164   3.759   0.706
  576SOL     OW 2626   1.097   2.465   1.881
  576SOL    HW1 2627   1.070   2.532   1.950
  576SOL    HW2 2628   1.062   2.493   1.792
  577SOL     OW 2629   2.320   1.417   3.770
  577SOL    HW1 2630   2.312   1.327   3.727
  577SOL    HW2 2631   2.355   1.483   3.704
  578SOL     OW 2632   0.227   3.418   3.374
  578SOL    HW1 2633   0.172   3.389   3.452
  578SOL    HW2 2634   0.306   3.470   3.406
  579SOL     OW 2635   4.201   2.164   1.402
  579SOL    HW1 2636   4.263   2.086   1.414
  579SOL    HW2 2637   4.106   2.134   1.410
  580SOL     OW 2638   0.788   4.767   6.162
  580SOL    HW1 2639   0.728   4.847   6.159
  580SOL    HW2 2640   0.737   4.687   6.133
  581SOL     OW 2641   3.959   3.019   3.651
  581SOL    HW1 2642   3.905   2.944   3.689
  581SOL    HW2 2643   3.939   3.028   3.553
  582SOL     OW 2644   5.823   4.108   2.306
  582SOL    HW1 2645   5.896   4.159   2.353
  582SOL    HW2 2646   5.765   4.063   2.373
  583SOL     OW 2647   2.840   4.792   0.095
  583SOL    HW1 2648   2.885   4.703   0.102
  583SOL    HW2 2649   2.866   4.848   0.173
  584SOL     OW 2650   7.004   4.858   5.381
  584SOL    HW1 2651   0.035   4.942   5.396
  584SOL    HW2 2652   0.035   4.796   5.322
  585SOL     OW 2653   0.021   2.782   5.950
  585SOL    HW1 2654   7.011   2.801   5.856
  585SOL    HW2 2655   7.007   2.853   6.011
  586SOL     OW 2656   3.026   6.717   0.646
  586SOL    HW1 2657   2.947   6.675   0.600
  586SOL    HW2 2658   3.076   6.774   0.582
  587SOL     OW 2659   1.762   2.105   5.253
  587SOL    HW1 2660   1.809   2.035   5.199
  587SOL    HW2 2661   1.663   2.094   5.243
  588SOL     OW 2662   3.630   6.898   1.434
  588SOL    HW1 2663   3.695   6.897   1.358
  588SOL    HW2 2664   3.608   6.804   1.461
  589SOL     OW 2665   3.592   5.009   1.706
  589SOL    HW1 2666   3.532   5.027   1.628
  589SOL    HW2 2667   3.564   5.065   1.783
  590SOL     OW 2668   0.073   2.737   2.086
  590SOL    HW1 2669   0.156   2.775   2.128
  590SOL    HW2 2670   0.011   2.811   2.062
  591SOL     OW 2671   4.171   6.934   3.560
  591SOL    HW1 2672   4.170   7.006   3.630
  591SOL    HW2 2673   4.179   6.845   3.605
  592SOL     OW 2674   4.888   1.009   0.272
  592SOL    HW1 2675   4.910   1.071   0.347
  592SOL    HW2 2676   4.835   1.057   0.202
  593SOL     OW 2677   4.347   2.121   4.099
  593SOL    HW1 2678   4.268   2.060   4.100
  593SOL    HW2 2679   4.376   2.139   4.193
  594SOL     OW 2680   4.390   3.424   0.013
  594SOL    HW1 2681   4.364   3.441   6.939
  594SOL    HW2 2682   4.330   3.477   0.073
  595SOL     OW 2683   4.029   6.712   4.476
  595SOL    HW1 2684   3.935   6.704   4.507
  595SOL    HW2 2685   4.031   6.749   4.383
  596SOL     OW 2686   1.015   4.167   2.178
  596SOL    HW1 2687   1.054   4.190   2.267
  596SOL    HW2 2688   1.046   4.076   2.150
  597SOL     OW 2689   3.495   6.831   6.638
  597SOL    HW1 2690   3.592   6.852   6.645
  597SOL    HW2 2691   3.452   6.841   6.727
  598SOL     OW 2692   4.080   4.712   0.163
  598SOL    HW1 2693   4.085   4.620   0.124
  598SOL    HW2 2694   4.171   4.754   0.160
  599SOL     OW 2695   0.062   0.091   2.719
  599SOL    HW1 2696   0.161   0.097   2.722
  599SOL    HW2 2697   0.022   0.144   2.794
  600SOL     OW 2698   0.883   6.574   0.745
  600SOL    HW1 2699   0.933   6.661   0.755
  600SOL    HW2 2700   0.785   6.593   0.740
  601SOL     OW 2701   2.677   5.973   3.397
  601SOL    HW1 2702   2.746   5.905   3.371
  601SOL    HW2 2703   2.713   6.031   3.469
  602SOL     OW 2704   1.184   0.263   0.749
  602SOL    HW1 2705   1.149   0.207   0.824
  602SOL    HW2 2706   1.281   0.244   0.735
  603SOL     OW 2707   3.885   2.188   3.720
  603SOL    HW1 2708   3.890   2.147   3.629
  603SOL    HW2 2709   3.789   2.200   3.746
  604SOL     OW 2710   1.427   3.350   0.089
  604SOL    HW1 2711   1.429   3.450   0.102
  604SOL    HW2 2712   1.511   3.321   0.045
  605SOL     OW 2713   0.108   6.012   3.496
  605SOL    HW1 2714   0.079   5.925   3.456
  605SOL    HW2 2715   0.199   6.001   3.536
  606SOL     OW 2716   4.367   0.379   5.080
  606SOL    HW1 2717   4.416   0.311   5.025
  606SOL    HW2 2718   4.351   0.343   5.172
  607SOL     OW 2719   5.678   1.210   3.620
  607SOL    HW1 2720   5.696   1.268   3.540
  607SOL    HW2 2721   5.643   1.266   3.695
  608SOL     OW 2722   3.178   0.224   0.969
  608SOL    HW1 2723   3.139   0.142   0.927
  608SOL    HW2 2724   3.178   0.299   0.903
  609SOL     OW 2725   3.561   2.877   4.546
  609SOL    HW1 2726   3.536   2.781   4.561
  609SOL    HW2 2727   3.533   2.905   4.454
  610SOL     OW 2728   5.179   2.483   3.640
  610SOL    HW1 2729   5.098   2.491   3.582
  610SOL    HW2 2730   5.256   2.452   3.586
  611SOL     OW 2731   0.030   0.577   6.973
  611SOL    HW1 2732   0.080   0.650   7.018
  611SOL    HW2 2733   0.092   0.500   6.955
  612SOL     OW 2734   3.703   4.944   5.783
  612SOL    HW1 2735   3.690   5.035   5.743
  612SOL    HW2 2736   3.629   4.924   5.846
  613SOL     OW 2737   4.171   1.658   5.708
  613SOL    HW1 2738   4.115   1.681   5.787
  613SOL    HW2 2739   4.128   1.694   5.625
  614SOL     OW 2740   6.044   4.896   0.661
  614SOL    HW1 2741   6.081   4.928   0.573
  614SOL    HW2 2742   5.959   4.846   0.645
  615SOL     OW 2743   0.564   0.303   0.081
  615SOL    HW1 2744   0.521   0.231   0.137
  615SOL    HW2 2745   0.496   0.341   0.018
  616SOL     OW 2746   5.702   2.144   4.652
  616SOL    HW1 2747   5.693   2.044   4.657
  616SOL    HW2 2748   5.798   2.168   4.642
  617SOL     OW 2749   0.531   4.578   5.770
  617SOL    HW1 2750   0.588   4.637   5.828
  617SOL    HW2 2751   0.515   4.624   5.683
  618SOL     OW 2752   6.334   3.473   1.515
  618SOL    HW1 2753   6.296   3.520   1.435
  618SOL    HW2 2754   6.403   3.531   1.558
  619SOL     OW 2755   3.305   0.713   0.551
  619SOL    HW1 2756   3.232   0.653   0.519
  619SOL    HW2 2757   3.266   0.797   0.588
  620SOL     OW 2758   5.562   3.510   2.231
  620SOL    HW1 2759   5.596   3.603   2.223
  620SOL    HW2 2760   5.635   3.445   2.206
  621SOL     OW 2761   2.752   0.039   6.222
  621SOL    HW1 2762   2.783   0.005   6.133
  621SOL    HW2 2763   2.744   6.983   6.286
  622SOL     OW 2764   1.000   2.369   5.358
  622SOL    HW1 2765   1.024   2.303   5.287
  622SOL    HW2 2766   1.010   2.325   5.448
  623SOL     OW 2767   6.362   6.423   4.339
  623SOL    HW1 2768   6.286   6.398   4.279
  623SOL    HW2 2769   6.425   6.483   4.290
  624SOL     OW 2770   6.402   1.619   6.339
  624SOL    HW1 2771   6.313   1.582   6.363
  624SOL    HW2 2772   6.471   1.587   6.405
  625SOL     OW 2773   2.381   1.185   0.179
  625SOL    HW1 2774   2.445   1.262   0.184
  625SOL    HW2 2775   2.422   1.105   0.222
  626SOL     OW 2776   1.258   5.800   3.627
  626SOL    HW1 2777   1.318   5.726   3.598
  626SOL    HW2 2778   1.221   5.779   3.718
  627SOL     OW 2779   6.189   6.883   0.042
  627SOL    HW1 2780   6.188   6.818   6.987
  627SOL    HW2 2781   6.272   6.938   0.038
  628SOL     OW 2782   5.398   4.164   5.435
  628SOL    HW1 2783   5.352   4.197   5.353
  628SOL    HW2 2784   5.331   4.148   5.507
  629SOL     OW 2785   6.873   0.898   0.111
  629SOL    HW1 2786   6.963   0.918   0.073
  629SOL    HW2 2787   6.803   0.950   0.062
  630SOL     OW 2788   6.931   1.271   1.137
  630SOL    HW1 2789   6.851   1.273   1.197
  630SOL    HW2 2790   7.014   1.261   1.192
  631SOL     OW 2791   2.516   2.532   4.919
  631SOL    HW1 2792   2.425   2.494   4.901
  631SOL    HW2 2793   2.515   2.583   5.005
  632SOL     OW 2794   4.873   3.093   0.476
  632SOL    HW1 2795   4.904   3.012   0.525
  632SOL    HW2 2796   4.936   3.113   0.400
  633SOL     OW 2797   1.645   5.112   1.085
  633SOL    HW1 2798   1.568   5.089   1.025
  633SOL    HW2 2799   1.676   5.030   1.132
  634SOL     OW 2800   2.934   3.283   3.883
  634SOL    HW1 2801   3.001   3.230   3.831
  634SOL    HW2 2802   2.939   3.379   3.855
  635SOL     OW 2803   5.411   1.180   6.737
  635SOL    HW1 2804   5.505   1.201   6.712
  635SOL    HW2 2805   5.360   1.153   6.656
  636SOL     OW 2806   2.801   0.411   5.876
  636SOL    HW1 2807   2.723   0.460   5.915
  636SOL    HW2 2808   2.874   0.405   5.943
  637SOL     OW 2809   6.219   1.134   2.145
  637SOL    HW1 2810   6.223   1.207   2.213
  637SOL    HW2 2811   6.304   1.082   2.147
  638SOL     OW 2812   5.783   3.456   3.952
  638SOL    HW1 2813   5.830   3.478   3.866
  638SOL    HW2 2814   5.816   3.516   4.025
  639SOL     OW 2815   5.393   4.841   2.979
  639SOL    HW1 2816   5.342   4.791   3.049
  639SOL    HW2 2817   5.456   4.905   3.022
  640SOL     OW 2818   0.095   2.846   2.537
  640SOL    HW1 2819   0.118   2.839   2.440
  640SOL    HW2 2820   0.006   2.803   2.554
  641SOL     OW 2821   1.867   4.845   5.404
  641SOL    HW1 2822   1.880   4.928   5.459
  641SOL    HW2 2823   1.837   4.770   5.463
  642SOL     OW 2824   1.255   4.127   4.576
  642SOL    HW1 2825   1.208   4.041   4.598
  642SOL    HW2 2826   1.246   4.145   4.478
  643SOL     OW 2827   5.215   6.455   6.939
  643SOL    HW1 2828   5.124   6.423   6.963
  643SOL    HW2 2829   5.220   6.554   6.953
  644SOL     OW 2830   0.514   0.193   4.501
  644SOL    HW1 2831   0.569   0.114   4.475
  644SOL    HW2 2832   0.560   0.241   4.577
  645SOL     OW 2833   3.514   4.883   3.131
  645SOL    HW1 2834   3.488   4.856   3.038
  645SOL    HW2 2835   3.437   4.868   3.193
  646SOL     OW 2836   3.697   0.703   5.558
  646SOL    HW1 2837   3.791   0.689   5.526
  646SOL    HW2 2838   3.675   0.801   5.554
  647SOL     OW 2839   4.871   1.985   4.552
  647SOL    HW1 2840   4.922   2.044   4.614
  647SOL    HW2 2841   4.780   2.025   4.536
  648SOL     OW 2842   6.027   1.473   2.804
  648SOL    HW1 2843   6.083   1.404   2.757
  648SOL    HW2 2844   5.961   1.511   2.740
  649SOL     OW 2845   2.128   4.975   0.130
  649SOL    HW1 2846   2.047   4.994   0.185
  649SOL    HW2 2847   2.168   4.888   0.159
  650SOL     OW 2848   6.362   5.701   0.421
  650SOL    HW1 2849   6.397   5.778   0.474
  650SOL    HW2 2850   6.433   5.631   0.413
  651SOL     OW 2851   1.384   0.125   5.767
  651SOL    HW1 2852   1.466   0.175   5.796
  651SOL    HW2 2853   1.339   0.175   5.693
  652SOL     OW 2854   4.557   0.784   2.006
  652SOL    HW1 2855   4.510   0.770   1.919
  652SOL    HW2 2856   4.491   0.811   2.076
  653SOL     OW 2857   6.601   6.474   0.764
  653SOL    HW1 2858   6.508   6.490   0.729
  653SOL    HW2 2859   6.667   6.498   0.693
  654SOL     OW 2860   6.516   6.550   5.677
  654SOL    HW1 2861   6.497   6.459   5.640
  654SOL    HW2 2862   6.478   6.619   5.615
  655SOL     OW 2863   0.317   5.022   2.189
  655SOL    HW1 2864   0.369   4.944   2.223
  655SOL    HW2 2865   0.380   5.097   2.167
  656SOL     OW 2866   3.264   6.635   0.786
  656SOL    HW1 2867   3.258   6.570   0.862
  656SOL    HW2 2868   3.173   6.647   0.746
  657SOL     OW 2869   3.678   3.355   1.808
  657SOL    HW1 2870   3.583   3.366   1.840
  657SOL    HW2 2871   3.696   3.259   1.787
  658SOL     OW 2872   2.249   4.171   4.045
  658SOL    HW1 2873   2.213   4.245   4.103
  658SOL    HW2 2874   2.302   4.108   4.102
  659SOL     OW 2875   3.955   6.069   5.854
  659SOL    HW1 2876   3.922   5.995   5.912
  659SOL    HW2 2877   3.919   6.157   5.887
  660SOL     OW 2878   5.233   4.573   2.592
  660SOL    HW1 2879   5.160   4.587   2.659
  660SOL    HW2 2880   5.194   4.546   2.504
  661SOL     OW 2881   5.067   4.117   4.081
  661SOL    HW1 2882   5.042   4.109   3.984
  661SOL    HW2 2883   4.987   4.099   4.138
  662SOL     OW 2884   4.775   2.760   6.971
  662SOL    HW1 2885   4.782   2.674   7.021
  662SOL    HW2 2886   4.762   2.742   6.874
  663SOL     OW 2887   6.734   4.113   6.951
  663SOL    HW1 2888   6.802   4.145   7.017
  663SOL    HW2 2889   6.753   4.018   6.927
  664SOL     OW 2890   1.448   6.119   6.334
  664SOL    HW1 2891   1.454   6.179   6.254
  664SOL    HW2 2892   1.512   6.150   6.404
  665SOL     OW 2893   3.609   5.264   1.388
  665SOL    HW1 2894   3.686   5.241   1.328
  665SOL    HW2 2895   3.561   5.180   1.413
  666SOL     OW 2896   3.873   1.841   0.017
  666SOL    HW1 2897   3.931   1.879   0.088
  666SOL    HW2 2898   3.923   1.837   6.951
  667SOL     OW 2899   0.635   2.772   3.739
  667SOL    HW1 2900   0.679   2.859   3.762
  667SOL    HW2 2901   0.561   2.788   3.674
  668SOL     OW 2902   4.482   6.675   6.838
  668SOL    HW1 2903   4.483   6.773   6.819
  668SOL    HW2 2904   4.538   6.655   6.919
  669SOL     OW 2905   0.820   0.108   3.466
  669SOL    HW1 2906   0.772   0.179   3.517
  669SOL    HW2 2907   0.758   0.032   3.447
  670SOL     OW 2908   3.374   3.763   2.759
  670SOL    HW1 2909   3.293   3.704   2.756
  670SOL    HW2 2910   3.368   3.822   2.840
  671SOL     OW 2911   1.705   6.151   6.035
  671SOL    HW1 2912   1.761   6.174   5.956
  671SOL    HW2 2913   1.609   6.145   6.008
  672SOL     OW 2914   1.186   3.262   4.338
  672SOL    HW1 2915   1.205   3.273   4.240
  672SOL    HW2 2916   1.259   3.208   4.380
  673SOL     OW 2917   4.858   0.672   6.982
  673SOL    HW1 2918   4.861   0.604   6.909
  673SOL    HW2 2919   4.792   0.643   0.030
  674SOL     OW 2920   0.688   2.519   3.635
  674SOL    HW1 2921   0.660   2.601   3.684
  674SOL    HW2 2922   0.759   2.471   3.687
  675SOL     OW 2923   0.543   2.534   4.656
  675SOL    HW1 2924   0.602   2.602   4.612
  675SOL    HW2 2925   0.599   2.464   4.699
  676SOL     OW 2926   2.753   4.769   4.332
  676SOL    HW1 2927   2.766   4.783   4.234
  676SOL    HW2 2928   2.695   4.689   4.347
  677SOL     OW 2929   6.189   0.377   0.765
  677SOL    HW1 2930   6.137   0.316   0.706
  677SOL    HW2 2931   6.211   0.330   0.851
  678SOL     OW 2932   2.590   1.010   5.652
  678SOL    HW1 2933   2.627   0.961   5.573
  678SOL    HW2 2934   2.545   1.094   5.621
  679SOL     OW 2935   3.607   1.115   3.486
  679SOL    HW1 2936   3.699   1.080   3.471
  679SOL    HW2 2937   3.613   1.207   3.526
  680SOL     OW 2938   5.608   3.732   5.636
  680SOL    HW1 2939   5.552   3.775   5.566
  680SOL    HW2 2940   5.560   3.652   5.673
  681SOL     OW 2941   6.506   6.586   0.984
  681SOL    HW1 2942   6.427   6.524   0.989
  681SOL    HW2 2943   6.557   6.567   0.900
  682SOL     OW 2944   1.908   6.822   0.061
  682SOL    HW1 2945   1.879   6.801   6.990
  682SOL    HW2 2946   2.007   6.839   0.062
  683SOL     OW 2947   3.947   1.455   6.038
  683SOL    HW1 2948   3.962   1.541   5.989
  683SOL    HW2 2949   3.883   1.470   6.114
  684SOL     OW 2950   0.070   6.851   6.273
  684SOL    HW1 2951   0.059   6.753   6.292
  684SOL    HW2 2952   0.138   6.890   6.336
  685SOL     OW 2953   4.858   0.119   6.314
  685SOL    HW1 2954   4.810   0.099   6.399
  685SOL    HW2 2955   4.897   0.211   6.318
  686SOL     OW 2956   5.412   2.796   3.438
  686SOL    HW1 2957   5.392   2.823   3.532
  686SOL    HW2 2958   5.330   2.760   3.395
  687SOL     OW 2959   6.844   3.357   6.632
  687SOL    HW1 2960   6.919   3.391   6.690
  687SOL    HW2 2961   6.804   3.275   6.674
  688SOL     OW 2962   2.075   3.550   0.052
  688SOL    HW1 2963   2.123   3.478   0.102
  688SOL    HW2 2964   2.137   3.591   7.007
  689SOL     OW 2965   0.525   4.310   6.430
  689SOL    HW1 2966   0.594   4.256   6.382
  689SOL    HW2 2967   0.480   4.372   6.366
  690SOL     OW 2968   1.451   2.214   3.904
  690SOL    HW1 2969   1.514   2.242   3.976
  690SOL    HW2 2970   1.458   2.279   3.828
  691SOL     OW 2971   1.401   2.541   6.497
  691SOL    HW1 2972   1.401   2.535   6.398
  691SOL    HW2 2973   1.308   2.553   6.531
  692SOL     OW 2974   2.745   6.920   3.120
  692SOL    HW1 2975   2.671   6.866   3.081
  692SOL    HW2 2976   2.761   7.001   3.063
  693SOL     OW 2977   6.441   1.979   2.297
  693SOL    HW1 2978   6.520   2.030   2.263
  693SOL    HW2 2979   6.360   2.001   2.242
  694SOL     OW 2980   3.196   5.451   1.105
  694SOL    HW1 2981   3.179   5.550   1.112
  694SOL    HW2 2982   3.193   5.424   1.009
  695SOL     OW 2983   5.174   5.470   5.113
  695SOL    HW1 2984   5.170   5.413   5.195
  695SOL    HW2 2985   5.190   5.565   5.139
  696SOL     OW 2986   3.272   5.152   2.245
  696SOL    HW1 2987   3.204   5.197   2.187
  696SOL    HW2 2988   3.344   5.113   2.187
  697SOL     OW 2989   1.041   3.481   5.084
  697SOL    HW1 2990   1.111   3.473   5.154
  697SOL    HW2 2991   1.083   3.475   4.993
  698SOL     OW 2992   4.656   0.475   3.381
  698SOL    HW1 2993   4.668   0.387   3.334
  698SOL    HW2 2994   4.744   0.503   3.420
  699SOL     OW 2995   1.609   4.526   0.955
  699SOL    HW1 2996   1.689   4.563   0.909
  699SOL    HW2 2997   1.638   4.471   1.033
  700SOL     OW 2998   2.541   2.386   4.007
  700SOL    HW1 2999   2.477   2.458   3.979
  700SOL    HW2 3000   2.494   2.298   4.005
  701SOL     OW 3001   0.941   4.790   0.105
  701SOL    HW1 3002   0.950   4.719   0.035
  701SOL    HW2 3003   0.937   4.747   0.195
  702SOL     OW 3004   5.209   6.867   5.070
  702SOL    HW1 3005   5.227   6.832   4.978
  702SOL    HW2 3006   5.188   6.791   5.132
  703SOL     OW 3007   4.549   3.374   6.645
  703SOL    HW1 3008   4.631   3.418   6.608
  703SOL    HW2 3009   4.566   3.348   6.740
  704SOL     OW 3010   1.206   1.133   6.272
  704SOL    HW1 3011   1.174   1.088   6.188
  704SOL    HW2 3012   1.290   1.089   6.303
  705SOL     OW 3013   4.988   0.796   3.572
  705SOL    HW1 3014   4.946   0.871   3.521
  705SOL    HW2 3015   4.935   0.712   3.558
  706SOL     OW 3016   3.601   2.076   4.221
  706SOL    HW1 3017   3.614   1.981   4.251
  706SOL    HW2 3018   3.602   2.080   4.121
  707SOL     OW 3019   4.539   0.521   1.684
  707SOL    HW1 3020   4.475   0.545   1.758
  707SOL    HW2 3021   4.602   0.598   1.669
  708SOL     OW 3022   4.770   0.299   1.405
  708SOL    HW1 3023   4.673   0.299   1.379
  708SOL    HW2 3024   4.782   0.356   1.486
  709SOL     OW 3025   1.034   4.949   1.004
  709SOL    HW1 3026   1.071   4.857   1.014
  709SOL    HW2 3027   1.050   4.982   0.910
  710SOL     OW 3028   3.324   4.027   2.222
  710SOL    HW1 3029   3.339   3.936   2.261
  710SOL    HW2 3030   3.234   4.030   2.179
  711SOL     OW 3031   6.523   2.703   5.281
  711SOL    HW1 3032   6.571   2.738   5.201
  711SOL    HW2 3033   6.588   2.680   5.353
  712SOL     OW 3034   0.931   3.580   0.935
  712SOL    HW1 3035   0.997   3.655   0.943
  712SOL    HW2 3036   0.845   3.615   0.898
  713SOL     OW 3037   4.059   3.200   2.443
  713SOL    HW1 3038   4.082   3.220   2.348
  713SOL    HW2 3039   4.141   3.172   2.493
  714SOL     OW 3040   5.584   4.461   5.417
  714SOL    HW1 3041   5.647   4.411   5.357
  714SOL    HW2 3042   5.495   4.470   5.372
  715SOL     OW 3043   4.268   5.984   6.739
  715SOL    HW1 3044   4.262   5.973   6.640
  715SOL    HW2 3045   4.239   5.899   6.783
  716SOL     OW 3046   0.504   5.118   1.634
  716SOL    HW1 3047   0.437   5.140   1.563
  716SOL    HW2 3048   0.565   5.047   1.601
  717SOL     OW 3049   6.029   4.035   6.911
  717SOL    HW1 3050   5.985   4.113   6.955
  717SOL    HW2 3051   6.124   4.059   6.889
  718SOL     OW 3052   3.641   2.674   5.767
  718SOL    HW1 3053   3.662   2.766   5.800
  718SOL    HW2 3054   3.553   2.675   5.719
  719SOL     OW 3055   6.827   2.961   1.232
  719SOL    HW1 3056   6.831   3.023   1.154
  719SOL    HW2 3057   6.833   3.013   1.317
  720SOL     OW 3058   2.152   1.597   5.285
  720SOL    HW1 3059   2.181   1.538   5.360
  720SOL    HW2 3060   2.082   1.551   5.231
  721SOL     OW 3061   1.533   0.329   5.580
  721SOL    HW1 3062   1.576   0.376   5.502
  721SOL    HW2 3063   1.474   0.256   5.546
  722SOL     OW 3064   4.295   6.440   5.168
  722SOL    HW1 3065   4.391   6.435   5.195
  722SOL    HW2 3066   4.284   6.397   5.078
  723SOL     OW 3067   2.404   2.723   2.012
  723SOL    HW1 3068   2.424   2.649   1.948
  723SOL    HW2 3069   2.469   2.721   2.088
  724SOL     OW 3070   0.539   1.602   5.190
  724SOL    HW1 3071   0.566   1.586   5.095
  724SOL    HW2 3072   0.530   1.701   5.205
  725SOL     OW 3073   2.564   5.079   1.896
  725SOL    HW1 3074   2.620   5.000   1.870
  725SOL    HW2 3075   2.609   5.163   1.864
  726SOL     OW 3076   3.077   5.173   6.517
  726SOL    HW1 3077   3.027   5.096   6.480
  726SOL    HW2 3078   3.076   5.169   6.617
  727SOL     OW 3079   3.639   5.611   4.209
  727SOL    HW1 3080   3.735   5.612   4.181
  727SOL    HW2 3081   3.594   5.694   4.174
  728SOL     OW 3082   0.212   3.881   5.556
  728SOL    HW1 3083   0.298   3.840   5.589
  728SOL    HW2 3084   0.225   3.910   5.461
  729SOL     OW 3085   1.872   1.030   0.312
  729SOL    HW1 3086   1.785   1.077   0.302
  729SOL    HW2 3087   1.857   0.938   0.350
  730SOL     OW 3088   5.938   0.087   3.487
  730SOL    HW1 3089   5.991   0.165   3.454
  730SOL    HW2 3090   5.850   0.085   3.441
  731SOL     OW 3091   5.406   3.051   5.114
  731SOL    HW1 3092   5.452   3.128   5.160
  731SOL    HW2 3093   5.448   2.965   5.144
  732SOL     OW 3094   0.934   2.356   1.199
  732SOL    HW1 3095   1.023   2.390   1.168
  732SOL    HW2 3096   0.918   2.388   1.293
  733SOL     OW 3097   5.097   4.380   3.751
  733SOL    HW1 3098   5.087   4.442   3.673
  733SOL    HW2 3099   5.115   4.433   3.834
  734SOL     OW 3100   0.556   4.590   1.623
  734SOL    HW1 3101   0.474   4.532   1.623
  734SOL    HW2 3102   0.567   4.631   1.714
  735SOL     OW 3103   1.881   3.274   0.959
  735SOL    HW1 3104   1.902   3.330   0.879
  735SOL    HW2 3105   1.888   3.331   1.041
  736SOL     OW 3106   6.114   6.535   2.555
  736SOL    HW1 3107   6.035   6.597   2.554
  736SOL    HW2 3108   6.127   6.499   2.648
  737SOL     OW 3109   4.785   3.800   1.271
  737SOL    HW1 3110   4.771   3.863   1.348
  737SOL    HW2 3111   4.737   3.835   1.191
  738SOL     OW 3112   0.398   4.535   4.203
  738SOL    HW1 3113   0.357   4.466   4.263
  738SOL    HW2 3114   0.455   4.597   4.257
  739SOL     OW 3115   4.647   6.790   5.919
  739SOL    HW1 3116   4.613   6.883   5.904
  739SOL    HW2 3117   4.725   6.793   5.981
  740SOL     OW 3118   5.521   0.451   0.897
  740SOL    HW1 3119   5.512   0.468   0.799
  740SOL    HW2 3120   5.442   0.400   0.930
  741SOL     OW 3121   1.127   6.236   3.364
  741SOL    HW1 3122   1.111   6.216   3.461
  741SOL    HW2 3123   1.205   6.297   3.355
  742SOL     OW 3124   1.933   6.571   3.179
  742SOL    HW1 3125   1.838   6.541   3.188
  742SOL    HW2 3126   1.942   6.662   3.219
  743SOL     OW 3127   1.145   3.921   3.865
  743SOL    HW1 3128   1.200   3.868   3.930
  743SOL    HW2 3129   1.206   3.976   3.808
  744SOL     OW 3130   6.836   5.843   6.626
  744SOL    HW1 3131   6.870   5.779   6.557
  744SOL    HW2 3132   6.741   5.820   6.649
  745SOL     OW 3133   1.065   5.229   4.163
  745SOL    HW1 3134   1.031   5.196   4.075
  745SOL    HW2 3135   1.097   5.151   4.217
  746SOL     OW 3136   0.358   6.156   5.354
  746SOL    HW1 3137   0.390   6.245   5.323
  746SOL    HW2 3138   0.391   6.140   5.448
  747SOL     OW 3139   4.559   4.721   3.853
  747SOL    HW1 3140   4.479   4.781   3.851
  747SOL    HW2 3141   4.529   4.626   3.862
  748SOL     OW 3142   4.650   4.532   0.850
  748SOL    HW1 3143   4.635   4.630   0.849
  748SOL    HW2 3144   4.575   4.486   0.898
  749SOL     OW 3145   0.209   2.970   5.029
  749SOL    HW1 3146   0.218   3.063   5.062
  749SOL    HW2 3147   0.263   2.958   4.946
  750SOL     OW 3148   3.220   2.916   0.795
  750SOL    HW1 3149   3.123   2.934   0.777
  750SOL    HW2 3150   3.257   2.986   0.855
  751SOL     OW 3151   4.261   1.733   0.545
  751SOL    HW1 3152   4.274   1.809   0.609
  751SOL    HW2 3153   4.217   1.657   0.592
  752SOL     OW 3154   4.802   2.299   1.943
  752SOL    HW1 3155   4.892   2.330   1.977
  752SOL    HW2 3156   4.815   2.234   1.868
  753SOL     OW 3157   1.744   3.440   4.929
  753SOL    HW1 3158   1.833   3.399   4.911
  753SOL    HW2 3159   1.728   3.441   5.028
  754SOL     OW 3160   5.077   3.965   6.454
  754SOL    HW1 3161   5.168   3.925   6.465
  754SOL    HW2 3162   5.082   4.064   6.471
  755SOL     OW 3163   0.754   5.882   6.866
  755SOL    HW1 3164   0.692   5.808   6.892
  755SOL    HW2 3165   0.700   5.964   6.846
  756SOL     OW 3166   4.896   0.629   2.358
  756SOL    HW1 3167   4.933   0.613   2.449
  756SOL    HW2 3168   4.813   0.685   2.365
  757SOL     OW 3169   0.762   6.665   3.921
  757SOL    HW1 3170   0.741   6.654   4.018
  757SOL    HW2 3171   0.727   6.754   3.889
  758SOL     OW 3172   3.338   2.030   1.184
  758SOL    HW1 3173   3.324   1.934   1.211
  758SOL    HW2 3174   3.332   2.088   1.265
  759SOL     OW 3175   0.414   1.195   0.050
  759SOL    HW1 3176   0.478   1.236   7.007
  759SOL    HW2 3177   0.368   1.268   0.102
  760SOL     OW 3178   4.701   1.909   6.621
  760SOL    HW1 3179   4.650   1.824   6.631
  760SOL    HW2 3180   4.696   1.940   6.526
  761SOL     OW 3181   6.028   3.677   0.591
  761SOL    HW1 3182   5.963   3.727   0.647
  761SOL    HW2 3183   6.007   3.579   0.595
  762SOL     OW 3184   1.908   6.119   3.430
  762SOL    HW1 3185   1.832   6.151   3.486
  762SOL    HW2 3186   1.875   6.091   3.340
  763SOL     OW 3187   4.029   5.701   6.990
  763SOL    HW1 3188   4.015   5.736   6.897
  763SOL    HW2 3189   4.097   5.629   6.988
  764SOL     OW 3190   2.936   1.283   3.263
  764SOL    HW1 3191   2.854   1.322   3.223
  764SOL    HW2 3192   2.913   1.235   3.347
  765SOL     OW 3193   1.035   6.321   1.117
  765SOL    HW1 3194   0.951   6.270   1.102
  765SOL    HW2 3195   1.104   6.291   1.050
  766SOL     OW 3196   6.789   0.831   6.751
  766SOL    HW1 3197   6.818   0.925   6.772
  766SOL    HW2 3198   6.867   0.778   6.717
  767SOL     OW 3199   0.547   6.639   1.622
  767SOL    HW1 3200   0.646   6.627   1.631
  767SOL    HW2 3201   0.528   6.721   1.568
  768SOL     OW 3202   2.110   0.326   2.861
  768SOL    HW1 3203   2.014   0.337   2.835
  768SOL    HW2 3204   2.117   0.313   2.960
  769SOL     OW 3205   3.500   0.410   4.538
  769SOL    HW1 3206   3.438   0.459   4.599
  769SOL    HW2 3207   3.448   0.345   4.483
  770SOL     OW 3208   2.857   5.784   3.332
  770SOL    HW1 3209   2.886   5.713   3.269
  770SOL    HW2 3210   2.803   5.744   3.406
  771SOL     OW 3211   2.039   5.321   2.747
  771SOL    HW1 3212   2.062   5.326   2.844
  771SOL    HW2 3213   1.946   5.356   2.733
  772SOL     OW 3214   7.008   4.424   0.353
  772SOL    HW1 3215   6.961   4.413   0.441
  772SOL    HW2 3216   6.981   4.511   0.311
  773SOL     OW 3217   6.907   2.835   3.771
  773SOL    HW1 3218   6.848   2.904   3.812
  773SOL    HW2 3219   6.987   2.822   3.829
  774SOL     OW 3220   1.704   2.131   2.081
  774SOL    HW1 3221   1.656   2.197   2.023
  774SOL    HW2 3222   1.707   2.165   2.175
  775SOL     OW 3223   1.158   1.843   4.226
  775SOL    HW1 3224   1.122   1.930   4.260
  775SOL    HW2 3225   1.103   1.812   4.148
  776SOL     OW 3226   0.816   6.804   5.773
  776SOL    HW1 3227   0.871   6.723   5.792
  776SOL    HW2 3228   0.784   6.844   5.859
  777SOL     OW 3229   3.548   1.009   1.262
  777SOL    HW1 3230   3.540   0.918   1.221
  777SOL    HW2 3231   3.626   1.056   1.222
  778SOL     OW 3232   4.296   0.681   3.787
  778SOL    HW1 3233   4.244   0.694   3.703
  778SOL    HW2 3234   4.265   0.598   3.833
  779SOL     OW 3235   0.248   1.703   1.771
  779SOL    HW1 3236   0.242   1.712   1.672
  779SOL    HW2 3237   0.305   1.777   1.808
  780SOL     OW 3238   5.931   2.614   4.212
  780SOL    HW1 3239   5.870   2.610   4.291
  780SOL    HW2 3240   5.981   2.528   4.204
  781SOL     OW 3241   5.952   1.416   6.235
  781SOL    HW1 3242   5.875   1.383   6.290
  781SOL    HW2 3243   5.928   1.410   6.138
  782SOL     OW 3244   0.683   3.671   0.847
  782SOL    HW1 3245   0.637   3.663   0.758
  782SOL    HW2 3246   0.654   3.596   0.906
  783SOL     OW 3247   3.100   5.684   0.212
  783SOL    HW1 3248   3.172   5.615   0.207
  783SOL    HW2 3249   3.028   5.662   0.146
  784SOL     OW 3250   4.600   0.577   5.162
  784SOL    HW1 3251   4.589   0.485   5.199
  784SOL    HW2 3252   4.697   0.595   5.145
  785SOL     OW 3253   6.227   1.689   2.580
  785SOL    HW1 3254   6.315   1.703   2.624
  785SOL    HW2 3255   6.201   1.593   2.586
  786SOL     OW 3256   6.876   0.530   0.191
  786SOL    HW1 3257   6.948   0.484   0.139
  786SOL    HW2 3258   6.846   0.611   0.142
  787SOL     OW 3259   3.011   1.285   6.023
  787SOL    HW1 3260   2.977   1.193   6.041
  787SOL    HW2 3261   2.964   1.324   5.945
  788SOL     OW 3262   2.035   3.305   4.266
  788SOL    HW1 3263   2.050   3.271   4.359
  788SOL    HW2 3264   2.097   3.259   4.203
  789SOL     OW 3265   6.285   4.499   2.186
  789SOL    HW1 3266   6.327   4.460   2.267
  789SOL    HW2 3267   6.353   4.549   2.133
  790SOL     OW 3268   2.417   1.474   4.217
  790SOL    HW1 3269   2.429   1.398   4.153
  790SOL    HW2 3270   2.497   1.533   4.214
  791SOL     OW 3271   3.996   0.393   4.288
  791SOL    HW1 3272   3.917   0.335   4.306
  791SOL    HW2 3273   3.967   0.474   4.236
  792SOL     OW 3274   6.059   0.202   1.910
  792SOL    HW1 3275   6.064   0.155   1.999
  792SOL    HW2 3276   6.090   0.296   1.920
  793SOL     OW 3277   4.660   6.365   1.702
  793SOL    HW1 3278   4.647   6.375   1.801
  793SOL    HW2 3279   4.722   6.437   1.670
  794SOL     OW 3280   2.730   4.800   5.475
  794SOL    HW1 3281   2.725   4.703   5.496
  794SOL    HW2 3282   2.826   4.827   5.463
  795SOL     OW 3283   3.443   5.284   5.533
  795SOL    HW1 3284   3.417   5.376   5.504
  795SOL    HW2 3285   3.420   5.219   5.461
  796SOL     OW 3286   0.262   2.110   5.805
  796SOL    HW1 3287   0.330   2.075   5.869
  796SOL    HW2 3288   0.209   2.183   5.849
  797SOL     OW 3289   4.853   2.205   2.271
  797SOL    HW1 3290   4.935   2.214   2.214
  797SOL    HW2 3291   4.846   2.111   2.304
  798SOL     OW 3292   4.612   0.327   1.085
  798SOL    HW1 3293   4.648   0.359   0.997
  798SOL    HW2 3294   4.630   0.397   1.155
  799SOL     OW 3295   6.490   2.147   3.284
  799SOL    HW1 3296   6.580   2.120   3.249
  799SOL    HW2 3297   6.484   2.247   3.287
  800SOL     OW 3298   5.601   0.525   2.201
  800SOL    HW1 3299   5.518   0.511   2.255
  800SOL    HW2 3300   5.624   0.440   2.153
  801SOL     OW 3301   1.085   2.557   3.581
  801SOL    HW1 3302   1.107   2.467   3.543
  801SOL    HW2 3303   1.168   2.612   3.589
  802SOL     OW 3304   4.596   1.465   0.383
  802SOL    HW1 3305   4.507   1.423   0.402
  802SOL    HW2 3306   4.627   1.438   0.292
  803SOL     OW 3307   5.976   6.257   4.515
  803SOL    HW1 3308   5.890   6.208   4.530
  803SOL    HW2 3309   6.036   6.202   4.457
  804SOL     OW 3310   6.772   6.781   0.486
  804SOL    HW1 3311   6.704   6.793   0.413
  804SOL    HW2 3312   6.732   6.806   0.573
  805SOL     OW 3313   4.411   2.825   5.719
  805SOL    HW1 3314   4.480   2.860   5.656
  805SOL    HW2 3315   4.454   2.804   5.807
  806SOL     OW 3316   3.861   1.264   5.308
  806SOL    HW1 3317   3.951   1.223   5.320
  806SOL    HW2 3318   3.791   1.192   5.312
  807SOL     OW 3319   1.245   0.805   3.859
  807SOL    HW1 3320   1.181   0.729   3.846
  807SOL    HW2 3321   1.199   0.879   3.907
  808SOL     OW 3322   4.913   3.276   6.051
  808SOL    HW1 3323   4.998   3.284   6.102
  808SOL    HW2 3324   4.865   3.364   6.052
  809SOL     OW 3325   1.126   4.681   1.013
  809SOL    HW1 3326   1.190   4.689   0.936
  809SOL    HW2 3327   1.175   4.648   1.094
  810SOL     OW 3328   4.378   3.632   1.058
  810SOL    HW1 3329   4.428   3.571   0.997
  810SOL    HW2 3330   4.341   3.580   1.135
  811SOL     OW 3331   4.638   5.714   3.585
  811SOL    HW1 3332   4.682   5.789   3.635
  811SOL    HW2 3333   4.657   5.724   3.487
  812SOL     OW 3334   6.896   0.560   1.262
  812SOL    HW1 3335   6.857   0.633   1.205
  812SOL    HW2 3336   6.882   0.472   1.218
  813SOL     OW 3337   4.386   6.239   3.032
  813SOL    HW1 3338   4.450   6.221   3.107
  813SOL    HW2 3339   4.293   6.241   3.068
  814SOL     OW 3340   5.199   6.362   2.482
  814SOL    HW1 3341   5.166   6.369   2.576
  814SOL    HW2 3342   5.264   6.436   2.464
  815SOL     OW 3343   6.197   2.459   1.695
  815SOL    HW1 3344   6.257   2.484   1.619
  815SOL    HW2 3345   6.211   2.363   1.718
  816SOL     OW 3346   6.519   6.349   0.303
  816SOL    HW1 3347   6.474   6.279   0.248
  816SOL    HW2 3348   6.610   6.368   0.265
  817SOL     OW 3349   1.763   4.151   2.214
  817SOL    HW1 3350   1.857   4.164   2.182
  817SOL    HW2 3351   1.705   4.126   2.136
  818SOL     OW 3352   6.190   2.908   0.408
  818SOL    HW1 3353   6.244   2.858   0.476
  818SOL    HW2 3354   6.102   2.861   0.394
  819SOL     OW 3355   6.077   2.565   4.561
  819SOL    HW1 3356   6.126   2.549   4.475
  819SOL    HW2 3357   5.995   2.620   4.542
  820SOL     OW 3358   1.449   2.936   4.826
  820SOL    HW1 3359   1.377   2.869   4.848
  820SOL    HW2 3360   1.524   2.889   4.780
  821SOL     OW 3361   1.783   4.842   0.445
  821SOL    HW1 3362   1.714   4.881   0.507
  821SOL    HW2 3363   1.806   4.910   0.375
  822SOL     OW 3364   1.025   4.668   4.770
  822SOL    HW1 3365   1.112   4.654   4.816
  822SOL    HW2 3366   0.965   4.589   4.786
  823SOL     OW 3367   4.788   4.295   6.360
  823SOL    HW1 3368   4.702   4.335   6.393
  823SOL    HW2 3369   4.820   4.227   6.426
  824SOL     OW 3370   4.728   1.373   5.108
  824SOL    HW1 3371   4.777   1.460   5.105
  824SOL    HW2 3372   4.790   1.301   5.140
  825SOL     OW 3373   2.062   3.092   2.371
  825SOL    HW1 3374   2.109   3.177   2.347
  825SOL    HW2 3375   2.054   3.035   2.289
  826SOL     OW 3376   5.612   3.806   0.851
  826SOL    HW1 3377   5.520   3.843   0.864
  826SOL    HW2 3378   5.606   3.715   0.811
  827SOL     OW 3379   3.634   5.474   5.844
  827SOL    HW1 3380   3.636   5.574   5.849
  827SOL    HW2 3381   3.544   5.444   5.813
  828SOL     OW 3382   6.235   0.657   4.992
  828SOL    HW1 3383   6.265   0.563   5.013
  828SOL    HW2 3384   6.136   0.659   4.982
  829SOL     OW 3385   3.214   2.988   3.841
  829SOL    HW1 3386   3.297   2.932   3.838
  829SOL    HW2 3387   3.134   2.929   3.853
  830SOL     OW 3388   5.095   4.748   5.464
  830SOL    HW1 3389   5.018   4.701   5.509
  830SOL    HW2 3390   5.181   4.707   5.495
  831SOL     OW 3391   6.834   6.630   4.622
  831SOL    HW1 3392   6.752   6.687   4.628
  831SOL    HW2 3393   6.810   6.535   4.641
  832SOL     OW 3394   2.545   1.425   0.167
  832SOL    HW1 3395   2.513   1.518   0.185
  832SOL    HW2 3396   2.609   1.398   0.239
  833SOL     OW 3397   6.435   6.300   6.397
  833SOL    HW1 3398   6.375   6.333   6.471
  833SOL    HW2 3399   6.529   6.329   6.415
  834SOL     OW 3400   3.333   3.452   3.242
  834SOL    HW1 3401   3.311   3.486   3.150
  834SOL    HW2 3402   3.399   3.514   3.285
  835SOL     OW 3403   3.959   6.831   3.358
  835SOL    HW1 3404   3.880   6.795   3.408
  835SOL    HW2 3405   4.015   6.887   3.420
  836SOL     OW 3406   3.561   6.404   6.876
  836SOL    HW1 3407   3.597   6.498   6.870
  836SOL    HW2 3408   3.565   6.373   6.971
  837SOL     OW 3409   5.327   0.480   0.208
  837SOL    HW1 3410   5.302   0.520   0.120
  837SOL    HW2 3411   5.360   0.552   0.270
  838SOL     OW 3412   0.960   6.686   5.172
  838SOL    HW1 3413   0.987   6.591   5.188
  838SOL    HW2 3414   1.024   6.728   5.108
  839SOL     OW 3415   2.764   1.648   3.233
  839SOL    HW1 3416   2.716   1.724   3.188
  839SOL    HW2 3417   2.721   1.630   3.322
  840SOL     OW 3418   0.763   0.971   6.666
  840SOL    HW1 3419   0.806   0.931   6.747
  840SOL    HW2 3420   0.697   1.041   6.695
  841SOL     OW 3421   6.294   4.082   6.894
  841SOL    HW1 3422   6.371   4.024   6.865
  841SOL    HW2 3423   6.302   4.102   6.991
  842SOL     OW 3424   3.783   5.424   3.227
  842SOL    HW1 3425   3.772   5.330   3.259
  842SOL    HW2 3426   3.870   5.433   3.178
  843SOL     OW 3427   6.089   2.627   0.593
  843SOL    HW1 3428   6.051   2.681   0.668
  843SOL    HW2 3429   6.015   2.582   0.544
  844SOL     OW 3430   5.163   6.404   0.866
  844SOL    HW1 3431   5.215   6.391   0.950
  844SOL    HW2 3432   5.071   6.438   0.889
  845SOL     OW 3433   6.085   3.268   5.099
  845SOL    HW1 3434   6.021   3.228   5.033
  845SOL    HW2 3435   6.075   3.222   5.187
  846SOL     OW 3436   6.030   1.687   0.352
  846SOL    HW1 3437   6.013   1.727   0.262
  846SOL    HW2 3438   6.080   1.753   0.409
  847SOL     OW 3439   6.300   3.572   1.258
  847SOL    HW1 3440   6.382   3.606   1.211
  847SOL    HW2 3441   6.237   3.533   1.190
  848SOL     OW 3442   6.374   0.465   6.193
  848SOL    HW1 3443   6.353   0.489   6.287
  848SOL    HW2 3444   6.449   0.399   6.191
  849SOL     OW 3445   0.228   6.085   5.097
  849SOL    HW1 3446   0.257   6.025   5.023
  849SOL    HW2 3447   0.277   6.061   5.181
  850SOL     OW 3448   4.542   0.747   3.449
  850SOL    HW1 3449   4.582   0.655   3.446
  850SOL    HW2 3450   4.587   0.800   3.520
  851SOL     OW 3451   0.343   1.366   6.752
  851SOL    HW1 3452   0.356   1.432   6.827
  851SOL    HW2 3453   0.372   1.408   6.666
  852SOL     OW 3454   2.417   2.374   6.852
  852SOL    HW1 3455   2.424   2.319   6.769
  852SOL    HW2 3456   2.509   2.399   6.883
  853SOL     OW 3457   1.158   2.960   2.921
  853SOL    HW1 3458   1.114   2.876   2.952
  853SOL    HW2 3459   1.110   2.996   2.842
  854SOL     OW 3460   5.803   6.539   3.130
  854SOL    HW1 3461   5.794   6.536   3.030
  854SOL    HW2 3462   5.712   6.537   3.172
  855SOL     OW 3463   5.675   0.249   1.730
  855SOL    HW1 3464   5.634   0.314   1.666
  855SOL    HW2 3465   5.604   0.186   1.762
  856SOL     OW 3466   1.626   0.613   5.409
  856SOL    HW1 3467   1.577   0.535   5.371
  856SOL    HW2 3468   1.724   0.595   5.406
  857SOL     OW 3469   5.832   4.067   1.309
  857SOL    HW1 3470   5.849   3.990   1.370
  857SOL    HW2 3471   5.825   4.033   1.215
  858SOL     OW 3472   2.713   4.733   1.572
  858SOL    HW1 3473   2.777   4.660   1.548
  858SOL    HW2 3474   2.696   4.732   1.670
  859SOL     OW 3475   5.898   4.861   6.666
  859SOL    HW1 3476   5.944   4.790   6.719
  859SOL    HW2 3477   5.965   4.915   6.615
  860SOL     OW 3478   3.496   4.598   0.027
  860SOL    HW1 3479   3.504   4.502   0.001
  860SOL    HW2 3480   3.585   4.643   0.019
  861SOL     OW 3481   3.179   6.790   4.791
  861SOL    HW1 3482   3.118   6.824   4.863
  861SOL    HW2 3483   3.198   6.693   4.807
  862SOL     OW 3484   6.256   4.221   4.857
  862SOL    HW1 3485   6.275   4.315   4.884
  862SOL    HW2 3486   6.298   4.202   4.768
  863SOL     OW 3487   0.578   0.516   0.549
  863SOL    HW1 3488   0.646   0.522   0.476
  863SOL    HW2 3489   0.505   0.582   0.532
  864SOL     OW 3490   4.946   4.054   3.364
  864SOL    HW1 3491   4.909   4.000   3.439
  864SOL    HW2 3492   5.039   4.024   3.344
  865SOL     OW 3493   1.043   6.844   4.239
  865SOL    HW1 3494   0.993   6.910   4.183
  865SOL    HW2 3495   1.123   6.889   4.279
  866SOL     OW 3496   2.620   1.486   1.900
  866SOL    HW1 3497   2.567   1.550   1.844
  866SOL    HW2 3498   2.696   1.535   1.943
  867SOL     OW 3499   3.073   3.165   0.106
  867SOL    HW1 3500   3.132   3.193   0.031
  867SOL    HW2 3501   3.128   3.145   0.186
  868SOL     OW 3502   5.804   0.313   2.819
  868SOL    HW1 3503   5.755   0.226   2.806
  868SOL    HW2 3504   5.880   0.318   2.755
  869SOL     OW 3505   6.461   6.026   2.547
  869SOL    HW1 3506   6.439   6.119   2.517
  869SOL    HW2 3507   6.545   6.028   2.601
  870SOL     OW 3508   0.126   2.960   1.469
  870SOL    HW1 3509   0.191   2.888   1.444
  870SOL    HW2 3510   0.128   2.972   1.569
  871SOL     OW 3511   6.868   2.462   1.874
  871SOL    HW1 3512   6.785   2.448   1.821
  871SOL    HW2 3513   6.844   2.492   1.966
  872SOL     OW 3514   6.197   2.921   4.663
  872SOL    HW1 3515   6.116   2.869   4.634
  872SOL    HW2 3516   6.260   2.930   4.586
  873SOL     OW 3517   3.930   6.994   2.816
  873SOL    HW1 3518   4.004   0.020   2.769
  873SOL    HW2 3519   3.868   0.040   2.857
  874SOL     OW 3520   1.882   4.396   5.281
  874SOL    HW1 3521   1.851   4.334   5.209
  874SOL    HW2 3522   1.973   4.370   5.311
  875SOL     OW 3523   5.291   4.146   0.663
  875SOL    HW1 3524   5.363   4.183   0.723
  875SOL    HW2 3525   5.202   4.173   0.699
  876SOL     OW 3526   6.392   3.584   2.535
  876SOL    HW1 3527   6.312   3.552   2.484
  876SOL    HW2 3528   6.396   3.684   2.531
  877SOL     OW 3529   5.222   5.131   6.765
  877SOL    HW1 3530   5.263   5.221   6.755
  877SOL    HW2 3531   5.123   5.140   6.772
  878SOL     OW 3532   3.172   5.383   0.163
  878SOL    HW1 3533   3.072   5.377   0.164
  878SOL    HW2 3534   3.211   5.293   0.149
  879SOL     OW 3535   4.612   1.937   2.798
  879SOL    HW1 3536   4.652   1.868   2.858
  879SOL    HW2 3537   4.524   1.967   2.835
  880SOL     OW 3538   3.789   4.833   0.432
  880SOL    HW1 3539   3.849   4.762   0.469
  880SOL    HW2 3540   3.694   4.812   0.456
  881SOL     OW 3541   4.380   4.653   4.409
  881SOL    HW1 3542   4.399   4.621   4.502
  881SOL    HW2 3543   4.406   4.583   4.343
  882SOL     OW 3544   1.155   0.585   4.659
  882SOL    HW1 3545   1.213   0.651   4.612
  882SOL    HW2 3546   1.059   0.608   4.644
  883SOL     OW 3547   3.561   5.039   6.023
  883SOL    HW1 3548   3.474   4.991   6.031
  883SOL    HW2 3549   3.545   5.128   5.979
  884SOL     OW 3550   6.272   3.543   2.031
  884SOL    HW1 3551   6.290   3.460   2.083
  884SOL    HW2 3552   6.277   3.623   2.092
  885SOL     OW 3553   5.994   6.554   0.149
  885SOL    HW1 3554   5.912   6.598   0.112
  885SOL    HW2 3555   6.051   6.623   0.194
  886SOL     OW 3556   3.921   0.864   0.034
  886SOL    HW1 3557   3.909   0.910   0.121
  886SOL    HW2 3558   3.949   0.931   6.986
  887SOL     OW 3559   3.963   0.417   6.516
  887SOL    HW1 3560   3.989   0.449   6.425
  887SOL    HW2 3561   3.901   0.339   6.508
  888SOL     OW 3562   6.877   6.580   3.930
  888SOL    HW1 3563   6.905   6.654   3.991
  888SOL    HW2 3564   6.798   6.609   3.876
  889SOL     OW 3565   0.131   6.324   5.068
  889SOL    HW1 3566   0.038   6.356   5.087
  889SOL    HW2 3567   0.142   6.231   5.103
  890SOL     OW 3568   2.685   4.640   2.212
  890SOL    HW1 3569   2.678   4.734   2.178
  890SOL    HW2 3570   2.716   4.580   2.138
  891SOL     OW 3571   5.798   2.761   1.250
  891SOL    HW1 3572   5.893   2.789   1.261
  891SOL    HW2 3573   5.791   2.662   1.261
  892SOL     OW 3574   2.705   3.306   1.057
  892SOL    HW1 3575   2.645   3.249   1.002
  892SOL    HW2 3576   2.751   3.373   0.999
  893SOL     OW 3577   1.255   0.403   0.239
  893SOL    HW1 3578   1.315   0.454   0.302
  893SOL    HW2 3579   1.166   0.390   0.282
  894SOL     OW 3580   1.189   5.801   4.619
  894SOL    HW1 3581   1.169   5.890   4.577
  894SOL    HW2 3582   1.109   5.768   4.667
  895SOL     OW 3583   2.334   0.256   4.278
  895SOL    HW1 3584   2.398   0.262   4.355
  895SOL    HW2 3585   2.242   0.280   4.310
  896SOL     OW 3586   5.988   6.470   3.575
  896SOL    HW1 3587   5.890   6.478   3.592
  896SOL    HW2 3588   6.036   6.457   3.661
  897SOL     OW 3589   5.062   2.750   6.651
  897SOL    HW1 3590   5.145   2.699   6.674
  897SOL    HW2 3591   5.077   2.804   6.569
  898SOL     OW 3592   5.026   6.381   3.808
  898SOL    HW1 3593   4.987   6.289   3.812
  898SOL    HW2 3594   5.000   6.433   3.889
  899SOL     OW 3595   0.288   5.044   6.754
  899SOL    HW1 3596   0.351   5.103   6.705
  899SOL    HW2 3597   0.195   5.079   6.744
  900SOL     OW 3598   0.225   6.555   3.445
  900SOL    HW1 3599   0.187   6.519   3.531
  900SOL    HW2 3600   0.264   6.646   3.462
  901SOL     OW 3601   6.452   1.276   3.941
  901SOL    HW1 3602   6.424   1.199   3.884
  901SOL    HW2 3603   6.529   1.248   3.998
  902SOL     OW 3604   6.781   0.310   6.336
  902SOL    HW1 3605   6.761   0.369   6.258
  902SOL    HW2 3606   6.720   0.333   6.412
  903SOL     OW 3607   0.294   4.464   0.962
  903SOL    HW1 3608   0.359   4.538   0.946
  903SOL    HW2 3609   0.343   4.382   0.992
  904SOL     OW 3610   1.647   1.653   3.426
  904SOL    HW1 3611   1.687   1.620   3.340
  904SOL    HW2 3612   1.693   1.737   3.455
  905SOL     OW 3613   5.196   2.426   5.764
  905SOL    HW1 3614   5.220   2.498   5.829
  905SOL    HW2 3615   5.113   2.451   5.714
  906SOL     OW 3616   0.180   4.369   6.136
  906SOL    HW1 3617   0.220   4.293   6.086
  906SOL    HW2 3618   0.167   4.447   6.074
  907SOL     OW 3619   5.934   2.395   2.827
  907SOL    HW1 3620   5.951   2.354   2.738
  907SOL    HW2 3621   5.913   2.324   2.894
  908SOL     OW 3622   1.723   6.844   3.941
  908SOL    HW1 3623   1.807   6.890   3.912
  908SOL    HW2 3624   1.645   6.904   3.926
  909SOL     OW 3625   3.255   0.749   1.178
  909SOL    HW1 3626   3.231   0.675   1.115
  909SOL    HW2 3627   3.352   0.771   1.167
  910SOL     OW 3628   1.954   1.123   0.722
  910SOL    HW1 3629   1.860   1.157   0.715
  910SOL    HW2 3630   1.954   1.024   0.708
  911SOL     OW 3631   0.715   4.352   1.542
  911SOL    HW1 3632   0.656   4.428   1.568
  911SOL    HW2 3633   0.754   4.310   1.624
  912SOL     OW 3634   6.991   1.080   6.105
  912SOL    HW1 3635   6.908   1.099   6.156
  912SOL    HW2 3636   0.034   1.029   6.163
  913SOL     OW 3637   2.692   0.797   2.876
  913SOL    HW1 3638   2.709   0.775   2.780
  913SOL    HW2 3639   2.600   0.835   2.886
  914SOL     OW 3640   2.711   6.031   3.869
  914SOL    HW1 3641   2.726   6.037   3.770
  914SOL    HW2 3642   2.699   6.122   3.907
  915SOL     OW 3643   0.522   2.757   0.009
  915SOL    HW1 3644   0.561   2.679   0.057
  915SOL    HW2 3645   0.519   2.836   0.070
  916SOL     OW 3646   2.640   2.221   3.123
  916SOL    HW1 3647   2.666   2.208   3.028
  916SOL    HW2 3648   2.610   2.315   3.138
  917SOL     OW 3649   4.142   1.474   1.387
  917SOL    HW1 3650   4.079   1.545   1.359
  917SOL    HW2 3651   4.201   1.449   1.309
  918SOL     OW 3652   2.738   5.994   6.518
  918SOL    HW1 3653   2.722   6.081   6.564
  918SOL    HW2 3654   2.663   5.976   6.455
  919SOL     OW 3655   1.363   6.045   1.892
  919SOL    HW1 3656   1.267   6.020   1.893
  919SOL    HW2 3657   1.390   6.074   1.800
  920SOL     OW 3658   2.593   0.312   3.115
  920SOL    HW1 3659   2.532   0.368   3.173
  920SOL    HW2 3660   2.598   0.353   3.024
  921SOL     OW 3661   5.740   5.110   4.553
  921SOL    HW1 3662   5.832   5.093   4.588
  921SOL    HW2 3663   5.698   5.024   4.524
  922SOL     OW 3664   3.025   3.543   0.006
  922SOL    HW1 3665   3.041   3.633   6.985
  922SOL    HW2 3666   3.092   3.528   0.078
  923SOL     OW 3667   3.024   6.541   6.643
  923SOL    HW1 3668   2.941   6.504   6.685
  923SOL    HW2 3669   3.037   6.635   6.673
  924SOL     OW 3670   5.882   3.622   2.332
  924SOL    HW1 3671   5.828   3.691   2.379
  924SOL    HW2 3672   5.832   3.536   2.328
  925SOL     OW 3673   0.155   1.912   5.259
  925SOL    HW1 3674   0.217   1.919   5.337
  925SOL    HW2 3675   0.115   2.002   5.239
  926SOL     OW 3676   5.081   6.169   0.430
  926SOL    HW1 3677   5.105   6.250   0.482
  926SOL    HW2 3678   5.164   6.121   0.401
  927SOL     OW 3679   4.530   4.448   4.295
  927SOL    HW1 3680   4.567   4.367   4.340
  927SOL    HW2 3681   4.508   4.427   4.200
  928SOL     OW 3682   1.995   0.473   1.170
  928SOL    HW1 3683   2.072   0.537   1.167
  928SOL    HW2 3684   1.910   0.522   1.154
  929SOL     OW 3685   0.166   2.824   2.814
  929SOL    HW1 3686   0.137   2.918   2.830
  929SOL    HW2 3687   0.154   2.802   2.718
  930SOL     OW 3688   5.514   5.029   4.335
  930SOL    HW1 3689   5.546   4.979   4.254
  930SOL    HW2 3690   5.559   4.992   4.417
  931SOL     OW 3691   1.594   2.242   2.778
  931SOL    HW1 3692   1.555   2.191   2.855
  931SOL    HW2 3693   1.686   2.272   2.802
  932SOL     OW 3694   4.588   5.821   0.976
  932SOL    HW1 3695   4.627   5.913   0.976
  932SOL    HW2 3696   4.586   5.785   0.882
  933SOL     OW 3697   1.541   4.893   2.589
  933SOL    HW1 3698   1.637   4.921   2.594
  933SOL    HW2 3699   1.496   4.944   2.516
  934SOL     OW 3700   3.371   1.178   5.346
  934SOL    HW1 3701   3.374   1.270   5.385
  934SOL    HW2 3702   3.276   1.152   5.329
  935SOL     OW 3703   4.156   3.538   6.070
  935SOL    HW1 3704   4.112   3.611   6.121
  935SOL    HW2 3705   4.150   3.557   5.972
  936SOL     OW 3706   0.635   0.380   0.803
  936SOL    HW1 3707   0.557   0.318   0.807
  936SOL    HW2 3708   0.626   0.441   0.725
  937SOL     OW 3709   4.271   1.713   4.570
  937SOL    HW1 3710   4.349   1.749   4.518
  937SOL    HW2 3711   4.187   1.729   4.518
  938SOL     OW 3712   0.383   3.259   5.983
  938SOL    HW1 3713   0.359   3.255   6.080
  938SOL    HW2 3714   0.404   3.167   5.950
  939SOL     OW 3715   5.114   1.379   5.847
  939SOL    HW1 3716   5.185   1.309   5.832
  939SOL    HW2 3717   5.155   1.470   5.838
  940SOL     OW 3718   6.791   0.916   3.454
  940SOL    HW1 3719   6.760   0.829   3.494
  940SOL    HW2 3720   6.739   0.991   3.494
  941SOL     OW 3721   5.807   1.551   3.669
  941SOL    HW1 3722   5.824   1.505   3.582
  941SOL    HW2 3723   5.772   1.643   3.651
  942SOL     OW 3724   5.210   6.719   5.563
  942SOL    HW1 3725   5.208   6.775   5.646
  942SOL    HW2 3726   5.213   6.622   5.588
  943SOL     OW 3727   5.931   2.597   1.994
  943SOL    HW1 3728   5.972   2.651   1.920
  943SOL    HW2 3729   5.979   2.509   2.001
  944SOL     OW 3730   5.892   3.576   4.936
  944SOL    HW1 3731   5.846   3.660   4.906
  944SOL    HW2 3732   5.970   3.558   4.875
  945SOL     OW 3733   5.163   4.603   3.927
  945SOL    HW1 3734   5.111   4.676   3.970
  945SOL    HW2 3735   5.251   4.638   3.896
  946SOL     OW 3736   5.991   3.175   5.812
  946SOL    HW1 3737   6.034   3.192   5.901
  946SOL    HW2 3738   5.901   3.217   5.809
  947SOL     OW 3739   3.487   2.576   6.400
  947SOL    HW1 3740   3.502   2.619   6.311
  947SOL    HW2 3741   3.571   2.581   6.453
  948SOL     OW 3742   3.891   1.807   0.612
  948SOL    HW1 3743   3.866   1.863   0.534
  948SOL    HW2 3744   3.965   1.850   0.663
  949SOL     OW 3745   6.208   5.219   6.670
  949SOL    HW1 3746   6.159   5.272   6.738
  949SOL    HW2 3747   6.164   5.130   6.658
  950SOL     OW 3748   4.144   5.651   0.863
  950SOL    HW1 3749   4.093   5.571   0.831
  950SOL    HW2 3750   4.237   5.625   0.886
  951SOL     OW 3751   0.748   0.492   1.474
  951SOL    HW1 3752   0.731   0.523   1.567
  951SOL    HW2 3753   0.820   0.548   1.432
  952SOL     OW 3754   5.341   0.845   2.887
  952SOL    HW1 3755   5.374   0.895   2.967
  952SOL    HW2 3756   5.313   0.910   2.816
  953SOL     OW 3757   4.388   5.761   6.144
  953SOL    HW1 3758   4.346   5.806   6.065
  953SOL    HW2 3759   4.367   5.813   6.227
  954SOL     OW 3760   5.816   0.082   1.304
  954SOL    HW1 3761   5.856   0.109   1.392
  954SOL    HW2 3762   5.856   0.137   1.231
  955SOL     OW 3763   0.659   5.945   3.346
  955SOL    HW1 3764   0.669   6.034   3.301
  955SOL    HW2 3765   0.672   5.872   3.278
  956SOL     OW 3766   1.756   1.903   0.966
  956SOL    HW1 3767   1.844   1.901   0.918
  956SOL    HW2 3768   1.683   1.924   0.900
  957SOL     OW 3769   2.160   4.763   5.049
  957SOL    HW1 3770   2.113   4.731   4.967
  957SOL    HW2 3771   2.136   4.703   5.126
  958SOL     OW 3772   5.528   1.993   1.650
  958SOL    HW1 3773   5.554   2.085   1.680
  958SOL    HW2 3774   5.610   1.944   1.618
  959SOL     OW 3775   3.143   4.849   3.070
  959SOL    HW1 3776   3.083   4.782   3.028
  959SOL    HW2 3777   3.132   4.937   3.024
  960SOL     OW 3778   2.097   5.749   4.650
  960SOL    HW1 3779   2.028   5.723   4.717
  960SOL    HW2 3780   2.122   5.845   4.664
  961SOL     OW 3781   4.149   6.784   1.628
  961SOL    HW1 3782   4.125   6.734   1.545
  961SOL    HW2 3783   4.180   6.719   1.698
  962SOL     OW 3784   1.914   0.803   3.418
  962SOL    HW1 3785   1.855   0.862   3.364
  962SOL    HW2 3786   1.875   0.791   3.509
  963SOL     OW 3787   6.514   0.591   1.389
  963SOL    HW1 3788   6.578   0.666   1.373
  963SOL    HW2 3789   6.563   0.504   1.388
  964SOL     OW 3790   5.410   3.735   1.724
  964SOL    HW1 3791   5.377   3.737   1.629
  964SOL    HW2 3792   5.383   3.819   1.771
  965SOL     OW 3793   0.295   1.584   0.487
  965SOL    HW1 3794   0.209   1.589   0.538
  965SOL    HW2 3795   0.300   1.661   0.423
  966SOL     OW 3796   6.230   1.328   2.682
  966SOL    HW1 3797   6.250   1.236   2.649
  966SOL    HW2 3798   6.310   1.386   2.668
  967SOL     OW 3799   0.766   5.428   0.127
  967SOL    HW1 3800   0.779   5.492   0.052
  967SOL    HW2 3801   0.841   5.361   0.127
  968SOL     OW 3802   4.615   2.548   1.998
  968SOL    HW1 3803   4.610   2.510   2.090
  968SOL    HW2 3804   4.667   2.485   1.939
  969SOL     OW 3805   4.470   6.675   6.100
  969SOL    HW1 3806   4.525   6.718   6.028
  969SOL    HW2 3807   4.530   6.623   6.161
  970SOL     OW 3808   4.479   1.814   5.235
  970SOL    HW1 3809   4.517   1.722   5.246
  970SOL    HW2 3810   4.533   1.879   5.289
  971SOL     OW 3811   6.757   1.505   2.048
  971SOL    HW1 3812   6.735   1.597   2.080
  971SOL    HW2 3813   6.690   1.440   2.085
  972SOL     OW 3814   6.484   4.872   1.013
  972SOL    HW1 3815   6.444   4.814   0.942
  972SOL    HW2 3816   6.546   4.938   0.971
  973SOL     OW 3817   6.516   4.605   6.652
  973SOL    HW1 3818   6.420   4.578   6.647
  973SOL    HW2 3819   6.556   4.570   6.737
  974SOL     OW 3820   3.200   0.116   3.186
  974SOL    HW1 3821   3.292   0.097   3.221
  974SOL    HW2 3822   3.188   0.215   3.176
  975SOL     OW 3823   2.934   5.748   5.546
  975SOL    HW1 3824   2.995   5.691   5.601
  975SOL    HW2 3825   2.885   5.810   5.607
  976SOL     OW 3826   6.645   3.080   3.042
  976SOL    HW1 3827   6.735   3.043   3.068
  976SOL    HW2 3828   6.580   3.065   3.116
  977SOL     OW 3829   1.474   1.067   3.917
  977SOL    HW1 3830   1.539   1.076   3.841
  977SOL    HW2 3831   1.496   0.986   3.971
  978SOL     OW 3832   5.723   4.291   4.247
  978SOL    HW1 3833   5.633   4.248   4.259
  978SOL    HW2 3834   5.710   4.381   4.204
  979SOL     OW 3835   6.092   0.299   3.340
  979SOL    HW1 3836   6.035   0.345   3.272
  979SOL    HW2 3837   6.176   0.268   3.297
  980SOL     OW 3838   5.361   2.277   3.980
  980SOL    HW1 3839   5.391   2.305   3.889
  980SOL    HW2 3840   5.370   2.178   3.989
  981SOL     OW 3841   1.183   1.390   4.249
  981SOL    HW1 3842   1.266   1.344   4.281
  981SOL    HW2 3843   1.154   1.349   4.162
  982SOL     OW 3844   1.187   2.457   1.169
  982SOL    HW1 3845   1.278   2.460   1.211
  982SOL    HW2 3846   1.136   2.539   1.194
  983SOL     OW 3847   6.479   2.085   3.001
  983SOL    HW1 3848   6.441   2.111   3.090
  983SOL    HW2 3849   6.407   2.085   2.932
  984SOL     OW 3850   4.601   1.342   5.473
  984SOL    HW1 3851   4.661   1.310   5.545
  984SOL    HW2 3852   4.577   1.265   5.413
  985SOL     OW 3853   3.203   5.350   0.859
  985SOL    HW1 3854   3.211   5.251   0.850
  985SOL    HW2 3855   3.250   5.395   0.783
  986SOL     OW 3856   5.034   5.277   6.123
  986SOL    HW1 3857   4.965   5.260   6.194
  986SOL    HW2 3858   4.993   5.263   6.033
  987SOL     OW 3859   3.005   6.297   1.531
  987SOL    HW1 3860   3.001   6.200   1.508
  987SOL    HW2 3861   2.961   6.311   1.620
  988SOL     OW 3862   3.860   2.761   0.698
  988SOL    HW1 3863   3.908   2.696   0.638
  988SOL    HW2 3864   3.835   2.842   0.646
  989SOL     OW 3865   1.017   0.430   6.020
  989SOL    HW1 3866   1.026   0.348   5.962
  989SOL    HW2 3867   0.928   0.472   6.005
  990SOL     OW 3868   4.923   0.534   3.957
  990SOL    HW1 3869   5.016   0.518   3.924
  990SOL    HW2 3870   4.857   0.486   3.899
  991SOL     OW 3871   1.343   2.323   4.805
  991SOL    HW1 3872   1.400   2.265   4.747
  991SOL    HW2 3873   1.283   2.266   4.861
  992SOL     OW 3874   0.271   3.344   6.389
  992SOL    HW1 3875   0.191   3.293   6.421
  992SOL    HW2 3876   0.253   3.378   6.297
  993SOL     OW 3877   3.186   4.919   2.743
  993SOL    HW1 3878   3.113   4.981   2.773
  993SOL    HW2 3879   3.182   4.909   2.644
  994SOL     OW 3880   3.954   3.827   2.386
  994SOL    HW1 3881   3.888   3.895   2.357
  994SOL    HW2 3882   4.046   3.858   2.364
  995SOL     OW 3883   1.923   3.204   6.174
  995SOL    HW1 3884   2.018   3.221   6.197
  995SOL    HW2 3885   1.884   3.138   6.239
  996SOL     OW 3886   1.598   3.330   2.887
  996SOL    HW1 3887   1.636   3.358   2.799
  996SOL    HW2 3888   1.618   3.398   2.957
  997SOL     OW 3889   0.390   0.902   1.096
  997SOL    HW1 3890   0.472   0.940   1.053
  997SOL    HW2 3891   0.414   0.817   1.143
  998SOL     OW 3892   3.924   6.506   2.120
  998SOL    HW1 3893   3.924   6.601   2.089
  998SOL    HW2 3894   3.945   6.446   2.043
  999SOL     OW 3895   5.845   5.799   0.663
  999SOL    HW1 3896   5.863   5.745   0.745
  999SOL    HW2 3897   5.803   5.741   0.593
 1000SOL     OW 3898   2.379   2.327   3.274
 1000SOL    HW1 3899   2.412   2.297   3.364
 1000SOL    HW2 3900   2.428   2.410   3.246
 1001SOL     OW 3901   4.737   6.748   6.743
 1001SOL    HW1 3902   4.717   6.650   6.742
 1001SOL    HW2 3903   4.662   6.798   6.700
 1002SOL     OW 3904   5.641   1.724   6.533
 1002SOL    HW1 3905   5.674   1.800   6.475
 1002SOL    HW2 3906   5.681   1.733   6.624
 1003SOL     OW 3907   2.822   6.130   2.618
 1003SOL    HW1 3908   2.872   6.164   2.697
 1003SOL    HW2 3909   2.741   6.080   2.649
 1004SOL     OW 3910   6.735   0.325   6.705
 1004SOL    HW1 3911   6.825   0.365   6.687
 1004SOL    HW2 3912   6.709   0.343   6.799
 1005SOL     OW 3913   0.560   0.228   2.405
 1005SOL    HW1 3914   0.491   0.299   2.415
 1005SOL    HW2 3915   0.544   0.156   2.473
 1006SOL     OW 3916   2.277   5.100   1.857
 1006SOL    HW1 3917   2.222   5.026   1.895
 1006SOL    HW2 3918   2.361   5.109   1.910
 1007SOL     OW 3919   6.658   1.317   3.646
 1007SOL    HW1 3920   6.712   1.401   3.637
 1007SOL    HW2 3921   6.584   1.317   3.579
 1008SOL     OW 3922   1.014   2.284   3.824
 1008SOL    HW1 3923   1.096   2.292   3.881
 1008SOL    HW2 3924   0.958   2.366   3.834
 1009SOL     OW 3925   6.822   5.786   4.503
 1009SOL    HW1 3926   6.801   5.857   4.437
 1009SOL    HW2 3927   6.913   5.747   4.484
 1010SOL     OW 3928   4.149   2.058   0.535
 1010SOL    HW1 3929   4.172   2.148   0.573
 1010SOL    HW2 3930   4.214   2.036   0.461
 1011SOL     OW 3931   2.660   5.453   4.123
 1011SOL    HW1 3932   2.612   5.506   4.192
 1011SOL    HW2 3933   2.725   5.391   4.167
 1012SOL     OW 3934   6.434   5.073   0.473
 1012SOL    HW1 3935   6.380   5.147   0.514
 1012SOL    HW2 3936   6.459   5.098   0.379
 1013SOL     OW 3937   1.210   1.016   6.872
 1013SOL    HW1 3938   1.154   1.098   6.867
 1013SOL    HW2 3939   1.294   1.030   6.819
 1014SOL     OW 3940   4.522   5.529   6.076
 1014SOL    HW1 3941   4.550   5.536   5.980
 1014SOL    HW2 3942   4.497   5.619   6.110
 1015SOL     OW 3943   4.014   6.618   4.884
 1015SOL    HW1 3944   3.985   6.665   4.968
 1015SOL    HW2 3945   4.113   6.629   4.873
 1016SOL     OW 3946   3.580   2.362   1.248
 1016SOL    HW1 3947   3.502   2.417   1.221
 1016SOL    HW2 3948   3.595   2.372   1.346
 1017SOL     OW 3949   4.920   2.800   0.905
 1017SOL    HW1 3950   4.968   2.760   0.983
 1017SOL    HW2 3951   4.841   2.851   0.937
 1018SOL     OW 3952   1.719   3.091   3.696
 1018SOL    HW1 3953   1.660   3.128   3.624
 1018SOL    HW2 3954   1.673   3.099   3.785
 1019SOL     OW 3955   0.087   1.259   0.108
 1019SOL    HW1 3956   0.018   1.272   0.179
 1019SOL    HW2 3957   0.150   1.336   0.108
 1020SOL     OW 3958   2.228   0.432   0.907
 1020SOL    HW1 3959   2.218   0.450   0.809
 1020SOL    HW2 3960   2.322   0.449   0.934
 1021SOL     OW 3961   6.614   0.911   1.941
 1021SOL    HW1 3962   6.640   0.821   1.908
 1021SOL    HW2 3963   6.540   0.947   1.884
 1022SOL     OW 3964   4.246   3.772   6.240
 1022SOL    HW1 3965   4.265   3.774   6.338
 1022SOL    HW2 3966   4.148   3.759   6.225
 1023SOL     OW 3967   5.836   0.331   2.437
 1023SOL    HW1 3968   5.745   0.366   2.460
 1023SOL    HW2 3969   5.838   0.304   2.341
 1024SOL     OW 3970   6.299   1.989   4.107
 1024SOL    HW1 3971   6.370   2.004   4.038
 1024SOL    HW2 3972   6.301   1.894   4.136
 1025SOL     OW 3973   3.224   4.619   0.643
 1025SOL    HW1 3974   3.232   4.532   0.595
 1025SOL    HW2 3975   3.140   4.665   0.615
 1026SOL     OW 3976   1.858   1.612   0.382
 1026SOL    HW1 3977   1.862   1.550   0.304
 1026SOL    HW2 3978   1.936   1.595   0.443
 1027SOL     OW 3979   2.927   5.139   1.543
 1027SOL    HW1 3980   2.841   5.190   1.540
 1027SOL    HW2 3981   2.922   5.062   1.479
 1028SOL     OW 3982   2.118   6.067   6.918
 1028SOL    HW1 3983   2.162   5.981   6.891
 1028SOL    HW2 3984   2.180   6.119   6.977
 1029SOL     OW 3985   1.570   0.333   0.256
 1029SOL    HW1 3986   1.669   0.330   0.238
 1029SOL    HW2 3987   1.520   0.323   0.171
 1030SOL     OW 3988   3.831   3.143   5.121
 1030SOL    HW1 3989   3.854   3.132   5.024
 1030SOL    HW2 3990   3.872   3.068   5.173
 1031SOL     OW 3991   3.273   4.984   1.324
 1031SOL    HW1 3992   3.296   5.063   1.267
 1031SOL    HW2 3993   3.197   4.934   1.283
 1032SOL     OW 3994   1.945   1.394   5.404
 1032SOL    HW1 3995   1.860   1.358   5.441
 1032SOL    HW2 3996   1.948   1.380   5.305
 1033SOL     OW 3997   1.653   5.562   1.581
 1033SOL    HW1 3998   1.705   5.502   1.521
 1033SOL    HW2 3999   1.692   5.654   1.579
 1034SOL     OW 4000   2.127   5.943   4.000
 1034SOL    HW1 4001   2.096   6.035   4.021
 1034SOL    HW2 4002   2.226   5.937   4.015
 1035SOL     OW 4003   2.774   1.646   4.564
 1035SOL    HW1 4004   2.816   1.671   4.477
 1035SOL    HW2 4005   2.807   1.556   4.593
 1036SOL     OW 4006   4.190   1.800   1.422
 1036SOL    HW1 4007   4.247   1.867   1.469
 1036SOL    HW2 4008   4.094   1.815   1.447
 1037SOL     OW 4009   1.062   0.917   0.904
 1037SOL    HW1 4010   1.068   0.845   0.835
 1037SOL    HW2 4011   1.016   0.997   0.865
 1038SOL     OW 4012   0.871   1.217   5.579
 1038SOL    HW1 4013   0.901   1.121   5.578
 1038SOL    HW2 4014   0.858   1.248   5.485
 1039SOL     OW 4015   3.665   1.449   4.393
 1039SOL    HW1 4016   3.702   1.356   4.381
 1039SOL    HW2 4017   3.741   1.513   4.409
 1040SOL     OW 4018   5.874   3.375   3.055
 1040SOL    HW1 4019   5.828   3.373   2.966
 1040SOL    HW2 4020   5.947   3.443   3.053
 1041SOL     OW 4021   6.649   0.466   4.123
 1041SOL    HW1 4022   6.739   0.481   4.082
 1041SOL    HW2 4023   6.602   0.553   4.132
 1042SOL     OW 4024   4.755   5.153   1.224
 1042SOL    HW1 4025   4.692   5.225   1.196
 1042SOL    HW2 4026   4.707   5.086   1.280
 1043SOL     OW 4027   3.925   1.557   6.503
 1043SOL    HW1 4028   3.841   1.502   6.503
 1043SOL    HW2 4029   3.906   1.647   6.543
 1044SOL     OW 4030   3.918   2.129   1.424
 1044SOL    HW1 4031   3.886   2.170   1.510
 1044SOL    HW2 4032   3.839   2.106   1.367
 1045SOL     OW 4033   3.274   1.137   2.164
 1045SOL    HW1 4034   3.312   1.078   2.234
 1045SOL    HW2 4035   3.176   1.149   2.179
 1046SOL     OW 4036   2.801   0.018   0.239
 1046SOL    HW1 4037   2.788   6.957   0.183
 1046SOL    HW2 4038   2.898   0.033   0.254
 1047SOL     OW 4039   1.441   5.050   3.106
 1047SOL    HW1 4040   1.536   5.042   3.136
 1047SOL    HW2 4041   1.387   5.096   3.176
 1048SOL     OW 4042   5.413   5.218   5.283
 1048SOL    HW1 4043   5.329   5.173   5.251
 1048SOL    HW2 4044   5.413   5.221   5.383
 1049SOL     OW 4045   6.900   4.149   5.194
 1049SOL    HW1 4046   6.812   4.179   5.157
 1049SOL    HW2 4047   6.911   4.183   5.287
 1050SOL     OW 4048   3.765   6.893   6.710
 1050SOL    HW1 4049   3.728   6.984   6.688
 1050SOL    HW2 4050   3.804   6.852   6.628
 1051SOL     OW 4051   3.932   4.950   0.245
 1051SOL    HW1 4052   3.994   4.876   0.219
 1051SOL    HW2 4053   3.872   4.918   0.319
 1052SOL     OW 4054   4.164   0.095   4.634
 1052SOL    HW1 4055   4.089   0.069   4.574
 1052SOL    HW2 4056   4.170   0.030   4.710
 1053SOL     OW 4057   5.019   5.759   3.748
 1053SOL    HW1 4058   4.929   5.779   3.710
 1053SOL    HW2 4059   5.019   5.668   3.788
 1054SOL     OW 4060   2.966   4.920   5.405
 1054SOL    HW1 4061   2.986   4.986   5.332
 1054SOL    HW2 4062   2.989   4.960   5.493
 1055SOL     OW 4063   5.366   5.392   4.947
 1055SOL    HW1 4064   5.308   5.375   4.867
 1055SOL    HW2 4065   5.309   5.393   5.030
 1056SOL     OW 4066   1.819   6.007   5.341
 1056SOL    HW1 4067   1.831   5.914   5.304
 1056SOL    HW2 4068   1.814   6.072   5.266
 1057SOL     OW 4069   3.037   3.310   3.050
 1057SOL    HW1 4070   3.003   3.312   3.144
 1057SOL    HW2 4071   3.021   3.219   3.011
 1058SOL     OW 4072   3.879   1.478   2.386
 1058SOL    HW1 4073   3.881   1.450   2.482
 1058SOL    HW2 4074   3.897   1.576   2.380
 1059SOL     OW 4075   4.252   1.355   1.981
 1059SOL    HW1 4076   4.329   1.416   1.999
 1059SOL    HW2 4077   4.275   1.263   2.011
 1060SOL     OW 4078   0.721   3.995   5.243
 1060SOL    HW1 4079   0.809   3.950   5.233
 1060SOL    HW2 4080   0.648   3.927   5.236
 1061SOL     OW 4081   3.093   4.735   1.450
 1061SOL    HW1 4082   3.095   4.731   1.550
 1061SOL    HW2 4083   3.029   4.806   1.421
 1062SOL     OW 4084   6.836   5.652   5.353
 1062SOL    HW1 4085   6.848   5.627   5.449
 1062SOL    HW2 4086   6.841   5.751   5.343
 1063SOL     OW 4087   1.271   3.451   1.381
 1063SOL    HW1 4088   1.335   3.527   1.371
 1063SOL    HW2 4089   1.188   3.483   1.426
 1064SOL     OW 4090   1.243   3.297   2.092
 1064SOL    HW1 4091   1.334   3.256   2.083
 1064SOL    HW2 4092   1.241   3.385   2.044
 1065SOL     OW 4093   5.440   0.120   4.035
 1065SOL    HW1 4094   5.479   0.212   4.025
 1065SOL    HW2 4095   5.488   0.072   4.109
 1066SOL     OW 4096   4.955   0.284   4.567
 1066SOL    HW1 4097   4.922   0.252   4.478
 1066SOL    HW2 4098   4.919   0.224   4.638
 1067SOL     OW 4099   1.718   2.416   1.559
 1067SOL    HW1 4100   1.679   2.499   1.518
 1067SOL    HW2 4101   1.713   2.341   1.493
 1068SOL     OW 4102   0.494   3.622   2.254
 1068SOL    HW1 4103   0.398   3.616   2.226
 1068SOL    HW2 4104   0.532   3.530   2.263
 1069SOL     OW 4105   3.896   4.403   0.680
 1069SOL    HW1 4106   3.990   4.367   0.679
 1069SOL    HW2 4107   3.856   4.389   0.771
 1070SOL     OW 4108   1.906   0.572   0.240
 1070SOL    HW1 4109   1.919   0.479   0.274
 1070SOL    HW2 4110   1.874   0.568   0.145
 1071SOL     OW 4111   4.483   6.559   2.727
 1071SOL    HW1 4112   4.468   6.653   2.757
 1071SOL    HW2 4113   4.410   6.532   2.663
 1072SOL     OW 4114   3.146   6.398   2.624
 1072SOL    HW1 4115   3.160   6.346   2.709
 1072SOL    HW2 4116   3.180   6.344   2.547
 1073SOL     OW 4117   3.049   4.886   2.329
 1073SOL    HW1 4118   3.125   4.898   2.393
 1073SOL    HW2 4119   3.081   4.902   2.236
 1074SOL     OW 4120   1.550   5.078   1.896
 1074SOL    HW1 4121   1.588   5.171   1.890
 1074SOL    HW2 4122   1.612   5.020   1.949
 1075SOL     OW 4123   5.796   4.688   3.336
 1075SOL    HW1 4124   5.829   4.668   3.429
 1075SOL    HW2 4125   5.774   4.785   3.328
 1076SOL     OW 4126   0.647   4.500   4.701
 1076SOL    HW1 4127   0.739   4.461   4.704
 1076SOL    HW2 4128   0.603   4.475   4.615
 1077SOL     OW 4129   5.752   0.265   0.819
 1077SOL    HW1 4130   5.705   0.349   0.847
 1077SOL    HW2 4131   5.704   0.186   0.857
 1078SOL     OW 4132   1.242   1.544   1.236
 1078SOL    HW1 4133   1.287   1.481   1.173
 1078SOL    HW2 4134   1.281   1.534   1.327
 1079SOL     OW 4135   2.368   5.961   3.626
 1079SOL    HW1 4136   2.342   6.051   3.660
 1079SOL    HW2 4137   2.424   5.914   3.695
 1080SOL     OW 4138   2.319   5.672   3.590
 1080SOL    HW1 4139   2.343   5.768   3.580
 1080SOL    HW2 4140   2.336   5.642   3.684
 1081SOL     OW 4141   1.496   1.013   6.199
 1081SOL    HW1 4142   1.462   0.955   6.126
 1081SOL    HW2 4143   1.517   1.104   6.163
 1082SOL     OW 4144   1.219   0.208   5.578
 1082SOL    HW1 4145   1.147   0.274   5.554
 1082SOL    HW2 4146   1.199   0.121   5.534
 1083SOL     OW 4147   3.361   3.193   2.059
 1083SOL    HW1 4148   3.410   3.218   2.142
 1083SOL    HW2 4149   3.272   3.154   2.083
 1084SOL     OW 4150   6.070   4.968   1.165
 1084SOL    HW1 4151   6.028   4.906   1.099
 1084SOL    HW2 4152   6.164   4.938   1.183
 1085SOL     OW 4153   1.743   5.035   4.017
 1085SOL    HW1 4154   1.757   5.103   4.090
 1085SOL    HW2 4155   1.724   5.082   3.931
 1086SOL     OW 4156   5.548   6.146   3.431
 1086SOL    HW1 4157   5.583   6.072   3.373
 1086SOL    HW2 4158   5.476   6.112   3.491
 1087SOL     OW 4159   4.926   2.810   5.407
 1087SOL    HW1 4160   4.994   2.740   5.429
 1087SOL    HW2 4161   4.954   2.897   5.447
 1088SOL     OW 4162   5.677   5.007   3.383
 1088SOL    HW1 4163   5.639   5.062   3.309
 1088SOL    HW2 4164   5.605   4.948   3.421
 1089SOL     OW 4165   0.241   0.296   4.828
 1089SOL    HW1 4166   0.212   0.233   4.899
 1089SOL    HW2 4167   0.165   0.356   4.803
 1090SOL     OW 4168   1.677   1.523   5.872
 1090SOL    HW1 4169   1.714   1.431   5.891
 1090SOL    HW2 4170   1.745   1.592   5.899
 1091SOL     OW 4171   1.484   1.855   4.379
 1091SOL    HW1 4172   1.436   1.770   4.360
 1091SOL    HW2 4173   1.562   1.837   4.440
 1092SOL     OW 4174   2.126   4.011   1.390
 1092SOL    HW1 4175   2.199   3.946   1.413
 1092SOL    HW2 4176   2.166   4.099   1.363
 1093SOL     OW 4177   1.235   2.608   2.480
 1093SOL    HW1 4178   1.238   2.586   2.577
 1093SOL    HW2 4179   1.328   2.624   2.447
 1094SOL     OW 4180   0.208   6.644   1.713
 1094SOL    HW1 4181   0.257   6.719   1.757
 1094SOL    HW2 4182   0.271   6.568   1.696
 1095SOL     OW 4183   5.938   3.359   6.527
 1095SOL    HW1 4184   5.918   3.447   6.485
 1095SOL    HW2 4185   5.865   3.294   6.505
 1096SOL     OW 4186   3.322   4.599   1.386
 1096SOL    HW1 4187   3.235   4.644   1.368
 1096SOL    HW2 4188   3.305   4.508   1.423
 1097SOL     OW 4189   1.717   4.651   5.068
 1097SOL    HW1 4190   1.747   4.739   5.104
 1097SOL    HW2 4191   1.758   4.635   4.979
 1098SOL     OW 4192   4.968   2.349   1.505
 1098SOL    HW1 4193   4.874   2.317   1.505
 1098SOL    HW2 4194   5.014   2.318   1.421
 1099SOL     OW 4195   4.272   1.810   4.215
 1099SOL    HW1 4196   4.281   1.798   4.314
 1099SOL    HW2 4197   4.363   1.822   4.175
 1100SOL     OW 4198   1.516   1.148   6.521
 1100SOL    HW1 4199   1.547   1.199   6.440
 1100SOL    HW2 4200   1.503   1.052   6.496
 1101SOL     OW 4201   5.329   3.167   1.296
 1101SOL    HW1 4202   5.293   3.081   1.334
 1101SOL    HW2 4203   5.396   3.146   1.224
 1102SOL     OW 4204   0.344   4.137   3.982
 1102SOL    HW1 4205   0.408   4.213   3.984
 1102SOL    HW2 4206   0.386   4.060   3.934
 1103SOL     OW 4207   1.362   1.834   1.738
 1103SOL    HW1 4208   1.355   1.839   1.638
 1103SOL    HW2 4209   1.448   1.874   1.768
 1104SOL     OW 4210   2.727   4.907   6.288
 1104SOL    HW1 4211   2.627   4.896   6.287
 1104SOL    HW2 4212   2.760   4.914   6.194
 1105SOL     OW 4213   4.906   4.201   6.584
 1105SOL    HW1 4214   4.981   4.260   6.555
 1105SOL    HW2 4215   4.941   4.133   6.649
 1106SOL     OW 4216   6.576   2.586   6.045
 1106SOL    HW1 4217   6.570   2.597   6.145
 1106SOL    HW2 4218   6.628   2.662   6.006
 1107SOL     OW 4219   0.815   0.363   0.481
 1107SOL    HW1 4220   0.753   0.287   0.460
 1107SOL    HW2 4221   0.804   0.389   0.577
 1108SOL     OW 4222   2.133   0.802   6.098
 1108SOL    HW1 4223   2.127   0.717   6.150
 1108SOL    HW2 4224   2.213   0.854   6.127
 1109SOL     OW 4225   3.915   5.946   4.263
 1109SOL    HW1 4226   3.944   5.876   4.198
 1109SOL    HW2 4227   3.957   6.033   4.238
 1110SOL     OW 4228   2.762   2.767   1.626
 1110SOL    HW1 4229   2.859   2.778   1.603
 1110SOL    HW2 4230   2.748   2.678   1.668
 1111SOL     OW 4231   5.553   0.812   6.907
 1111SOL    HW1 4232   5.465   0.800   6.860
 1111SOL    HW2 4233   5.537   0.853   6.997
 1112SOL     OW 4234   6.651   0.703   2.586
 1112SOL    HW1 4235   6.732   0.661   2.627
 1112SOL    HW2 4236   6.571   0.680   2.640
 1113SOL     OW 4237   6.633   3.447   2.545
 1113SOL    HW1 4238   6.627   3.348   2.557
 1113SOL    HW2 4239   6.541   3.486   2.540
 1114SOL     OW 4240   4.321   0.488   6.153
 1114SOL    HW1 4241   4.402   0.483   6.094
 1114SOL    HW2 4242   4.330   0.567   6.213
 1115SOL     OW 4243   3.614   3.307   0.690
 1115SOL    HW1 4244   3.517   3.331   0.677
 1115SOL    HW2 4245   3.620   3.227   0.751
 1116SOL     OW 4246   4.896   5.826   4.163
 1116SOL    HW1 4247   4.972   5.820   4.098
 1116SOL    HW2 4248   4.888   5.739   4.213
 1117SOL     OW 4249   2.492   2.506   1.362
 1117SOL    HW1 4250   2.404   2.514   1.316
 1117SOL    HW2 4251   2.549   2.439   1.313
 1118SOL     OW 4252   2.303   5.130   3.105
 1118SOL    HW1 4253   2.349   5.207   3.061
 1118SOL    HW2 4254   2.225   5.102   3.049
 1119SOL     OW 4255   4.347   4.018   1.682
 1119SOL    HW1 4256   4.358   4.046   1.587
 1119SOL    HW2 4257   4.373   4.094   1.742
 1120SOL     OW 4258   5.357   6.971   6.305
 1120SOL    HW1 4259   5.360   6.894   6.368
 1120SOL    HW2 4260   5.445   6.980   6.259
 1121SOL     OW 4261   5.051   2.857   2.008
 1121SOL    HW1 4262   4.987   2.928   1.979
 1121SOL    HW2 4263   5.002   2.789   2.063
 1122SOL     OW 4264   5.593   3.221   0.064
 1122SOL    HW1 4265   5.519   3.262   0.010
 1122SOL    HW2 4266   5.603   3.125   0.039
 1123SOL     OW 4267   4.841   1.316   2.101
 1123SOL    HW1 4268   4.889   1.337   2.016
 1123SOL    HW2 4269   4.907   1.311   2.176
 1124SOL     OW 4270   6.589   3.355   5.252
 1124SOL    HW1 4271   6.670   3.398   5.213
 1124SOL    HW2 4272   6.507   3.394   5.210
 1125SOL     OW 4273   2.831   2.849   5.519
 1125SOL    HW1 4274   2.742   2.887   5.492
 1125SOL    HW2 4275   2.817   2.773   5.582
 1126SOL     OW 4276   4.734   0.284   0.665
 1126SOL    HW1 4277   4.740   0.319   0.758
 1126SOL    HW2 4278   4.823   0.247   0.637
 1127SOL     OW 4279   2.714   4.885   0.519
 1127SOL    HW1 4280   2.735   4.859   0.425
 1127SOL    HW2 4281   2.665   4.811   0.565
 1128SOL     OW 4282   3.622   2.020   3.666
 1128SOL    HW1 4283   3.579   2.044   3.579
 1128SOL    HW2 4284   3.720   2.001   3.652
 1129SOL     OW 4285   4.160   0.787   6.852
 1129SOL    HW1 4286   4.139   0.737   6.936
 1129SOL    HW2 4287   4.250   0.830   6.860
 1130SOL     OW 4288   1.562   3.892   0.833
 1130SOL    HW1 4289   1.651   3.926   0.863
 1130SOL    HW2 4290   1.563   3.792   0.833
 1131SOL     OW 4291   0.420   6.114   5.612
 1131SOL    HW1 4292   0.476   6.184   5.658
 1131SOL    HW2 4293   0.324   6.129   5.634
 1132SOL     OW 4294   4.898   7.014   5.833
 1132SOL    HW1 4295   4.810   0.027   5.866
 1132SOL    HW2 4296   4.971   0.032   5.888
 1133SOL     OW 4297   1.094   2.736   1.124
 1133SOL    HW1 4298   1.193   2.734   1.133
 1133SOL    HW2 4299   1.068   2.689   1.040
 1134SOL     OW 4300   5.963   2.632   0.054
 1134SOL    HW1 4301   6.005   2.596   0.137
 1134SOL    HW2 4302   5.866   2.650   0.071
 1135SOL     OW 4303   3.150   2.186   3.594
 1135SOL    HW1 4304   3.125   2.279   3.622
 1135SOL    HW2 4305   3.094   2.157   3.517
 1136SOL     OW 4306   2.670   5.666   3.483
 1136SOL    HW1 4307   2.610   5.735   3.525
 1136SOL    HW2 4308   2.675   5.587   3.543
 1137SOL     OW 4309   1.409   2.016   6.630
 1137SOL    HW1 4310   1.396   1.929   6.582
 1137SOL    HW2 4311   1.336   2.080   6.605
 1138SOL     OW 4312   2.558   3.360   6.257
 1138SOL    HW1 4313   2.540   3.458   6.245
 1138SOL    HW2 4314   2.640   3.347   6.311
 1139SOL     OW 4315   1.076   6.525   2.632
 1139SOL    HW1 4316   1.014   6.599   2.607
 1139SOL    HW2 4317   1.025   6.440   2.643
 1140SOL     OW 4318   3.219   1.352   3.294
 1140SOL    HW1 4319   3.156   1.427   3.275
 1140SOL    HW2 4320   3.186   1.269   3.249
 1141SOL     OW 4321   5.580   5.658   5.139
 1141SOL    HW1 4322   5.648   5.732   5.146
 1141SOL    HW2 4323   5.514   5.681   5.067
 1142SOL     OW 4324   5.041   0.584   4.524
 1142SOL    HW1 4325   5.030   0.516   4.597
 1142SOL    HW2 4326   4.999   0.549   4.440
 1143SOL     OW 4327   4.122   2.270   2.905
 1143SOL    HW1 4328   4.038   2.323   2.917
 1143SOL    HW2 4329   4.110   2.180   2.946
 1144SOL     OW 4330   0.775   4.232   4.079
 1144SOL    HW1 4331   0.870   4.224   4.050
 1144SOL    HW2 4332   0.728   4.145   4.064
 1145SOL     OW 4333   6.740   5.502   4.384
 1145SOL    HW1 4334   6.761   5.597   4.404
 1145SOL    HW2 4335   6.816   5.444   4.413
 1146SOL     OW 4336   6.037   2.229   1.160
 1146SOL    HW1 4337   5.941   2.203   1.148
 1146SOL    HW2 4338   6.095   2.149   1.146
 1147SOL     OW 4339   0.212   3.824   2.344
 1147SOL    HW1 4340   0.143   3.884   2.304
 1147SOL    HW2 4341   0.242   3.860   2.432
 1148SOL     OW 4342   3.694   6.241   6.290
 1148SOL    HW1 4343   3.668   6.284   6.376
 1148SOL    HW2 4344   3.733   6.310   6.228
 1149SOL     OW 4345   6.621   3.501   2.854
 1149SOL    HW1 4346   6.613   3.411   2.811
 1149SOL    HW2 4347   6.586   3.496   2.948
 1150SOL     OW 4348   2.085   5.028   0.792
 1150SOL    HW1 4349   2.119   5.035   0.886
 1150SOL    HW2 4350   2.162   5.028   0.729
 1151SOL     OW 4351   5.877   5.237   6.466
 1151SOL    HW1 4352   5.817   5.203   6.393
 1151SOL    HW2 4353   5.932   5.161   6.500
 1152SOL     OW 4354   1.455   0.223   5.037
 1152SOL    HW1 4355   1.546   0.252   5.007
 1152SOL    HW2 4356   1.458   0.197   5.133
 1153SOL     OW 4357   2.117   5.841   2.723
 1153SOL    HW1 4358   2.133   5.874   2.816
 1153SOL    HW2 4359   2.117   5.741   2.723
 1154SOL     OW 4360   0.783   3.736   2.171
 1154SOL    HW1 4361   0.837   3.787   2.238
 1154SOL    HW2 4362   0.695   3.712   2.211
 1155SOL     OW 4363   3.064   5.788   0.911
 1155SOL    HW1 4364   3.059   5.748   1.003
 1155SOL    HW2 4365   3.147   5.843   0.903
 1156SOL     OW 4366   2.573   0.569   4.054
 1156SOL    HW1 4367   2.546   0.620   3.972
 1156SOL    HW2 4368   2.496   0.514   4.085
 1157SOL     OW 4369   0.226   2.221   4.519
 1157SOL    HW1 4370   0.263   2.150   4.458
 1157SOL    HW2 4371   0.144   2.187   4.565
 1158SOL     OW 4372   5.462   4.859   6.125
 1158SOL    HW1 4373   5.515   4.794   6.071
 1158SOL    HW2 4374   5.409   4.917   6.064
 1159SOL     OW 4375   3.495   5.690   2.573
 1159SOL    HW1 4376   3.447   5.612   2.614
 1159SOL    HW2 4377   3.497   5.765   2.639
 1160SOL     OW 4378   4.090   3.681   2.667
 1160SOL    HW1 4379   4.022   3.752   2.682
 1160SOL    HW2 4380   4.075   3.606   2.730
 1161SOL     OW 4381   5.571   0.332   3.575
 1161SOL    HW1 4382   5.662   0.364   3.548
 1161SOL    HW2 4383   5.580   0.263   3.648
 1162SOL     OW 4384   3.401   3.376   1.853
 1162SOL    HW1 4385   3.397   3.310   1.928
 1162SOL    HW2 4386   3.316   3.429   1.851
 1163SOL     OW 4387   5.126   2.084   2.005
 1163SOL    HW1 4388   5.053   2.023   1.975
 1163SOL    HW2 4389   5.210   2.062   1.956
 1164SOL     OW 4390   5.429   2.917   2.700
 1164SOL    HW1 4391   5.503   2.896   2.764
 1164SOL    HW2 4392   5.361   2.975   2.746
 1165SOL     OW 4393   0.852   3.335   3.413
 1165SOL    HW1 4394   0.816   3.422   3.381
 1165SOL    HW2 4395   0.797   3.303   3.491
 1166SOL     OW 4396   4.166   2.368   6.225
 1166SOL    HW1 4397   4.203   2.423   6.150
 1166SOL    HW2 4398   4.074   2.338   6.202
 1167SOL     OW 4399   4.499   0.849   5.243
 1167SOL    HW1 4400   4.452   0.898   5.170
 1167SOL    HW2 4401   4.518   0.755   5.214
 1168SOL     OW 4402   6.995   6.617   3.623
 1168SOL    HW1 4403   7.015   6.523   3.652
 1168SOL    HW2 4404   0.031   6.680   3.675
 1169SOL     OW 4405   0.761   3.401   1.540
 1169SOL    HW1 4406   0.712   3.403   1.628
 1169SOL    HW2 4407   0.803   3.311   1.527
 1170SOL     OW 4408   3.543   1.246   2.705
 1170SOL    HW1 4409   3.539   1.148   2.725
 1170SOL    HW2 4410   3.513   1.261   2.611
 1171SOL     OW 4411   3.048   5.702   1.175
 1171SOL    HW1 4412   3.007   5.630   1.231
 1171SOL    HW2 4413   3.060   5.784   1.229
 1172SOL     OW 4414   3.364   3.698   4.141
 1172SOL    HW1 4415   3.286   3.754   4.114
 1172SOL    HW2 4416   3.434   3.756   4.182
 1173SOL     OW 4417   2.846   0.927   5.766
 1173SOL    HW1 4418   2.920   0.869   5.799
 1173SOL    HW2 4419   2.780   0.944   5.840
 1174SOL     OW 4420   2.565   6.015   0.526
 1174SOL    HW1 4421   2.589   6.069   0.606
 1174SOL    HW2 4422   2.542   5.922   0.555
 1175SOL     OW 4423   6.155   4.670   6.405
 1175SOL    HW1 4424   6.240   4.618   6.399
 1175SOL    HW2 4425   6.079   4.607   6.422
 1176SOL     OW 4426   5.754   5.025   0.969
 1176SOL    HW1 4427   5.800   4.938   0.986
 1176SOL    HW2 4428   5.657   5.015   0.988
 1177SOL     OW 4429   6.745   3.120   5.706
 1177SOL    HW1 4430   6.775   3.213   5.730
 1177SOL    HW2 4431   6.820   3.056   5.724
 1178SOL     OW 4432   5.408   3.411   2.433
 1178SOL    HW1 4433   5.450   3.448   2.350
 1178SOL    HW2 4434   5.308   3.409   2.421
 1179SOL     OW 4435   2.083   3.955   0.586
 1179SOL    HW1 4436   2.041   3.872   0.625
 1179SOL    HW2 4437   2.149   3.929   0.516
 1180SOL     OW 4438   2.133   1.411   3.968
 1180SOL    HW1 4439   2.216   1.419   3.912
 1180SOL    HW2 4440   2.156   1.367   4.055
 1181SOL     OW 4441   1.275   4.473   3.680
 1181SOL    HW1 4442   1.234   4.398   3.629
 1181SOL    HW2 4443   1.348   4.514   3.626
 1182SOL     OW 4444   1.898   4.425   3.695
 1182SOL    HW1 4445   1.956   4.507   3.699
 1182SOL    HW2 4446   1.802   4.452   3.705
 1183SOL     OW 4447   4.328   5.977   1.558
 1183SOL    HW1 4448   4.249   6.010   1.506
 1183SOL    HW2 4449   4.348   5.883   1.533
 1184SOL     OW 4450   3.074   2.863   5.407
 1184SOL    HW1 4451   2.980   2.872   5.439
 1184SOL    HW2 4452   3.078   2.877   5.309
 1185SOL     OW 4453   2.184   6.918   0.050
 1185SOL    HW1 4454   2.271   6.943   0.007
 1185SOL    HW2 4455   2.132   7.002   0.070
 1186SOL     OW 4456   6.112   0.970   4.725
 1186SOL    HW1 4457   6.117   1.064   4.757
 1186SOL    HW2 4458   6.183   0.954   4.656
 1187SOL     OW 4459   5.932   6.546   4.774
 1187SOL    HW1 4460   5.884   6.511   4.693
 1187SOL    HW2 4461   5.984   6.627   4.748
 1188SOL     OW 4462   2.208   6.530   5.914
 1188SOL    HW1 4463   2.241   6.624   5.904
 1188SOL    HW2 4464   2.113   6.531   5.944
 1189SOL     OW 4465   5.936   1.106   1.394
 1189SOL    HW1 4466   5.877   1.156   1.458
 1189SOL    HW2 4467   6.031   1.115   1.422
 1190SOL     OW 4468   4.000   5.307   3.027
 1190SOL    HW1 4469   3.997   5.229   3.089
 1190SOL    HW2 4470   4.013   5.275   2.933
 1191SOL     OW 4471   3.256   5.733   5.603
 1191SOL    HW1 4472   3.221   5.822   5.576
 1191SOL    HW2 4473   3.180   5.668   5.611
 1192SOL     OW 4474   6.342   4.776   2.927
 1192SOL    HW1 4475   6.338   4.843   3.002
 1192SOL    HW2 4476   6.287   4.808   2.850
 1193SOL     OW 4477   5.252   0.156   4.510
 1193SOL    HW1 4478   5.341   0.199   4.496
 1193SOL    HW2 4479   5.183   0.227   4.525
 1194SOL     OW 4480   6.399   0.730   1.059
 1194SOL    HW1 4481   6.422   0.633   1.061
 1194SOL    HW2 4482   6.384   0.759   0.964
 1195SOL     OW 4483   5.532   0.767   6.103
 1195SOL    HW1 4484   5.622   0.809   6.107
 1195SOL    HW2 4485   5.530   0.687   6.163
 1196SOL     OW 4486   0.046   5.249   2.554
 1196SOL    HW1 4487   0.105   5.189   2.501
 1196SOL    HW2 4488   0.018   5.203   2.639
 1197SOL     OW 4489   4.238   5.662   5.666
 1197SOL    HW1 4490   4.239   5.761   5.675
 1197SOL    HW2 4491   4.237   5.637   5.570
 1198SOL     OW 4492   3.363   1.973   3.169
 1198SOL    HW1 4493   3.358   1.883   3.127
 1198SOL    HW2 4494   3.278   2.023   3.151
 1199SOL     OW 4495   3.198   3.716   2.095
 1199SOL    HW1 4496   3.140   3.794   2.116
 1199SOL    HW2 4497   3.168   3.675   2.008
 1200SOL     OW 4498   4.072   4.153   6.285
 1200SOL    HW1 4499   4.079   4.169   6.384
 1200SOL    HW2 4500   4.036   4.236   6.241
 1201SOL     OW 4501   1.176   1.724   4.572
 1201SOL    HW1 4502   1.223   1.697   4.488
 1201SOL    HW2 4503   1.244   1.756   4.638
 1202SOL     OW 4504   5.304   0.408   5.003
 1202SOL    HW1 4505   5.384   0.456   4.968
 1202SOL    HW2 4506   5.325   0.368   5.092
 1203SOL     OW 4507   5.205   0.388   0.986
 1203SOL    HW1 4508   5.127   0.407   1.045
 1203SOL    HW2 4509   5.216   0.461   0.919
 1204SOL     OW 4510   3.495   1.332   0.246
 1204SOL    HW1 4511   3.418   1.273   0.269
 1204SOL    HW2 4512   3.466   1.428   0.249
 1205SOL     OW 4513   6.336   2.381   6.119
 1205SOL    HW1 4514   6.264   2.449   6.129
 1205SOL    HW2 4515   6.400   2.411   6.049
 1206SOL     OW 4516   1.416   1.726   4.737
 1206SOL    HW1 4517   1.475   1.689   4.666
 1206SOL    HW2 4518   1.381   1.652   4.794
 1207SOL     OW 4519   5.548   0.295   0.245
 1207SOL    HW1 4520   5.646   0.315   0.255
 1207SOL    HW2 4521   5.497   0.381   0.239
 1208SOL     OW 4522   3.502   3.882   2.564
 1208SOL    HW1 4523   3.450   3.852   2.485
 1208SOL    HW2 4524   3.455   3.854   2.648
 1209SOL     OW 4525   6.117   5.884   5.310
 1209SOL    HW1 4526   6.128   5.979   5.280
 1209SOL    HW2 4527   6.130   5.823   5.232
 1210SOL     OW 4528   4.130   0.163   2.746
 1210SOL    HW1 4529   4.229   0.153   2.756
 1210SOL    HW2 4530   4.104   0.259   2.754
 1211SOL     OW 4531   1.476   3.635   3.893
 1211SOL    HW1 4532   1.533   3.712   3.921
 1211SOL    HW2 4533   1.526   3.550   3.910
 1212SOL     OW 4534   1.327   4.315   4.781
 1212SOL    HW1 4535   1.288   4.297   4.872
 1212SOL    HW2 4536   1.295   4.245   4.717
 1213SOL     OW 4537   6.642   2.872   5.092
 1213SOL    HW1 4538   6.576   2.861   5.017
 1213SOL    HW2 4539   6.734   2.883   5.055
 1214SOL     OW 4540   1.885   3.766   4.200
 1214SOL    HW1 4541   1.892   3.685   4.259
 1214SOL    HW2 4542   1.970   3.778   4.150
 1215SOL     OW 4543   1.985   4.690   3.106
 1215SOL    HW1 4544   1.970   4.727   3.198
 1215SOL    HW2 4545   2.058   4.742   3.061
 1216SOL     OW 4546   1.257   6.553   1.640
 1216SOL    HW1 4547   1.275   6.613   1.562
 1216SOL    HW2 4548   1.310   6.469   1.630
 1217SOL     OW 4549   1.020   6.470   0.503
 1217SOL    HW1 4550   0.981   6.511   0.585
 1217SOL    HW2 4551   1.105   6.516   0.480
 1218SOL     OW 4552   0.749   3.669   4.566
 1218SOL    HW1 4553   0.665   3.717   4.590
 1218SOL    HW2 4554   0.819   3.687   4.635
 1219SOL     OW 4555   4.209   5.838   0.638
 1219SOL    HW1 4556   4.148   5.827   0.717
 1219SOL    HW2 4557   4.157   5.874   0.561
 1220SOL     OW 4558   5.569   2.587   2.946
 1220SOL    HW1 4559   5.539   2.675   2.908
 1220SOL    HW2 4560   5.661   2.596   2.983
 1221SOL     OW 4561   5.573   3.430   0.933
 1221SOL    HW1 4562   5.485   3.449   0.976
 1221SOL    HW2 4563   5.647   3.448   0.998
 1222SOL     OW 4564   0.007   6.865   0.423
 1222SOL    HW1 4565   6.935   6.844   0.453
 1222SOL    HW2 4566   0.060   6.780   0.418
 1223SOL     OW 4567   6.166   7.009   6.578
 1223SOL    HW1 4568   6.256   7.018   6.534
 1223SOL    HW2 4569   6.108   6.949   6.523
 1224SOL     OW 4570   4.496   6.181   0.724
 1224SOL    HW1 4571   4.436   6.170   0.645
 1224SOL    HW2 4572   4.518   6.278   0.736
 1225SOL     OW 4573   4.704   2.168   0.751
 1225SOL    HW1 4574   4.773   2.212   0.692
 1225SOL    HW2 4575   4.729   2.073   0.766
 1226SOL     OW 4576   6.042   6.002   1.312
 1226SOL    HW1 4577   5.965   5.951   1.351
 1226SOL    HW2 4578   6.029   6.100   1.328
 1227SOL     OW 4579   5.670   4.123   5.449
 1227SOL    HW1 4580   5.576   4.145   5.474
 1227SOL    HW2 4581   5.702   4.185   5.378
 1228SOL     OW 4582   3.728   3.240   2.367
 1228SOL    HW1 4583   3.637   3.210   2.393
 1228SOL    HW2 4584   3.784   3.160   2.345
 1229SOL     OW 4585   1.728   5.985   2.237
 1229SOL    HW1 4586   1.757   5.890   2.248
 1229SOL    HW2 4587   1.723   6.008   2.140
 1230SOL     OW 4588   4.793   5.010   2.120
 1230SOL    HW1 4589   4.837   5.062   2.193
 1230SOL    HW2 4590   4.729   5.069   2.071
 1231SOL     OW 4591   1.918   2.467   6.384
 1231SOL    HW1 4592   1.917   2.405   6.305
 1231SOL    HW2 4593   1.971   2.549   6.362
 1232SOL     OW 4594   3.223   0.428   5.332
 1232SOL    HW1 4595   3.163   0.416   5.411
 1232SOL    HW2 4596   3.228   0.524   5.307
 1233SOL     OW 4597   0.329   4.962   3.899
 1233SOL    HW1 4598   0.315   4.875   3.946
 1233SOL    HW2 4599   0.353   5.033   3.965
 1234SOL     OW 4600   6.884   3.309   6.367
 1234SOL    HW1 4601   6.958   3.373   6.349
 1234SOL    HW2 4602   6.840   3.333   6.454
 1235SOL     OW 4603   5.679   4.366   0.138
 1235SOL    HW1 4604   5.736   4.440   0.102
 1235SOL    HW2 4605   5.588   4.370   0.096
 1236SOL     OW 4606   2.243   0.875   0.828
 1236SOL    HW1 4607   2.303   0.818   0.773
 1236SOL    HW2 4608   2.244   0.969   0.792
 1237SOL     OW 4609   1.522   0.284   4.713
 1237SOL    HW1 4610   1.599   0.294   4.776
 1237SOL    HW2 4611   1.438   0.312   4.759
 1238SOL     OW 4612   0.238   6.856   3.912
 1238SOL    HW1 4613   0.270   6.831   3.821
 1238SOL    HW2 4614   0.293   6.809   3.981
 1239SOL     OW 4615   5.946   5.682   4.206
 1239SOL    HW1 4616   5.979   5.660   4.298
 1239SOL    HW2 4617   5.883   5.611   4.175
 1240SOL     OW 4618   5.939   4.998   2.741
 1240SOL    HW1 4619   5.979   5.089   2.728
 1240SOL    HW2 4620   5.842   5.007   2.764
 1241SOL     OW 4621   5.905   5.034   4.150
 1241SOL    HW1 4622   5.939   5.031   4.056
 1241SOL    HW2 4623   5.924   5.125   4.189
 1242SOL     OW 4624   1.554   3.707   6.956
 1242SOL    HW1 4625   1.586   3.761   0.013
 1242SOL    HW2 4626   1.603   3.735   6.874
 1243SOL     OW 4627   1.206   4.124   4.963
 1243SOL    HW1 4628   1.139   4.056   4.935
 1243SOL    HW2 4629   1.294   4.080   4.979
 1244SOL     OW 4630   5.800   0.081   4.900
 1244SOL    HW1 4631   5.865   0.149   4.867
 1244SOL    HW2 4632   5.789   0.009   4.832
 1245SOL     OW 4633   5.245   6.341   1.557
 1245SOL    HW1 4634   5.273   6.289   1.477
 1245SOL    HW2 4635   5.267   6.438   1.543
 1246SOL     OW 4636   4.785   1.899   0.744
 1246SOL    HW1 4637   4.846   1.840   0.796
 1246SOL    HW2 4638   4.754   1.851   0.662
 1247SOL     OW 4639   6.648   6.522   3.535
 1247SOL    HW1 4640   6.594   6.603   3.558
 1247SOL    HW2 4641   6.740   6.550   3.506
 1248SOL     OW 4642   0.202   0.111   5.038
 1248SOL    HW1 4643   0.292   0.079   5.010
 1248SOL    HW2 4644   0.172   0.061   5.120
 1249SOL     OW 4645   0.431   4.527   1.236
 1249SOL    HW1 4646   0.502   4.541   1.305
 1249SOL    HW2 4647   0.403   4.616   1.198
 1250SOL     OW 4648   5.698   3.088   5.261
 1250SOL    HW1 4649   5.644   3.014   5.300
 1250SOL    HW2 4650   5.728   3.063   5.169
 1251SOL     OW 4651   2.660   0.537   2.442
 1251SOL    HW1 4652   2.671   0.448   2.399
 1251SOL    HW2 4653   2.635   0.605   2.373
 1252SOL     OW 4654   2.156   5.317   0.047
 1252SOL    HW1 4655   2.189   5.321   0.141
 1252SOL    HW2 4656   2.227   5.275   7.011
 1253SOL     OW 4657   3.516   0.774   0.774
 1253SOL    HW1 4658   3.516   0.678   0.802
 1253SOL    HW2 4659   3.489   0.781   0.678
 1254SOL     OW 4660   6.459   1.453   2.377
 1254SOL    HW1 4661   6.510   1.538   2.361
 1254SOL    HW2 4662   6.465   1.428   2.473
 1255SOL     OW 4663   5.181   1.772   4.980
 1255SOL    HW1 4664   5.192   1.677   4.948
 1255SOL    HW2 4665   5.247   1.789   5.054
 1256SOL     OW 4666   0.344   5.933   4.016
 1256SOL    HW1 4667   0.332   5.882   3.931
 1256SOL    HW2 4668   0.299   6.022   4.007
 1257SOL     OW 4669   0.453   4.783   3.582
 1257SOL    HW1 4670   0.473   4.865   3.635
 1257SOL    HW2 4671   0.466   4.702   3.639
 1258SOL     OW 4672   3.198   6.528   4.488
 1258SOL    HW1 4673   3.223   6.603   4.426
 1258SOL    HW2 4674   3.259   6.529   4.567
 1259SOL     OW 4675   4.882   0.452   5.282
 1259SOL    HW1 4676   4.931   0.470   5.196
 1259SOL    HW2 4677   4.947   0.454   5.358
 1260SOL     OW 4678   1.721   0.362   2.397
 1260SOL    HW1 4679   1.681   0.443   2.354
 1260SOL    HW2 4680   1.717   0.285   2.334
 1261SOL     OW 4681   6.885   4.585   6.467
 1261SOL    HW1 4682   6.909   4.549   6.377
 1261SOL    HW2 4683   6.799   4.636   6.461
 1262SOL     OW 4684   5.022   5.151   0.855
 1262SOL    HW1 4685   4.939   5.112   0.896
 1262SOL    HW2 4686   5.013   5.251   0.851
 1263SOL     OW 4687   0.301   2.404   1.002
 1263SOL    HW1 4688   0.369   2.334   0.982
 1263SOL    HW2 4689   0.212   2.361   1.018
 1264SOL     OW 4690   0.713   3.530   3.283
 1264SOL    HW1 4691   0.681   3.488   3.198
 1264SOL    HW2 4692   0.744   3.623   3.265
 1265SOL     OW 4693   0.083   4.268   4.816
 1265SOL    HW1 4694   0.007   4.306   4.870
 1265SOL    HW2 4695   0.102   4.329   4.739
 1266SOL     OW 4696   3.256   1.762   5.265
 1266SOL    HW1 4697   3.350   1.781   5.292
 1266SOL    HW2 4698   3.254   1.735   5.169
 1267SOL     OW 4699   0.463   5.038   3.255
 1267SOL    HW1 4700   0.494   5.106   3.189
 1267SOL    HW2 4701   0.538   5.013   3.316
 1268SOL     OW 4702   5.526   2.901   6.313
 1268SOL    HW1 4703   5.532   2.994   6.351
 1268SOL    HW2 4704   5.445   2.894   6.254
 1269SOL     OW 4705   6.840   6.164   5.070
 1269SOL    HW1 4706   6.845   6.244   5.129
 1269SOL    HW2 4707   6.897   6.179   4.989
 1270SOL     OW 4708   2.157   3.904   4.626
 1270SOL    HW1 4709   2.065   3.944   4.630
 1270SOL    HW2 4710   2.179   3.879   4.532
 1271SOL     OW 4711   3.077   1.777   2.658
 1271SOL    HW1 4712   3.104   1.684   2.633
 1271SOL    HW2 4713   3.009   1.774   2.732
 1272SOL     OW 4714   6.562   5.420   1.131
 1272SOL    HW1 4715   6.586   5.405   1.035
 1272SOL    HW2 4716   6.586   5.514   1.157
 1273SOL     OW 4717   2.535   4.710   7.013
 1273SOL    HW1 4718   2.578   4.638   6.959
 1273SOL    HW2 4719   2.553   4.695   0.089
 1274SOL     OW 4720   0.076   2.613   1.659
 1274SOL    HW1 4721   7.005   2.650   1.673
 1274SOL    HW2 4722   0.070   2.518   1.629
 1275SOL     OW 4723   4.428   0.800   4.705
 1275SOL    HW1 4724   4.351   0.762   4.654
 1275SOL    HW2 4725   4.444   0.744   4.787
 1276SOL     OW 4726   0.159   0.595   2.120
 1276SOL    HW1 4727   0.090   0.595   2.192
 1276SOL    HW2 4728   0.247   0.626   2.158
 1277SOL     OW 4729   0.274   0.705   4.562
 1277SOL    HW1 4730   0.317   0.748   4.642
 1277SOL    HW2 4731   0.280   0.766   4.484
 1278SOL     OW 4732   1.956   2.024   5.466
 1278SOL    HW1 4733   1.927   2.100   5.408
 1278SOL    HW2 4734   1.878   1.988   5.517
 1279SOL     OW 4735   2.968   6.471   0.928
 1279SOL    HW1 4736   3.026   6.499   1.005
 1279SOL    HW2 4737   3.018   6.406   0.871
 1280SOL     OW 4738   2.156   0.087   3.140
 1280SOL    HW1 4739   2.138   0.183   3.163
 1280SOL    HW2 4740   2.096   0.059   3.065
 1281SOL     OW 4741   1.787   6.035   3.201
 1281SOL    HW1 4742   1.810   6.064   3.109
 1281SOL    HW2 4743   1.688   6.029   3.211
 1282SOL     OW 4744   0.788   1.339   0.972
 1282SOL    HW1 4745   0.832   1.427   0.957
 1282SOL    HW2 4746   0.736   1.313   0.891
 1283SOL     OW 4747   5.522   4.508   5.731
 1283SOL    HW1 4748   5.557   4.452   5.657
 1283SOL    HW2 4749   5.581   4.499   5.812
 1284SOL     OW 4750   2.707   2.522   1.773
 1284SOL    HW1 4751   2.619   2.488   1.808
 1284SOL    HW2 4752   2.779   2.498   1.838
 1285SOL     OW 4753   4.893   2.999   6.231
 1285SOL    HW1 4754   4.956   2.954   6.293
 1285SOL    HW2 4755   4.859   3.083   6.272
 1286SOL     OW 4756   5.447   4.006   2.150
 1286SOL    HW1 4757   5.497   4.091   2.168
 1286SOL    HW2 4758   5.392   3.982   2.231
 1287SOL     OW 4759   5.781   5.502   6.712
 1287SOL    HW1 4760   5.812   5.598   6.709
 1287SOL    HW2 4761   5.790   5.467   6.805
 1288SOL     OW 4762   0.642   2.538   0.125
 1288SOL    HW1 4763   0.628   2.555   0.223
 1288SOL    HW2 4764   0.581   2.466   0.095
 1289SOL     OW 4765   6.981   6.454   2.241
 1289SOL    HW1 4766   6.964   6.367   2.194
 1289SOL    HW2 4767   0.053   6.454   2.276
 1290SOL     OW 4768   0.395   0.267   6.547
 1290SOL    HW1 4769   0.358   0.360   6.548
 1290SOL    HW2 4770   0.397   0.231   6.640
 1291SOL     OW 4771   1.472   4.803   6.247
 1291SOL    HW1 4772   1.418   4.729   6.286
 1291SOL    HW2 4773   1.511   4.858   6.320
 1292SOL     OW 4774   6.732   4.526   1.188
 1292SOL    HW1 4775   6.657   4.508   1.125
 1292SOL    HW2 4776   6.695   4.561   1.274
 1293SOL     OW 4777   2.231   1.876   6.691
 1293SOL    HW1 4778   2.245   1.966   6.649
 1293SOL    HW2 4779   2.162   1.826   6.638
 1294SOL     OW 4780   0.506   3.322   2.237
 1294SOL    HW1 4781   0.430   3.289   2.293
 1294SOL    HW2 4782   0.472   3.345   2.145
 1295SOL     OW 4783   5.499   2.909   2.441
 1295SOL    HW1 4784   5.421   2.962   2.409
 1295SOL    HW2 4785   5.486   2.884   2.536
 1296SOL     OW 4786   3.550   2.096   6.278
 1296SOL    HW1 4787   3.581   2.147   6.198
 1296SOL    HW2 4788   3.550   2.155   6.358
 1297SOL     OW 4789   6.210   1.765   5.668
 1297SOL    HW1 4790   6.137   1.827   5.699
 1297SOL    HW2 4791   6.229   1.783   5.572
 1298SOL     OW 4792   5.533   3.273   3.149
 1298SOL    HW1 4793   5.457   3.269   3.214
 1298SOL    HW2 4794   5.612   3.315   3.193
 1299SOL     OW 4795   1.815   4.100   3.294
 1299SOL    HW1 4796   1.811   4.077   3.391
 1299SOL    HW2 4797   1.897   4.060   3.253
 1300SOL     OW 4798   3.223   3.379   1.483
 1300SOL    HW1 4799   3.246   3.333   1.569
 1300SOL    HW2 4800   3.124   3.374   1.468
 1301SOL     OW 4801   0.828   6.843   3.631
 1301SOL    HW1 4802   0.913   6.803   3.598
 1301SOL    HW2 4803   0.844   6.938   3.658
 1302SOL     OW 4804   2.017   6.307   5.489
 1302SOL    HW1 4805   2.061   6.360   5.562
 1302SOL    HW2 4806   2.086   6.282   5.421
 1303SOL     OW 4807   3.836   1.554   1.088
 1303SOL    HW1 4808   3.935   1.539   1.076
 1303SOL    HW2 4809   3.804   1.621   1.021
 1304SOL     OW 4810   1.557   0.346   6.209
 1304SOL    HW1 4811   1.497   0.271   6.183
 1304SOL    HW2 4812   1.628   0.357   6.140
 1305SOL     OW 4813   5.015   6.220   4.578
 1305SOL    HW1 4814   5.070   6.145   4.614
 1305SOL    HW2 4815   4.918   6.201   4.591
 1306SOL     OW 4816   1.654   4.067   4.556
 1306SOL    HW1 4817   1.623   3.978   4.523
 1306SOL    HW2 4818   1.663   4.065   4.655
 1307SOL     OW 4819   1.375   3.190   4.918
 1307SOL    HW1 4820   1.390   3.232   4.829
 1307SOL    HW2 4821   1.385   3.091   4.910
 1308SOL     OW 4822   4.482   5.686   4.161
 1308SOL    HW1 4823   4.528   5.748   4.097
 1308SOL    HW2 4824   4.545   5.614   4.190
 1309SOL     OW 4825   5.613   2.785   5.074
 1309SOL    HW1 4826   5.610   2.742   5.164
 1309SOL    HW2 4827   5.557   2.733   5.010
 1310SOL     OW 4828   6.096   4.077   4.269
 1310SOL    HW1 4829   6.059   4.015   4.199
 1310SOL    HW2 4830   6.040   4.073   4.351
 1311SOL     OW 4831   6.222   0.133   4.291
 1311SOL    HW1 4832   6.191   0.075   4.216
 1311SOL    HW2 4833   6.185   0.226   4.279
 1312SOL     OW 4834   0.719   0.696   0.073
 1312SOL    HW1 4835   0.741   0.634   0.148
 1312SOL    HW2 4836   0.683   0.782   0.109
 1313SOL     OW 4837   3.321   5.760   4.907
 1313SOL    HW1 4838   3.318   5.676   4.853
 1313SOL    HW2 4839   3.403   5.813   4.881
 1314SOL     OW 4840   1.151   1.659   5.755
 1314SOL    HW1 4841   1.146   1.609   5.669
 1314SOL    HW2 4842   1.212   1.611   5.818
 1315SOL     OW 4843   1.723   0.970   1.152
 1315SOL    HW1 4844   1.776   0.911   1.092
 1315SOL    HW2 4845   1.660   1.025   1.097
 1316SOL     OW 4846   2.161   0.242   3.593
 1316SOL    HW1 4847   2.115   0.323   3.555
 1316SOL    HW2 4848   2.126   0.225   3.686
 1317SOL     OW 4849   0.616   4.414   4.433
 1317SOL    HW1 4850   0.704   4.367   4.444
 1317SOL    HW2 4851   0.629   4.495   4.376
 1318SOL     OW 4852   0.184   1.171   0.439
 1318SOL    HW1 4853   0.219   1.110   0.368
 1318SOL    HW2 4854   0.178   1.121   0.525
 1319SOL     OW 4855   6.614   1.210   0.918
 1319SOL    HW1 4856   6.643   1.301   0.887
 1319SOL    HW2 4857   6.684   1.143   0.894
 1320SOL     OW 4858   5.887   4.316   6.701
 1320SOL    HW1 4859   5.874   4.217   6.703
 1320SOL    HW2 4860   5.941   4.345   6.780
 1321SOL     OW 4861   4.644   3.409   0.138
 1321SOL    HW1 4862   4.571   3.394   0.071
 1321SOL    HW2 4863   4.711   3.335   0.132
 1322SOL     OW 4864   6.122   0.798   3.495
 1322SOL    HW1 4865   6.027   0.782   3.467
 1322SOL    HW2 4866   6.147   0.735   3.568
 1323SOL     OW 4867   6.117   1.542   5.453
 1323SOL    HW1 4868   6.044   1.595   5.411
 1323SOL    HW2 4869   6.101   1.534   5.551
 1324SOL     OW 4870   1.476   2.590   1.626
 1324SOL    HW1 4871   1.429   2.511   1.664
 1324SOL    HW2 4872   1.514   2.567   1.536
 1325SOL     OW 4873   1.681   6.444   3.205
 1325SOL    HW1 4874   1.598   6.480   3.164
 1325SOL    HW2 4875   1.658   6.387   3.284
 1326SOL     OW 4876   5.067   2.163   4.672
 1326SOL    HW1 4877   5.039   2.224   4.746
 1326SOL    HW2 4878   5.137   2.209   4.616
 1327SOL     OW 4879   2.712   5.295   2.674
 1327SOL    HW1 4880   2.646   5.327   2.606
 1327SOL    HW2 4881   2.697   5.344   2.760
 1328SOL     OW 4882   1.662   2.566   6.291
 1328SOL    HW1 4883   1.734   2.626   6.325
 1328SOL    HW2 4884   1.696   2.513   6.213
 1329SOL     OW 4885   0.401   1.321   0.508
 1329SOL    HW1 4886   0.319   1.271   0.481
 1329SOL    HW2 4887   0.387   1.419   0.494
 1330SOL     OW 4888   6.512   0.495   1.094
 1330SOL    HW1 4889   6.521   0.452   1.184
 1330SOL    HW2 4890   6.538   0.429   1.023
 1331SOL     OW 4891   5.823   0.828   2.511
 1331SOL    HW1 4892   5.785   0.861   2.597
 1331SOL    HW2 4893   5.877   0.900   2.469
 1332SOL     OW 4894   4.013   1.963   1.780
 1332SOL    HW1 4895   3.984   2.039   1.839
 1332SOL    HW2 4896   4.108   1.941   1.800
 1333SOL     OW 4897   3.570   4.279   5.215
 1333SOL    HW1 4898   3.515   4.218   5.272
 1333SOL    HW2 4899   3.548   4.374   5.237
 1334SOL     OW 4900   1.414   3.938   4.966
 1334SOL    HW1 4901   1.458   3.903   5.048
 1334SOL    HW2 4902   1.466   3.909   4.885
 1335SOL     OW 4903   2.098   6.068   2.587
 1335SOL    HW1 4904   2.101   6.131   2.664
 1335SOL    HW2 4905   2.125   5.977   2.617
 1336SOL     OW 4906   1.148   1.748   6.693
 1336SOL    HW1 4907   1.145   1.846   6.673
 1336SOL    HW2 4908   1.217   1.731   6.763
 1337SOL     OW 4909   2.098   2.683   6.371
 1337SOL    HW1 4910   2.149   2.662   6.288
 1337SOL    HW2 4911   2.161   2.708   6.444
 1338SOL     OW 4912   4.136   4.490   6.458
 1338SOL    HW1 4913   4.207   4.461   6.394
 1338SOL    HW2 4914   4.178   4.540   6.534
 1339SOL     OW 4915   6.993   4.803   6.245
 1339SOL    HW1 4916   6.923   4.775   6.178
 1339SOL    HW2 4917   6.955   4.795   6.337
 1340SOL     OW 4918   1.344   2.103   0.639
 1340SOL    HW1 4919   1.425   2.087   0.583
 1340SOL    HW2 4920   1.276   2.032   0.620
 1341SOL     OW 4921   3.801   1.096   4.619
 1341SOL    HW1 4922   3.782   1.003   4.589
 1341SOL    HW2 4923   3.812   1.097   4.719
 1342SOL     OW 4924   1.035   6.226   6.312
 1342SOL    HW1 4925   1.086   6.145   6.282
 1342SOL    HW2 4926   1.100   6.299   6.335
 1343SOL     OW 4927   3.429   6.013   2.475
 1343SOL    HW1 4928   3.430   5.943   2.404
 1343SOL    HW2 4929   3.521   6.022   2.513
 1344SOL     OW 4930   6.497   2.035   2.664
 1344SOL    HW1 4931   6.509   2.107   2.733
 1344SOL    HW2 4932   6.548   2.059   2.582
 1345SOL     OW 4933   0.701   0.955   3.115
 1345SOL    HW1 4934   0.738   1.049   3.112
 1345SOL    HW2 4935   0.620   0.950   3.058
 1346SOL     OW 4936   0.281   6.713   3.688
 1346SOL    HW1 4937   0.378   6.733   3.702
 1346SOL    HW2 4938   0.260   6.622   3.723
 1347SOL     OW 4939   6.530   6.507   3.254
 1347SOL    HW1 4940   6.597   6.502   3.180
 1347SOL    HW2 4941   6.575   6.489   3.341
 1348SOL     OW 4942   5.590   4.870   4.119
 1348SOL    HW1 4943   5.688   4.849   4.126
 1348SOL    HW2 4944   5.537   4.787   4.132
 1349SOL     OW 4945   4.451   2.907   0.433
 1349SOL    HW1 4946   4.380   2.977   0.427
 1349SOL    HW2 4947   4.530   2.935   0.379
 1350SOL     OW 4948   3.117   5.527   6.596
 1350SOL    HW1 4949   3.022   5.499   6.582
 1350SOL    HW2 4950   3.177   5.447   6.586
 1351SOL     OW 4951   0.508   0.397   3.777
 1351SOL    HW1 4952   0.537   0.439   3.863
 1351SOL    HW2 4953   0.420   0.350   3.790
 1352SOL     OW 4954   6.820   0.481   3.438
 1352SOL    HW1 4955   6.858   0.544   3.370
 1352SOL    HW2 4956   6.731   0.514   3.468
 1353SOL     OW 4957   0.175   4.168   5.101
 1353SOL    HW1 4958   0.083   4.190   5.134
 1353SOL    HW2 4959   0.182   4.190   5.004
 1354SOL     OW 4960   0.167   0.579   1.208
 1354SOL    HW1 4961   0.223   0.644   1.260
 1354SOL    HW2 4962   0.070   0.593   1.229
 1355SOL     OW 4963   5.273   3.940   0.093
 1355SOL    HW1 4964   5.273   3.973   0.188
 1355SOL    HW2 4965   5.222   3.854   0.088
 1356SOL     OW 4966   3.360   4.102   2.601
 1356SOL    HW1 4967   3.392   4.196   2.601
 1356SOL    HW2 4968   3.415   4.048   2.537
 1357SOL     OW 4969   2.723   2.981   6.733
 1357SOL    HW1 4970   2.805   2.926   6.750
 1357SOL    HW2 4971   2.741   3.076   6.759
 1358SOL     OW 4972   2.289   2.793   6.541
 1358SOL    HW1 4973   2.354   2.857   6.582
 1358SOL    HW2 4974   2.284   2.710   6.596
 1359SOL     OW 4975   6.023   3.553   1.579
 1359SOL    HW1 4976   6.097   3.502   1.536
 1359SOL    HW2 4977   6.050   3.580   1.672
 1360SOL     OW 4978   3.587   3.820   3.103
 1360SOL    HW1 4979   3.494   3.847   3.079
 1360SOL    HW2 4980   3.642   3.902   3.117
 1361SOL     OW 4981   0.767   6.561   6.206
 1361SOL    HW1 4982   0.752   6.524   6.114
 1361SOL    HW2 4983   0.741   6.493   6.274
 1362SOL     OW 4984   2.991   3.607   5.678
 1362SOL    HW1 4985   2.925   3.586   5.750
 1362SOL    HW2 4986   2.943   3.644   5.599
 1363SOL     OW 4987   6.711   5.832   3.288
 1363SOL    HW1 4988   6.642   5.904   3.285
 1363SOL    HW2 4989   6.746   5.824   3.381
 1364SOL     OW 4990   0.048   3.421   0.828
 1364SOL    HW1 4991   0.129   3.366   0.847
 1364SOL    HW2 4992   0.035   3.427   0.729
 1365SOL     OW 4993   1.220   3.260   5.898
 1365SOL    HW1 4994   1.253   3.195   5.967
 1365SOL    HW2 4995   1.234   3.353   5.930
 1366SOL     OW 4996   6.753   2.638   0.832
 1366SOL    HW1 4997   6.663   2.599   0.810
 1366SOL    HW2 4998   6.818   2.563   0.849
 1367SOL     OW 4999   0.980   4.112   3.523
 1367SOL    HW1 5000   1.051   4.182   3.513
 1367SOL    HW2 5001   0.910   4.128   3.453
 1368SOL     OW 5002   6.663   6.806   4.127
 1368SOL    HW1 5003   6.717   6.835   4.048
 1368SOL    HW2 5004   6.704   6.841   4.210
 1369SOL     OW 5005   1.462   6.111   2.300
 1369SOL    HW1 5006   1.463   6.166   2.384
 1369SOL    HW2 5007   1.555   6.083   2.278
 1370SOL     OW 5008   6.964   2.569   4.254
 1370SOL    HW1 5009   6.879   2.548   4.206
 1370SOL    HW2 5010   6.999   2.657   4.223
 1371SOL     OW 5011   6.032   1.343   4.563
 1371SOL    HW1 5012   6.028   1.249   4.528
 1371SOL    HW2 5013   6.126   1.377   4.558
 1372SOL     OW 5014   6.372   3.120   0.401
 1372SOL    HW1 5015   6.447   3.106   0.466
 1372SOL    HW2 5016   6.304   3.048   0.412
 1373SOL     OW 5017   4.510   2.399   1.141
 1373SOL    HW1 5018   4.488   2.472   1.206
 1373SOL    HW2 5019   4.435   2.333   1.139
 1374SOL     OW 5020   4.910   3.603   0.977
 1374SOL    HW1 5021   4.920   3.686   1.033
 1374SOL    HW2 5022   4.942   3.524   1.029
 1375SOL     OW 5023   6.721   6.057   5.633
 1375SOL    HW1 5024   6.641   6.096   5.678
 1375SOL    HW2 5025   6.780   6.013   5.702
 1376SOL     OW 5026   2.922   4.955   6.462
 1376SOL    HW1 5027   2.861   4.938   6.385
 1376SOL    HW2 5028   2.869   4.996   6.537
 1377SOL     OW 5029   0.914   2.540   3.809
 1377SOL    HW1 5030   0.977   2.542   3.732
 1377SOL    HW2 5031   0.950   2.596   3.884
 1378SOL     OW 5032   4.310   2.410   4.552
 1378SOL    HW1 5033   4.354   2.390   4.465
 1378SOL    HW2 5034   4.242   2.340   4.572
 1379SOL     OW 5035   4.996   5.029   1.962
 1379SOL    HW1 5036   5.035   5.118   1.984
 1379SOL    HW2 5037   4.915   5.013   2.018
 1380SOL     OW 5038   6.198   6.307   1.506
 1380SOL    HW1 5039   6.218   6.393   1.553
 1380SOL    HW2 5040   6.138   6.251   1.564
 1381SOL     OW 5041   5.902   2.355   5.940
 1381SOL    HW1 5042   5.908   2.338   5.842
 1381SOL    HW2 5043   5.959   2.290   5.989
 1382SOL     OW 5044   4.585   2.778   1.447
 1382SOL    HW1 5045   4.561   2.817   1.537
 1382SOL    HW2 5046   4.664   2.718   1.458
 1383SOL     OW 5047   1.582   6.654   1.897
 1383SOL    HW1 5048   1.621   6.656   1.805
 1383SOL    HW2 5049   1.542   6.564   1.915
 1384SOL     OW 5050   4.729   0.614   0.198
 1384SOL    HW1 5051   4.656   0.549   0.179
 1384SOL    HW2 5052   4.710   0.662   0.284
 1385SOL     OW 5053   1.886   4.470   3.362
 1385SOL    HW1 5054   1.953   4.407   3.401
 1385SOL    HW2 5055   1.924   4.511   3.278
 1386SOL     OW 5056   3.218   6.350   3.836
 1386SOL    HW1 5057   3.269   6.280   3.786
 1386SOL    HW2 5058   3.143   6.307   3.887
 1387SOL     OW 5059   3.941   5.626   1.326
 1387SOL    HW1 5060   3.841   5.618   1.330
 1387SOL    HW2 5061   3.970   5.639   1.232
 1388SOL     OW 5062   5.900   0.139   1.552
 1388SOL    HW1 5063   5.839   0.181   1.620
 1388SOL    HW2 5064   5.975   0.201   1.532
 1389SOL     OW 5065   6.257   0.864   3.121
 1389SOL    HW1 5066   6.218   0.777   3.089
 1389SOL    HW2 5067   6.190   0.914   3.174
 1390SOL     OW 5068   1.245   3.358   6.539
 1390SOL    HW1 5069   1.244   3.454   6.510
 1390SOL    HW2 5070   1.246   3.354   6.639
 1391SOL     OW 5071   6.755   1.267   3.900
 1391SOL    HW1 5072   6.817   1.189   3.898
 1391SOL    HW2 5073   6.714   1.280   3.810
 1392SOL     OW 5074   5.600   5.230   6.170
 1392SOL    HW1 5075   5.582   5.214   6.073
 1392SOL    HW2 5076   5.614   5.142   6.217
 1393SOL     OW 5077   6.470   5.616   5.455
 1393SOL    HW1 5078   6.479   5.667   5.370
 1393SOL    HW2 5079   6.376   5.582   5.465
 1394SOL     OW 5080   2.964   5.649   5.230
 1394SOL    HW1 5081   2.936   5.744   5.240
 1394SOL    HW2 5082   2.967   5.606   5.320
 1395SOL     OW 5083   2.815   4.881   6.032
 1395SOL    HW1 5084   2.748   4.952   6.010
 1395SOL    HW2 5085   2.814   4.811   5.961
 1396SOL     OW 5086   1.473   0.522   3.839
 1396SOL    HW1 5087   1.572   0.514   3.849
 1396SOL    HW2 5088   1.428   0.441   3.878
 1397SOL     OW 5089   0.138   0.455   4.502
 1397SOL    HW1 5090   0.174   0.411   4.420
 1397SOL    HW2 5091   0.202   0.526   4.532
 1398SOL     OW 5092   1.755   0.804   5.829
 1398SOL    HW1 5093   1.791   0.855   5.908
 1398SOL    HW2 5094   1.674   0.849   5.794
 1399SOL     OW 5095   3.743   6.597   1.347
 1399SOL    HW1 5096   3.748   6.497   1.348
 1399SOL    HW2 5097   3.665   6.627   1.402
 1400SOL     OW 5098   0.300   2.093   2.686
 1400SOL    HW1 5099   0.312   2.010   2.741
 1400SOL    HW2 5100   0.378   2.104   2.624
 1401SOL     OW 5101   0.071   1.412   5.495
 1401SOL    HW1 5102   0.029   1.498   5.524
 1401SOL    HW2 5103   0.134   1.380   5.566
 1402SOL     OW 5104   0.214   4.054   0.022
 1402SOL    HW1 5105   0.218   4.143   0.067
 1402SOL    HW2 5106   0.162   4.063   6.957
 1403SOL     OW 5107   2.774   1.466   1.670
 1403SOL    HW1 5108   2.723   1.464   1.756
 1403SOL    HW2 5109   2.724   1.414   1.601
 1404SOL     OW 5110   5.494   0.463   0.619
 1404SOL    HW1 5111   5.575   0.412   0.589
 1404SOL    HW2 5112   5.460   0.518   0.543
 1405SOL     OW 5113   2.366   4.176   1.010
 1405SOL    HW1 5114   2.439   4.203   1.073
 1405SOL    HW2 5115   2.383   4.083   0.978
 1406SOL     OW 5116   1.512   5.408   1.758
 1406SOL    HW1 5117   1.482   5.322   1.717
 1406SOL    HW2 5118   1.549   5.468   1.687
 1407SOL     OW 5119   0.288   1.956   1.914
 1407SOL    HW1 5120   0.348   2.008   1.852
 1407SOL    HW2 5121   0.208   2.012   1.937
 1408SOL     OW 5122   5.281   0.864   5.942
 1408SOL    HW1 5123   5.279   0.839   5.845
 1408SOL    HW2 5124   5.351   0.812   5.989
 1409SOL     OW 5125   0.593   6.944   5.675
 1409SOL    HW1 5126   0.531   6.866   5.672
 1409SOL    HW2 5127   0.645   6.942   5.760
 1410SOL     OW 5128   2.259   3.634   6.584
 1410SOL    HW1 5129   2.238   3.722   6.543
 1410SOL    HW2 5130   2.334   3.591   6.533
 1411SOL     OW 5131   2.739   6.307   3.119
 1411SOL    HW1 5132   2.697   6.222   3.150
 1411SOL    HW2 5133   2.681   6.384   3.146
 1412SOL     OW 5134   0.394   2.127   7.007
 1412SOL    HW1 5135   0.456   2.057   0.022
 1412SOL    HW2 5136   0.419   2.147   6.912
 1413SOL     OW 5137   1.705   1.000   5.022
 1413SOL    HW1 5138   1.796   0.960   5.030
 1413SOL    HW2 5139   1.673   0.992   4.928
 1414SOL     OW 5140   2.505   1.031   1.779
 1414SOL    HW1 5141   2.416   1.019   1.734
 1414SOL    HW2 5142   2.495   1.018   1.877
 1415SOL     OW 5143   2.817   0.654   4.140
 1415SOL    HW1 5144   2.841   0.750   4.152
 1415SOL    HW2 5145   2.724   0.647   4.103
 1416SOL     OW 5146   4.741   4.559   4.000
 1416SOL    HW1 5147   4.770   4.527   3.910
 1416SOL    HW2 5148   4.709   4.653   3.993
 1417SOL     OW 5149   2.049   2.011   0.307
 1417SOL    HW1 5150   2.071   1.918   0.337
 1417SOL    HW2 5151   2.119   2.074   0.341
 1418SOL     OW 5152   2.883   3.334   3.570
 1418SOL    HW1 5153   2.882   3.431   3.595
 1418SOL    HW2 5154   2.957   3.288   3.619
 1419SOL     OW 5155   3.259   6.513   4.857
 1419SOL    HW1 5156   3.337   6.535   4.798
 1419SOL    HW2 5157   3.292   6.481   4.946
 1420SOL     OW 5158   1.873   6.385   1.835
 1420SOL    HW1 5159   1.816   6.394   1.917
 1420SOL    HW2 5160   1.841   6.307   1.781
 1421SOL     OW 5161   2.069   3.101   2.920
 1421SOL    HW1 5162   2.157   3.116   2.964
 1421SOL    HW2 5163   2.011   3.181   2.933
 1422SOL     OW 5164   2.434   4.365   1.892
 1422SOL    HW1 5165   2.403   4.320   1.809
 1422SOL    HW2 5166   2.435   4.299   1.967
 1423SOL     OW 5167   5.007   6.330   2.192
 1423SOL    HW1 5168   4.979   6.369   2.280
 1423SOL    HW2 5169   5.090   6.276   2.204
 1424SOL     OW 5170   6.449   4.033   4.906
 1424SOL    HW1 5171   6.352   4.042   4.927
 1424SOL    HW2 5172   6.501   4.100   4.960
 1425SOL     OW 5173   1.758   6.245   4.502
 1425SOL    HW1 5174   1.682   6.308   4.483
 1425SOL    HW2 5175   1.783   6.198   4.418
 1426SOL     OW 5176   1.022   2.655   5.664
 1426SOL    HW1 5177   1.102   2.596   5.656
 1426SOL    HW2 5178   1.050   2.751   5.660
 1427SOL     OW 5179   0.280   6.854   2.919
 1427SOL    HW1 5180   0.238   6.803   2.844
 1427SOL    HW2 5181   0.273   6.800   3.003
 1428SOL     OW 5182   5.727   2.447   0.906
 1428SOL    HW1 5183   5.716   2.445   0.807
 1428SOL    HW2 5184   5.720   2.541   0.939
 1429SOL     OW 5185   6.102   2.276   0.058
 1429SOL    HW1 5186   6.121   2.359   0.005
 1429SOL    HW2 5187   6.135   2.197   0.007
 1430SOL     OW 5188   2.036   4.639   3.823
 1430SOL    HW1 5189   2.105   4.706   3.796
 1430SOL    HW2 5190   1.970   4.682   3.885
 1431SOL     OW 5191   2.180   1.878   0.695
 1431SOL    HW1 5192   2.265   1.827   0.705
 1431SOL    HW2 5193   2.109   1.837   0.752
 1432SOL     OW 5194   2.784   1.537   2.775
 1432SOL    HW1 5195   2.840   1.493   2.706
 1432SOL    HW2 5196   2.691   1.499   2.773
 1433SOL     OW 5197   4.724   1.410   3.930
 1433SOL    HW1 5198   4.740   1.315   3.956
 1433SOL    HW2 5199   4.808   1.462   3.942
 1434SOL     OW 5200   6.750   1.067   5.653
 1434SOL    HW1 5201   6.758   1.081   5.751
 1434SOL    HW2 5202   6.794   0.981   5.628
 1435SOL     OW 5203   5.701   0.760   2.283
 1435SOL    HW1 5204   5.746   0.776   2.371
 1435SOL    HW2 5205   5.696   0.662   2.266
 1436SOL     OW 5206   5.326   3.985   0.430
 1436SOL    HW1 5207   5.422   3.970   0.406
 1436SOL    HW2 5208   5.321   4.038   0.515
 1437SOL     OW 5209   2.470   2.535   3.618
 1437SOL    HW1 5210   2.461   2.539   3.718
 1437SOL    HW2 5211   2.432   2.619   3.578
 1438SOL     OW 5212   3.394   6.349   1.479
 1438SOL    HW1 5213   3.456   6.271   1.482
 1438SOL    HW2 5214   3.307   6.323   1.521
 1439SOL     OW 5215   6.951   5.845   1.433
 1439SOL    HW1 5216   6.971   5.938   1.465
 1439SOL    HW2 5217   6.913   5.791   1.508
 1440SOL     OW 5218   3.156   3.734   1.440
 1440SOL    HW1 5219   3.239   3.739   1.495
 1440SOL    HW2 5220   3.089   3.799   1.475
 1441SOL     OW 5221   6.092   0.451   2.472
 1441SOL    HW1 5222   6.011   0.393   2.480
 1441SOL    HW2 5223   6.130   0.443   2.379
 1442SOL     OW 5224   6.359   5.723   0.149
 1442SOL    HW1 5225   6.331   5.722   0.245
 1442SOL    HW2 5226   6.437   5.662   0.137
 1443SOL     OW 5227   0.568   2.349   2.402
 1443SOL    HW1 5228   0.655   2.307   2.374
 1443SOL    HW2 5229   0.532   2.405   2.328
 1444SOL     OW 5230   5.347   0.153   0.632
 1444SOL    HW1 5231   5.311   0.156   0.725
 1444SOL    HW2 5232   5.366   0.246   0.600
 1445SOL     OW 5233   0.956   3.309   2.665
 1445SOL    HW1 5234   0.918   3.216   2.675
 1445SOL    HW2 5235   0.994   3.320   2.574
 1446SOL     OW 5236   6.892   1.077   6.809
 1446SOL    HW1 5237   6.956   1.147   6.775
 1446SOL    HW2 5238   6.821   1.121   6.864
 1447SOL     OW 5239   6.010   5.222   3.914
 1447SOL    HW1 5240   6.023   5.232   3.816
 1447SOL    HW2 5241   6.049   5.301   3.962
 1448SOL     OW 5242   6.705   2.670   4.698
 1448SOL    HW1 5243   6.800   2.639   4.707
 1448SOL    HW2 5244   6.661   2.620   4.623
 1449SOL     OW 5245   0.718   4.162   5.020
 1449SOL    HW1 5246   0.758   4.093   4.960
 1449SOL    HW2 5247   0.726   4.133   5.115
 1450SOL     OW 5248   1.088   2.707   6.309
 1450SOL    HW1 5249   1.127   2.614   6.306
 1450SOL    HW2 5250   1.017   2.711   6.379
 1451SOL     OW 5251   1.087   6.041   2.608
 1451SOL    HW1 5252   1.068   5.946   2.586
 1451SOL    HW2 5253   1.113   6.090   2.525
 1452SOL     OW 5254   4.329   2.577   5.375
 1452SOL    HW1 5255   4.266   2.548   5.303
 1452SOL    HW2 5256   4.277   2.600   5.457
 1453SOL     OW 5257   0.670   4.479   5.383
 1453SOL    HW1 5258   0.668   4.381   5.406
 1453SOL    HW2 5259   0.736   4.494   5.310
 1454SOL     OW 5260   1.958   2.170   2.934
 1454SOL    HW1 5261   2.006   2.239   2.987
 1454SOL    HW2 5262   1.931   2.208   2.845
 1455SOL     OW 5263   1.217   6.230   2.459
 1455SOL    HW1 5264   1.174   6.286   2.389
 1455SOL    HW2 5265   1.314   6.254   2.466
 1456SOL     OW 5266   6.269   6.338   5.972
 1456SOL    HW1 5267   6.210   6.260   5.953
 1456SOL    HW2 5268   6.350   6.308   6.022
 1457SOL     OW 5269   1.160   4.337   0.102
 1457SOL    HW1 5270   1.153   4.273   0.026
 1457SOL    HW2 5271   1.093   4.312   0.173
 1458SOL     OW 5272   5.364   5.133   5.568
 1458SOL    HW1 5273   5.273   5.120   5.607
 1458SOL    HW2 5274   5.399   5.045   5.534
 1459SOL     OW 5275   4.192   6.831   6.088
 1459SOL    HW1 5276   4.189   6.831   6.188
 1459SOL    HW2 5277   4.276   6.787   6.057
 1460SOL     OW 5278   1.833   7.002   4.918
 1460SOL    HW1 5279   1.820   0.072   4.881
 1460SOL    HW2 5280   1.849   7.007   5.017
 1461SOL     OW 5281   0.289   3.768   3.096
 1461SOL    HW1 5282   0.366   3.726   3.048
 1461SOL    HW2 5283   0.203   3.726   3.065
 1462SOL     OW 5284   1.147   0.613   6.843
 1462SOL    HW1 5285   1.060   0.567   6.827
 1462SOL    HW2 5286   1.209   0.553   6.894
 1463SOL     OW 5287   1.051   4.531   5.694
 1463SOL    HW1 5288   1.006   4.570   5.774
 1463SOL    HW2 5289   1.149   4.551   5.697
 1464SOL     OW 5290   6.913   4.581   3.088
 1464SOL    HW1 5291   6.865   4.575   3.175
 1464SOL    HW2 5292   6.855   4.628   3.021
 1465SOL     OW 5293   1.983   2.162   4.133
 1465SOL    HW1 5294   1.952   2.085   4.077
 1465SOL    HW2 5295   1.928   2.167   4.216
 1466SOL     OW 5296   4.062   2.209   2.230
 1466SOL    HW1 5297   3.988   2.142   2.234
 1466SOL    HW2 5298   4.048   2.270   2.153
 1467SOL     OW 5299   1.991   1.461   4.274
 1467SOL    HW1 5300   2.019   1.552   4.242
 1467SOL    HW2 5301   2.055   1.393   4.239
 1468SOL     OW 5302   1.784   5.215   1.675
 1468SOL    HW1 5303   1.875   5.248   1.650
 1468SOL    HW2 5304   1.754   5.261   1.759
 1469SOL     OW 5305   0.061   6.084   2.863
 1469SOL    HW1 5306   0.149   6.039   2.875
 1469SOL    HW2 5307   0.073   6.167   2.808
 1470SOL     OW 5308   0.006   2.319   1.697
 1470SOL    HW1 5309   6.976   2.307   1.612
 1470SOL    HW2 5310   6.969   2.364   1.765
 1471SOL     OW 5311   1.000   0.430   0.305
 1471SOL    HW1 5312   0.939   0.388   0.373
 1471SOL    HW2 5313   0.963   0.415   0.213
 1472SOL     OW 5314   3.239   5.934   0.299
 1472SOL    HW1 5315   3.178   5.854   0.295
 1472SOL    HW2 5316   3.246   5.966   0.393
 1473SOL     OW 5317   2.800   5.382   4.590
 1473SOL    HW1 5318   2.868   5.397   4.518
 1473SOL    HW2 5319   2.810   5.453   4.661
 1474SOL     OW 5320   3.961   4.302   1.673
 1474SOL    HW1 5321   4.051   4.278   1.637
 1474SOL    HW2 5322   3.917   4.220   1.708
 1475SOL     OW 5323   4.858   1.580   6.751
 1475SOL    HW1 5324   4.929   1.623   6.805
 1475SOL    HW2 5325   4.873   1.481   6.747
 1476SOL     OW 5326   2.614   1.254   1.585
 1476SOL    HW1 5327   2.593   1.182   1.651
 1476SOL    HW2 5328   2.542   1.258   1.516
 1477SOL     OW 5329   3.992   0.217   0.085
 1477SOL    HW1 5330   3.990   0.182   7.012
 1477SOL    HW2 5331   3.994   0.317   0.084
 1478SOL     OW 5332   5.577   6.636   5.317
 1478SOL    HW1 5333   5.623   6.595   5.395
 1478SOL    HW2 5334   5.496   6.686   5.348
 1479SOL     OW 5335   3.698   3.252   1.471
 1479SOL    HW1 5336   3.719   3.332   1.527
 1479SOL    HW2 5337   3.773   3.235   1.407
 1480SOL     OW 5338   2.418   0.050   6.452
 1480SOL    HW1 5339   2.428   0.060   6.353
 1480SOL    HW2 5340   2.489   0.103   6.498
 1481SOL     OW 5341   5.880   3.006   5.595
 1481SOL    HW1 5342   5.942   3.048   5.662
 1481SOL    HW2 5343   5.921   2.923   5.558
 1482SOL     OW 5344   4.401   0.573   0.718
 1482SOL    HW1 5345   4.308   0.552   0.748
 1482SOL    HW2 5346   4.467   0.533   0.782
 1483SOL     OW 5347   5.541   2.562   5.291
 1483SOL    HW1 5348   5.519   2.515   5.376
 1483SOL    HW2 5349   5.641   2.572   5.284
 1484SOL     OW 5350   4.704   5.232   3.462
 1484SOL    HW1 5351   4.670   5.304   3.523
 1484SOL    HW2 5352   4.658   5.146   3.485
 1485SOL     OW 5353   5.126   0.823   4.046
 1485SOL    HW1 5354   5.037   0.859   4.071
 1485SOL    HW2 5355   5.118   0.767   3.963
 1486SOL     OW 5356   5.147   6.988   3.642
 1486SOL    HW1 5357   5.232   6.996   3.695
 1486SOL    HW2 5358   5.117   6.893   3.641
 1487SOL     OW 5359   0.243   0.797   6.698
 1487SOL    HW1 5360   0.286   0.832   6.781
 1487SOL    HW2 5361   0.248   0.866   6.626
 1488SOL     OW 5362   5.698   0.354   3.311
 1488SOL    HW1 5363   5.695   0.254   3.305
 1488SOL    HW2 5364   5.634   0.394   3.246
 1489SOL     OW 5365   3.773   4.516   5.791
 1489SOL    HW1 5366   3.747   4.553   5.880
 1489SOL    HW2 5367   3.740   4.422   5.783
 1490SOL     OW 5368   0.446   3.047   0.990
 1490SOL    HW1 5369   0.517   3.013   1.051
 1490SOL    HW2 5370   0.388   2.971   0.960
 1491SOL     OW 5371   6.736   4.021   2.532
 1491SOL    HW1 5372   6.636   4.029   2.524
 1491SOL    HW2 5373   6.778   4.041   2.443
 1492SOL     OW 5374   6.412   0.345   1.839
 1492SOL    HW1 5375   6.415   0.427   1.782
 1492SOL    HW2 5376   6.505   0.307   1.848
 1493SOL     OW 5377   3.670   1.044   6.758
 1493SOL    HW1 5378   3.648   1.112   6.688
 1493SOL    HW2 5379   3.727   0.972   6.719
 1494SOL     OW 5380   5.572   2.937   6.738
 1494SOL    HW1 5381   5.569   2.855   6.681
 1494SOL    HW2 5382   5.580   2.911   6.834
 1495SOL     OW 5383   6.575   4.108   3.878
 1495SOL    HW1 5384   6.585   4.193   3.929
 1495SOL    HW2 5385   6.664   4.061   3.875
 1496SOL     OW 5386   0.244   0.279   0.182
 1496SOL    HW1 5387   0.295   0.194   0.167
 1496SOL    HW2 5388   0.203   0.308   0.096
 1497SOL     OW 5389   4.831   3.084   2.480
 1497SOL    HW1 5390   4.774   3.026   2.537
 1497SOL    HW2 5391   4.839   3.175   2.521
 1498SOL     OW 5392   2.642   4.737   0.763
 1498SOL    HW1 5393   2.629   4.638   0.764
 1498SOL    HW2 5394   2.707   4.763   0.835
 1499SOL     OW 5395   0.674   3.843   6.262
 1499SOL    HW1 5396   0.720   3.805   6.342
 1499SOL    HW2 5397   0.703   3.794   6.180
 1500SOL     OW 5398   1.179   5.923   6.496
 1500SOL    HW1 5399   1.260   5.966   6.536
 1500SOL    HW2 5400   1.195   5.907   6.398
 1501SOL     OW 5401   6.064   2.172   6.593
 1501SOL    HW1 5402   6.155   2.155   6.554
 1501SOL    HW2 5403   6.022   2.085   6.619
 1502SOL     OW 5404   5.546   1.961   6.184
 1502SOL    HW1 5405   5.489   1.880   6.170
 1502SOL    HW2 5406   5.611   1.943   6.258
 1503SOL     OW 5407   0.959   3.032   2.676
 1503SOL    HW1 5408   0.937   3.008   2.582
 1503SOL    HW2 5409   0.891   2.993   2.738
 1504SOL     OW 5410   0.681   0.301   3.605
 1504SOL    HW1 5411   0.701   0.380   3.548
 1504SOL    HW2 5412   0.621   0.328   3.680
 1505SOL     OW 5413   5.262   6.840   5.803
 1505SOL    HW1 5414   5.332   6.824   5.873
 1505SOL    HW2 5415   5.172   6.846   5.846
 1506SOL     OW 5416   1.397   0.556   0.479
 1506SOL    HW1 5417   1.455   0.568   0.560
 1506SOL    HW2 5418   1.301   0.562   0.506
 1507SOL     OW 5419   0.053   1.902   4.360
 1507SOL    HW1 5420   7.015   1.838   4.311
 1507SOL    HW2 5421   7.018   1.974   4.402
 1508SOL     OW 5422   0.147   1.495   0.882
 1508SOL    HW1 5423   0.073   1.530   0.940
 1508SOL    HW2 5424   0.234   1.506   0.930
 1509SOL     OW 5425   4.785   1.279   4.741
 1509SOL    HW1 5426   4.777   1.210   4.669
 1509SOL    HW2 5427   4.842   1.244   4.815
 1510SOL     OW 5428   4.831   6.960   4.404
 1510SOL    HW1 5429   4.752   6.974   4.344
 1510SOL    HW2 5430   4.902   0.005   4.381
 1511SOL     OW 5431   3.457   3.999   4.349
 1511SOL    HW1 5432   3.525   3.946   4.298
 1511SOL    HW2 5433   3.500   4.039   4.430
 1512SOL     OW 5434   6.070   5.397   1.358
 1512SOL    HW1 5435   5.970   5.389   1.359
 1512SOL    HW2 5436   6.107   5.333   1.290
 1513SOL     OW 5437   3.306   0.237   4.479
 1513SOL    HW1 5438   3.377   0.166   4.480
 1513SOL    HW2 5439   3.236   0.215   4.547
 1514SOL     OW 5440   3.504   2.270   5.788
 1514SOL    HW1 5441   3.496   2.204   5.714
 1514SOL    HW2 5442   3.596   2.310   5.787
 1515SOL     OW 5443   6.586   1.326   2.165
 1515SOL    HW1 5444   6.518   1.345   2.095
 1515SOL    HW2 5445   6.553   1.357   2.254
 1516SOL     OW 5446   6.079   5.430   5.033
 1516SOL    HW1 5447   6.164   5.481   5.048
 1516SOL    HW2 5448   6.053   5.384   5.118
 1517SOL     OW 5449   4.403   6.827   2.872
 1517SOL    HW1 5450   4.321   6.792   2.917
 1517SOL    HW2 5451   4.378   6.869   2.784
 1518SOL     OW 5452   6.265   3.315   0.637
 1518SOL    HW1 5453   6.352   3.266   0.629
 1518SOL    HW2 5454   6.192   3.261   0.595
 1519SOL     OW 5455   6.371   4.276   1.022
 1519SOL    HW1 5456   6.314   4.354   0.999
 1519SOL    HW2 5457   6.325   4.219   1.091
 1520SOL     OW 5458   0.950   4.799   1.853
 1520SOL    HW1 5459   0.873   4.793   1.917
 1520SOL    HW2 5460   0.998   4.885   1.868
 1521SOL     OW 5461   1.951   4.635   0.108
 1521SOL    HW1 5462   1.942   4.541   0.139
 1521SOL    HW2 5463   1.867   4.663   0.061
 1522SOL     OW 5464   5.598   5.247   4.160
 1522SOL    HW1 5465   5.555   5.196   4.085
 1522SOL    HW2 5466   5.568   5.209   4.247
 1523SOL     OW 5467   3.265   6.709   6.542
 1523SOL    HW1 5468   3.357   6.737   6.569
 1523SOL    HW2 5469   3.266   6.615   6.509
 1524SOL     OW 5470   2.758   1.999   2.290
 1524SOL    HW1 5471   2.814   2.079   2.270
 1524SOL    HW2 5472   2.776   1.969   2.383
 1525SOL     OW 5473   6.092   2.899   1.181
 1525SOL    HW1 5474   6.020   2.968   1.183
 1525SOL    HW2 5475   6.110   2.866   1.274
 1526SOL     OW 5476   0.409   0.897   6.226
 1526SOL    HW1 5477   0.350   0.970   6.192
 1526SOL    HW2 5478   0.439   0.918   6.319
 1527SOL     OW 5479   3.997   0.645   4.733
 1527SOL    HW1 5480   3.944   0.681   4.810
 1527SOL    HW2 5481   4.050   0.719   4.691
 1528SOL     OW 5482   3.662   4.873   1.315
 1528SOL    HW1 5483   3.623   4.904   1.228
 1528SOL    HW2 5484   3.589   4.860   1.381
 1529SOL     OW 5485   4.807   1.327   6.656
 1529SOL    HW1 5486   4.808   1.231   6.683
 1529SOL    HW2 5487   4.825   1.334   6.558
 1530SOL     OW 5488   2.976   0.998   1.492
 1530SOL    HW1 5489   2.913   1.068   1.457
 1530SOL    HW2 5490   3.067   1.012   1.453
 1531SOL     OW 5491   4.784   0.681   4.692
 1531SOL    HW1 5492   4.863   0.627   4.719
 1531SOL    HW2 5493   4.750   0.732   4.770
 1532SOL     OW 5494   3.420   4.373   5.522
 1532SOL    HW1 5495   3.451   4.408   5.434
 1532SOL    HW2 5496   3.341   4.314   5.508
 1533SOL     OW 5497   5.494   5.905   0.205
 1533SOL    HW1 5498   5.531   5.813   0.191
 1533SOL    HW2 5499   5.518   5.962   0.126
 1534SOL     OW 5500   3.836   5.309   6.704
 1534SOL    HW1 5501   3.802   5.399   6.732
 1534SOL    HW2 5502   3.835   5.303   6.604
 1535SOL     OW 5503   5.402   6.122   4.868
 1535SOL    HW1 5504   5.400   6.193   4.798
 1535SOL    HW2 5505   5.331   6.139   4.936
 1536SOL     OW 5506   3.998   4.958   6.790
 1536SOL    HW1 5507   4.026   5.006   6.707
 1536SOL    HW2 5508   3.932   4.886   6.766
 1537SOL     OW 5509   4.404   5.433   3.484
 1537SOL    HW1 5510   4.414   5.387   3.396
 1537SOL    HW2 5511   4.477   5.403   3.546
 1538SOL     OW 5512   3.065   0.770   0.108
 1538SOL    HW1 5513   3.013   0.726   0.034
 1538SOL    HW2 5514   3.162   0.764   0.088
 1539SOL     OW 5515   4.917   3.203   2.225
 1539SOL    HW1 5516   4.874   3.178   2.138
 1539SOL    HW2 5517   4.886   3.140   2.296
 1540SOL     OW 5518   0.464   6.441   5.309
 1540SOL    HW1 5519   0.484   6.536   5.284
 1540SOL    HW2 5520   0.436   6.438   5.405
 1541SOL     OW 5521   2.997   3.214   4.175
 1541SOL    HW1 5522   2.920   3.205   4.111
 1541SOL    HW2 5523   3.083   3.214   4.124
 1542SOL     OW 5524   6.345   0.074   1.924
 1542SOL    HW1 5525   6.440   0.098   1.941
 1542SOL    HW2 5526   6.306   0.136   1.855
 1543SOL     OW 5527   3.867   5.314   5.774
 1543SOL    HW1 5528   3.837   5.387   5.836
 1543SOL    HW2 5529   3.908   5.240   5.827
 1544SOL     OW 5530   3.093   3.901   3.589
 1544SOL    HW1 5531   3.187   3.926   3.614
 1544SOL    HW2 5532   3.060   3.963   3.519
 1545SOL     OW 5533   5.824   0.888   2.783
 1545SOL    HW1 5534   5.891   0.947   2.828
 1545SOL    HW2 5535   5.829   0.796   2.822
 1546SOL     OW 5536   5.510   6.020   5.974
 1546SOL    HW1 5537   5.578   6.091   5.993
 1546SOL    HW2 5538   5.539   5.934   6.015
 1547SOL     OW 5539   1.439   3.671   1.407
 1547SOL    HW1 5540   1.427   3.666   1.506
 1547SOL    HW2 5541   1.533   3.701   1.386
 1548SOL     OW 5542   5.226   3.616   0.569
 1548SOL    HW1 5543   5.153   3.591   0.632
 1548SOL    HW2 5544   5.209   3.576   0.480
 1549SOL     OW 5545   4.664   1.187   3.309
 1549SOL    HW1 5546   4.631   1.111   3.252
 1549SOL    HW2 5547   4.585   1.234   3.349
 1550SOL     OW 5548   3.440   3.430   1.282
 1550SOL    HW1 5549   3.366   3.413   1.347
 1550SOL    HW2 5550   3.528   3.423   1.329
 1551SOL     OW 5551   1.073   5.149   6.690
 1551SOL    HW1 5552   1.079   5.074   6.756
 1551SOL    HW2 5553   1.151   5.210   6.702
 1552SOL     OW 5554   1.754   5.666   0.747
 1552SOL    HW1 5555   1.844   5.631   0.720
 1552SOL    HW2 5556   1.710   5.710   0.668
 1553SOL     OW 5557   6.724   1.708   6.100
 1553SOL    HW1 5558   6.632   1.671   6.085
 1553SOL    HW2 5559   6.760   1.672   6.186
 1554SOL     OW 5560   2.963   1.816   3.401
 1554SOL    HW1 5561   2.864   1.819   3.410
 1554SOL    HW2 5562   2.998   1.908   3.381
 1555SOL     OW 5563   5.782   3.443   6.896
 1555SOL    HW1 5564   5.733   3.362   6.861
 1555SOL    HW2 5565   5.873   3.416   6.926
 1556SOL     OW 5566   1.855   1.632   6.175
 1556SOL    HW1 5567   1.838   1.676   6.088
 1556SOL    HW2 5568   1.953   1.610   6.183
 1557SOL     OW 5569   2.048   4.117   6.056
 1557SOL    HW1 5570   2.121   4.143   6.120
 1557SOL    HW2 5571   1.978   4.188   6.055
 1558SOL     OW 5572   6.539   0.703   4.170
 1558SOL    HW1 5573   6.599   0.783   4.168
 1558SOL    HW2 5574   6.530   0.670   4.264
 1559SOL     OW 5575   1.631   3.473   6.317
 1559SOL    HW1 5576   1.601   3.505   6.407
 1559SOL    HW2 5577   1.710   3.526   6.287
 1560SOL     OW 5578   0.254   0.628   6.271
 1560SOL    HW1 5579   0.234   0.637   6.174
 1560SOL    HW2 5580   0.352   0.641   6.286
 1561SOL     OW 5581   4.484   6.540   3.691
 1561SOL    HW1 5582   4.403   6.596   3.674
 1561SOL    HW2 5583   4.512   6.552   3.786
 1562SOL     OW 5584   4.980   5.931   2.542
 1562SOL    HW1 5585   4.974   5.921   2.641
 1562SOL    HW2 5586   4.897   5.974   2.507
 1563SOL     OW 5587   2.799   0.612   5.419
 1563SOL    HW1 5588   2.795   0.552   5.498
 1563SOL    HW2 5589   2.783   0.707   5.448
 1564SOL     OW 5590   1.233   0.455   3.127
 1564SOL    HW1 5591   1.198   0.426   3.216
 1564SOL    HW2 5592   1.267   0.549   3.134
 1565SOL     OW 5593   4.667   4.293   2.755
 1565SOL    HW1 5594   4.626   4.235   2.684
 1565SOL    HW2 5595   4.756   4.257   2.780
 1566SOL     OW 5596   5.684   3.847   3.198
 1566SOL    HW1 5597   5.736   3.921   3.156
 1566SOL    HW2 5598   5.629   3.801   3.129
 1567SOL     OW 5599   5.762   6.125   0.057
 1567SOL    HW1 5600   5.713   6.193   0.113
 1567SOL    HW2 5601   5.697   6.058   0.021
 1568SOL     OW 5602   1.243   6.988   0.361
 1568SOL    HW1 5603   1.254   6.901   0.408
 1568SOL    HW2 5604   1.193   0.031   0.420
 1569SOL     OW 5605   4.349   6.264   3.332
 1569SOL    HW1 5606   4.318   6.173   3.306
 1569SOL    HW2 5607   4.421   6.257   3.401
 1570SOL     OW 5608   2.610   0.558   0.714
 1570SOL    HW1 5609   2.669   0.581   0.792
 1570SOL    HW2 5610   2.612   0.459   0.700
 1571SOL     OW 5611   5.894   3.114   1.126
 1571SOL    HW1 5612   5.870   3.155   1.214
 1571SOL    HW2 5613   5.815   3.064   1.090
 1572SOL     OW 5614   0.694   0.590   2.696
 1572SOL    HW1 5615   0.649   0.538   2.768
 1572SOL    HW2 5616   0.627   0.644   2.646
 1573SOL     OW 5617   5.314   1.049   1.755
 1573SOL    HW1 5618   5.214   1.050   1.750
 1573SOL    HW2 5619   5.350   1.122   1.697
 1574SOL     OW 5620   0.478   1.896   1.515
 1574SOL    HW1 5621   0.496   1.964   1.586
 1574SOL    HW2 5622   0.548   1.824   1.518
 1575SOL     OW 5623   2.532   1.682   0.429
 1575SOL    HW1 5624   2.524   1.778   0.458
 1575SOL    HW2 5625   2.553   1.625   0.509
 1576SOL     OW 5626   6.192   6.413   4.069
 1576SOL    HW1 5627   6.216   6.498   4.023
 1576SOL    HW2 5628   6.147   6.352   4.005
 1577SOL     OW 5629   2.438   1.482   4.753
 1577SOL    HW1 5630   2.457   1.406   4.691
 1577SOL    HW2 5631   2.339   1.497   4.757
 1578SOL     OW 5632   6.134   3.419   5.394
 1578SOL    HW1 5633   6.128   3.319   5.402
 1578SOL    HW2 5634   6.122   3.460   5.484
 1579SOL     OW 5635   0.124   1.650   3.347
 1579SOL    HW1 5636   0.088   1.557   3.352
 1579SOL    HW2 5637   0.222   1.650   3.367
 1580SOL     OW 5638   2.657   4.017   5.399
 1580SOL    HW1 5639   2.736   4.069   5.367
 1580SOL    HW2 5640   2.599   3.994   5.321
 1581SOL     OW 5641   6.893   4.296   4.433
 1581SOL    HW1 5642   6.970   4.296   4.497
 1581SOL    HW2 5643   6.909   4.364   4.361
 1582SOL     OW 5644   1.219   5.551   4.529
 1582SOL    HW1 5645   1.176   5.639   4.549
 1582SOL    HW2 5646   1.174   5.508   4.451
 1583SOL     OW 5647   2.037   2.422   4.070
 1583SOL    HW1 5648   2.039   2.480   4.152
 1583SOL    HW2 5649   2.028   2.326   4.098
 1584SOL     OW 5650   2.223   6.886   4.916
 1584SOL    HW1 5651   2.273   6.808   4.953
 1584SOL    HW2 5652   2.188   6.942   4.991
 1585SOL     OW 5653   5.612   1.609   3.395
 1585SOL    HW1 5654   5.542   1.675   3.425
 1585SOL    HW2 5655   5.676   1.655   3.334
 1586SOL     OW 5656   4.132   3.715   2.168
 1586SOL    HW1 5657   4.139   3.649   2.243
 1586SOL    HW2 5658   4.214   3.709   2.111
 1587SOL     OW 5659   2.945   5.361   5.988
 1587SOL    HW1 5660   2.997   5.277   6.006
 1587SOL    HW2 5661   2.971   5.398   5.899
 1588SOL     OW 5662   4.962   1.476   3.385
 1588SOL    HW1 5663   4.983   1.574   3.385
 1588SOL    HW2 5664   4.940   1.446   3.478
 1589SOL     OW 5665   5.881   4.038   3.567
 1589SOL    HW1 5666   5.794   3.991   3.552
 1589SOL    HW2 5667   5.929   3.994   3.643
 1590SOL     OW 5668   1.585   6.514   6.998
 1590SOL    HW1 5669   1.615   6.419   6.994
 1590SOL    HW2 5670   1.636   6.561   0.049
 1591SOL     OW 5671   0.842   4.792   2.638
 1591SOL    HW1 5672   0.899   4.798   2.556
 1591SOL    HW2 5673   0.892   4.743   2.709
 1592SOL     OW 5674   2.718   3.779   1.408
 1592SOL    HW1 5675   2.664   3.727   1.474
 1592SOL    HW2 5676   2.811   3.743   1.405
 1593SOL     OW 5677   1.336   6.236   4.645
 1593SOL    HW1 5678   1.383   6.160   4.599
 1593SOL    HW2 5679   1.356   6.321   4.596
 1594SOL     OW 5680   0.481   5.383   3.643
 1594SOL    HW1 5681   0.421   5.379   3.722
 1594SOL    HW2 5682   0.448   5.320   3.572
 1595SOL     OW 5683   0.033   4.876   6.569
 1595SOL    HW1 5684   0.042   4.857   6.667
 1595SOL    HW2 5685   0.097   4.819   6.518
 1596SOL     OW 5686   1.660   4.213   5.199
 1596SOL    HW1 5687   1.704   4.143   5.143
 1596SOL    HW2 5688   1.621   4.284   5.140
 1597SOL     OW 5689   2.568   5.796   0.948
 1597SOL    HW1 5690   2.664   5.821   0.934
 1597SOL    HW2 5691   2.510   5.876   0.932
 1598SOL     OW 5692   0.516   3.909   0.305
 1598SOL    HW1 5693   0.554   4.001   0.291
 1598SOL    HW2 5694   0.418   3.915   0.318
 1599SOL     OW 5695   4.492   3.285   5.970
 1599SOL    HW1 5696   4.534   3.216   5.910
 1599SOL    HW2 5697   4.394   3.292   5.949
 1600SOL     OW 5698   5.378   1.558   4.724
 1600SOL    HW1 5699   5.402   1.619   4.800
 1600SOL    HW2 5700   5.278   1.553   4.716
 1601SOL     OW 5701   1.654   4.907   4.421
 1601SOL    HW1 5702   1.616   4.919   4.329
 1601SOL    HW2 5703   1.590   4.943   4.488
 1602SOL     OW 5704   1.446   5.639   3.501
 1602SOL    HW1 5705   1.523   5.674   3.449
 1602SOL    HW2 5706   1.479   5.589   3.581
 1603SOL     OW 5707   1.295   6.743   1.840
 1603SOL    HW1 5708   1.272   6.666   1.781
 1603SOL    HW2 5709   1.348   6.710   1.919
 1604SOL     OW 5710   6.068   5.414   6.788
 1604SOL    HW1 5711   6.120   5.457   6.714
 1604SOL    HW2 5712   6.004   5.481   6.827
 1605SOL     OW 5713   6.630   0.325   2.205
 1605SOL    HW1 5714   6.722   0.300   2.175
 1605SOL    HW2 5715   6.584   0.244   2.243
 1606SOL     OW 5716   4.408   0.807   5.491
 1606SOL    HW1 5717   4.485   0.803   5.553
 1606SOL    HW2 5718   4.441   0.823   5.398
 1607SOL     OW 5719   5.019   2.712   1.148
 1607SOL    HW1 5720   4.928   2.723   1.189
 1607SOL    HW2 5721   5.088   2.755   1.207
 1608SOL     OW 5722   1.182   0.466   6.482
 1608SOL    HW1 5723   1.175   0.550   6.536
 1608SOL    HW2 5724   1.254   0.407   6.521
 1609SOL     OW 5725   5.947   2.137   6.149
 1609SOL    HW1 5726   6.047   2.138   6.150
 1609SOL    HW2 5727   5.912   2.175   6.234
 1610SOL     OW 5728   5.578   4.065   5.108
 1610SOL    HW1 5729   5.545   4.070   5.014
 1610SOL    HW2 5730   5.670   4.026   5.109
 1611SOL     OW 5731   3.899   2.986   2.521
 1611SOL    HW1 5732   3.904   2.961   2.618
 1611SOL    HW2 5733   3.956   3.067   2.505
 1612SOL     OW 5734   2.451   1.482   5.242
 1612SOL    HW1 5735   2.495   1.533   5.315
 1612SOL    HW2 5736   2.356   1.462   5.268
 1613SOL     OW 5737   2.402   6.010   0.876
 1613SOL    HW1 5738   2.357   6.099   0.885
 1613SOL    HW2 5739   2.363   5.961   0.799
 1614SOL     OW 5740   6.748   3.543   0.586
 1614SOL    HW1 5741   6.761   3.445   0.600
 1614SOL    HW2 5742   6.693   3.558   0.504
 1615SOL     OW 5743   6.992   4.995   1.185
 1615SOL    HW1 5744   6.919   5.019   1.249
 1615SOL    HW2 5745   0.056   4.984   1.235
 1616SOL     OW 5746   4.363   2.222   6.421
 1616SOL    HW1 5747   4.290   2.277   6.380
 1616SOL    HW2 5748   4.336   2.194   6.513
 1617SOL     OW 5749   5.928   0.257   2.194
 1617SOL    HW1 5750   6.003   0.191   2.205
 1617SOL    HW2 5751   5.966   0.347   2.171
 1618SOL     OW 5752   0.194   3.888   1.574
 1618SOL    HW1 5753   0.263   3.956   1.599
 1618SOL    HW2 5754   0.196   3.873   1.475
 1619SOL     OW 5755   1.432   3.335   4.078
 1619SOL    HW1 5756   1.457   3.239   4.089
 1619SOL    HW2 5757   1.513   3.389   4.055
 1620SOL     OW 5758   2.071   5.747   0.697
 1620SOL    HW1 5759   2.152   5.760   0.754
 1620SOL    HW2 5760   2.094   5.688   0.620
 1621SOL     OW 5761   0.366   0.548   6.613
 1621SOL    HW1 5762   0.318   0.625   6.656
 1621SOL    HW2 5763   0.405   0.577   6.526
 1622SOL     OW 5764   1.627   2.194   4.945
 1622SOL    HW1 5765   1.638   2.127   4.871
 1622SOL    HW2 5766   1.564   2.157   5.014
 1623SOL     OW 5767   2.756   2.651   6.324
 1623SOL    HW1 5768   2.856   2.656   6.331
 1623SOL    HW2 5769   2.715   2.723   6.381
 1624SOL     OW 5770   2.321   0.751   6.722
 1624SOL    HW1 5771   2.317   0.805   6.806
 1624SOL    HW2 5772   2.230   0.746   6.682
 1625SOL     OW 5773   1.397   5.438   2.250
 1625SOL    HW1 5774   1.409   5.359   2.190
 1625SOL    HW2 5775   1.358   5.514   2.198
 1626SOL     OW 5776   2.346   2.145   7.011
 1626SOL    HW1 5777   2.338   2.223   6.950
 1626SOL    HW2 5778   2.377   2.065   6.960
 1627SOL     OW 5779   6.264   1.734   4.322
 1627SOL    HW1 5780   6.289   1.745   4.418
 1627SOL    HW2 5781   6.345   1.704   4.270
 1628SOL     OW 5782   3.591   5.025   0.189
 1628SOL    HW1 5783   3.578   5.039   0.091
 1628SOL    HW2 5784   3.669   4.965   0.204
 1629SOL     OW 5785   2.954   2.186   4.460
 1629SOL    HW1 5786   2.968   2.102   4.408
 1629SOL    HW2 5787   3.016   2.188   4.538
 1630SOL     OW 5788   0.653   5.740   5.266
 1630SOL    HW1 5789   0.628   5.696   5.352
 1630SOL    HW2 5790   0.584   5.808   5.242
 1631SOL     OW 5791   6.967   0.748   6.077
 1631SOL    HW1 5792   6.951   0.833   6.126
 1631SOL    HW2 5793   0.038   0.747   6.039
 1632SOL     OW 5794   0.058   1.253   6.717
 1632SOL    HW1 5795   0.150   1.273   6.749
 1632SOL    HW2 5796   0.034   1.315   6.643
 1633SOL     OW 5797   5.874   2.919   2.678
 1633SOL    HW1 5798   5.857   2.836   2.731
 1633SOL    HW2 5799   5.826   2.913   2.591
 1634SOL     OW 5800   4.184   5.546   6.081
 1634SOL    HW1 5801   4.213   5.451   6.067
 1634SOL    HW2 5802   4.256   5.597   6.127
 1635SOL     OW 5803   6.443   5.896   4.778
 1635SOL    HW1 5804   6.501   5.840   4.719
 1635SOL    HW2 5805   6.497   5.929   4.856
 1636SOL     OW 5806   2.369   4.954   1.643
 1636SOL    HW1 5807   2.400   5.049   1.641
 1636SOL    HW2 5808   2.317   4.937   1.727
 1637SOL     OW 5809   6.804   2.402   2.624
 1637SOL    HW1 5810   6.735   2.424   2.555
 1637SOL    HW2 5811   6.823   2.304   2.623
 1638SOL     OW 5812   0.045   3.421   4.055
 1638SOL    HW1 5813   0.036   3.349   3.986
 1638SOL    HW2 5814   0.072   3.506   4.010
 1639SOL     OW 5815   5.618   6.117   3.069
 1639SOL    HW1 5816   5.620   6.045   3.139
 1639SOL    HW2 5817   5.708   6.160   3.063
 1640SOL     OW 5818   5.887   2.498   0.412
 1640SOL    HW1 5819   5.811   2.440   0.384
 1640SOL    HW2 5820   5.966   2.481   0.353
 1641SOL     OW 5821   5.431   3.230   3.415
 1641SOL    HW1 5822   5.366   3.228   3.492
 1641SOL    HW2 5823   5.476   3.141   3.408
 1642SOL     OW 5824   6.775   3.562   0.021
 1642SOL    HW1 5825   6.859   3.617   0.023
 1642SOL    HW2 5826   6.698   3.618   0.052
 1643SOL     OW 5827   3.675   6.586   4.933
 1643SOL    HW1 5828   3.606   6.649   4.897
 1643SOL    HW2 5829   3.707   6.526   4.860
 1644SOL     OW 5830   2.751   2.414   1.520
 1644SOL    HW1 5831   2.675   2.409   1.455
 1644SOL    HW2 5832   2.718   2.447   1.608
 1645SOL     OW 5833   2.834   5.974   5.661
 1645SOL    HW1 5834   2.789   6.015   5.581
 1645SOL    HW2 5835   2.769   5.972   5.737
 1646SOL     OW 5836   2.656   4.891   1.364
 1646SOL    HW1 5837   2.655   4.843   1.452
 1646SOL    HW2 5838   2.655   4.823   1.290
 1647SOL     OW 5839   5.978   2.629   3.251
 1647SOL    HW1 5840   6.005   2.677   3.334
 1647SOL    HW2 5841   6.058   2.618   3.191
 1648SOL     OW 5842   5.289   6.411   2.009
 1648SOL    HW1 5843   5.348   6.334   2.033
 1648SOL    HW2 5844   5.344   6.489   1.980
 1649SOL     OW 5845   3.346   0.208   2.938
 1649SOL    HW1 5846   3.280   0.259   2.993
 1649SOL    HW2 5847   3.394   0.271   2.876
 1650SOL     OW 5848   2.955   0.045   4.187
 1650SOL    HW1 5849   2.872   0.008   4.145
 1650SOL    HW2 5850   2.960   0.143   4.168
 1651SOL     OW 5851   0.307   0.243   0.444
 1651SOL    HW1 5852   0.266   0.276   0.358
 1651SOL    HW2 5853   0.260   0.160   0.474
 1652SOL     OW 5854   2.405   2.028   0.824
 1652SOL    HW1 5855   2.318   1.989   0.794
 1652SOL    HW2 5856   2.442   1.973   0.899
 1653SOL     OW 5857   0.307   5.136   1.469
 1653SOL    HW1 5858   0.265   5.060   1.419
 1653SOL    HW2 5859   0.250   5.217   1.459
 1654SOL     OW 5860   6.739   2.809   2.298
 1654SOL    HW1 5861   6.651   2.857   2.301
 1654SOL    HW2 5862   6.784   2.826   2.210
 1655SOL     OW 5863   5.449   4.470   6.209
 1655SOL    HW1 5864   5.467   4.540   6.278
 1655SOL    HW2 5865   5.404   4.392   6.252
 1656SOL     OW 5866   1.796   3.898   3.542
 1656SOL    HW1 5867   1.806   3.896   3.642
 1656SOL    HW2 5868   1.700   3.884   3.518
 1657SOL     OW 5869   1.208   0.728   5.530
 1657SOL    HW1 5870   1.146   0.711   5.453
 1657SOL    HW2 5871   1.207   0.649   5.591
 1658SOL     OW 5872   6.470   6.349   2.783
 1658SOL    HW1 5873   6.477   6.352   2.683
 1658SOL    HW2 5874   6.560   6.333   2.823
 1659SOL     OW 5875   3.562   2.279   6.493
 1659SOL    HW1 5876   3.556   2.261   6.591
 1659SOL    HW2 5877   3.532   2.372   6.474
 1660SOL     OW 5878   0.872   5.252   3.751
 1660SOL    HW1 5879   0.846   5.346   3.730
 1660SOL    HW2 5880   0.890   5.202   3.667
 1661SOL     OW 5881   3.111   1.997   2.502
 1661SOL    HW1 5882   3.080   1.917   2.555
 1661SOL    HW2 5883   3.040   2.067   2.503
 1662SOL     OW 5884   6.510   1.745   2.997
 1662SOL    HW1 5885   6.575   1.822   2.998
 1662SOL    HW2 5886   6.430   1.770   2.943
 1663SOL     OW 5887   3.381   0.361   3.368
 1663SOL    HW1 5888   3.386   0.445   3.314
 1663SOL    HW2 5889   3.441   0.292   3.328
 1664SOL     OW 5890   1.715   0.056   4.209
 1664SOL    HW1 5891   1.633   0.014   4.171
 1664SOL    HW2 5892   1.697   0.087   4.302
 1665SOL     OW 5893   0.135   1.549   2.730
 1665SOL    HW1 5894   0.045   1.578   2.763
 1665SOL    HW2 5895   0.153   1.456   2.764
 1666SOL     OW 5896   6.164   3.255   6.640
 1666SOL    HW1 5897   6.083   3.283   6.588
 1666SOL    HW2 5898   6.151   3.161   6.672
 1667SOL     OW 5899   5.776   6.905   0.220
 1667SOL    HW1 5900   5.692   6.864   0.257
 1667SOL    HW2 5901   5.821   6.839   0.160
 1668SOL     OW 5902   4.858   0.178   4.802
 1668SOL    HW1 5903   4.849   0.082   4.828
 1668SOL    HW2 5904   4.932   0.220   4.853
 1669SOL     OW 5905   5.364   6.124   6.972
 1669SOL    HW1 5906   5.417   6.164   6.897
 1669SOL    HW2 5907   5.293   6.188   7.000
 1670SOL     OW 5908   6.235   5.476   6.145
 1670SOL    HW1 5909   6.202   5.438   6.231
 1670SOL    HW2 5910   6.286   5.406   6.095
 1671SOL     OW 5911   4.497   2.740   1.175
 1671SOL    HW1 5912   4.512   2.766   1.270
 1671SOL    HW2 5913   4.402   2.712   1.161
 1672SOL     OW 5914   2.084   4.187   2.576
 1672SOL    HW1 5915   2.170   4.158   2.617
 1672SOL    HW2 5916   2.096   4.277   2.534
 1673SOL     OW 5917   6.591   2.877   4.795
 1673SOL    HW1 5918   6.493   2.881   4.813
 1673SOL    HW2 5919   6.612   2.796   4.740
 1674SOL     OW 5920   1.419   4.074   0.979
 1674SOL    HW1 5921   1.469   4.012   0.919
 1674SOL    HW2 5922   1.437   4.050   1.074
 1675SOL     OW 5923   4.620   0.683   6.687
 1675SOL    HW1 5924   4.546   0.639   6.637
 1675SOL    HW2 5925   4.634   0.637   6.775
 1676SOL     OW 5926   2.207   1.150   2.374
 1676SOL    HW1 5927   2.294   1.102   2.363
 1676SOL    HW2 5928   2.133   1.093   2.338
 1677SOL     OW 5929   5.372   1.945   5.513
 1677SOL    HW1 5930   5.288   1.982   5.554
 1677SOL    HW2 5931   5.385   1.987   5.423
 1678SOL     OW 5932   5.305   5.482   3.721
 1678SOL    HW1 5933   5.351   5.428   3.792
 1678SOL    HW2 5934   5.235   5.426   3.676
 1679SOL     OW 5935   1.707   3.750   5.439
 1679SOL    HW1 5936   1.759   3.817   5.492
 1679SOL    HW2 5937   1.610   3.759   5.460
 1680SOL     OW 5938   0.989   1.648   4.049
 1680SOL    HW1 5939   0.954   1.592   3.974
 1680SOL    HW2 5940   0.918   1.656   4.119
 1681SOL     OW 5941   6.080   5.267   1.122
 1681SOL    HW1 5942   6.038   5.178   1.140
 1681SOL    HW2 5943   6.011   5.330   1.086
 1682SOL     OW 5944   0.419   3.427   4.629
 1682SOL    HW1 5945   0.436   3.330   4.647
 1682SOL    HW2 5946   0.425   3.445   4.531
 1683SOL     OW 5947   4.108   5.019   0.956
 1683SOL    HW1 5948   4.129   4.951   1.026
 1683SOL    HW2 5949   4.190   5.037   0.901
 1684SOL     OW 5950   0.618   6.392   4.886
 1684SOL    HW1 5951   0.663   6.305   4.906
 1684SOL    HW2 5952   0.627   6.453   4.965
 1685SOL     OW 5953   1.894   1.039   6.496
 1685SOL    HW1 5954   1.861   0.947   6.475
 1685SOL    HW2 5955   1.867   1.064   6.588
 1686SOL     OW 5956   1.628   5.594   5.783
 1686SOL    HW1 5957   1.703   5.563   5.842
 1686SOL    HW2 5958   1.545   5.542   5.804
 1687SOL     OW 5959   2.025   3.604   1.983
 1687SOL    HW1 5960   1.955   3.563   1.925
 1687SOL    HW2 5961   2.084   3.533   2.020
 1688SOL     OW 5962   1.452   1.635   3.022
 1688SOL    HW1 5963   1.489   1.710   3.078
 1688SOL    HW2 5964   1.412   1.673   2.939
 1689SOL     OW 5965   3.180   1.987   2.078
 1689SOL    HW1 5966   3.205   2.030   1.991
 1689SOL    HW2 5967   3.138   2.056   2.138
 1690SOL     OW 5968   1.542   1.855   3.144
 1690SOL    HW1 5969   1.638   1.883   3.140
 1690SOL    HW2 5970   1.503   1.881   3.233
 1691SOL     OW 5971   5.450   4.124   3.268
 1691SOL    HW1 5972   5.433   4.100   3.363
 1691SOL    HW2 5973   5.400   4.062   3.208
 1692SOL     OW 5974   6.618   0.009   1.205
 1692SOL    HW1 5975   6.654   0.075   1.139
 1692SOL    HW2 5976   6.673   0.012   1.289
 1693SOL     OW 5977   1.888   2.183   3.778
 1693SOL    HW1 5978   1.816   2.215   3.840
 1693SOL    HW2 5979   1.928   2.262   3.731
 1694SOL     OW 5980   4.338   6.364   4.920
 1694SOL    HW1 5981   4.246   6.369   4.879
 1694SOL    HW2 5982   4.404   6.337   4.850
 1695SOL     OW 5983   2.206   2.006   5.297
 1695SOL    HW1 5984   2.118   1.973   5.333
 1695SOL    HW2 5985   2.205   2.105   5.291
 1696SOL     OW 5986   4.952   5.404   0.278
 1696SOL    HW1 5987   4.872   5.458   0.252
 1696SOL    HW2 5988   4.975   5.422   0.374
 1697SOL     OW 5989   0.577   6.814   0.951
 1697SOL    HW1 5990   0.661   6.810   1.004
 1697SOL    HW2 5991   0.574   6.738   0.886
 1698SOL     OW 5992   4.752   1.747   1.362
 1698SOL    HW1 5993   4.714   1.744   1.454
 1698SOL    HW2 5994   4.735   1.659   1.316
 1699SOL     OW 5995   2.654   2.303   1.286
 1699SOL    HW1 5996   2.586   2.250   1.234
 1699SOL    HW2 5997   2.724   2.337   1.224
 1700SOL     OW 5998   6.609   2.431   3.567
 1700SOL    HW1 5999   6.601   2.334   3.589
 1700SOL    HW2 6000   6.679   2.443   3.497
 1701SOL     OW 6001   5.679   2.565   4.766
 1701SOL    HW1 6002   5.600   2.597   4.819
 1701SOL    HW2 6003   5.733   2.501   4.822
 1702SOL     OW 6004   6.563   3.963   1.135
 1702SOL    HW1 6005   6.586   4.047   1.087
 1702SOL    HW2 6006   6.543   3.984   1.231
 1703SOL     OW 6007   3.051   3.923   1.873
 1703SOL    HW1 6008   3.150   3.926   1.883
 1703SOL    HW2 6009   3.022   3.992   1.807
 1704SOL     OW 6010   0.613   1.166   0.440
 1704SOL    HW1 6011   0.664   1.186   0.356
 1704SOL    HW2 6012   0.558   1.246   0.465
 1705SOL     OW 6013   3.364   2.159   1.421
 1705SOL    HW1 6014   3.345   2.246   1.466
 1705SOL    HW2 6015   3.383   2.089   1.491
 1706SOL     OW 6016   4.363   0.422   1.494
 1706SOL    HW1 6017   4.437   0.449   1.555
 1706SOL    HW2 6018   4.280   0.404   1.547
 1707SOL     OW 6019   4.435   1.560   2.058
 1707SOL    HW1 6020   4.526   1.582   2.092
 1707SOL    HW2 6021   4.366   1.592   2.123
 1708SOL     OW 6022   6.654   6.069   2.729
 1708SOL    HW1 6023   6.708   6.127   2.667
 1708SOL    HW2 6024   6.636   6.118   2.814
 1709SOL     OW 6025   2.311   6.861   2.475
 1709SOL    HW1 6026   2.237   6.927   2.464
 1709SOL    HW2 6027   2.324   6.811   2.390
 1710SOL     OW 6028   0.129   3.853   3.454
 1710SOL    HW1 6029   0.128   3.920   3.528
 1710SOL    HW2 6030   0.178   3.890   3.376
 1711SOL     OW 6031   1.522   4.406   5.050
 1711SOL    HW1 6032   1.430   4.445   5.045
 1711SOL    HW2 6033   1.590   4.479   5.059
 1712SOL     OW 6034   0.914   4.168   6.530
 1712SOL    HW1 6035   0.846   4.097   6.546
 1712SOL    HW2 6036   0.870   4.257   6.533
 1713SOL     OW 6037   2.016   2.497   1.491
 1713SOL    HW1 6038   1.917   2.483   1.497
 1713SOL    HW2 6039   2.062   2.442   1.561
 1714SOL     OW 6040   3.906   1.833   6.551
 1714SOL    HW1 6041   3.810   1.832   6.579
 1714SOL    HW2 6042   3.913   1.868   6.457
 1715SOL     OW 6043   6.732   3.080   3.466
 1715SOL    HW1 6044   6.768   2.988   3.453
 1715SOL    HW2 6045   6.799   3.136   3.514
 1716SOL     OW 6046   5.727   6.849   1.258
 1716SOL    HW1 6047   5.780   6.926   1.292
 1716SOL    HW2 6048   5.778   6.764   1.271
 1717SOL     OW 6049   2.482   5.930   6.787
 1717SOL    HW1 6050   2.513   5.889   6.701
 1717SOL    HW2 6051   2.544   5.903   6.861
 1718SOL     OW 6052   2.043   2.907   0.277
 1718SOL    HW1 6053   2.116   2.898   0.345
 1718SOL    HW2 6054   1.997   2.818   0.267
 1719SOL     OW 6055   2.251   3.341   1.459
 1719SOL    HW1 6056   2.270   3.299   1.548
 1719SOL    HW2 6057   2.188   3.418   1.471
 1720SOL     OW 6058   6.554   1.933   1.029
 1720SOL    HW1 6059   6.497   1.898   0.954
 1720SOL    HW2 6060   6.537   1.879   1.111
 1721SOL     OW 6061   1.523   6.292   2.890
 1721SOL    HW1 6062   1.482   6.370   2.843
 1721SOL    HW2 6063   1.468   6.268   2.970
 1722SOL     OW 6064   5.611   0.094   2.802
 1722SOL    HW1 6065   5.571   0.046   2.880
 1722SOL    HW2 6066   5.549   0.167   2.773
 1723SOL     OW 6067   6.482   2.429   3.215
 1723SOL    HW1 6068   6.539   2.511   3.212
 1723SOL    HW2 6069   6.414   2.439   3.287
 1724SOL     OW 6070   6.002   0.974   0.217
 1724SOL    HW1 6071   5.975   1.031   0.295
 1724SOL    HW2 6072   5.919   0.941   0.171
 1725SOL     OW 6073   3.528   4.294   7.020
 1725SOL    HW1 6074   3.595   4.279   0.072
 1725SOL    HW2 6075   3.567   4.263   6.933
 1726SOL     OW 6076   6.654   4.348   4.795
 1726SOL    HW1 6077   6.579   4.396   4.840
 1726SOL    HW2 6078   6.637   4.345   4.696
 1727SOL     OW 6079   3.639   3.387   4.574
 1727SOL    HW1 6080   3.685   3.451   4.636
 1727SOL    HW2 6081   3.565   3.341   4.623
 1728SOL     OW 6082   5.128   4.448   4.148
 1728SOL    HW1 6083   5.126   4.525   4.084
 1728SOL    HW2 6084   5.153   4.365   4.098
 1729SOL     OW 6085   1.848   4.230   3.016
 1729SOL    HW1 6086   1.857   4.169   2.938
 1729SOL    HW2 6087   1.792   4.187   3.087
 1730SOL     OW 6088   6.396   1.289   5.112
 1730SOL    HW1 6089   6.434   1.212   5.164
 1730SOL    HW2 6090   6.466   1.324   5.049
 1731SOL     OW 6091   1.646   4.739   1.771
 1731SOL    HW1 6092   1.612   4.810   1.710
 1731SOL    HW2 6093   1.609   4.650   1.743
 1732SOL     OW 6094   2.209   4.411   0.001
 1732SOL    HW1 6095   2.217   4.496   6.969
 1732SOL    HW2 6096   2.193   4.335   6.959
 1733SOL     OW 6097   1.584   3.644   2.190
 1733SOL    HW1 6098   1.682   3.644   2.172
 1733SOL    HW2 6099   1.562   3.572   2.256
 1734SOL     OW 6100   4.599   3.048   1.365
 1734SOL    HW1 6101   4.601   2.956   1.404
 1734SOL    HW2 6102   4.631   3.114   1.433
 1735SOL     OW 6103   5.772   5.929   1.462
 1735SOL    HW1 6104   5.803   5.892   1.550
 1735SOL    HW2 6105   5.709   5.865   1.419
 1736SOL     OW 6106   4.733   2.498   0.027
 1736SOL    HW1 6107   4.741   2.485   6.950
 1736SOL    HW2 6108   4.645   2.463   0.059
 1737SOL     OW 6109   2.443   0.305   3.727
 1737SOL    HW1 6110   2.530   0.355   3.724
 1737SOL    HW2 6111   2.397   0.325   3.814
 1738SOL     OW 6112   1.972   2.829   3.347
 1738SOL    HW1 6113   1.942   2.924   3.340
 1738SOL    HW2 6114   1.968   2.799   3.443
 1739SOL     OW 6115   4.465   2.162   4.891
 1739SOL    HW1 6116   4.538   2.099   4.918
 1739SOL    HW2 6117   4.377   2.117   4.903
 1740SOL     OW 6118   6.680   1.325   6.407
 1740SOL    HW1 6119   6.727   1.240   6.431
 1740SOL    HW2 6120   6.641   1.316   6.315
 1741SOL     OW 6121   1.609   1.008   2.644
 1741SOL    HW1 6122   1.586   0.913   2.664
 1741SOL    HW2 6123   1.534   1.067   2.674
 1742SOL     OW 6124   4.633   6.529   6.307
 1742SOL    HW1 6125   4.717   6.557   6.261
 1742SOL    HW2 6126   4.592   6.452   6.259
 1743SOL     OW 6127   1.362   0.850   1.946
 1743SOL    HW1 6128   1.426   0.794   1.893
 1743SOL    HW2 6129   1.403   0.939   1.964
 1744SOL     OW 6130   2.040   0.359   2.002
 1744SOL    HW1 6131   2.060   0.455   1.982
 1744SOL    HW2 6132   1.943   0.342   1.987
 1745SOL     OW 6133   6.512   1.657   4.200
 1745SOL    HW1 6134   6.586   1.721   4.179
 1745SOL    HW2 6135   6.471   1.624   4.115
 1746SOL     OW 6136   2.806   5.780   5.971
 1746SOL    HW1 6137   2.834   5.875   5.959
 1746SOL    HW2 6138   2.788   5.762   6.068
 1747SOL     OW 6139   4.892   6.830   1.750
 1747SOL    HW1 6140   4.958   6.853   1.821
 1747SOL    HW2 6141   4.861   6.914   1.704
 1748SOL     OW 6142   6.445   1.698   3.639
 1748SOL    HW1 6143   6.404   1.609   3.656
 1748SOL    HW2 6144   6.456   1.712   3.540
 1749SOL     OW 6145   4.047   6.398   5.921
 1749SOL    HW1 6146   4.101   6.355   5.849
 1749SOL    HW2 6147   3.950   6.385   5.901
 1750SOL     OW 6148   5.228   1.266   2.911
 1750SOL    HW1 6149   5.246   1.211   2.830
 1750SOL    HW2 6150   5.290   1.238   2.984
 1751SOL     OW 6151   3.054   4.943   4.256
 1751SOL    HW1 6152   3.098   4.915   4.341
 1751SOL    HW2 6153   2.955   4.935   4.266
 1752SOL     OW 6154   6.488   2.505   0.868
 1752SOL    HW1 6155   6.459   2.425   0.817
 1752SOL    HW2 6156   6.549   2.477   0.942
 1753SOL     OW 6157   0.450   0.606   0.276
 1753SOL    HW1 6158   0.422   0.511   0.261
 1753SOL    HW2 6159   0.549   0.609   0.293
 1754SOL     OW 6160   3.599   3.724   0.870
 1754SOL    HW1 6161   3.670   3.654   0.883
 1754SOL    HW2 6162   3.580   3.769   0.958
 1755SOL     OW 6163   5.001   4.613   1.659
 1755SOL    HW1 6164   4.978   4.670   1.738
 1755SOL    HW2 6165   4.990   4.666   1.575
 1756SOL     OW 6166   5.812   4.764   4.984
 1756SOL    HW1 6167   5.780   4.800   5.072
 1756SOL    HW2 6168   5.802   4.835   4.914
 1757SOL     OW 6169   1.850   6.730   4.901
 1757SOL    HW1 6170   1.844   6.822   4.941
 1757SOL    HW2 6171   1.918   6.731   4.828
 1758SOL     OW 6172   2.843   1.161   3.483
 1758SOL    HW1 6173   2.912   1.091   3.502
 1758SOL    HW2 6174   2.799   1.189   3.568
 1759SOL     OW 6175   0.471   5.169   6.614
 1759SOL    HW1 6176   0.539   5.232   6.652
 1759SOL    HW2 6177   0.517   5.102   6.557
 1760SOL     OW 6178   6.467   1.967   1.353
 1760SOL    HW1 6179   6.399   1.914   1.303
 1760SOL    HW2 6180   6.442   2.064   1.350
 1761SOL     OW 6181   6.508   0.004   0.626
 1761SOL    HW1 6182   6.503   0.084   0.566
 1761SOL    HW2 6183   6.445   0.015   0.702
 1762SOL     OW 6184   6.261   1.860   5.389
 1762SOL    HW1 6185   6.253   1.798   5.311
 1762SOL    HW2 6186   6.210   1.944   5.371
 1763SOL     OW 6187   2.176   3.972   4.316
 1763SOL    HW1 6188   2.093   4.009   4.274
 1763SOL    HW2 6189   2.187   3.876   4.290
 1764SOL     OW 6190   1.976   4.012   2.404
 1764SOL    HW1 6191   1.902   4.066   2.364
 1764SOL    HW2 6192   2.015   4.062   2.482
 1765SOL     OW 6193   3.295   1.433   6.758
 1765SOL    HW1 6194   3.386   1.470   6.739
 1765SOL    HW2 6195   3.301   1.366   6.832
 1766SOL     OW 6196   5.181   2.543   4.287
 1766SOL    HW1 6197   5.167   2.509   4.194
 1766SOL    HW2 6198   5.096   2.537   4.338
 1767SOL     OW 6199   5.202   4.025   2.829
 1767SOL    HW1 6200   5.177   4.122   2.826
 1767SOL    HW2 6201   5.211   3.996   2.925
 1768SOL     OW 6202   4.540   0.141   4.914
 1768SOL    HW1 6203   4.630   0.106   4.938
 1768SOL    HW2 6204   4.549   0.214   4.846
 1769SOL     OW 6205   4.335   2.146   4.383
 1769SOL    HW1 6206   4.404   2.214   4.361
 1769SOL    HW2 6207   4.349   2.113   4.477
 1770SOL     OW 6208   1.686   5.476   4.742
 1770SOL    HW1 6209   1.764   5.427   4.779
 1770SOL    HW2 6210   1.669   5.559   4.797
 1771SOL     OW 6211   3.035   5.959   6.599
 1771SOL    HW1 6212   3.008   5.907   6.518
 1771SOL    HW2 6213   2.974   5.936   6.675
 1772SOL     OW 6214   3.427   0.051   4.072
 1772SOL    HW1 6215   3.432   0.135   4.020
 1772SOL    HW2 6216   3.341   0.004   4.051
 1773SOL     OW 6217   2.749   5.128   5.484
 1773SOL    HW1 6218   2.745   5.055   5.415
 1773SOL    HW2 6219   2.742   5.087   5.575
 1774SOL     OW 6220   4.396   5.911   1.837
 1774SOL    HW1 6221   4.489   5.946   1.852
 1774SOL    HW2 6222   4.352   5.964   1.764
 1775SOL     OW 6223   1.534   3.967   3.440
 1775SOL    HW1 6224   1.509   3.908   3.364
 1775SOL    HW2 6225   1.551   4.060   3.406
 1776SOL     OW 6226   3.595   6.566   4.431
 1776SOL    HW1 6227   3.537   6.540   4.354
 1776SOL    HW2 6228   3.671   6.622   4.398
 1777SOL     OW 6229   3.750   5.389   6.441
 1777SOL    HW1 6230   3.784   5.484   6.441
 1777SOL    HW2 6231   3.751   5.353   6.348
 1778SOL     OW 6232   4.413   3.660   5.830
 1778SOL    HW1 6233   4.456   3.730   5.773
 1778SOL    HW2 6234   4.366   3.594   5.772
 1779SOL     OW 6235   4.477   0.640   4.928
 1779SOL    HW1 6236   4.416   0.585   4.872
 1779SOL    HW2 6237   4.503   0.590   5.010
 1780SOL     OW 6238   3.908   2.893   6.830
 1780SOL    HW1 6239   3.905   2.871   6.732
 1780SOL    HW2 6240   3.998   2.871   6.866
 1781SOL     OW 6241   4.081   6.048   2.766
 1781SOL    HW1 6242   4.049   6.075   2.675
 1781SOL    HW2 6243   4.148   5.975   2.756
 1782SOL     OW 6244   2.928   1.346   2.617
 1782SOL    HW1 6245   2.951   1.296   2.533
 1782SOL    HW2 6246   2.993   1.421   2.629
 1783SOL     OW 6247   1.882   5.856   6.063
 1783SOL    HW1 6248   1.852   5.939   6.016
 1783SOL    HW2 6249   1.982   5.855   6.069
 1784SOL     OW 6250   4.190   1.482   6.214
 1784SOL    HW1 6251   4.109   1.434   6.181
 1784SOL    HW2 6252   4.271   1.444   6.169
 1785SOL     OW 6253   6.180   3.907   2.916
 1785SOL    HW1 6254   6.247   3.905   2.991
 1785SOL    HW2 6255   6.182   3.819   2.868
 1786SOL     OW 6256   2.021   2.822   7.006
 1786SOL    HW1 6257   1.979   2.805   0.073
 1786SOL    HW2 6258   2.023   2.737   6.953
 1787SOL     OW 6259   2.685   1.290   5.236
 1787SOL    HW1 6260   2.604   1.346   5.257
 1787SOL    HW2 6261   2.658   1.215   5.176
 1788SOL     OW 6262   2.773   3.603   6.924
 1788SOL    HW1 6263   2.860   3.559   6.946
 1788SOL    HW2 6264   2.773   3.630   6.828
 1789SOL     OW 6265   5.839   1.777   2.556
 1789SOL    HW1 6266   5.792   1.690   2.543
 1789SOL    HW2 6267   5.911   1.787   2.487
 1790SOL     OW 6268   4.195   6.204   3.641
 1790SOL    HW1 6269   4.240   6.161   3.719
 1790SOL    HW2 6270   4.264   6.245   3.581
 1791SOL     OW 6271   6.079   0.339   3.649
 1791SOL    HW1 6272   6.119   0.424   3.683
 1791SOL    HW2 6273   6.125   0.312   3.564
 1792SOL     OW 6274   6.488   3.126   5.342
 1792SOL    HW1 6275   6.447   3.060   5.279
 1792SOL    HW2 6276   6.527   3.202   5.289
 1793SOL     OW 6277   6.089   6.929   3.597
 1793SOL    HW1 6278   6.028   7.001   3.563
 1793SOL    HW2 6279   6.077   6.846   3.542
 1794SOL     OW 6280   5.324   6.470   5.532
 1794SOL    HW1 6281   5.408   6.416   5.541
 1794SOL    HW2 6282   5.246   6.408   5.518
 1795SOL     OW 6283   1.180   1.965   1.331
 1795SOL    HW1 6284   1.164   2.018   1.248
 1795SOL    HW2 6285   1.190   2.027   1.409
 1796SOL     OW 6286   2.631   0.926   5.272
 1796SOL    HW1 6287   2.564   0.868   5.320
 1796SOL    HW2 6288   2.584   1.003   5.229
 1797SOL     OW 6289   1.461   6.970   0.761
 1797SOL    HW1 6290   1.374   6.987   0.807
 1797SOL    HW2 6291   1.534   7.017   0.810
 1798SOL     OW 6292   4.680   2.088   3.946
 1798SOL    HW1 6293   4.701   2.122   4.038
 1798SOL    HW2 6294   4.600   2.136   3.910
 1799SOL     OW 6295   6.896   2.701   5.269
 1799SOL    HW1 6296   6.865   2.606   5.263
 1799SOL    HW2 6297   6.988   2.709   5.232
 1800SOL     OW 6298   4.252   4.667   1.704
 1800SOL    HW1 6299   4.155   4.643   1.709
 1800SOL    HW2 6300   4.279   4.719   1.785
 1801SOL     OW 6301   0.083   0.231   1.590
 1801SOL    HW1 6302   0.182   0.220   1.600
 1801SOL    HW2 6303   0.054   0.187   1.505
 1802SOL     OW 6304   5.124   5.408   4.247
 1802SOL    HW1 6305   5.171   5.487   4.207
 1802SOL    HW2 6306   5.185   5.362   4.311
 1803SOL     OW 6307   0.450   5.677   6.571
 1803SOL    HW1 6308   0.430   5.618   6.649
 1803SOL    HW2 6309   0.408   5.767   6.585
 1804SOL     OW 6310   2.418   3.759   5.311
 1804SOL    HW1 6311   2.458   3.753   5.402
 1804SOL    HW2 6312   2.440   3.847   5.270
 1805SOL     OW 6313   5.626   4.184   5.749
 1805SOL    HW1 6314   5.668   4.093   5.754
 1805SOL    HW2 6315   5.677   4.248   5.807
 1806SOL     OW 6316   0.444   0.086   0.185
 1806SOL    HW1 6317   0.477   0.000   0.145
 1806SOL    HW2 6318   0.416   0.071   0.279
 1807SOL     OW 6319   5.072   2.804   4.821
 1807SOL    HW1 6320   5.090   2.792   4.723
 1807SOL    HW2 6321   5.137   2.868   4.859
 1808SOL     OW 6322   0.371   4.356   5.744
 1808SOL    HW1 6323   0.418   4.443   5.762
 1808SOL    HW2 6324   0.277   4.362   5.778
 1809SOL     OW 6325   1.917   2.383   5.097
 1809SOL    HW1 6326   1.965   2.469   5.110
 1809SOL    HW2 6327   1.833   2.399   5.044
 1810SOL     OW 6328   2.829   6.855   3.806
 1810SOL    HW1 6329   2.835   6.955   3.814
 1810SOL    HW2 6330   2.771   6.831   3.729
 1811SOL     OW 6331   5.837   5.759   3.520
 1811SOL    HW1 6332   5.821   5.678   3.576
 1811SOL    HW2 6333   5.849   5.839   3.580
 1812SOL     OW 6334   4.285   5.746   4.777
 1812SOL    HW1 6335   4.258   5.836   4.810
 1812SOL    HW2 6336   4.203   5.693   4.754
 1813SOL     OW 6337   6.027   4.106   0.751
 1813SOL    HW1 6338   6.057   4.136   0.842
 1813SOL    HW2 6339   6.107   4.097   0.691
 1814SOL     OW 6340   5.343   0.319   2.349
 1814SOL    HW1 6341   5.370   0.278   2.262
 1814SOL    HW2 6342   5.247   0.297   2.368
 1815SOL     OW 6343   0.723   2.005   2.676
 1815SOL    HW1 6344   0.674   1.962   2.599
 1815SOL    HW2 6345   0.660   2.059   2.730
 1816SOL     OW 6346   2.923   3.615   1.341
 1816SOL    HW1 6347   3.007   3.662   1.370
 1816SOL    HW2 6348   2.945   3.520   1.320
 1817SOL     OW 6349   2.449   6.799   2.714
 1817SOL    HW1 6350   2.414   6.826   2.625
 1817SOL    HW2 6351   2.549   6.812   2.716
 1818SOL     OW 6352   1.122   6.868   2.991
 1818SOL    HW1 6353   1.155   6.929   2.919
 1818SOL    HW2 6354   1.022   6.876   2.998
 1819SOL     OW 6355   1.357   3.847   1.888
 1819SOL    HW1 6356   1.322   3.920   1.828
 1819SOL    HW2 6357   1.436   3.881   1.939
 1820SOL     OW 6358   3.694   1.105   3.013
 1820SOL    HW1 6359   3.784   1.138   2.984
 1820SOL    HW2 6360   3.644   1.072   2.933
 1821SOL     OW 6361   0.688   1.361   2.027
 1821SOL    HW1 6362   0.661   1.423   2.100
 1821SOL    HW2 6363   0.708   1.271   2.066
 1822SOL     OW 6364   3.030   2.255   1.186
 1822SOL    HW1 6365   2.954   2.314   1.159
 1822SOL    HW2 6366   3.026   2.237   1.284
 1823SOL     OW 6367   3.622   6.058   3.278
 1823SOL    HW1 6368   3.646   6.032   3.184
 1823SOL    HW2 6369   3.652   6.152   3.295
 1824SOL     OW 6370   3.855   2.111   0.871
 1824SOL    HW1 6371   3.787   2.151   0.932
 1824SOL    HW2 6372   3.922   2.060   0.924
 1825SOL     OW 6373   1.273   0.229   2.317
 1825SOL    HW1 6374   1.331   0.204   2.395
 1825SOL    HW2 6375   1.325   0.288   2.255
 1826SOL     OW 6376   3.401   1.360   1.445
 1826SOL    HW1 6377   3.318   1.410   1.468
 1826SOL    HW2 6378   3.387   1.310   1.359
 1827SOL     OW 6379   0.243   5.101   2.445
 1827SOL    HW1 6380   0.243   5.099   2.345
 1827SOL    HW2 6381   0.337   5.113   2.479
 1828SOL     OW 6382   0.269   2.329   0.166
 1828SOL    HW1 6383   0.322   2.265   0.109
 1828SOL    HW2 6384   0.234   2.403   0.109
 1829SOL     OW 6385   4.712   0.251   3.263
 1829SOL    HW1 6386   4.732   0.185   3.335
 1829SOL    HW2 6387   4.714   0.205   3.174
 1830SOL     OW 6388   5.536   5.600   4.222
 1830SOL    HW1 6389   5.439   5.581   4.207
 1830SOL    HW2 6390   5.582   5.614   4.134
 1831SOL     OW 6391   5.713   6.803   2.965
 1831SOL    HW1 6392   5.673   6.874   3.024
 1831SOL    HW2 6393   5.713   6.715   3.013
 1832SOL     OW 6394   5.317   2.109   0.963
 1832SOL    HW1 6395   5.409   2.147   0.974
 1832SOL    HW2 6396   5.284   2.076   1.051
 1833SOL     OW 6397   5.588   1.070   5.040
 1833SOL    HW1 6398   5.538   1.032   4.962
 1833SOL    HW2 6399   5.547   1.156   5.068
 1834SOL     OW 6400   3.353   3.971   0.030
 1834SOL    HW1 6401   3.373   3.878   7.018
 1834SOL    HW2 6402   3.378   3.978   0.127
 1835SOL     OW 6403   1.268   4.562   1.703
 1835SOL    HW1 6404   1.266   4.484   1.640
 1835SOL    HW2 6405   1.222   4.640   1.662
 1836SOL     OW 6406   0.129   2.205   1.101
 1836SOL    HW1 6407   0.101   2.112   1.080
 1836SOL    HW2 6408   0.122   2.221   1.200
 1837SOL     OW 6409   0.661   2.218   3.509
 1837SOL    HW1 6410   0.716   2.239   3.428
 1837SOL    HW2 6411   0.610   2.299   3.537
 1838SOL     OW 6412   0.207   1.922   3.618
 1838SOL    HW1 6413   0.116   1.885   3.594
 1838SOL    HW2 6414   0.196   2.008   3.668
 1839SOL     OW 6415   4.597   2.765   5.018
 1839SOL    HW1 6416   4.541   2.683   5.003
 1839SOL    HW2 6417   4.655   2.781   4.938
 1840SOL     OW 6418   3.225   6.067   1.537
 1840SOL    HW1 6419   3.271   6.118   1.464
 1840SOL    HW2 6420   3.287   5.996   1.572
 1841SOL     OW 6421   1.994   3.388   4.803
 1841SOL    HW1 6422   1.947   3.445   4.735
 1841SOL    HW2 6423   2.063   3.442   4.850
 1842SOL     OW 6424   0.686   5.735   0.401
 1842SOL    HW1 6425   0.714   5.670   0.472
 1842SOL    HW2 6426   0.703   5.828   0.432
 1843SOL     OW 6427   2.110   2.564   4.640
 1843SOL    HW1 6428   2.122   2.663   4.632
 1843SOL    HW2 6429   2.048   2.544   4.715
 1844SOL     OW 6430   3.763   1.317   5.584
 1844SOL    HW1 6431   3.832   1.297   5.654
 1844SOL    HW2 6432   3.801   1.298   5.494
 1845SOL     OW 6433   2.140   0.564   6.225
 1845SOL    HW1 6434   2.211   0.595   6.288
 1845SOL    HW2 6435   2.162   0.471   6.193
 1846SOL     OW 6436   3.958   2.101   6.712
 1846SOL    HW1 6437   3.926   2.122   6.619
 1846SOL    HW2 6438   3.948   2.002   6.728
 1847SOL     OW 6439   1.569   0.890   6.443
 1847SOL    HW1 6440   1.521   0.808   6.413
 1847SOL    HW2 6441   1.589   0.947   6.363
 1848SOL     OW 6442   1.841   5.840   2.651
 1848SOL    HW1 6443   1.939   5.842   2.673
 1848SOL    HW2 6444   1.797   5.922   2.688
 1849SOL     OW 6445   4.388   1.277   0.478
 1849SOL    HW1 6446   4.332   1.238   0.551
 1849SOL    HW2 6447   4.452   1.207   0.445
 1850SOL     OW 6448   6.382   2.247   2.417
 1850SOL    HW1 6449   6.317   2.263   2.491
 1850SOL    HW2 6450   6.377   2.151   2.388
 1851SOL     OW 6451   7.021   1.255   0.866
 1851SOL    HW1 6452   0.049   1.342   0.856
 1851SOL    HW2 6453   6.988   1.246   0.960
 1852SOL     OW 6454   4.602   4.055   1.050
 1852SOL    HW1 6455   4.584   4.144   1.091
 1852SOL    HW2 6456   4.568   3.983   1.111
 1853SOL     OW 6457   0.930   3.238   2.052
 1853SOL    HW1 6458   0.998   3.296   2.097
 1853SOL    HW2 6459   0.851   3.293   2.027
 1854SOL     OW 6460   2.987   6.259   3.961
 1854SOL    HW1 6461   2.979   6.163   3.988
 1854SOL    HW2 6462   2.896   6.301   3.960
 1855SOL     OW 6463   4.502   4.514   7.017
 1855SOL    HW1 6464   4.576   4.575   6.990
 1855SOL    HW2 6465   4.539   4.430   0.035
 1856SOL     OW 6466   6.393   2.995   5.636
 1856SOL    HW1 6467   6.321   3.025   5.699
 1856SOL    HW2 6468   6.353   2.934   5.567
 1857SOL     OW 6469   3.660   0.965   5.615
 1857SOL    HW1 6470   3.588   0.969   5.684
 1857SOL    HW2 6471   3.749   0.976   5.659
 1858SOL     OW 6472   5.971   3.180   3.592
 1858SOL    HW1 6473   5.938   3.246   3.660
 1858SOL    HW2 6474   5.902   3.108   3.579
 1859SOL     OW 6475   3.937   1.293   3.773
 1859SOL    HW1 6476   3.950   1.201   3.735
 1859SOL    HW2 6477   3.999   1.305   3.851
 1860SOL     OW 6478   6.781   1.048   3.208
 1860SOL    HW1 6479   6.781   0.980   3.281
 1860SOL    HW2 6480   6.690   1.053   3.167
 1861SOL     OW 6481   4.888   6.416   1.942
 1861SOL    HW1 6482   4.932   6.378   1.861
 1861SOL    HW2 6483   4.929   6.376   2.024
 1862SOL     OW 6484   2.251   6.627   7.007
 1862SOL    HW1 6485   2.335   6.613   6.955
 1862SOL    HW2 6486   2.246   6.722   0.016
 1863SOL     OW 6487   2.296   2.604   0.516
 1863SOL    HW1 6488   2.360   2.585   0.591
 1863SOL    HW2 6489   2.343   2.596   0.429
 1864SOL     OW 6490   0.998   0.340   5.509
 1864SOL    HW1 6491   0.969   0.266   5.448
 1864SOL    HW2 6492   0.942   0.421   5.491
 1865SOL     OW 6493   3.554   0.610   5.778
 1865SOL    HW1 6494   3.598   0.648   5.697
 1865SOL    HW2 6495   3.598   0.524   5.803
 1866SOL     OW 6496   4.768   4.653   2.361
 1866SOL    HW1 6497   4.722   4.701   2.287
 1866SOL    HW2 6498   4.866   4.648   2.342
 1867SOL     OW 6499   0.728   4.308   0.586
 1867SOL    HW1 6500   0.739   4.341   0.492
 1867SOL    HW2 6501   0.818   4.294   0.626
 1868SOL     OW 6502   5.139   4.496   0.181
 1868SOL    HW1 6503   5.082   4.460   0.255
 1868SOL    HW2 6504   5.109   4.457   0.094
 1869SOL     OW 6505   6.653   2.288   4.654
 1869SOL    HW1 6506   6.675   2.228   4.732
 1869SOL    HW2 6507   6.558   2.317   4.660
 1870SOL     OW 6508   1.922   4.321   5.620
 1870SOL    HW1 6509   2.015   4.283   5.623
 1870SOL    HW2 6510   1.858   4.258   5.663
 1871SOL     OW 6511   1.227   6.664   0.154
 1871SOL    HW1 6512   1.138   6.706   0.168
 1871SOL    HW2 6513   1.249   6.661   0.056
 1872SOL     OW 6514   3.570   4.168   6.769
 1872SOL    HW1 6515   3.588   4.077   6.806
 1872SOL    HW2 6516   3.629   4.184   6.690
 1873SOL     OW 6517   4.489   1.158   5.307
 1873SOL    HW1 6518   4.391   1.144   5.321
 1873SOL    HW2 6519   4.508   1.158   5.209
 1874SOL     OW 6520   2.471   1.455   1.053
 1874SOL    HW1 6521   2.427   1.525   1.109
 1874SOL    HW2 6522   2.546   1.496   1.001
 1875SOL     OW 6523   0.992   0.824   6.376
 1875SOL    HW1 6524   0.947   0.747   6.421
 1875SOL    HW2 6525   1.087   0.800   6.357
 1876SOL     OW 6526   3.137   0.711   5.532
 1876SOL    HW1 6527   3.123   0.720   5.434
 1876SOL    HW2 6528   3.053   0.679   5.575
 1877SOL     OW 6529   0.829   0.275   3.183
 1877SOL    HW1 6530   0.869   0.239   3.268
 1877SOL    HW2 6531   0.892   0.258   3.107
 1878SOL     OW 6532   6.973   1.873   3.936
 1878SOL    HW1 6533   6.924   1.791   3.908
 1878SOL    HW2 6534   0.050   1.853   3.942
 1879SOL     OW 6535   1.144   3.929   4.273
 1879SOL    HW1 6536   1.168   3.858   4.207
 1879SOL    HW2 6537   1.054   3.909   4.311
 1880SOL     OW 6538   0.117   1.295   4.773
 1880SOL    HW1 6539   0.167   1.227   4.719
 1880SOL    HW2 6540   0.100   1.258   4.865
 1881SOL     OW 6541   5.641   2.264   2.425
 1881SOL    HW1 6542   5.547   2.287   2.401
 1881SOL    HW2 6543   5.659   2.168   2.401
 1882SOL     OW 6544   1.048   4.417   6.754
 1882SOL    HW1 6545   1.131   4.465   6.725
 1882SOL    HW2 6546   1.006   4.372   6.675
 1883SOL     OW 6547   6.256   2.546   2.767
 1883SOL    HW1 6548   6.285   2.591   2.683
 1883SOL    HW2 6549   6.325   2.479   2.794
 1884SOL     OW 6550   1.066   1.864   0.719
 1884SOL    HW1 6551   1.023   1.887   0.807
 1884SOL    HW2 6552   1.029   1.777   0.686
 1885SOL     OW 6553   1.751   2.075   6.166
 1885SOL    HW1 6554   1.705   1.987   6.154
 1885SOL    HW2 6555   1.749   2.100   6.263
 1886SOL     OW 6556   1.882   0.132   1.762
 1886SOL    HW1 6557   1.957   0.079   1.801
 1886SOL    HW2 6558   1.815   0.070   1.721
 1887SOL     OW 6559   0.637   5.482   5.909
 1887SOL    HW1 6560   0.699   5.498   5.832
 1887SOL    HW2 6561   0.678   5.517   5.993
 1888SOL     OW 6562   3.086   2.116   6.889
 1888SOL    HW1 6563   3.163   2.115   6.826
 1888SOL    HW2 6564   3.118   2.138   6.981
 1889SOL     OW 6565   0.126   3.703   4.225
 1889SOL    HW1 6566   0.217   3.712   4.266
 1889SOL    HW2 6567   0.135   3.684   4.127
 1890SOL     OW 6568   1.151   5.728   3.874
 1890SOL    HW1 6569   1.207   5.704   3.953
 1890SOL    HW2 6570   1.128   5.825   3.877
 1891SOL     OW 6571   4.537   2.793   1.746
 1891SOL    HW1 6572   4.588   2.714   1.780
 1891SOL    HW2 6573   4.584   2.877   1.773
 1892SOL     OW 6574   0.325   0.266   2.077
 1892SOL    HW1 6575   0.321   0.284   2.176
 1892SOL    HW2 6576   0.233   0.245   2.044
 1893SOL     OW 6577   3.423   2.812   1.985
 1893SOL    HW1 6578   3.477   2.877   2.039
 1893SOL    HW2 6579   3.475   2.783   1.905
 1894SOL     OW 6580   3.611   3.821   4.173
 1894SOL    HW1 6581   3.637   3.729   4.141
 1894SOL    HW2 6582   3.687   3.884   4.157
 1895SOL     OW 6583   4.386   6.889   0.644
 1895SOL    HW1 6584   4.483   6.910   0.641
 1895SOL    HW2 6585   4.333   6.971   0.621
 1896SOL     OW 6586   5.963   1.418   0.704
 1896SOL    HW1 6587   6.027   1.353   0.661
 1896SOL    HW2 6588   5.916   1.373   0.779
 1897SOL     OW 6589   1.814   5.162   2.467
 1897SOL    HW1 6590   1.837   5.091   2.399
 1897SOL    HW2 6591   1.715   5.167   2.477
 1898SOL     OW 6592   2.264   4.603   2.821
 1898SOL    HW1 6593   2.204   4.528   2.795
 1898SOL    HW2 6594   2.330   4.619   2.748
 1899SOL     OW 6595   0.289   1.426   0.144
 1899SOL    HW1 6596   0.254   1.478   0.222
 1899SOL    HW2 6597   0.307   1.489   0.068
 1900SOL     OW 6598   2.253   0.499   0.084
 1900SOL    HW1 6599   2.350   0.475   0.084
 1900SOL    HW2 6600   2.240   0.583   0.136
 1901SOL     OW 6601   2.531   2.280   0.853
 1901SOL    HW1 6602   2.483   2.194   0.833
 1901SOL    HW2 6603   2.473   2.339   0.909
 1902SOL     OW 6604   2.511   0.693   4.493
 1902SOL    HW1 6605   2.506   0.641   4.408
 1902SOL    HW2 6606   2.584   0.762   4.487
 1903SOL     OW 6607   0.852   3.454   2.926
 1903SOL    HW1 6608   0.836   3.372   2.982
 1903SOL    HW2 6609   0.946   3.454   2.894
 1904SOL     OW 6610   5.653   4.966   3.110
 1904SOL    HW1 6611   5.641   5.065   3.113
 1904SOL    HW2 6612   5.750   4.944   3.118
 1905SOL     OW 6613   0.486   0.538   3.325
 1905SOL    HW1 6614   0.476   0.531   3.424
 1905SOL    HW2 6615   0.479   0.634   3.298
 1906SOL     OW 6616   2.972   1.009   6.080
 1906SOL    HW1 6617   3.060   1.036   6.041
 1906SOL    HW2 6618   2.972   0.910   6.096
 1907SOL     OW 6619   4.780   2.672   1.212
 1907SOL    HW1 6620   4.790   2.647   1.309
 1907SOL    HW2 6621   4.693   2.720   1.199
 1908SOL     OW 6622   3.817   6.456   6.159
 1908SOL    HW1 6623   3.876   6.520   6.209
 1908SOL    HW2 6624   3.730   6.500   6.139
 1909SOL     OW 6625   0.750   3.236   3.646
 1909SOL    HW1 6626   0.741   3.137   3.629
 1909SOL    HW2 6627   0.834   3.254   3.696
 1910SOL     OW 6628   6.729   6.556   5.343
 1910SOL    HW1 6629   6.757   6.648   5.372
 1910SOL    HW2 6630   6.633   6.556   5.318
 1911SOL     OW 6631   6.954   3.902   4.997
 1911SOL    HW1 6632   7.016   3.837   5.040
 1911SOL    HW2 6633   6.955   3.989   5.047
 1912SOL     OW 6634   2.696   5.628   2.564
 1912SOL    HW1 6635   2.691   5.540   2.516
 1912SOL    HW2 6636   2.605   5.652   2.598
 1913SOL     OW 6637   2.518   0.246   4.484
 1913SOL    HW1 6638   2.542   0.329   4.534
 1913SOL    HW2 6639   2.601   0.200   4.453
 1914SOL     OW 6640   4.179   3.647   0.118
 1914SOL    HW1 6641   4.163   3.718   0.186
 1914SOL    HW2 6642   4.220   3.688   0.036
 1915SOL     OW 6643   4.958   2.961   5.726
 1915SOL    HW1 6644   4.952   3.028   5.652
 1915SOL    HW2 6645   4.903   2.993   5.804
 1916SOL     OW 6646   4.309   6.330   1.109
 1916SOL    HW1 6647   4.353   6.360   1.194
 1916SOL    HW2 6648   4.344   6.240   1.083
 1917SOL     OW 6649   2.950   3.400   0.371
 1917SOL    HW1 6650   2.938   3.323   0.435
 1917SOL    HW2 6651   2.894   3.385   0.290
 1918SOL     OW 6652   0.895   0.813   4.562
 1918SOL    HW1 6653   0.952   0.893   4.543
 1918SOL    HW2 6654   0.804   0.826   4.522
 1919SOL     OW 6655   1.782   1.520   1.109
 1919SOL    HW1 6656   1.752   1.425   1.117
 1919SOL    HW2 6657   1.882   1.524   1.116
 1920SOL     OW 6658   6.205   2.727   2.337
 1920SOL    HW1 6659   6.123   2.725   2.394
 1920SOL    HW2 6660   6.215   2.818   2.296
 1921SOL     OW 6661   1.037   3.123   6.876
 1921SOL    HW1 6662   1.074   3.068   6.801
 1921SOL    HW2 6663   1.112   3.165   6.926
 1922SOL     OW 6664   3.001   3.206   1.958
 1922SOL    HW1 6665   3.014   3.166   1.867
 1922SOL    HW2 6666   3.030   3.140   2.027
 1923SOL     OW 6667   4.343   1.264   0.207
 1923SOL    HW1 6668   4.317   1.287   0.301
 1923SOL    HW2 6669   4.412   1.329   0.176
 1924SOL     OW 6670   4.617   0.027   0.690
 1924SOL    HW1 6671   4.612   0.056   0.785
 1924SOL    HW2 6672   4.635   0.105   0.631
 1925SOL     OW 6673   0.948   4.612   1.647
 1925SOL    HW1 6674   0.945   4.702   1.692
 1925SOL    HW2 6675   0.893   4.547   1.699
 1926SOL     OW 6676   3.170   0.129   2.042
 1926SOL    HW1 6677   3.073   0.143   2.023
 1926SOL    HW2 6678   3.187   0.032   2.058
 1927SOL     OW 6679   2.527   3.696   0.830
 1927SOL    HW1 6680   2.499   3.603   0.807
 1927SOL    HW2 6681   2.458   3.737   0.891
 1928SOL     OW 6682   4.982   5.065   4.300
 1928SOL    HW1 6683   4.896   5.109   4.326
 1928SOL    HW2 6684   4.976   4.967   4.320
 1929SOL     OW 6685   2.573   0.727   2.272
 1929SOL    HW1 6686   2.637   0.804   2.279
 1929SOL    HW2 6687   2.479   0.762   2.272
 1930SOL     OW 6688   5.324   3.595   6.598
 1930SOL    HW1 6689   5.396   3.654   6.634
 1930SOL    HW2 6690   5.313   3.516   6.659
 1931SOL     OW 6691   0.581   1.913   6.801
 1931SOL    HW1 6692   0.637   1.945   6.878
 1931SOL    HW2 6693   0.630   1.841   6.752
 1932SOL     OW 6694   4.603   2.658   3.385
 1932SOL    HW1 6695   4.545   2.592   3.433
 1932SOL    HW2 6696   4.594   2.645   3.287
 1933SOL     OW 6697   0.549   1.669   0.585
 1933SOL    HW1 6698   0.450   1.655   0.580
 1933SOL    HW2 6699   0.580   1.716   0.502
 1934SOL     OW 6700   0.559   0.460   5.336
 1934SOL    HW1 6701   0.536   0.460   5.433
 1934SOL    HW2 6702   0.527   0.375   5.294
 1935SOL     OW 6703   4.562   4.357   4.039
 1935SOL    HW1 6704   4.620   4.438   4.029
 1935SOL    HW2 6705   4.601   4.282   3.986
 1936SOL     OW 6706   5.069   3.788   3.885
 1936SOL    HW1 6707   5.150   3.734   3.860
 1936SOL    HW2 6708   5.075   3.878   3.844
 1937SOL     OW 6709   4.502   6.239   6.682
 1937SOL    HW1 6710   4.452   6.245   6.595
 1937SOL    HW2 6711   4.600   6.239   6.664
 1938SOL     OW 6712   1.103   2.867   7.005
 1938SOL    HW1 6713   1.126   2.828   6.916
 1938SOL    HW2 6714   1.032   2.937   6.994
 1939SOL     OW 6715   0.275   5.619   4.605
 1939SOL    HW1 6716   0.203   5.587   4.544
 1939SOL    HW2 6717   0.265   5.717   4.621
 1940SOL     OW 6718   5.905   4.382   2.123
 1940SOL    HW1 6719   5.823   4.366   2.068
 1940SOL    HW2 6720   5.881   4.438   2.202
 1941SOL     OW 6721   0.264   2.541   3.748
 1941SOL    HW1 6722   0.353   2.539   3.794
 1941SOL    HW2 6723   0.276   2.575   3.654
 1942SOL     OW 6724   5.436   4.026   2.699
 1942SOL    HW1 6725   5.468   4.116   2.730
 1942SOL    HW2 6726   5.347   4.007   2.739
 1943SOL     OW 6727   1.350   1.644   2.160
 1943SOL    HW1 6728   1.366   1.721   2.222
 1943SOL    HW2 6729   1.365   1.558   2.210
 1944SOL     OW 6730   6.631   4.026   0.564
 1944SOL    HW1 6731   6.581   3.942   0.580
 1944SOL    HW2 6732   6.582   4.082   0.496
 1945SOL     OW 6733   4.021   6.550   0.892
 1945SOL    HW1 6734   4.014   6.457   0.929
 1945SOL    HW2 6735   3.981   6.615   0.957
 1946SOL     OW 6736   5.737   6.183   1.372
 1946SOL    HW1 6737   5.827   6.222   1.352
 1946SOL    HW2 6738   5.748   6.104   1.432
 1947SOL     OW 6739   6.479   5.389   3.818
 1947SOL    HW1 6740   6.459   5.315   3.883
 1947SOL    HW2 6741   6.571   5.424   3.834
 1948SOL     OW 6742   6.054   3.901   2.579
 1948SOL    HW1 6743   6.006   3.899   2.666
 1948SOL    HW2 6744   6.047   3.992   2.539
 1949SOL     OW 6745   3.771   4.326   0.471
 1949SOL    HW1 6746   3.756   4.228   0.480
 1949SOL    HW2 6747   3.828   4.358   0.546
 1950SOL     OW 6748   3.693   3.509   4.095
 1950SOL    HW1 6749   3.650   3.514   4.185
 1950SOL    HW2 6750   3.638   3.452   4.034
 1951SOL     OW 6751   6.646   4.337   5.633
 1951SOL    HW1 6752   6.571   4.271   5.621
 1951SOL    HW2 6753   6.609   4.430   5.632
 1952SOL     OW 6754   4.890   4.154   1.124
 1952SOL    HW1 6755   4.809   4.112   1.083
 1952SOL    HW2 6756   4.918   4.101   1.204
 1953SOL     OW 6757   6.785   1.592   6.352
 1953SOL    HW1 6758   6.807   1.637   6.439
 1953SOL    HW2 6759   6.773   1.494   6.367
 1954SOL     OW 6760   5.712   1.033   1.773
 1954SOL    HW1 6761   5.708   1.073   1.865
 1954SOL    HW2 6762   5.652   0.954   1.769
 1955SOL     OW 6763   0.585   1.715   1.839
 1955SOL    HW1 6764   0.595   1.620   1.867
 1955SOL    HW2 6765   0.541   1.768   1.912
 1956SOL     OW 6766   5.249   1.049   2.695
 1956SOL    HW1 6767   5.347   1.060   2.681
 1956SOL    HW2 6768   5.200   1.077   2.612
 1957SOL     OW 6769   5.025   3.125   3.873
 1957SOL    HW1 6770   4.984   3.207   3.914
 1957SOL    HW2 6771   5.124   3.125   3.889
 1958SOL     OW 6772   4.628   1.634   1.045
 1958SOL    HW1 6773   4.653   1.653   0.950
 1958SOL    HW2 6774   4.552   1.693   1.072
 1959SOL     OW 6775   6.334   6.941   4.014
 1959SOL    HW1 6776   6.409   6.980   4.068
 1959SOL    HW2 6777   6.247   6.961   4.060
 1960SOL     OW 6778   6.129   2.554   3.028
 1960SOL    HW1 6779   6.072   2.498   2.967
 1960SOL    HW2 6780   6.225   2.531   3.014
 1961SOL     OW 6781   6.447   4.421   5.011
 1961SOL    HW1 6782   6.428   4.507   4.965
 1961SOL    HW2 6783   6.404   4.420   5.101
 1962SOL     OW 6784   1.137   5.799   2.819
 1962SOL    HW1 6785   1.105   5.842   2.903
 1962SOL    HW2 6786   1.139   5.868   2.746
 1963SOL     OW 6787   1.026   1.252   1.878
 1963SOL    HW1 6788   1.079   1.196   1.814
 1963SOL    HW2 6789   0.940   1.206   1.900
 1964SOL     OW 6790   5.273   4.451   1.650
 1964SOL    HW1 6791   5.192   4.502   1.681
 1964SOL    HW2 6792   5.268   4.439   1.551
 1965SOL     OW 6793   0.895   3.808   4.019
 1965SOL    HW1 6794   0.876   3.722   4.066
 1965SOL    HW2 6795   0.977   3.799   3.963
 1966SOL     OW 6796   1.565   4.825   1.144
 1966SOL    HW1 6797   1.502   4.817   1.222
 1966SOL    HW2 6798   1.542   4.755   1.076
 1967SOL     OW 6799   6.665   2.425   4.126
 1967SOL    HW1 6800   6.574   2.458   4.150
 1967SOL    HW2 6801   6.698   2.474   4.045
 1968SOL     OW 6802   2.383   0.813   5.404
 1968SOL    HW1 6803   2.350   0.825   5.498
 1968SOL    HW2 6804   2.347   0.887   5.347
 1969SOL     OW 6805   3.226   0.864   2.006
 1969SOL    HW1 6806   3.216   0.799   2.081
 1969SOL    HW2 6807   3.175   0.948   2.028
 1970SOL     OW 6808   6.307   6.823   5.198
 1970SOL    HW1 6809   6.255   6.821   5.113
 1970SOL    HW2 6810   6.302   6.915   5.237
 1971SOL     OW 6811   1.142   6.844   5.841
 1971SOL    HW1 6812   1.194   6.887   5.915
 1971SOL    HW2 6813   1.104   6.914   5.781
 1972SOL     OW 6814   5.848   2.625   1.492
 1972SOL    HW1 6815   5.783   2.595   1.423
 1972SOL    HW2 6816   5.940   2.592   1.468
 1973SOL     OW 6817   2.700   3.401   1.513
 1973SOL    HW1 6818   2.779   3.346   1.485
 1973SOL    HW2 6819   2.630   3.399   1.442
 1974SOL     OW 6820   4.172   6.494   4.318
 1974SOL    HW1 6821   4.127   6.533   4.238
 1974SOL    HW2 6822   4.125   6.524   4.401
 1975SOL     OW 6823   2.227   2.732   3.712
 1975SOL    HW1 6824   2.248   2.662   3.781
 1975SOL    HW2 6825   2.140   2.710   3.668
 1976SOL     OW 6826   6.056   0.086   6.964
 1976SOL    HW1 6827   6.087   7.018   6.995
 1976SOL    HW2 6828   6.015   0.078   6.873
 1977SOL     OW 6829   2.740   3.247   6.862
 1977SOL    HW1 6830   2.821   3.290   6.824
 1977SOL    HW2 6831   2.661   3.307   6.848
 1978SOL     OW 6832   2.405   6.242   2.673
 1978SOL    HW1 6833   2.309   6.265   2.688
 1978SOL    HW2 6834   2.457   6.326   2.656
 1979SOL     OW 6835   6.181   5.182   0.016
 1979SOL    HW1 6836   6.095   5.178   6.987
 1979SOL    HW2 6837   6.195   5.276   0.048
 1980SOL     OW 6838   2.950   0.497   2.467
 1980SOL    HW1 6839   2.851   0.497   2.456
 1980SOL    HW2 6840   2.986   0.406   2.448
 1981SOL     OW 6841   5.159   2.618   2.893
 1981SOL    HW1 6842   5.069   2.575   2.880
 1981SOL    HW2 6843   5.227   2.572   2.835
 1982SOL     OW 6844   6.382   3.607   4.034
 1982SOL    HW1 6845   6.449   3.542   3.999
 1982SOL    HW2 6846   6.343   3.658   3.958
 1983SOL     OW 6847   0.462   0.079   0.847
 1983SOL    HW1 6848   0.372   0.105   0.885
 1983SOL    HW2 6849   0.492   7.015   0.889
 1984SOL     OW 6850   5.054   2.413   5.136
 1984SOL    HW1 6851   5.015   2.500   5.106
 1984SOL    HW2 6852   5.154   2.419   5.136
 1985SOL     OW 6853   6.464   4.977   1.716
 1985SOL    HW1 6854   6.550   4.934   1.690
 1985SOL    HW2 6855   6.460   5.069   1.676
 1986SOL     OW 6856   3.045   1.173   6.600
 1986SOL    HW1 6857   3.027   1.228   6.518
 1986SOL    HW2 6858   3.109   1.222   6.659
 1987SOL     OW 6859   1.700   1.157   4.185
 1987SOL    HW1 6860   1.687   1.151   4.284
 1987SOL    HW2 6861   1.618   1.124   4.139
 1988SOL     OW 6862   0.675   1.294   1.270
 1988SOL    HW1 6863   0.593   1.346   1.246
 1988SOL    HW2 6864   0.718   1.259   1.187
 1989SOL     OW 6865   2.863   5.557   4.808
 1989SOL    HW1 6866   2.788   5.601   4.857
 1989SOL    HW2 6867   2.947   5.566   4.862
 1990SOL     OW 6868   4.029   0.204   6.797
 1990SOL    HW1 6869   3.984   0.201   6.708
 1990SOL    HW2 6870   4.018   0.296   6.837
 1991SOL     OW 6871   2.840   5.621   0.071
 1991SOL    HW1 6872   2.795   5.709   0.054
 1991SOL    HW2 6873   2.783   5.548   0.034
 1992SOL     OW 6874   6.972   6.276   0.011
 1992SOL    HW1 6875   6.876   6.249   0.021
 1992SOL    HW2 6876   0.000   6.254   0.095
 1993SOL     OW 6877   2.419   2.697   4.721
 1993SOL    HW1 6878   2.398   2.794   4.734
 1993SOL    HW2 6879   2.462   2.661   4.803
 1994SOL     OW 6880   4.230   3.088   0.959
 1994SOL    HW1 6881   4.198   3.051   0.871
 1994SOL    HW2 6882   4.199   3.182   0.969
 1995SOL     OW 6883   5.289   2.300   4.558
 1995SOL    HW1 6884   5.286   2.400   4.551
 1995SOL    HW2 6885   5.293   2.260   4.467
 1996SOL     OW 6886   3.005   1.975   1.079
 1996SOL    HW1 6887   3.001   2.070   1.111
 1996SOL    HW2 6888   3.013   1.914   1.158
 1997SOL     OW 6889   3.192   1.484   3.758
 1997SOL    HW1 6890   3.268   1.517   3.813
 1997SOL    HW2 6891   3.125   1.557   3.746
 1998SOL     OW 6892   1.208   3.150   1.257
 1998SOL    HW1 6893   1.204   3.232   1.315
 1998SOL    HW2 6894   1.116   3.123   1.231
 1999SOL     OW 6895   0.473   0.377   4.943
 1999SOL    HW1 6896   0.389   0.347   4.898
 1999SOL    HW2 6897   0.496   0.314   5.017
 2000SOL     OW 6898   3.956   3.691   6.178
 2000SOL    HW1 6899   3.874   3.635   6.163
 2000SOL    HW2 6900   3.929   3.785   6.197
 2001SOL     OW 6901   1.862   1.826   6.716
 2001SOL    HW1 6902   1.845   1.790   6.625
 2001SOL    HW2 6903   1.794   1.896   6.738
 2002SOL     OW 6904   0.364   5.617   1.070
 2002SOL    HW1 6905   0.267   5.607   1.047
 2002SOL    HW2 6906   0.382   5.711   1.098
 2003SOL     OW 6907   6.394   5.316   2.131
 2003SOL    HW1 6908   6.418   5.223   2.104
 2003SOL    HW2 6909   6.321   5.350   2.071
 2004SOL     OW 6910   3.771   0.543   3.735
 2004SOL    HW1 6911   3.716   0.473   3.780
 2004SOL    HW2 6912   3.862   0.507   3.715
 2005SOL     OW 6913   0.036   5.879   0.161
 2005SOL    HW1 6914   0.090   5.809   0.116
 2005SOL    HW2 6915   0.057   5.969   0.122
 2006SOL     OW 6916   5.507   0.404   4.043
 2006SOL    HW1 6917   5.493   0.437   4.137
 2006SOL    HW2 6918   5.604   0.411   4.020
 2007SOL     OW 6919   4.859   4.533   1.073
 2007SOL    HW1 6920   4.799   4.480   1.013
 2007SOL    HW2 6921   4.908   4.471   1.134
 2008SOL     OW 6922   2.164   3.794   3.732
 2008SOL    HW1 6923   2.200   3.887   3.745
 2008SOL    HW2 6924   2.127   3.785   3.640
 2009SOL     OW 6925   6.043   6.167   1.658
 2009SOL    HW1 6926   5.945   6.180   1.643
 2009SOL    HW2 6927   6.065   6.189   1.753
 2010SOL     OW 6928   1.515   2.505   1.362
 2010SOL    HW1 6929   1.503   2.425   1.304
 2010SOL    HW2 6930   1.483   2.587   1.314
 2011SOL     OW 6931   7.019   0.025   5.590
 2011SOL    HW1 6932   0.021   6.996   5.506
 2011SOL    HW2 6933   0.019   0.122   5.577
 2012SOL     OW 6934   1.550   3.539   1.922
 2012SOL    HW1 6935   1.648   3.534   1.903
 2012SOL    HW2 6936   1.536   3.571   2.015
 2013SOL     OW 6937   0.267   2.845   3.277
 2013SOL    HW1 6938   0.271   2.751   3.243
 2013SOL    HW2 6939   0.317   2.905   3.214
 2014SOL     OW 6940   3.192   0.253   3.568
 2014SOL    HW1 6941   3.101   0.264   3.527
 2014SOL    HW2 6942   3.262   0.266   3.499
 2015SOL     OW 6943   3.859   1.127   1.491
 2015SOL    HW1 6944   3.781   1.182   1.522
 2015SOL    HW2 6945   3.861   1.041   1.542
 2016SOL     OW 6946   1.543   6.059   5.452
 2016SOL    HW1 6947   1.622   6.041   5.394
 2016SOL    HW2 6948   1.488   5.977   5.461
 2017SOL     OW 6949   4.477   6.670   3.271
 2017SOL    HW1 6950   4.393   6.619   3.288
 2017SOL    HW2 6951   4.453   6.764   3.243
 2018SOL     OW 6952   0.152   2.268   3.237
 2018SOL    HW1 6953   0.143   2.294   3.141
 2018SOL    HW2 6954   0.062   2.255   3.277
 2019SOL     OW 6955   6.186   4.929   6.531
 2019SOL    HW1 6956   6.266   4.931   6.591
 2019SOL    HW2 6957   6.189   4.847   6.475
 2020SOL     OW 6958   1.352   6.204   5.673
 2020SOL    HW1 6959   1.290   6.159   5.738
 2020SOL    HW2 6960   1.417   6.137   5.637
 2021SOL     OW 6961   6.370   6.261   3.231
 2021SOL    HW1 6962   6.446   6.325   3.235
 2021SOL    HW2 6963   6.288   6.305   3.268
 2022SOL     OW 6964   2.056   4.156   4.990
 2022SOL    HW1 6965   2.141   4.111   5.019
 2022SOL    HW2 6966   1.978   4.111   5.035
 2023SOL     OW 6967   0.182   0.335   6.900
 2023SOL    HW1 6968   0.131   0.360   6.817
 2023SOL    HW2 6969   0.187   0.236   6.908
 2024SOL     OW 6970   0.224   5.496   4.064
 2024SOL    HW1 6971   0.308   5.550   4.056
 2024SOL    HW2 6972   0.159   5.544   4.123
 2025SOL     OW 6973   2.594   0.833   4.191
 2025SOL    HW1 6974   2.559   0.749   4.150
 2025SOL    HW2 6975   2.536   0.910   4.164
 2026SOL     OW 6976   5.661   0.833   6.570
 2026SOL    HW1 6977   5.686   0.737   6.553
 2026SOL    HW2 6978   5.574   0.852   6.525
 2027SOL     OW 6979   0.661   6.015   1.427
 2027SOL    HW1 6980   0.757   5.987   1.419
 2027SOL    HW2 6981   0.604   5.934   1.443
 2028SOL     OW 6982   3.971   6.138   2.510
 2028SOL    HW1 6983   3.955   6.081   2.429
 2028SOL    HW2 6984   4.064   6.174   2.508
 2029SOL     OW 6985   0.035   2.063   6.501
 2029SOL    HW1 6986   0.066   1.969   6.518
 2029SOL    HW2 6987   0.114   2.123   6.489
 2030SOL     OW 6988   3.312   6.314   3.127
 2030SOL    HW1 6989   3.254   6.396   3.127
 2030SOL    HW2 6990   3.399   6.336   3.083
 2031SOL     OW 6991   6.758   5.825   2.775
 2031SOL    HW1 6992   6.749   5.791   2.869
 2031SOL    HW2 6993   6.707   5.910   2.765
 2032SOL     OW 6994   3.552   1.515   6.719
 2032SOL    HW1 6995   3.597   1.470   6.797
 2032SOL    HW2 6996   3.560   1.614   6.729
 2033SOL     OW 6997   1.288   1.102   0.971
 2033SOL    HW1 6998   1.243   1.191   0.980
 2033SOL    HW2 6999   1.238   1.046   0.905
 2034SOL     OW 7000   1.396   5.355   5.751
 2034SOL    HW1 7001   1.465   5.294   5.712
 2034SOL    HW2 7002   1.318   5.301   5.783
 2035SOL     OW 7003   6.424   6.831   1.929
 2035SOL    HW1 7004   6.363   6.910   1.932
 2035SOL    HW2 7005   6.424   6.792   1.837
 2036SOL     OW 7006   0.853   3.217   3.173
 2036SOL    HW1 7007   0.875   3.267   3.256
 2036SOL    HW2 7008   0.937   3.191   3.126
 2037SOL     OW 7009   0.064   3.041   6.469
 2037SOL    HW1 7010   6.999   2.992   6.476
 2037SOL    HW2 7011   0.061   3.107   6.394
 2038SOL     OW 7012   2.830   1.006   0.078
 2038SOL    HW1 7013   2.889   0.947   0.134
 2038SOL    HW2 7014   2.803   1.085   0.132
 2039SOL     OW 7015   0.074   5.873   2.384
 2039SOL    HW1 7016   0.094   5.775   2.382
 2039SOL    HW2 7017   0.024   5.895   2.468
 2040SOL     OW 7018   2.291   2.559   0.024
 2040SOL    HW1 7019   2.326   2.493   6.979
 2040SOL    HW2 7020   2.191   2.562   0.017
 2041SOL     OW 7021   1.865   6.955   6.018
 2041SOL    HW1 7022   1.778   6.996   6.045
 2041SOL    HW2 7023   1.854   6.905   5.932
 2042SOL     OW 7024   4.675   0.455   6.390
 2042SOL    HW1 7025   4.770   0.423   6.387
 2042SOL    HW2 7026   4.667   0.542   6.341
 2043SOL     OW 7027   0.035   2.664   1.126
 2043SOL    HW1 7028   7.007   2.745   1.156
 2043SOL    HW2 7029   0.089   2.627   1.202
 2044SOL     OW 7030   5.598   1.045   1.082
 2044SOL    HW1 7031   5.586   1.139   1.049
 2044SOL    HW2 7032   5.544   1.032   1.165
 2045SOL     OW 7033   1.864   5.563   5.929
 2045SOL    HW1 7034   1.848   5.618   6.011
 2045SOL    HW2 7035   1.867   5.466   5.954
 2046SOL     OW 7036   0.558   1.407   5.611
 2046SOL    HW1 7037   0.608   1.480   5.563
 2046SOL    HW2 7038   0.556   1.325   5.553
 2047SOL     OW 7039   6.327   2.635   0.240
 2047SOL    HW1 7040   6.316   2.691   0.158
 2047SOL    HW2 7041   6.422   2.641   0.272
 2048SOL     OW 7042   0.790   1.332   4.041
 2048SOL    HW1 7043   0.750   1.241   4.044
 2048SOL    HW2 7044   0.884   1.328   4.075
 2049SOL     OW 7045   4.459   1.536   4.680
 2049SOL    HW1 7046   4.364   1.561   4.663
 2049SOL    HW2 7047   4.512   1.547   4.596
 2050SOL     OW 7048   0.640   1.598   4.088
 2050SOL    HW1 7049   0.549   1.600   4.046
 2050SOL    HW2 7050   0.692   1.521   4.051
 2051SOL     OW 7051   3.331   7.004   1.053
 2051SOL    HW1 7052   3.308   0.078   1.072
 2051SOL    HW2 7053   3.299   6.979   0.962
 2052SOL     OW 7054   1.859   4.092   0.263
 2052SOL    HW1 7055   1.876   4.149   0.343
 2052SOL    HW2 7056   1.945   4.073   0.216
 2053SOL     OW 7057   1.244   5.394   4.032
 2053SOL    HW1 7058   1.172   5.332   4.063
 2053SOL    HW2 7059   1.222   5.488   4.059
 2054SOL     OW 7060   3.066   3.071   2.878
 2054SOL    HW1 7061   3.135   3.000   2.864
 2054SOL    HW2 7062   3.080   3.144   2.812
 2055SOL     OW 7063   1.275   2.714   4.878
 2055SOL    HW1 7064   1.304   2.624   4.846
 2055SOL    HW2 7065   1.190   2.740   4.833
 2056SOL     OW 7066   3.871   5.163   0.837
 2056SOL    HW1 7067   3.864   5.106   0.755
 2056SOL    HW2 7068   3.949   5.134   0.891
 2057SOL     OW 7069   5.707   2.411   4.535
 2057SOL    HW1 7070   5.660   2.326   4.558
 2057SOL    HW2 7071   5.696   2.477   4.609
 2058SOL     OW 7072   1.068   6.732   3.534
 2058SOL    HW1 7073   1.130   6.770   3.466
 2058SOL    HW2 7074   0.996   6.678   3.489
 2059SOL     OW 7075   2.515   0.408   5.736
 2059SOL    HW1 7076   2.593   0.346   5.735
 2059SOL    HW2 7077   2.461   0.395   5.652
 2060SOL     OW 7078   1.325   3.328   0.341
 2060SOL    HW1 7079   1.383   3.267   0.395
 2060SOL    HW2 7080   1.364   3.339   0.250
 2061SOL     OW 7081   2.083   2.177   2.341
 2061SOL    HW1 7082   1.999   2.224   2.368
 2061SOL    HW2 7083   2.086   2.087   2.385
 2062SOL     OW 7084   6.502   5.697   5.206
 2062SOL    HW1 7085   6.470   5.710   5.112
 2062SOL    HW2 7086   6.568   5.623   5.210
 2063SOL     OW 7087   1.455   0.159   5.349
 2063SOL    HW1 7088   1.380   0.094   5.355
 2063SOL    HW2 7089   1.539   0.116   5.384
 2064SOL     OW 7090   0.763   3.506   4.129
 2064SOL    HW1 7091   0.749   3.494   4.227
 2064SOL    HW2 7092   0.679   3.539   4.087
 2065SOL     OW 7093   4.681   2.708   5.410
 2065SOL    HW1 7094   4.763   2.762   5.391
 2065SOL    HW2 7095   4.606   2.740   5.353
 2066SOL     OW 7096   5.668   3.160   5.539
 2066SOL    HW1 7097   5.672   3.163   5.439
 2066SOL    HW2 7098   5.744   3.105   5.574
 2067SOL     OW 7099   6.606   4.621   1.404
 2067SOL    HW1 7100   6.578   4.543   1.461
 2067SOL    HW2 7101   6.537   4.693   1.412
 2068SOL     OW 7102   3.705   1.020   3.963
 2068SOL    HW1 7103   3.803   1.011   3.982
 2068SOL    HW2 7104   3.679   0.956   3.891
 2069SOL     OW 7105   6.743   1.804   4.201
 2069SOL    HW1 7106   6.757   1.724   4.144
 2069SOL    HW2 7107   6.793   1.882   4.162
 2070SOL     OW 7108   1.171   3.243   1.807
 2070SOL    HW1 7109   1.112   3.234   1.887
 2070SOL    HW2 7110   1.222   3.329   1.813
 2071SOL     OW 7111   6.154   1.383   5.989
 2071SOL    HW1 7112   6.143   1.310   6.057
 2071SOL    HW2 7113   6.125   1.470   6.028
 2072SOL     OW 7114   3.854   4.713   5.297
 2072SOL    HW1 7115   3.944   4.682   5.326
 2072SOL    HW2 7116   3.784   4.654   5.336
 2073SOL     OW 7117   3.814   6.106   6.941
 2073SOL    HW1 7118   3.809   6.063   0.010
 2073SOL    HW2 7119   3.838   6.202   6.951
 2074SOL     OW 7120   2.005   3.748   5.790
 2074SOL    HW1 7121   1.987   3.773   5.695
 2074SOL    HW2 7122   2.005   3.649   5.799
 2075SOL     OW 7123   0.056   2.058   1.947
 2075SOL    HW1 7124   0.005   1.972   1.952
 2075SOL    HW2 7125   0.053   2.103   2.037
 2076SOL     OW 7126   5.501   6.691   4.660
 2076SOL    HW1 7127   5.558   6.642   4.727
 2076SOL    HW2 7128   5.558   6.754   4.607
 2077SOL     OW 7129   0.478   3.239   1.409
 2077SOL    HW1 7130   0.404   3.179   1.380
 2077SOL    HW2 7131   0.566   3.197   1.387
 2078SOL     OW 7132   2.396   4.862   5.906
 2078SOL    HW1 7133   2.428   4.786   5.849
 2078SOL    HW2 7134   2.297   4.860   5.912
 2079SOL     OW 7135   5.520   1.353   1.778
 2079SOL    HW1 7136   5.563   1.420   1.718
 2079SOL    HW2 7137   5.570   1.266   1.772
 2080SOL     OW 7138   2.752   2.157   5.296
 2080SOL    HW1 7139   2.708   2.084   5.242
 2080SOL    HW2 7140   2.850   2.158   5.277
 2081SOL     OW 7141   0.150   0.042   3.084
 2081SOL    HW1 7142   0.174   6.983   3.030
 2081SOL    HW2 7143   0.172   0.125   3.032
 2082SOL     OW 7144   0.410   5.648   2.354
 2082SOL    HW1 7145   0.471   5.726   2.337
 2082SOL    HW2 7146   0.325   5.680   2.395
 2083SOL     OW 7147   6.971   6.179   4.189
 2083SOL    HW1 7148   6.928   6.242   4.255
 2083SOL    HW2 7149   6.943   6.205   4.097
 2084SOL     OW 7150   1.049   1.445   2.095
 2084SOL    HW1 7151   0.993   1.365   2.074
 2084SOL    HW2 7152   1.071   1.493   2.010
 2085SOL     OW 7153   5.308   5.849   6.946
 2085SOL    HW1 7154   5.312   5.947   6.961
 2085SOL    HW2 7155   5.370   5.823   6.871
 2086SOL     OW 7156   4.708   0.291   0.023
 2086SOL    HW1 7157   4.666   0.212   7.000
 2086SOL    HW2 7158   4.787   0.261   0.077
 2087SOL     OW 7159   4.315   2.190   0.321
 2087SOL    HW1 7160   4.334   2.287   0.304
 2087SOL    HW2 7161   4.223   2.168   0.289
 2088SOL     OW 7162   0.138   5.665   5.527
 2088SOL    HW1 7163   0.050   5.631   5.558
 2088SOL    HW2 7164   0.139   5.672   5.427
 2089SOL     OW 7165   3.060   3.324   5.954
 2089SOL    HW1 7166   3.010   3.245   5.919
 2089SOL    HW2 7167   3.040   3.404   5.896
 2090SOL     OW 7168   4.624   3.585   5.429
 2090SOL    HW1 7169   4.665   3.602   5.339
 2090SOL    HW2 7170   4.673   3.511   5.474
 2091SOL     OW 7171   6.427   5.963   1.473
 2091SOL    HW1 7172   6.439   5.863   1.471
 2091SOL    HW2 7173   6.398   5.995   1.383
 2092SOL     OW 7174   4.714   3.563   1.352
 2092SOL    HW1 7175   4.621   3.565   1.388
 2092SOL    HW2 7176   4.743   3.655   1.329
 2093SOL     OW 7177   3.883   2.070   2.730
 2093SOL    HW1 7178   3.876   1.993   2.793
 2093SOL    HW2 7179   3.792   2.110   2.716
 2094SOL     OW 7180   5.716   3.194   0.328
 2094SOL    HW1 7181   5.797   3.253   0.322
 2094SOL    HW2 7182   5.678   3.181   0.237
 2095SOL     OW 7183   5.926   6.293   3.930
 2095SOL    HW1 7184   5.981   6.231   3.874
 2095SOL    HW2 7185   5.872   6.239   3.995
 2096SOL     OW 7186   4.379   6.583   2.182
 2096SOL    HW1 7187   4.343   6.629   2.102
 2096SOL    HW2 7188   4.443   6.511   2.154
 2097SOL     OW 7189   2.082   4.639   6.887
 2097SOL    HW1 7190   2.036   4.641   6.975
 2097SOL    HW2 7191   2.101   4.732   6.856
 2098SOL     OW 7192   3.827   6.465   2.760
 2098SOL    HW1 7193   3.797   6.420   2.676
 2098SOL    HW2 7194   3.809   6.564   2.753
 2099SOL     OW 7195   4.914   1.284   6.993
 2099SOL    HW1 7196   4.873   1.201   0.008
 2099SOL    HW2 7197   4.970   1.261   6.913
 2100SOL     OW 7198   5.501   1.180   0.335
 2100SOL    HW1 7199   5.525   1.276   0.352
 2100SOL    HW2 7200   5.416   1.158   0.384
 2101SOL     OW 7201   6.972   6.564   1.678
 2101SOL    HW1 7202   6.922   6.632   1.733
 2101SOL    HW2 7203   0.046   6.592   1.671
 2102SOL     OW 7204   4.026   3.569   1.195
 2102SOL    HW1 7205   3.986   3.488   1.237
 2102SOL    HW2 7206   4.122   3.576   1.221
 2103SOL     OW 7207   3.095   5.605   6.902
 2103SOL    HW1 7208   3.004   5.611   6.942
 2103SOL    HW2 7209   3.088   5.579   6.805
 2104SOL     OW 7210   0.983   4.773   2.993
 2104SOL    HW1 7211   1.010   4.849   3.052
 2104SOL    HW2 7212   1.065   4.720   2.969
 2105SOL     OW 7213   4.915   4.490   6.945
 2105SOL    HW1 7214   4.959   4.509   6.857
 2105SOL    HW2 7215   4.882   4.395   6.946
 2106SOL     OW 7216   4.996   3.461   2.170
 2106SOL    HW1 7217   4.957   3.373   2.199
 2106SOL    HW2 7218   5.008   3.461   2.071
 2107SOL     OW 7219   5.375   3.642   5.294
 2107SOL    HW1 7220   5.414   3.686   5.376
 2107SOL    HW2 7221   5.325   3.560   5.321
 2108SOL     OW 7222   5.732   6.694   6.112
 2108SOL    HW1 7223   5.690   6.702   6.021
 2108SOL    HW2 7224   5.824   6.733   6.109
 2109SOL     OW 7225   3.376   5.864   3.305
 2109SOL    HW1 7226   3.412   5.776   3.276
 2109SOL    HW2 7227   3.439   5.937   3.278
 2110SOL     OW 7228   3.347   0.596   6.675
 2110SOL    HW1 7229   3.354   0.683   6.627
 2110SOL    HW2 7230   3.283   0.536   6.625
 2111SOL     OW 7231   0.921   3.110   5.411
 2111SOL    HW1 7232   0.945   3.063   5.496
 2111SOL    HW2 7233   1.002   3.116   5.353
 2112SOL     OW 7234   0.051   1.605   0.602
 2112SOL    HW1 7235   0.087   1.609   0.695
 2112SOL    HW2 7236   6.986   1.655   0.597
 2113SOL     OW 7237   2.047   0.259   4.378
 2113SOL    HW1 7238   1.997   0.173   4.368
 2113SOL    HW2 7239   2.010   0.311   4.455
 2114SOL     OW 7240   1.754   2.902   6.799
 2114SOL    HW1 7241   1.792   2.963   6.869
 2114SOL    HW2 7242   1.805   2.913   6.714
 2115SOL     OW 7243   0.486   5.510   3.058
 2115SOL    HW1 7244   0.387   5.495   3.060
 2115SOL    HW2 7245   0.505   5.601   3.021
 2116SOL     OW 7246   1.142   2.126   0.119
 2116SOL    HW1 7247   1.065   2.183   0.148
 2116SOL    HW2 7248   1.112   2.030   0.116
 2117SOL     OW 7249   5.764   1.611   2.202
 2117SOL    HW1 7250   5.712   1.595   2.119
 2117SOL    HW2 7251   5.702   1.637   2.276
 2118SOL     OW 7252   6.436   3.388   2.219
 2118SOL    HW1 7253   6.516   3.433   2.258
 2118SOL    HW2 7254   6.354   3.416   2.269
 2119SOL     OW 7255   2.477   0.223   6.802
 2119SOL    HW1 7256   2.521   0.194   6.887
 2119SOL    HW2 7257   2.538   0.205   6.725
 2120SOL     OW 7258   5.877   1.663   1.082
 2120SOL    HW1 7259   5.896   1.737   1.018
 2120SOL    HW2 7260   5.958   1.604   1.091
 2121SOL     OW 7261   2.064   1.349   5.873
 2121SOL    HW1 7262   2.102   1.409   5.802
 2121SOL    HW2 7263   2.097   1.256   5.858
 2122SOL     OW 7264   6.071   0.385   5.219
 2122SOL    HW1 7265   6.171   0.392   5.226
 2122SOL    HW2 7266   6.039   0.310   5.278
 2123SOL     OW 7267   1.140   6.293   2.876
 2123SOL    HW1 7268   1.169   6.382   2.840
 2123SOL    HW2 7269   1.111   6.234   2.801
 2124SOL     OW 7270   3.221   2.818   5.640
 2124SOL    HW1 7271   3.206   2.851   5.547
 2124SOL    HW2 7272   3.145   2.846   5.698
 2125SOL     OW 7273   1.654   5.737   3.318
 2125SOL    HW1 7274   1.707   5.741   3.233
 2125SOL    HW2 7275   1.679   5.814   3.376
 2126SOL     OW 7276   3.791   3.724   6.917
 2126SOL    HW1 7277   3.808   3.646   6.976
 2126SOL    HW2 7278   3.871   3.741   6.859
 2127SOL     OW 7279   0.537   2.996   5.957
 2127SOL    HW1 7280   0.600   2.946   6.016
 2127SOL    HW2 7281   0.444   2.967   5.976
 2128SOL     OW 7282   5.318   3.423   1.931
 2128SOL    HW1 7283   5.414   3.444   1.947
 2128SOL    HW2 7284   5.298   3.425   1.833
 2129SOL     OW 7285   5.480   4.621   3.894
 2129SOL    HW1 7286   5.549   4.558   3.859
 2129SOL    HW2 7287   5.437   4.670   3.818
 2130SOL     OW 7288   1.442   1.095   2.365
 2130SOL    HW1 7289   1.352   1.106   2.407
 2130SOL    HW2 7290   1.449   1.004   2.325
 2131SOL     OW 7291   5.438   1.857   5.859
 2131SOL    HW1 7292   5.427   1.817   5.950
 2131SOL    HW2 7293   5.401   1.950   5.859
 2132SOL     OW 7294   2.422   1.709   6.771
 2132SOL    HW1 7295   2.469   1.738   6.854
 2132SOL    HW2 7296   2.355   1.778   6.744
 2133SOL     OW 7297   2.253   1.674   1.758
 2133SOL    HW1 7298   2.352   1.655   1.756
 2133SOL    HW2 7299   2.229   1.710   1.848
 2134SOL     OW 7300   0.774   6.138   4.823
 2134SOL    HW1 7301   0.857   6.105   4.869
 2134SOL    HW2 7302   0.786   6.131   4.724
 2135SOL     OW 7303   0.497   1.061   3.395
 2135SOL    HW1 7304   0.470   1.134   3.458
 2135SOL    HW2 7305   0.596   1.048   3.400
 2136SOL     OW 7306   0.705   3.449   4.391
 2136SOL    HW1 7307   0.605   3.439   4.395
 2136SOL    HW2 7308   0.731   3.535   4.434
 2137SOL     OW 7309   1.246   7.005   5.373
 2137SOL    HW1 7310   1.261   6.913   5.408
 2137SOL    HW2 7311   1.173   7.005   5.305
 2138SOL     OW 7312   6.977   2.798   0.734
 2138SOL    HW1 7313   6.966   2.710   0.780
 2138SOL    HW2 7314   0.011   2.786   0.651
 2139SOL     OW 7315   3.329   0.543   4.697
 2139SOL    HW1 7316   3.317   0.603   4.618
 2139SOL    HW2 7317   3.383   0.590   4.766
 2140SOL     OW 7318   2.349   6.207   3.751
 2140SOL    HW1 7319   2.262   6.255   3.746
 2140SOL    HW2 7320   2.424   6.271   3.730
 2141SOL     OW 7321   5.991   2.423   0.978
 2141SOL    HW1 7322   6.021   2.349   1.038
 2141SOL    HW2 7323   5.892   2.418   0.965
 2142SOL     OW 7324   2.017   1.883   3.592
 2142SOL    HW1 7325   2.042   1.787   3.580
 2142SOL    HW2 7326   2.027   1.908   3.689
 2143SOL     OW 7327   3.313   0.153   1.588
 2143SOL    HW1 7328   3.336   0.238   1.636
 2143SOL    HW2 7329   3.256   0.096   1.647
 2144SOL     OW 7330   1.066   0.974   3.550
 2144SOL    HW1 7331   1.117   0.930   3.623
 2144SOL    HW2 7332   1.101   0.943   3.461
 2145SOL     OW 7333   3.646   5.407   3.898
 2145SOL    HW1 7334   3.607   5.443   3.814
 2145SOL    HW2 7335   3.581   5.417   3.973
 2146SOL     OW 7336   3.156   2.839   1.909
 2146SOL    HW1 7337   3.248   2.834   1.947
 2146SOL    HW2 7338   3.144   2.767   1.841
 2147SOL     OW 7339   0.508   1.547   6.242
 2147SOL    HW1 7340   0.468   1.488   6.173
 2147SOL    HW2 7341   0.584   1.501   6.287
 2148SOL     OW 7342   4.879   3.669   3.679
 2148SOL    HW1 7343   4.848   3.581   3.715
 2148SOL    HW2 7344   4.941   3.712   3.745
 2149SOL     OW 7345   3.800   1.106   1.932
 2149SOL    HW1 7346   3.769   1.170   1.861
 2149SOL    HW2 7347   3.886   1.064   1.905
 2150SOL     OW 7348   3.470   2.012   3.436
 2150SOL    HW1 7349   3.431   2.005   3.344
 2150SOL    HW2 7350   3.404   1.979   3.503
 2151SOL     OW 7351   3.855   2.547   5.646
 2151SOL    HW1 7352   3.783   2.596   5.694
 2151SOL    HW2 7353   3.861   2.581   5.552
 2152SOL     OW 7354   6.230   6.675   2.112
 2152SOL    HW1 7355   6.258   6.606   2.179
 2152SOL    HW2 7356   6.311   6.714   2.069
 2153SOL     OW 7357   4.509   1.666   3.805
 2153SOL    HW1 7358   4.489   1.587   3.863
 2153SOL    HW2 7359   4.587   1.645   3.746
 2154SOL     OW 7360   2.757   5.789   4.463
 2154SOL    HW1 7361   2.836   5.733   4.488
 2154SOL    HW2 7362   2.757   5.874   4.515
 2155SOL     OW 7363   1.460   4.174   0.397
 2155SOL    HW1 7364   1.373   4.125   0.393
 2155SOL    HW2 7365   1.535   4.110   0.377
 2156SOL     OW 7366   1.357   0.572   2.449
 2156SOL    HW1 7367   1.430   0.546   2.386
 2156SOL    HW2 7368   1.340   0.670   2.442
 2157SOL     OW 7369   0.088   1.245   5.017
 2157SOL    HW1 7370   0.088   1.146   5.023
 2157SOL    HW2 7371   0.100   1.284   5.108
 2158SOL     OW 7372   4.127   0.011   1.171
 2158SOL    HW1 7373   4.105   0.022   1.268
 2158SOL    HW2 7374   4.215   6.985   1.162
 2159SOL     OW 7375   1.591   6.872   4.700
 2159SOL    HW1 7376   1.674   6.924   4.720
 2159SOL    HW2 7377   1.517   6.901   4.761
 2160SOL     OW 7378   3.085   4.391   1.162
 2160SOL    HW1 7379   3.082   4.483   1.122
 2160SOL    HW2 7380   3.047   4.325   1.098
 2161SOL     OW 7381   4.857   3.411   3.766
 2161SOL    HW1 7382   4.850   3.405   3.865
 2161SOL    HW2 7383   4.836   3.321   3.726
 2162SOL     OW 7384   1.835   0.767   6.755
 2162SOL    HW1 7385   1.746   0.727   6.733
 2162SOL    HW2 7386   1.908   0.706   6.726
 2163SOL     OW 7387   1.558   0.846   0.412
 2163SOL    HW1 7388   1.538   0.851   0.314
 2163SOL    HW2 7389   1.533   0.756   0.447
 2164SOL     OW 7390   2.076   0.705   6.561
 2164SOL    HW1 7391   2.142   0.698   6.486
 2164SOL    HW2 7392   1.984   0.718   6.524
 2165SOL     OW 7393   1.701   0.226   2.983
 2165SOL    HW1 7394   1.742   0.146   3.026
 2165SOL    HW2 7395   1.603   0.210   2.969
 2166SOL     OW 7396   1.500   2.576   5.183
 2166SOL    HW1 7397   1.417   2.529   5.156
 2166SOL    HW2 7398   1.554   2.518   5.244
 2167SOL     OW 7399   3.601   0.669   2.033
 2167SOL    HW1 7400   3.679   0.643   2.091
 2167SOL    HW2 7401   3.602   0.767   2.019
 2168SOL     OW 7402   5.769   3.667   4.470
 2168SOL    HW1 7403   5.865   3.687   4.490
 2168SOL    HW2 7404   5.733   3.607   4.541
 2169SOL     OW 7405   4.905   2.612   6.319
 2169SOL    HW1 7406   4.905   2.515   6.344
 2169SOL    HW2 7407   4.811   2.645   6.316
 2170SOL     OW 7408   4.710   5.001   4.933
 2170SOL    HW1 7409   4.617   4.968   4.917
 2170SOL    HW2 7410   4.771   4.924   4.947
 2171SOL     OW 7411   6.684   3.470   0.293
 2171SOL    HW1 7412   6.731   3.513   0.216
 2171SOL    HW2 7413   6.625   3.397   0.259
 2172SOL     OW 7414   2.951   1.032   1.033
 2172SOL    HW1 7415   2.893   1.113   1.031
 2172SOL    HW2 7416   3.004   1.026   0.948
 2173SOL     OW 7417   4.958   1.497   5.305
 2173SOL    HW1 7418   4.868   1.494   5.349
 2173SOL    HW2 7419   5.008   1.413   5.327
 2174SOL     OW 7420   6.613   4.968   4.900
 2174SOL    HW1 7421   6.691   4.937   4.954
 2174SOL    HW2 7422   6.634   4.956   4.803
 2175SOL     OW 7423   2.786   0.315   3.940
 2175SOL    HW1 7424   2.786   0.345   4.036
 2175SOL    HW2 7425   2.740   0.383   3.884
 2176SOL     OW 7426   2.125   2.560   3.373
 2176SOL    HW1 7427   2.162   2.479   3.327
 2176SOL    HW2 7428   2.054   2.601   3.316
 2177SOL     OW 7429   0.458   2.191   0.731
 2177SOL    HW1 7430   0.439   2.129   0.655
 2177SOL    HW2 7431   0.410   2.277   0.717
 2178SOL     OW 7432   0.807   4.328   0.338
 2178SOL    HW1 7433   0.831   4.236   0.305
 2178SOL    HW2 7434   0.890   4.378   0.362
 2179SOL     OW 7435   1.567   5.163   4.504
 2179SOL    HW1 7436   1.666   5.161   4.509
 2179SOL    HW2 7437   1.529   5.191   4.592
 2180SOL     OW 7438   3.074   3.968   2.452
 2180SOL    HW1 7439   3.167   3.998   2.433
 2180SOL    HW2 7440   3.044   4.005   2.540
 2181SOL     OW 7441   5.197   5.831   5.712
 2181SOL    HW1 7442   5.279   5.887   5.703
 2181SOL    HW2 7443   5.211   5.761   5.783
 2182SOL     OW 7444   6.840   3.326   6.109
 2182SOL    HW1 7445   6.862   3.325   6.206
 2182SOL    HW2 7446   6.925   3.327   6.055
 2183SOL     OW 7447   3.195   2.581   0.516
 2183SOL    HW1 7448   3.137   2.629   0.451
 2183SOL    HW2 7449   3.267   2.642   0.549
 2184SOL     OW 7450   3.900   2.249   6.128
 2184SOL    HW1 7451   3.917   2.249   6.029
 2184SOL    HW2 7452   3.930   2.162   6.166
 2185SOL     OW 7453   1.795   0.639   1.163
 2185SOL    HW1 7454   1.864   0.710   1.181
 2185SOL    HW2 7455   1.711   0.681   1.129
 2186SOL     OW 7456   0.055   5.764   2.977
 2186SOL    HW1 7457   0.065   5.665   2.974
 2186SOL    HW2 7458   6.990   5.790   2.933
 2187SOL     OW 7459   6.460   1.714   0.406
 2187SOL    HW1 7460   6.490   1.661   0.485
 2187SOL    HW2 7461   6.385   1.667   0.360
 2188SOL     OW 7462   5.484   6.783   3.606
 2188SOL    HW1 7463   5.527   6.721   3.671
 2188SOL    HW2 7464   5.452   6.865   3.654
 2189SOL     OW 7465   2.263   6.814   5.883
 2189SOL    HW1 7466   2.343   6.871   5.905
 2189SOL    HW2 7467   2.180   6.870   5.890
 2190SOL     OW 7468   5.902   2.407   1.648
 2190SOL    HW1 7469   5.996   2.404   1.612
 2190SOL    HW2 7470   5.866   2.500   1.640
 2191SOL     OW 7471   3.344   2.930   6.542
 2191SOL    HW1 7472   3.404   2.942   6.621
 2191SOL    HW2 7473   3.259   2.981   6.556
 2192SOL     OW 7474   4.455   5.695   5.213
 2192SOL    HW1 7475   4.500   5.664   5.297
 2192SOL    HW2 7476   4.525   5.721   5.146
 2193SOL     OW 7477   0.755   5.245   5.503
 2193SOL    HW1 7478   0.772   5.247   5.404
 2193SOL    HW2 7479   0.671   5.295   5.523
 2194SOL     OW 7480   2.444   6.396   1.014
 2194SOL    HW1 7481   2.533   6.401   0.968
 2194SOL    HW2 7482   2.454   6.352   1.103
 2195SOL     OW 7483   1.306   5.361   2.916
 2195SOL    HW1 7484   1.250   5.286   2.949
 2195SOL    HW2 7485   1.341   5.414   2.994
 2196SOL     OW 7486   3.407   1.901   6.145
 2196SOL    HW1 7487   3.466   1.953   6.205
 2196SOL    HW2 7488   3.452   1.887   6.057
 2197SOL     OW 7489   4.884   4.985   1.547
 2197SOL    HW1 7490   4.905   4.891   1.521
 2197SOL    HW2 7491   4.787   5.004   1.528
 2198SOL     OW 7492   6.548   4.149   0.297
 2198SOL    HW1 7493   6.476   4.164   0.229
 2198SOL    HW2 7494   6.621   4.215   0.283
 2199SOL     OW 7495   4.398   0.016   1.419
 2199SOL    HW1 7496   4.433   0.080   1.351
 2199SOL    HW2 7497   4.313   0.053   1.459
 2200SOL     OW 7498   3.805   0.813   4.544
 2200SOL    HW1 7499   3.715   0.790   4.582
 2200SOL    HW2 7500   3.803   0.798   4.445
 2201SOL     OW 7501   5.776   3.342   2.161
 2201SOL    HW1 7502   5.815   3.265   2.211
 2201SOL    HW2 7503   5.849   3.387   2.108
 2202SOL     OW 7504   4.399   5.635   3.679
 2202SOL    HW1 7505   4.360   5.553   3.638
 2202SOL    HW2 7506   4.483   5.660   3.630
 2203SOL     OW 7507   3.709   1.929   3.319
 2203SOL    HW1 7508   3.617   1.955   3.347
 2203SOL    HW2 7509   3.706   1.839   3.276
 2204SOL     OW 7510   3.276   2.131   0.349
 2204SOL    HW1 7511   3.303   2.177   0.434
 2204SOL    HW2 7512   3.286   2.032   0.360
 2205SOL     OW 7513   3.035   0.017   0.875
 2205SOL    HW1 7514   3.100   6.964   0.861
 2205SOL    HW2 7515   2.969   7.012   0.946
 2206SOL     OW 7516   2.902   2.865   0.097
 2206SOL    HW1 7517   2.859   2.923   0.166
 2206SOL    HW2 7518   2.833   2.807   0.053
 2207SOL     OW 7519   1.140   4.488   6.297
 2207SOL    HW1 7520   1.105   4.426   6.226
 2207SOL    HW2 7521   1.074   4.492   6.372
 2208SOL     OW 7522   0.683   3.642   1.733
 2208SOL    HW1 7523   0.585   3.622   1.744
 2208SOL    HW2 7524   0.700   3.672   1.639
 2209SOL     OW 7525   1.062   5.581   6.336
 2209SOL    HW1 7526   0.986   5.604   6.277
 2209SOL    HW2 7527   1.079   5.482   6.333
 2210SOL     OW 7528   0.984   5.999   4.259
 2210SOL    HW1 7529   1.044   5.919   4.249
 2210SOL    HW2 7530   1.000   6.063   4.185
 2211SOL     OW 7531   5.984   1.193   5.714
 2211SOL    HW1 7532   5.923   1.182   5.636
 2211SOL    HW2 7533   6.059   1.254   5.690
 2212SOL     OW 7534   1.522   0.626   6.367
 2212SOL    HW1 7535   1.577   0.573   6.301
 2212SOL    HW2 7536   1.521   0.578   6.455
 2213SOL     OW 7537   3.913   2.007   3.491
 2213SOL    HW1 7538   3.840   1.959   3.444
 2213SOL    HW2 7539   4.001   1.964   3.470
 2214SOL     OW 7540   5.185   0.040   4.760
 2214SOL    HW1 7541   5.267   7.018   4.798
 2214SOL    HW2 7542   5.199   0.055   4.662
 2215SOL     OW 7543   6.569   2.589   4.945
 2215SOL    HW1 7544   6.641   2.519   4.953
 2215SOL    HW2 7545   6.605   2.667   4.893
 2216SOL     OW 7546   1.551   6.573   1.070
 2216SOL    HW1 7547   1.547   6.485   1.118
 2216SOL    HW2 7548   1.630   6.625   1.101
 2217SOL     OW 7549   4.082   0.089   1.436
 2217SOL    HW1 7550   4.028   0.170   1.414
 2217SOL    HW2 7551   4.070   0.067   1.533
 2218SOL     OW 7552   0.538   5.707   6.907
 2218SOL    HW1 7553   0.443   5.688   6.882
 2218SOL    HW2 7554   0.595   5.629   6.880
 2219SOL     OW 7555   2.070   3.751   3.008
 2219SOL    HW1 7556   2.085   3.663   3.053
 2219SOL    HW2 7557   2.010   3.738   2.929
 2220SOL     OW 7558   0.369   1.449   6.014
 2220SOL    HW1 7559   0.396   1.411   5.926
 2220SOL    HW2 7560   0.272   1.475   6.011
 2221SOL     OW 7561   6.400   2.229   1.444
 2221SOL    HW1 7562   6.303   2.217   1.427
 2221SOL    HW2 7563   6.425   2.325   1.431
 2222SOL     OW 7564   4.702   6.663   2.208
 2222SOL    HW1 7565   4.672   6.573   2.175
 2222SOL    HW2 7566   4.801   6.673   2.191
 2223SOL     OW 7567   5.899   5.450   3.612
 2223SOL    HW1 7568   5.999   5.445   3.617
 2223SOL    HW2 7569   5.863   5.361   3.585
 2224SOL     OW 7570   1.809   4.617   1.418
 2224SOL    HW1 7571   1.861   4.617   1.503
 2224SOL    HW2 7572   1.711   4.609   1.439
 2225SOL     OW 7573   6.199   4.976   2.228
 2225SOL    HW1 7574   6.140   4.896   2.245
 2225SOL    HW2 7575   6.182   5.045   2.299
 2226SOL     OW 7576   3.576   3.976   0.762
 2226SOL    HW1 7577   3.631   4.026   0.829
 2226SOL    HW2 7578   3.586   3.877   0.777
 2227SOL     OW 7579   6.570   4.015   5.381
 2227SOL    HW1 7580   6.619   4.020   5.468
 2227SOL    HW2 7581   6.605   3.938   5.328
 2228SOL     OW 7582   3.111   4.590   6.035
 2228SOL    HW1 7583   3.151   4.633   6.116
 2228SOL    HW2 7584   3.141   4.639   5.953
 2229SOL     OW 7585   4.284   0.756   3.503
 2229SOL    HW1 7586   4.367   0.771   3.449
 2229SOL    HW2 7587   4.238   0.844   3.519
 2230SOL     OW 7588   1.231   6.604   6.261
 2230SOL    HW1 7589   1.154   6.668   6.266
 2230SOL    HW2 7590   1.214   6.527   6.322
 2231SOL     OW 7591   2.149   0.044   2.090
 2231SOL    HW1 7592   2.099   0.118   2.045
 2231SOL    HW2 7593   2.131   0.047   2.188
 2232SOL     OW 7594   6.323   2.496   2.174
 2232SOL    HW1 7595   6.237   2.534   2.208
 2232SOL    HW2 7596   6.370   2.450   2.249
 2233SOL     OW 7597   3.745   0.050   0.090
 2233SOL    HW1 7598   3.802   0.131   0.110
 2233SOL    HW2 7599   3.799   7.005   0.038
 2234SOL     OW 7600   3.737   1.306   0.624
 2234SOL    HW1 7601   3.714   1.244   0.699
 2234SOL    HW2 7602   3.719   1.400   0.651
 2235SOL     OW 7603   1.138   6.743   0.790
 2235SOL    HW1 7604   1.186   6.664   0.829
 2235SOL    HW2 7605   1.180   6.827   0.824
 2236SOL     OW 7606   0.546   3.937   1.173
 2236SOL    HW1 7607   0.458   3.982   1.160
 2236SOL    HW2 7608   0.598   3.939   1.087
 2237SOL     OW 7609   5.885   2.742   4.456
 2237SOL    HW1 7610   5.796   2.707   4.427
 2237SOL    HW2 7611   5.917   2.811   4.390
 2238SOL     OW 7612   0.692   5.611   2.116
 2238SOL    HW1 7613   0.737   5.567   2.038
 2238SOL    HW2 7614   0.593   5.612   2.102
 2239SOL     OW 7615   4.336   5.195   3.076
 2239SOL    HW1 7616   4.318   5.273   3.016
 2239SOL    HW2 7617   4.249   5.155   3.105
 2240SOL     OW 7618   5.604   4.870   2.534
 2240SOL    HW1 7619   5.625   4.883   2.630
 2240SOL    HW2 7620   5.506   4.884   2.519
 2241SOL     OW 7621   0.374   6.933   2.096
 2241SOL    HW1 7622   0.404   6.985   2.016
 2241SOL    HW2 7623   0.276   6.918   2.092
 2242SOL     OW 7624   4.839   2.025   3.246
 2242SOL    HW1 7625   4.772   2.054   3.178
 2242SOL    HW2 7626   4.915   2.090   3.248
 2243SOL     OW 7627   2.356   5.996   4.797
 2243SOL    HW1 7628   2.406   6.082   4.805
 2243SOL    HW2 7629   2.290   6.003   4.722
 2244SOL     OW 7630   2.720   0.874   4.466
 2244SOL    HW1 7631   2.677   0.856   4.378
 2244SOL    HW2 7632   2.817   0.892   4.453
 2245SOL     OW 7633   1.015   1.044   2.262
 2245SOL    HW1 7634   1.013   0.944   2.259
 2245SOL    HW2 7635   1.071   1.079   2.186
 2246SOL     OW 7636   0.824   4.211   5.994
 2246SOL    HW1 7637   0.763   4.267   5.939
 2246SOL    HW2 7638   0.919   4.237   5.976
 2247SOL     OW 7639   2.431   2.567   6.351
 2247SOL    HW1 7640   2.384   2.602   6.270
 2247SOL    HW2 7641   2.522   2.609   6.357
 2248SOL     OW 7642   4.741   3.635   5.742
 2248SOL    HW1 7643   4.656   3.660   5.697
 2248SOL    HW2 7644   4.800   3.716   5.749
 2249SOL     OW 7645   5.224   5.928   3.700
 2249SOL    HW1 7646   5.132   5.896   3.720
 2249SOL    HW2 7647   5.278   5.853   3.662
 2250SOL     OW 7648   0.193   4.384   0.727
 2250SOL    HW1 7649   0.200   4.390   0.826
 2250SOL    HW2 7650   0.098   4.398   0.699
 2251SOL     OW 7651   5.454   0.984   0.116
 2251SOL    HW1 7652   5.362   0.962   0.081
 2251SOL    HW2 7653   5.446   1.051   0.190
 2252SOL     OW 7654   4.778   2.461   5.467
 2252SOL    HW1 7655   4.706   2.397   5.442
 2252SOL    HW2 7656   4.745   2.555   5.453
 2253SOL     OW 7657   2.575   3.163   0.420
 2253SOL    HW1 7658   2.530   3.116   0.496
 2253SOL    HW2 7659   2.505   3.194   0.355
 2254SOL     OW 7660   2.802   4.019   6.361
 2254SOL    HW1 7661   2.764   4.091   6.303
 2254SOL    HW2 7662   2.758   3.932   6.340
 2255SOL     OW 7663   6.071   2.715   1.783
 2255SOL    HW1 7664   6.127   2.798   1.789
 2255SOL    HW2 7665   6.121   2.645   1.732
 2256SOL     OW 7666   4.487   4.864   1.918
 2256SOL    HW1 7667   4.534   4.777   1.930
 2256SOL    HW2 7668   4.549   4.929   1.872
 2257SOL     OW 7669   1.754   4.224   3.935
 2257SOL    HW1 7670   1.796   4.315   3.929
 2257SOL    HW2 7671   1.703   4.217   4.021
 2258SOL     OW 7672   1.769   5.537   4.441
 2258SOL    HW1 7673   1.693   5.502   4.386
 2258SOL    HW2 7674   1.755   5.511   4.537
 2259SOL     OW 7675   4.939   4.000   6.773
 2259SOL    HW1 7676   4.908   3.951   6.854
 2259SOL    HW2 7677   5.026   3.961   6.743
 2260SOL     OW 7678   5.641   5.137   1.397
 2260SOL    HW1 7679   5.664   5.095   1.485
 2260SOL    HW2 7680   5.719   5.127   1.335
 2261SOL     OW 7681   5.446   6.855   0.089
 2261SOL    HW1 7682   5.529   6.858   0.034
 2261SOL    HW2 7683   5.470   6.855   0.186
 2262SOL     OW 7684   4.828   2.031   3.736
 2262SOL    HW1 7685   4.781   2.028   3.824
 2262SOL    HW2 7686   4.762   2.021   3.661
 2263SOL     OW 7687   1.052   5.347   5.608
 2263SOL    HW1 7688   0.989   5.270   5.612
 2263SOL    HW2 7689   1.145   5.315   5.591
 2264SOL     OW 7690   3.363   3.350   4.531
 2264SOL    HW1 7691   3.369   3.273   4.467
 2264SOL    HW2 7692   3.318   3.427   4.486
 2265SOL     OW 7693   6.916   0.062   1.756
 2265SOL    HW1 7694   6.819   0.085   1.750
 2265SOL    HW2 7695   6.969   0.118   1.692
 2266SOL     OW 7696   6.042   0.343   0.387
 2266SOL    HW1 7697   6.068   0.271   0.452
 2266SOL    HW2 7698   6.114   0.354   0.319
 2267SOL     OW 7699   6.392   2.677   5.738
 2267SOL    HW1 7700   6.411   2.645   5.831
 2267SOL    HW2 7701   6.294   2.670   5.720
 2268SOL     OW 7702   0.059   5.973   6.493
 2268SOL    HW1 7703   0.052   5.933   6.402
 2268SOL    HW2 7704   7.015   5.928   6.554
 2269SOL     OW 7705   6.508   5.239   5.788
 2269SOL    HW1 7706   6.513   5.217   5.691
 2269SOL    HW2 7707   6.578   5.308   5.810
 2270SOL     OW 7708   4.089   3.283   2.190
 2270SOL    HW1 7709   4.024   3.213   2.159
 2270SOL    HW2 7710   4.125   3.333   2.111
 2271SOL     OW 7711   6.446   4.837   2.184
 2271SOL    HW1 7712   6.455   4.807   2.089
 2271SOL    HW2 7713   6.354   4.872   2.199
 2272SOL     OW 7714   5.837   1.956   5.759
 2272SOL    HW1 7715   5.765   2.017   5.724
 2272SOL    HW2 7716   5.814   1.861   5.738
 2273SOL     OW 7717   0.688   1.495   3.070
 2273SOL    HW1 7718   0.736   1.582   3.074
 2273SOL    HW2 7719   0.643   1.478   3.158
 2274SOL     OW 7720   0.981   3.354   4.057
 2274SOL    HW1 7721   0.971   3.260   4.092
 2274SOL    HW2 7722   0.914   3.413   4.102
 2275SOL     OW 7723   5.162   6.721   3.965
 2275SOL    HW1 7724   5.104   6.746   4.042
 2275SOL    HW2 7725   5.120   6.752   3.880
 2276SOL     OW 7726   3.989   4.595   1.648
 2276SOL    HW1 7727   3.979   4.502   1.683
 2276SOL    HW2 7728   4.030   4.592   1.557
 2277SOL     OW 7729   3.520   3.227   0.063
 2277SOL    HW1 7730   3.495   3.237   0.159
 2277SOL    HW2 7731   3.564   3.311   0.031
 2278SOL     OW 7732   5.275   5.860   1.545
 2278SOL    HW1 7733   5.317   5.773   1.517
 2278SOL    HW2 7734   5.262   5.918   1.465
 2279SOL     OW 7735   5.617   3.478   4.576
 2279SOL    HW1 7736   5.620   3.388   4.532
 2279SOL    HW2 7737   5.596   3.466   4.673
 2280SOL     OW 7738   6.065   6.348   6.365
 2280SOL    HW1 7739   6.138   6.364   6.431
 2280SOL    HW2 7740   6.050   6.430   6.311
 2281SOL     OW 7741   4.006   2.237   1.162
 2281SOL    HW1 7742   3.991   2.200   1.254
 2281SOL    HW2 7743   3.923   2.225   1.108
 2282SOL     OW 7744   4.747   5.738   2.869
 2282SOL    HW1 7745   4.766   5.641   2.856
 2282SOL    HW2 7746   4.833   5.789   2.868
 2283SOL     OW 7747   0.025   2.958   3.322
 2283SOL    HW1 7748   0.120   2.927   3.315
 2283SOL    HW2 7749   6.999   2.902   3.389
 2284SOL     OW 7750   2.123   2.701   1.692
 2284SOL    HW1 7751   2.086   2.702   1.599
 2284SOL    HW2 7752   2.221   2.678   1.689
 2285SOL     OW 7753   1.819   3.915   0.857
 2285SOL    HW1 7754   1.888   3.853   0.821
 2285SOL    HW2 7755   1.858   3.967   0.934
 2286SOL     OW 7756   6.668   6.475   4.970
 2286SOL    HW1 7757   6.660   6.458   4.872
 2286SOL    HW2 7758   6.652   6.572   4.990
 2287SOL     OW 7759   2.076   2.514   1.962
 2287SOL    HW1 7760   2.069   2.586   2.031
 2287SOL    HW2 7761   2.083   2.555   1.872
 2288SOL     OW 7762   0.019   6.349   3.603
 2288SOL    HW1 7763   0.071   6.276   3.648
 2288SOL    HW2 7764   6.976   6.309   3.538
 2289SOL     OW 7765   5.579   1.747   2.366
 2289SOL    HW1 7766   5.501   1.748   2.303
 2289SOL    HW2 7767   5.545   1.758   2.460
 2290SOL     OW 7768   3.034   3.057   2.396
 2290SOL    HW1 7769   2.949   3.035   2.349
 2290SOL    HW2 7770   3.032   3.153   2.425
 2291SOL     OW 7771   1.780   2.804   0.578
 2291SOL    HW1 7772   1.729   2.718   0.574
 2291SOL    HW2 7773   1.874   2.786   0.608
 2292SOL     OW 7774   4.451   2.139   3.498
 2292SOL    HW1 7775   4.410   2.170   3.584
 2292SOL    HW2 7776   4.547   2.114   3.514
 2293SOL     OW 7777   6.271   1.533   6.886
 2293SOL    HW1 7778   6.243   1.621   6.924
 2293SOL    HW2 7779   6.307   1.475   6.958
 2294SOL     OW 7780   1.119   2.102   6.078
 2294SOL    HW1 7781   1.201   2.053   6.046
 2294SOL    HW2 7782   1.132   2.200   6.063
 2295SOL     OW 7783   6.060   6.830   1.812
 2295SOL    HW1 7784   6.117   6.794   1.739
 2295SOL    HW2 7785   6.063   6.768   1.891
 2296SOL     OW 7786   2.658   5.640   3.919
 2296SOL    HW1 7787   2.747   5.628   3.875
 2296SOL    HW2 7788   2.656   5.587   4.004
 2297SOL     OW 7789   4.112   4.624   5.330
 2297SOL    HW1 7790   4.153   4.573   5.254
 2297SOL    HW2 7791   4.183   4.650   5.395
 2298SOL     OW 7792   3.759   3.394   4.988
 2298SOL    HW1 7793   3.679   3.454   4.990
 2298SOL    HW2 7794   3.748   3.321   5.056
 2299SOL     OW 7795   5.352   2.887   4.835
 2299SOL    HW1 7796   5.308   2.973   4.809
 2299SOL    HW2 7797   5.413   2.857   4.761
 2300SOL     OW 7798   3.741   6.317   2.250
 2300SOL    HW1 7799   3.780   6.397   2.205
 2300SOL    HW2 7800   3.644   6.308   2.224
 2301SOL     OW 7801   3.560   3.594   5.022
 2301SOL    HW1 7802   3.573   3.688   5.054
 2301SOL    HW2 7803   3.474   3.559   5.059
 2302SOL     OW 7804   4.964   2.499   0.435
 2302SOL    HW1 7805   4.877   2.539   0.462
 2302SOL    HW2 7806   4.953   2.455   0.345
 2303SOL     OW 7807   3.295   2.249   1.033
 2303SOL    HW1 7808   3.206   2.277   1.070
 2303SOL    HW2 7809   3.325   2.165   1.079
 2304SOL     OW 7810   6.001   5.939   2.061
 2304SOL    HW1 7811   5.928   5.986   2.012
 2304SOL    HW2 7812   6.035   5.863   2.005
 2305SOL     OW 7813   1.736   1.121   5.254
 2305SOL    HW1 7814   1.677   1.201   5.243
 2305SOL    HW2 7815   1.728   1.062   5.174
 2306SOL     OW 7816   2.072   5.251   3.610
 2306SOL    HW1 7817   2.063   5.345   3.645
 2306SOL    HW2 7818   2.102   5.254   3.515
 2307SOL     OW 7819   0.681   2.245   5.457
 2307SOL    HW1 7820   0.740   2.323   5.479
 2307SOL    HW2 7821   0.694   2.173   5.525
 2308SOL     OW 7822   2.518   4.405   1.508
 2308SOL    HW1 7823   2.598   4.395   1.568
 2308SOL    HW2 7824   2.470   4.490   1.531
 2309SOL     OW 7825   1.780   6.416   4.884
 2309SOL    HW1 7826   1.708   6.349   4.900
 2309SOL    HW2 7827   1.741   6.498   4.841
 2310SOL     OW 7828   4.826   6.575   1.646
 2310SOL    HW1 7829   4.906   6.515   1.642
 2310SOL    HW2 7830   4.851   6.658   1.697
 2311SOL     OW 7831   2.487   6.245   1.275
 2311SOL    HW1 7832   2.537   6.159   1.275
 2311SOL    HW2 7833   2.391   6.228   1.253
 2312SOL     OW 7834   3.415   4.925   2.883
 2312SOL    HW1 7835   3.479   4.921   2.806
 2312SOL    HW2 7836   3.322   4.933   2.847
 2313SOL     OW 7837   4.923   5.069   2.339
 2313SOL    HW1 7838   5.020   5.084   2.317
 2313SOL    HW2 7839   4.916   5.017   2.424
 2314SOL     OW 7840   2.935   5.977   4.031
 2314SOL    HW1 7841   2.998   5.907   3.995
 2314SOL    HW2 7842   2.852   5.978   3.975
 2315SOL     OW 7843   3.972   3.458   0.060
 2315SOL    HW1 7844   4.068   3.457   0.032
 2315SOL    HW2 7845   3.916   3.426   7.005
 2316SOL     OW 7846   5.485   3.016   3.073
 2316SOL    HW1 7847   5.501   3.114   3.081
 2316SOL    HW2 7848   5.525   2.982   2.988
 2317SOL     OW 7849   1.573   4.556   3.196
 2317SOL    HW1 7850   1.624   4.523   3.116
 2317SOL    HW2 7851   1.591   4.497   3.274
 2318SOL     OW 7852   0.135   0.946   3.813
 2318SOL    HW1 7853   0.227   0.962   3.777
 2318SOL    HW2 7854   0.110   0.850   3.800
 2319SOL     OW 7855   1.597   3.875   3.943
 2319SOL    HW1 7856   1.532   3.945   3.911
 2319SOL    HW2 7857   1.599   3.876   4.043
 2320SOL     OW 7858   0.103   2.918   4.587
 2320SOL    HW1 7859   0.122   2.820   4.585
 2320SOL    HW2 7860   0.018   2.935   4.636
 2321SOL     OW 7861   2.909   6.640   5.137
 2321SOL    HW1 7862   2.847   6.671   5.065
 2321SOL    HW2 7863   2.997   6.687   5.127
 2322SOL     OW 7864   2.128   0.399   4.896
 2322SOL    HW1 7865   2.113   0.327   4.964
 2322SOL    HW2 7866   2.079   0.481   4.924
 2323SOL     OW 7867   4.449   5.606   1.929
 2323SOL    HW1 7868   4.472   5.561   2.016
 2323SOL    HW2 7869   4.529   5.657   1.896
 2324SOL     OW 7870   0.093   5.365   3.321
 2324SOL    HW1 7871   0.145   5.335   3.400
 2324SOL    HW2 7872   0.137   5.444   3.279
 2325SOL     OW 7873   0.310   3.300   0.963
 2325SOL    HW1 7874   0.318   3.345   1.052
 2325SOL    HW2 7875   0.379   3.228   0.955
 2326SOL     OW 7876   1.303   5.321   6.626
 2326SOL    HW1 7877   1.326   5.416   6.606
 2326SOL    HW2 7878   1.366   5.285   6.695
 2327SOL     OW 7879   4.799   2.612   4.287
 2327SOL    HW1 7880   4.766   2.702   4.317
 2327SOL    HW2 7881   4.781   2.601   4.189
 2328SOL     OW 7882   4.556   0.294   3.584
 2328SOL    HW1 7883   4.629   0.226   3.578
 2328SOL    HW2 7884   4.542   0.338   3.495
 2329SOL     OW 7885   1.016   6.217   3.867
 2329SOL    HW1 7886   0.931   6.165   3.862
 2329SOL    HW2 7887   0.996   6.310   3.897
 2330SOL     OW 7888   0.388   4.240   2.799
 2330SOL    HW1 7889   0.291   4.235   2.823
 2330SOL    HW2 7890   0.414   4.335   2.783
 2331SOL     OW 7891   0.816   4.604   5.165
 2331SOL    HW1 7892   0.896   4.550   5.140
 2331SOL    HW2 7893   0.738   4.576   5.110
 2332SOL     OW 7894   5.742   2.463   6.156
 2332SOL    HW1 7895   5.796   2.516   6.222
 2332SOL    HW2 7896   5.804   2.417   6.092
 2333SOL     OW 7897   1.003   5.904   3.589
 2333SOL    HW1 7898   1.043   5.995   3.600
 2333SOL    HW2 7899   1.075   5.835   3.586
 2334SOL     OW 7900   3.068   6.812   6.677
 2334SOL    HW1 7901   3.144   6.773   6.625
 2334SOL    HW2 7902   3.101   6.844   6.766
 2335SOL     OW 7903   5.448   6.794   4.209
 2335SOL    HW1 7904   5.362   6.825   4.249
 2335SOL    HW2 7905   5.514   6.869   4.207
 2336SOL     OW 7906   5.298   1.626   5.714
 2336SOL    HW1 7907   5.333   1.551   5.770
 2336SOL    HW2 7908   5.351   1.708   5.731
 2337SOL     OW 7909   5.310   0.071   3.265
 2337SOL    HW1 7910   5.303   0.128   3.184
 2337SOL    HW2 7911   5.330   0.129   3.345
 2338SOL     OW 7912   0.742   6.694   6.830
 2338SOL    HW1 7913   0.785   6.720   6.743
 2338SOL    HW2 7914   0.653   6.653   6.812
 2339SOL     OW 7915   3.507   4.039   0.287
 2339SOL    HW1 7916   3.480   4.133   0.270
 2339SOL    HW2 7917   3.570   4.036   0.365
 2340SOL     OW 7918   3.379   5.451   4.538
 2340SOL    HW1 7919   3.365   5.431   4.635
 2340SOL    HW2 7920   3.341   5.376   4.483
 2341SOL     OW 7921   5.263   5.154   0.715
 2341SOL    HW1 7922   5.328   5.079   0.723
 2341SOL    HW2 7923   5.191   5.144   0.783
 2342SOL     OW 7924   6.332   0.459   5.347
 2342SOL    HW1 7925   6.330   0.419   5.438
 2342SOL    HW2 7926   6.351   0.557   5.354
 2343SOL     OW 7927   1.334   6.538   1.235
 2343SOL    HW1 7928   1.253   6.499   1.279
 2343SOL    HW2 7929   1.349   6.631   1.269
 2344SOL     OW 7930   2.075   2.366   2.660
 2344SOL    HW1 7931   2.164   2.354   2.705
 2344SOL    HW2 7932   2.057   2.463   2.647
 2345SOL     OW 7933   1.925   1.254   4.447
 2345SOL    HW1 7934   1.989   1.244   4.524
 2345SOL    HW2 7935   1.954   1.331   4.390
 2346SOL     OW 7936   5.345   3.938   5.698
 2346SOL    HW1 7937   5.359   4.036   5.712
 2346SOL    HW2 7938   5.267   3.908   5.752
 2347SOL     OW 7939   1.324   3.037   1.750
 2347SOL    HW1 7940   1.349   2.997   1.838
 2347SOL    HW2 7941   1.281   3.126   1.766
 2348SOL     OW 7942   2.525   6.599   2.273
 2348SOL    HW1 7943   2.512   6.512   2.321
 2348SOL    HW2 7944   2.437   6.632   2.240
 2349SOL     OW 7945   5.803   6.186   5.463
 2349SOL    HW1 7946   5.878   6.226   5.515
 2349SOL    HW2 7947   5.837   6.150   5.376
 2350SOL     OW 7948   2.498   0.089   6.188
 2350SOL    HW1 7949   2.504   0.188   6.196
 2350SOL    HW2 7950   2.586   0.047   6.211
 2351SOL     OW 7951   2.313   5.650   4.338
 2351SOL    HW1 7952   2.250   5.596   4.394
 2351SOL    HW2 7953   2.404   5.651   4.382
 2352SOL     OW 7954   0.695   3.016   2.803
 2352SOL    HW1 7955   0.691   2.918   2.825
 2352SOL    HW2 7956   0.618   3.063   2.846
 2353SOL     OW 7957   3.311   4.893   5.591
 2353SOL    HW1 7958   3.263   4.907   5.677
 2353SOL    HW2 7959   3.292   4.968   5.529
 2354SOL     OW 7960   3.917   2.350   0.681
 2354SOL    HW1 7961   3.904   2.437   0.728
 2354SOL    HW2 7962   3.885   2.275   0.739
 2355SOL     OW 7963   0.126   6.415   0.952
 2355SOL    HW1 7964   0.226   6.419   0.952
 2355SOL    HW2 7965   0.092   6.445   1.041
 2356SOL     OW 7966   2.649   5.008   3.552
 2356SOL    HW1 7967   2.718   4.935   3.556
 2356SOL    HW2 7968   2.645   5.044   3.459
 2357SOL     OW 7969   6.716   4.149   1.607
 2357SOL    HW1 7970   6.617   4.149   1.595
 2357SOL    HW2 7971   6.750   4.055   1.602
 2358SOL     OW 7972   3.622   2.235   6.048
 2358SOL    HW1 7973   3.721   2.238   6.034
 2358SOL    HW2 7974   3.576   2.236   5.959
 2359SOL     OW 7975   1.295   1.865   5.624
 2359SOL    HW1 7976   1.391   1.843   5.642
 2359SOL    HW2 7977   1.238   1.787   5.651
 2360SOL     OW 7978   3.950   4.746   0.860
 2360SOL    HW1 7979   3.859   4.771   0.827
 2360SOL    HW2 7980   3.996   4.828   0.893
 2361SOL     OW 7981   3.466   6.225   1.776
 2361SOL    HW1 7982   3.548   6.200   1.827
 2361SOL    HW2 7983   3.393   6.250   1.840
 2362SOL     OW 7984   4.024   5.766   3.975
 2362SOL    HW1 7985   3.985   5.819   3.899
 2362SOL    HW2 7986   4.100   5.710   3.941
 2363SOL     OW 7987   3.510   3.629   0.593
 2363SOL    HW1 7988   3.549   3.681   0.517
 2363SOL    HW2 7989   3.548   3.663   0.679
 2364SOL     OW 7990   4.817   1.689   1.943
 2364SOL    HW1 7991   4.751   1.665   2.014
 2364SOL    HW2 7992   4.794   1.642   1.859
 2365SOL     OW 7993   5.344   3.714   4.302
 2365SOL    HW1 7994   5.350   3.715   4.401
 2365SOL    HW2 7995   5.276   3.782   4.272
 2366SOL     OW 7996   2.421   4.682   5.208
 2366SOL    HW1 7997   2.515   4.711   5.188
 2366SOL    HW2 7998   2.381   4.743   5.276
 2367SOL     OW 7999   0.716   4.399   5.860
 2367SOL    HW1 8000   0.778   4.356   5.794
 2367SOL    HW2 8001   0.656   4.463   5.812
 2368SOL     OW 8002   5.612   6.484   4.356
 2368SOL    HW1 8003   5.527   6.490   4.410
 2368SOL    HW2 8004   5.591   6.452   4.264
 2369SOL     OW 8005   3.091   1.803   3.643
 2369SOL    HW1 8006   3.038   1.786   3.560
 2369SOL    HW2 8007   3.187   1.818   3.620
 2370SOL     OW 8008   5.492   2.434   1.737
 2370SOL    HW1 8009   5.543   2.465   1.817
 2370SOL    HW2 8010   5.401   2.404   1.765
 2371SOL     OW 8011   0.849   6.883   3.034
 2371SOL    HW1 8012   0.763   6.919   2.997
 2371SOL    HW2 8013   0.854   6.902   3.132
 2372SOL     OW 8014   6.351   1.232   5.883
 2372SOL    HW1 8015   6.276   1.286   5.922
 2372SOL    HW2 8016   6.438   1.279   5.901
 2373SOL     OW 8017   6.005   6.505   5.908
 2373SOL    HW1 8018   6.085   6.542   5.862
 2373SOL    HW2 8019   6.024   6.412   5.939
 2374SOL     OW 8020   5.970   5.916   2.611
 2374SOL    HW1 8021   5.984   6.002   2.562
 2374SOL    HW2 8022   5.874   5.888   2.603
 2375SOL     OW 8023   1.109   0.799   4.127
 2375SOL    HW1 8024   1.132   0.719   4.071
 2375SOL    HW2 8025   1.179   0.811   4.198
 2376SOL     OW 8026   6.198   1.639   2.961
 2376SOL    HW1 8027   6.175   1.732   2.931
 2376SOL    HW2 8028   6.130   1.575   2.926
 2377SOL     OW 8029   3.929   4.832   5.870
 2377SOL    HW1 8030   3.937   4.775   5.952
 2377SOL    HW2 8031   3.833   4.847   5.849
 2378SOL     OW 8032   0.045   1.042   7.001
 2378SOL    HW1 8033   0.062   1.125   0.033
 2378SOL    HW2 8034   6.995   1.059   6.934
 2379SOL     OW 8035   6.548   5.327   1.383
 2379SOL    HW1 8036   6.635   5.352   1.426
 2379SOL    HW2 8037   6.547   5.358   1.288
 2380SOL     OW 8038   4.920   4.818   4.950
 2380SOL    HW1 8039   4.960   4.799   5.040
 2380SOL    HW2 8040   4.956   4.753   4.883
 2381SOL     OW 8041   3.176   5.248   4.734
 2381SOL    HW1 8042   3.125   5.185   4.675
 2381SOL    HW2 8043   3.130   5.255   4.822
 2382SOL     OW 8044   1.204   6.058   1.499
 2382SOL    HW1 8045   1.151   5.995   1.556
 2382SOL    HW2 8046   1.148   6.087   1.421
 2383SOL     OW 8047   5.207   5.755   5.126
 2383SOL    HW1 8048   5.195   5.824   5.198
 2383SOL    HW2 8049   5.281   5.782   5.065
 2384SOL     OW 8050   0.748   2.115   1.780
 2384SOL    HW1 8051   0.690   2.044   1.821
 2384SOL    HW2 8052   0.729   2.203   1.824
 2385SOL     OW 8053   0.824   1.717   1.041
 2385SOL    HW1 8054   0.765   1.668   0.976
 2385SOL    HW2 8055   0.769   1.747   1.119
 2386SOL     OW 8056   4.659   6.129   4.082
 2386SOL    HW1 8057   4.713   6.130   4.166
 2386SOL    HW2 8058   4.564   6.149   4.103
 2387SOL     OW 8059   1.610   1.427   3.854
 2387SOL    HW1 8060   1.548   1.376   3.914
 2387SOL    HW2 8061   1.695   1.445   3.902
 2388SOL     OW 8062   6.548   1.920   5.362
 2388SOL    HW1 8063   6.552   2.015   5.392
 2388SOL    HW2 8064   6.453   1.889   5.360
 2389SOL     OW 8065   5.722   4.522   4.113
 2389SOL    HW1 8066   5.797   4.588   4.111
 2389SOL    HW2 8067   5.636   4.568   4.132
 2390SOL     OW 8068   4.709   4.237   5.788
 2390SOL    HW1 8069   4.775   4.163   5.803
 2390SOL    HW2 8070   4.642   4.208   5.720
 2391SOL     OW 8071   3.749   3.585   6.603
 2391SOL    HW1 8072   3.704   3.549   6.686
 2391SOL    HW2 8073   3.845   3.557   6.603
 2392SOL     OW 8074   3.258   5.712   4.529
 2392SOL    HW1 8075   3.165   5.710   4.565
 2392SOL    HW2 8076   3.308   5.631   4.561
 2393SOL     OW 8077   2.920   4.944   1.355
 2393SOL    HW1 8078   2.949   4.995   1.275
 2393SOL    HW2 8079   2.823   4.922   1.348
 2394SOL     OW 8080   0.731   2.570   3.255
 2394SOL    HW1 8081   0.729   2.655   3.202
 2394SOL    HW2 8082   0.652   2.513   3.230
 2395SOL     OW 8083   0.328   2.632   5.296
 2395SOL    HW1 8084   0.353   2.655   5.390
 2395SOL    HW2 8085   0.409   2.635   5.238
 2396SOL     OW 8086   6.538   1.078   5.220
 2396SOL    HW1 8087   6.506   1.054   5.311
 2396SOL    HW2 8088   6.632   1.045   5.207
 2397SOL     OW 8089   0.623   5.067   4.992
 2397SOL    HW1 8090   0.648   5.073   4.895
 2397SOL    HW2 8091   0.581   5.154   5.020
 2398SOL     OW 8092   3.012   5.733   3.919
 2398SOL    HW1 8093   2.966   5.649   3.890
 2398SOL    HW2 8094   3.094   5.709   3.972
 2399SOL     OW 8095   2.752   2.316   3.828
 2399SOL    HW1 8096   2.684   2.344   3.896
 2399SOL    HW2 8097   2.837   2.292   3.874
 2400SOL     OW 8098   1.412   3.724   0.462
 2400SOL    HW1 8099   1.498   3.702   0.508
 2400SOL    HW2 8100   1.337   3.721   0.529
 2401SOL     OW 8101   3.504   0.114   5.836
 2401SOL    HW1 8102   3.410   0.089   5.813
 2401SOL    HW2 8103   3.504   0.174   5.916
 2402SOL     OW 8104   0.990   2.782   1.970
 2402SOL    HW1 8105   0.980   2.778   1.870
 2402SOL    HW2 8106   0.901   2.801   2.011
 2403SOL     OW 8107   3.508   4.130   2.971
 2403SOL    HW1 8108   3.421   4.083   2.983
 2403SOL    HW2 8109   3.515   4.205   3.036
 2404SOL     OW 8110   6.780   1.649   0.655
 2404SOL    HW1 8111   6.747   1.598   0.575
 2404SOL    HW2 8112   6.706   1.708   0.689
 2405SOL     OW 8113   2.972   3.859   0.745
 2405SOL    HW1 8114   2.878   3.864   0.711
 2405SOL    HW2 8115   3.007   3.766   0.734
 2406SOL     OW 8116   2.670   6.855   5.254
 2406SOL    HW1 8117   2.583   6.880   5.297
 2406SOL    HW2 8118   2.655   6.787   5.183
 2407SOL     OW 8119   3.614   1.263   3.939
 2407SOL    HW1 8120   3.644   1.168   3.947
 2407SOL    HW2 8121   3.608   1.288   3.843
 2408SOL     OW 8122   2.620   6.254   4.651
 2408SOL    HW1 8123   2.701   6.307   4.675
 2408SOL    HW2 8124   2.558   6.250   4.729
 2409SOL     OW 8125   2.511   2.655   0.897
 2409SOL    HW1 8126   2.426   2.705   0.880
 2409SOL    HW2 8127   2.516   2.631   0.994
 2410SOL     OW 8128   6.744   3.968   5.966
 2410SOL    HW1 8129   6.646   3.988   5.969
 2410SOL    HW2 8130   6.789   4.009   6.046
 2411SOL     OW 8131   2.577   3.451   0.116
 2411SOL    HW1 8132   2.660   3.395   0.123
 2411SOL    HW2 8133   2.601   3.542   0.081
 2412SOL     OW 8134   2.874   1.890   6.378
 2412SOL    HW1 8135   2.972   1.897   6.359
 2412SOL    HW2 8136   2.857   1.912   6.474
 2413SOL     OW 8137   0.366   2.505   6.753
 2413SOL    HW1 8138   0.322   2.574   6.696
 2413SOL    HW2 8139   0.444   2.466   6.703
 2414SOL     OW 8140   6.052   2.464   4.821
 2414SOL    HW1 8141   6.135   2.484   4.873
 2414SOL    HW2 8142   6.064   2.492   4.726
 2415SOL     OW 8143   2.911   6.119   0.752
 2415SOL    HW1 8144   2.908   6.177   0.671
 2415SOL    HW2 8145   2.988   6.146   0.810
 2416SOL     OW 8146   6.557   3.236   2.801
 2416SOL    HW1 8147   6.602   3.168   2.859
 2416SOL    HW2 8148   6.458   3.233   2.816
 2417SOL     OW 8149   3.944   3.664   0.959
 2417SOL    HW1 8150   3.976   3.632   1.048
 2417SOL    HW2 8151   3.884   3.595   0.919
 2418SOL     OW 8152   4.979   4.268   5.631
 2418SOL    HW1 8153   5.026   4.335   5.688
 2418SOL    HW2 8154   4.882   4.289   5.626
 2419SOL     OW 8155   2.058   6.285   4.254
 2419SOL    HW1 8156   1.990   6.213   4.261
 2419SOL    HW2 8157   2.115   6.268   4.173
 2420SOL     OW 8158   2.762   4.745   2.716
 2420SOL    HW1 8159   2.664   4.724   2.719
 2420SOL    HW2 8160   2.800   4.719   2.628
 2421SOL     OW 8161   3.109   6.858   4.382
 2421SOL    HW1 8162   3.194   6.904   4.407
 2421SOL    HW2 8163   3.045   6.925   4.345
 2422SOL     OW 8164   4.153   6.458   1.578
 2422SOL    HW1 8165   4.089   6.461   1.655
 2422SOL    HW2 8166   4.246   6.468   1.613
 2423SOL     OW 8167   1.853   5.018   2.248
 2423SOL    HW1 8168   1.818   5.006   2.155
 2423SOL    HW2 8169   1.953   5.010   2.247
 2424SOL     OW 8170   5.082   0.830   6.278
 2424SOL    HW1 8171   5.179   0.844   6.257
 2424SOL    HW2 8172   5.062   0.864   6.370
 2425SOL     OW 8173   4.412   5.395   5.564
 2425SOL    HW1 8174   4.407   5.298   5.539
 2425SOL    HW2 8175   4.322   5.426   5.594
 2426SOL     OW 8176   1.313   4.638   5.733
 2426SOL    HW1 8177   1.351   4.643   5.825
 2426SOL    HW2 8178   1.372   4.689   5.670
 2427SOL     OW 8179   4.884   0.693   6.152
 2427SOL    HW1 8180   4.929   0.628   6.090
 2427SOL    HW2 8181   4.951   0.731   6.215
 2428SOL     OW 8182   0.454   0.819   3.288
 2428SOL    HW1 8183   0.453   0.842   3.191
 2428SOL    HW2 8184   0.461   0.902   3.343
 2429SOL     OW 8185   5.518   5.725   2.311
 2429SOL    HW1 8186   5.455   5.657   2.350
 2429SOL    HW2 8187   5.513   5.722   2.211
 2430SOL     OW 8188   6.492   3.264   0.209
 2430SOL    HW1 8189   6.420   3.261   0.139
 2430SOL    HW2 8190   6.460   3.216   0.291
 2431SOL     OW 8191   6.910   1.781   0.887
 2431SOL    HW1 8192   6.932   1.708   0.952
 2431SOL    HW2 8193   6.843   1.748   0.821
 2432SOL     OW 8194   3.810   5.164   1.998
 2432SOL    HW1 8195   3.722   5.170   1.950
 2432SOL    HW2 8196   3.820   5.074   2.040
 2433SOL     OW 8197   6.959   4.167   0.133
 2433SOL    HW1 8198   6.896   4.232   0.176
 2433SOL    HW2 8199   0.027   4.211   0.121
 2434SOL     OW 8200   3.876   1.802   2.893
 2434SOL    HW1 8201   3.781   1.813   2.864
 2434SOL    HW2 8202   3.890   1.708   2.925
 2435SOL     OW 8203   5.492   0.376   6.765
 2435SOL    HW1 8204   5.476   0.323   6.848
 2435SOL    HW2 8205   5.570   0.437   6.779
 2436SOL     OW 8206   1.982   1.757   0.861
 2436SOL    HW1 8207   1.996   1.757   0.960
 2436SOL    HW2 8208   1.981   1.663   0.827
 2437SOL     OW 8209   6.622   6.060   1.909
 2437SOL    HW1 8210   6.697   5.996   1.894
 2437SOL    HW2 8211   6.568   6.069   1.825
 2438SOL     OW 8212   3.143   1.729   4.591
 2438SOL    HW1 8213   3.172   1.819   4.558
 2438SOL    HW2 8214   3.050   1.735   4.626
 2439SOL     OW 8215   0.237   5.432   0.152
 2439SOL    HW1 8216   0.330   5.442   0.189
 2439SOL    HW2 8217   0.177   5.395   0.223
 2440SOL     OW 8218   4.444   1.133   4.867
 2440SOL    HW1 8219   4.473   1.226   4.890
 2440SOL    HW2 8220   4.384   1.136   4.787
 2441SOL     OW 8221   6.159   0.258   6.631
 2441SOL    HW1 8222   6.156   0.158   6.622
 2441SOL    HW2 8223   6.241   0.293   6.586
 2442SOL     OW 8224   4.886   3.692   2.132
 2442SOL    HW1 8225   4.791   3.690   2.162
 2442SOL    HW2 8226   4.926   3.601   2.143
 2443SOL     OW 8227   2.114   1.556   0.546
 2443SOL    HW1 8228   2.045   1.532   0.614
 2443SOL    HW2 8229   2.191   1.492   0.554
 2444SOL     OW 8230   3.387   5.746   0.663
 2444SOL    HW1 8231   3.342   5.657   0.662
 2444SOL    HW2 8232   3.455   5.748   0.736
 2445SOL     OW 8233   0.589   1.943   1.041
 2445SOL    HW1 8234   0.579   1.872   1.112
 2445SOL    HW2 8235   0.536   1.917   0.960
 2446SOL     OW 8236   1.419   3.666   1.693
 2446SOL    HW1 8237   1.337   3.704   1.736
 2446SOL    HW2 8238   1.486   3.642   1.764
 2447SOL     OW 8239   2.494   0.477   1.006
 2447SOL    HW1 8240   2.465   0.524   1.089
 2447SOL    HW2 8241   2.594   0.479   1.000
 2448SOL     OW 8242   6.078   2.011   3.931
 2448SOL    HW1 8243   6.111   1.939   3.870
 2448SOL    HW2 8244   6.151   2.038   3.994
 2449SOL     OW 8245   1.585   4.310   1.930
 2449SOL    HW1 8246   1.615   4.341   1.840
 2449SOL    HW2 8247   1.590   4.386   1.994
 2450SOL     OW 8248   2.233   5.552   6.648
 2450SOL    HW1 8249   2.240   5.625   6.716
 2450SOL    HW2 8250   2.178   5.584   6.571
 2451SOL     OW 8251   0.896   6.966   4.657
 2451SOL    HW1 8252   0.987   6.926   4.670
 2451SOL    HW2 8253   0.826   6.901   4.689
 2452SOL     OW 8254   2.728   2.397   3.562
 2452SOL    HW1 8255   2.742   2.369   3.657
 2452SOL    HW2 8256   2.654   2.463   3.557
 2453SOL     OW 8257   0.094   1.687   6.984
 2453SOL    HW1 8258   0.054   1.769   6.942
 2453SOL    HW2 8259   0.080   1.690   0.061
 2454SOL     OW 8260   3.662   5.500   1.007
 2454SOL    HW1 8261   3.652   5.401   0.994
 2454SOL    HW2 8262   3.691   5.543   0.922
 2455SOL     OW 8263   3.846   0.969   0.276
 2455SOL    HW1 8264   3.772   0.932   0.333
 2455SOL    HW2 8265   3.854   1.067   0.293
 2456SOL     OW 8266   1.217   4.614   6.943
 2456SOL    HW1 8267   1.199   4.604   6.845
 2456SOL    HW2 8268   1.193   4.529   6.990
 2457SOL     OW 8269   5.459   1.554   5.257
 2457SOL    HW1 8270   5.420   1.643   5.235
 2457SOL    HW2 8271   5.398   1.482   5.225
 2458SOL     OW 8272   0.848   0.067   2.731
 2458SOL    HW1 8273   0.830   0.121   2.648
 2458SOL    HW2 8274   0.945   0.069   2.751
 2459SOL     OW 8275   2.368   6.180   0.418
 2459SOL    HW1 8276   2.426   6.223   0.349
 2459SOL    HW2 8277   2.423   6.119   0.475
 2460SOL     OW 8278   1.435   1.137   6.777
 2460SOL    HW1 8279   1.498   1.105   6.847
 2460SOL    HW2 8280   1.479   1.129   6.687
 2461SOL     OW 8281   4.296   0.040   4.355
 2461SOL    HW1 8282   4.263   0.074   4.267
 2461SOL    HW2 8283   4.348   0.112   4.401
 2462SOL     OW 8284   0.597   5.488   1.031
 2462SOL    HW1 8285   0.509   5.536   1.032
 2462SOL    HW2 8286   0.590   5.403   1.084
 2463SOL     OW 8287   6.719   1.118   7.017
 2463SOL    HW1 8288   6.709   1.181   0.073
 2463SOL    HW2 8289   6.630   1.097   6.978
 2464SOL     OW 8290   0.088   2.559   2.405
 2464SOL    HW1 8291   0.004   2.555   2.460
 2464SOL    HW2 8292   0.166   2.577   2.464
 2465SOL     OW 8293   0.140   5.336   5.921
 2465SOL    HW1 8294   0.176   5.324   6.013
 2465SOL    HW2 8295   0.211   5.373   5.861
 2466SOL     OW 8296   1.663   1.661   1.928
 2466SOL    HW1 8297   1.575   1.615   1.912
 2466SOL    HW2 8298   1.647   1.748   1.974
 2467SOL     OW 8299   4.694   1.714   6.145
 2467SOL    HW1 8300   4.740   1.652   6.081
 2467SOL    HW2 8301   4.627   1.663   6.199
 2468SOL     OW 8302   3.463   0.369   6.377
 2468SOL    HW1 8303   3.502   0.372   6.470
 2468SOL    HW2 8304   3.497   0.446   6.324
 2469SOL     OW 8305   4.225   2.648   5.606
 2469SOL    HW1 8306   4.306   2.694   5.642
 2469SOL    HW2 8307   4.172   2.610   5.682
 2470SOL     OW 8308   3.807   4.687   6.081
 2470SOL    HW1 8309   3.895   4.686   6.128
 2470SOL    HW2 8310   3.746   4.620   6.123
 2471SOL     OW 8311   3.659   6.728   0.863
 2471SOL    HW1 8312   3.606   6.725   0.778
 2471SOL    HW2 8313   3.601   6.695   0.939
 2472SOL     OW 8314   4.663   2.662   3.999
 2472SOL    HW1 8315   4.748   2.667   3.946
 2472SOL    HW2 8316   4.619   2.751   4.000
 2473SOL     OW 8317   1.064   4.351   5.054
 2473SOL    HW1 8318   1.020   4.339   5.142
 2473SOL    HW2 8319   1.108   4.266   5.026
 2474SOL     OW 8320   0.960   5.466   0.508
 2474SOL    HW1 8321   0.956   5.518   0.423
 2474SOL    HW2 8322   0.897   5.507   0.575
 2475SOL     OW 8323   4.919   0.636   0.662
 2475SOL    HW1 8324   4.979   0.715   0.670
 2475SOL    HW2 8325   4.826   0.666   0.640
 2476SOL     OW 8326   5.473   0.603   2.864
 2476SOL    HW1 8327   5.460   0.591   2.766
 2476SOL    HW2 8328   5.464   0.700   2.887
 2477SOL     OW 8329   3.992   0.417   3.669
 2477SOL    HW1 8330   4.010   0.430   3.571
 2477SOL    HW2 8331   4.006   0.321   3.692
 2478SOL     OW 8332   3.896   1.262   2.898
 2478SOL    HW1 8333   3.934   1.284   2.988
 2478SOL    HW2 8334   3.920   1.334   2.833
 2479SOL     OW 8335   0.596   2.522   1.349
 2479SOL    HW1 8336   0.590   2.530   1.249
 2479SOL    HW2 8337   0.513   2.479   1.384
 2480SOL     OW 8338   3.867   2.658   1.436
 2480SOL    HW1 8339   3.876   2.586   1.505
 2480SOL    HW2 8340   3.807   2.731   1.470
 2481SOL     OW 8341   2.913   0.118   1.853
 2481SOL    HW1 8342   2.841   0.139   1.920
 2481SOL    HW2 8343   2.871   0.096   1.765
 2482SOL     OW 8344   4.975   3.936   0.004
 2482SOL    HW1 8345   5.048   4.003   0.023
 2482SOL    HW2 8346   4.942   3.899   0.090
 2483SOL     OW 8347   1.398   2.125   0.252
 2483SOL    HW1 8348   1.309   2.165   0.232
 2483SOL    HW2 8349   1.400   2.094   0.347
 2484SOL     OW 8350   3.491   0.900   1.503
 2484SOL    HW1 8351   3.532   0.948   1.426
 2484SOL    HW2 8352   3.398   0.933   1.519
 2485SOL     OW 8353   5.524   2.606   6.908
 2485SOL    HW1 8354   5.548   2.517   6.948
 2485SOL    HW2 8355   5.551   2.608   6.812
 2486SOL     OW 8356   0.300   5.320   5.232
 2486SOL    HW1 8357   0.212   5.278   5.255
 2486SOL    HW2 8358   0.293   5.419   5.241
 2487SOL     OW 8359   4.251   6.257   0.568
 2487SOL    HW1 8360   4.186   6.230   0.639
 2487SOL    HW2 8361   4.202   6.277   0.483
 2488SOL     OW 8362   0.842   3.774   1.923
 2488SOL    HW1 8363   0.803   3.770   2.015
 2488SOL    HW2 8364   0.795   3.707   1.865
 2489SOL     OW 8365   0.809   6.513   3.680
 2489SOL    HW1 8366   0.862   6.577   3.624
 2489SOL    HW2 8367   0.800   6.551   3.773
 2490SOL     OW 8368   0.829   5.808   1.043
 2490SOL    HW1 8369   0.888   5.732   1.016
 2490SOL    HW2 8370   0.738   5.796   1.003
 2491SOL     OW 8371   4.180   3.925   1.369
 2491SOL    HW1 8372   4.183   3.896   1.274
 2491SOL    HW2 8373   4.109   3.874   1.417
 2492SOL     OW 8374   5.045   3.693   1.283
 2492SOL    HW1 8375   4.958   3.740   1.266
 2492SOL    HW2 8376   5.112   3.722   1.216
 2493SOL     OW 8377   6.531   0.311   0.879
 2493SOL    HW1 8378   6.450   0.262   0.912
 2493SOL    HW2 8379   6.514   0.341   0.785
 2494SOL     OW 8380   6.249   4.015   2.064
 2494SOL    HW1 8381   6.254   3.948   2.138
 2494SOL    HW2 8382   6.180   4.084   2.085
 2495SOL     OW 8383   5.196   6.058   3.455
 2495SOL    HW1 8384   5.201   6.013   3.544
 2495SOL    HW2 8385   5.120   6.123   3.454
 2496SOL     OW 8386   0.614   3.767   6.853
 2496SOL    HW1 8387   0.684   3.703   6.884
 2496SOL    HW2 8388   0.569   3.808   6.933
 2497SOL     OW 8389   0.617   0.202   0.439
 2497SOL    HW1 8390   0.580   0.138   0.505
 2497SOL    HW2 8391   0.542   0.244   0.387
 2498SOL     OW 8392   3.020   2.168   5.776
 2498SOL    HW1 8393   3.085   2.165   5.701
 2498SOL    HW2 8394   3.039   2.248   5.834
 2499SOL     OW 8395   5.925   2.748   2.226
 2499SOL    HW1 8396   5.948   2.659   2.187
 2499SOL    HW2 8397   5.959   2.820   2.166
 2500SOL     OW 8398   3.999   3.351   6.424
 2500SOL    HW1 8399   3.993   3.264   6.474
 2500SOL    HW2 8400   3.944   3.345   6.341
 2501SOL     OW 8401   5.124   5.767   0.121
 2501SOL    HW1 8402   5.209   5.768   0.068
 2501SOL    HW2 8403   5.142   5.728   0.212
 2502SOL     OW 8404   2.131   6.980   4.661
 2502SOL    HW1 8405   2.151   6.944   4.752
 2502SOL    HW2 8406   2.217   6.995   4.612
 2503SOL     OW 8407   3.414   6.710   5.157
 2503SOL    HW1 8408   3.478   6.690   5.083
 2503SOL    HW2 8409   3.415   6.635   5.224
 2504SOL     OW 8410   3.750   5.212   2.845
 2504SOL    HW1 8411   3.844   5.216   2.879
 2504SOL    HW2 8412   3.688   5.191   2.921
 2505SOL     OW 8413   0.480   5.805   2.997
 2505SOL    HW1 8414   0.417   5.868   3.042
 2505SOL    HW2 8415   0.485   5.827   2.899
 2506SOL     OW 8416   6.323   3.643   6.154
 2506SOL    HW1 8417   6.362   3.640   6.061
 2506SOL    HW2 8418   6.375   3.582   6.213
 2507SOL     OW 8419   0.380   3.689   0.142
 2507SOL    HW1 8420   0.302   3.708   0.082
 2507SOL    HW2 8421   0.430   3.610   0.106
 2508SOL     OW 8422   2.544   1.896   4.175
 2508SOL    HW1 8423   2.460   1.866   4.130
 2508SOL    HW2 8424   2.526   1.915   4.271
 2509SOL     OW 8425   6.923   4.461   0.603
 2509SOL    HW1 8426   6.875   4.477   0.690
 2509SOL    HW2 8427   6.960   4.548   0.569
 2510SOL     OW 8428   3.366   4.807   0.777
 2510SOL    HW1 8429   3.323   4.888   0.738
 2510SOL    HW2 8430   3.329   4.725   0.732
 2511SOL     OW 8431   2.008   1.158   4.733
 2511SOL    HW1 8432   1.941   1.091   4.700
 2511SOL    HW2 8433   2.100   1.129   4.707
 2512SOL     OW 8434   4.306   4.112   5.414
 2512SOL    HW1 8435   4.241   4.181   5.381
 2512SOL    HW2 8436   4.352   4.145   5.496
 2513SOL     OW 8437   2.085   5.454   4.962
 2513SOL    HW1 8438   2.160   5.440   4.897
 2513SOL    HW2 8439   2.095   5.390   5.038
 2514SOL     OW 8440   0.632   3.818   4.214
 2514SOL    HW1 8441   0.577   3.891   4.173
 2514SOL    HW2 8442   0.631   3.738   4.154
 2515SOL     OW 8443   1.993   6.637   0.853
 2515SOL    HW1 8444   1.927   6.603   0.786
 2515SOL    HW2 8445   2.055   6.562   0.879
 2516SOL     OW 8446   5.300   1.133   2.297
 2516SOL    HW1 8447   5.356   1.072   2.353
 2516SOL    HW2 8448   5.341   1.142   2.207
 2517SOL     OW 8449   1.262   0.530   6.215
 2517SOL    HW1 8450   1.231   0.514   6.309
 2517SOL    HW2 8451   1.351   0.484   6.202
 2518SOL     OW 8452   1.230   5.478   0.585
 2518SOL    HW1 8453   1.239   5.453   0.681
 2518SOL    HW2 8454   1.136   5.506   0.567
 2519SOL     OW 8455   3.528   1.136   1.799
 2519SOL    HW1 8456   3.479   1.204   1.853
 2519SOL    HW2 8457   3.542   1.053   1.854
 2520SOL     OW 8458   3.434   1.983   0.057
 2520SOL    HW1 8459   3.515   1.960   0.003
 2520SOL    HW2 8460   3.358   1.923   0.029
 2521SOL     OW 8461   3.035   1.380   5.349
 2521SOL    HW1 8462   3.086   1.295   5.337
 2521SOL    HW2 8463   3.032   1.404   5.446
 2522SOL     OW 8464   1.561   1.434   5.643
 2522SOL    HW1 8465   1.632   1.381   5.597
 2522SOL    HW2 8466   1.600   1.477   5.725
 2523SOL     OW 8467   1.231   3.433   1.069
 2523SOL    HW1 8468   1.238   3.391   1.160
 2523SOL    HW2 8469   1.155   3.498   1.068
 2524SOL     OW 8470   6.850   6.820   4.377
 2524SOL    HW1 8471   6.801   6.894   4.422
 2524SOL    HW2 8472   6.807   6.733   4.400
 2525SOL     OW 8473   1.692   2.828   4.732
 2525SOL    HW1 8474   1.753   2.760   4.773
 2525SOL    HW2 8475   1.734   2.864   4.648
 2526SOL     OW 8476   1.763   4.545   6.664
 2526SOL    HW1 8477   1.835   4.506   6.606
 2526SOL    HW2 8478   1.803   4.572   6.751
 2527SOL     OW 8479   5.568   6.333   5.512
 2527SOL    HW1 8480   5.575   6.349   5.610
 2527SOL    HW2 8481   5.625   6.254   5.487
 2528SOL     OW 8482   5.765   4.379   5.860
 2528SOL    HW1 8483   5.753   4.373   5.959
 2528SOL    HW2 8484   5.813   4.464   5.838
 2529SOL     OW 8485   6.998   6.750   6.903
 2529SOL    HW1 8486   0.037   6.671   6.916
 2529SOL    HW2 8487   0.014   6.829   6.951
 2530SOL     OW 8488   2.635   6.472   5.190
 2530SOL    HW1 8489   2.543   6.484   5.226
 2530SOL    HW2 8490   2.640   6.386   5.139
 2531SOL     OW 8491   6.237   6.318   5.380
 2531SOL    HW1 8492   6.174   6.373   5.435
 2531SOL    HW2 8493   6.185   6.255   5.323
 2532SOL     OW 8494   6.799   6.133   0.797
 2532SOL    HW1 8495   6.742   6.195   0.851
 2532SOL    HW2 8496   6.886   6.177   0.776
 2533SOL     OW 8497   4.857   0.555   3.560
 2533SOL    HW1 8498   4.834   0.530   3.654
 2533SOL    HW2 8499   4.934   0.499   3.529
 2534SOL     OW 8500   3.326   1.727   1.275
 2534SOL    HW1 8501   3.355   1.631   1.281
 2534SOL    HW2 8502   3.374   1.780   1.345
 2535SOL     OW 8503   3.735   2.879   6.379
 2535SOL    HW1 8504   3.670   2.804   6.364
 2535SOL    HW2 8505   3.685   2.965   6.388
 2536SOL     OW 8506   1.226   0.709   6.608
 2536SOL    HW1 8507   1.196   0.692   6.701
 2536SOL    HW2 8508   1.193   0.799   6.578
 2537SOL     OW 8509   3.349   6.853   6.190
 2537SOL    HW1 8510   3.339   6.934   6.132
 2537SOL    HW2 8511   3.349   6.881   6.286
 2538SOL     OW 8512   0.406   3.586   3.779
 2538SOL    HW1 8513   0.469   3.510   3.763
 2538SOL    HW2 8514   0.410   3.649   3.701
 2539SOL     OW 8515   5.178   1.149   3.991
 2539SOL    HW1 8516   5.131   1.087   3.928
 2539SOL    HW2 8517   5.256   1.190   3.945
 2540SOL     OW 8518   4.052   1.684   2.675
 2540SOL    HW1 8519   3.998   1.759   2.713
 2540SOL    HW2 8520   4.136   1.673   2.728
 2541SOL     OW 8521   3.356   0.169   5.340
 2541SOL    HW1 8522   3.318   0.260   5.323
 2541SOL    HW2 8523   3.296   0.118   5.400
 2542SOL     OW 8524   3.569   3.556   6.379
 2542SOL    HW1 8525   3.622   3.566   6.463
 2542SOL    HW2 8526   3.495   3.625   6.378
 2543SOL     OW 8527   0.344   0.609   4.106
 2543SOL    HW1 8528   0.304   0.593   4.197
 2543SOL    HW2 8529   0.273   0.602   4.037
 2544SOL     OW 8530   0.138   5.662   0.015
 2544SOL    HW1 8531   0.184   5.588   0.064
 2544SOL    HW2 8532   0.191   5.687   6.955
 2545SOL     OW 8533   1.734   6.646   1.627
 2545SOL    HW1 8534   1.669   6.649   1.551
 2545SOL    HW2 8535   1.809   6.584   1.604
 2546SOL     OW 8536   0.260   1.748   1.512
 2546SOL    HW1 8537   0.348   1.793   1.498
 2546SOL    HW2 8538   0.193   1.785   1.448
 2547SOL     OW 8539   0.620   4.457   6.892
 2547SOL    HW1 8540   0.588   4.444   6.986
 2547SOL    HW2 8541   0.567   4.531   6.849
 2548SOL     OW 8542   1.062   6.825   4.938
 2548SOL    HW1 8543   1.043   6.917   4.973
 2548SOL    HW2 8544   1.097   6.831   4.845
 2549SOL     OW 8545   0.721   0.051   1.219
 2549SOL    HW1 8546   0.640   0.074   1.274
 2549SOL    HW2 8547   0.792   0.119   1.236
 2550SOL     OW 8548   6.122   6.736   0.291
 2550SOL    HW1 8549   6.117   6.805   0.219
 2550SOL    HW2 8550   6.177   6.772   0.367
 2551SOL     OW 8551   3.397   4.549   0.269
 2551SOL    HW1 8552   3.433   4.595   0.187
 2551SOL    HW2 8553   3.355   4.462   0.243
 2552SOL     OW 8554   1.835   6.099   4.272
 2552SOL    HW1 8555   1.758   6.121   4.213
 2552SOL    HW2 8556   1.820   6.010   4.315
 2553SOL     OW 8557   3.674   3.587   5.890
 2553SOL    HW1 8558   3.765   3.600   5.851
 2553SOL    HW2 8559   3.682   3.560   5.986
 2554SOL     OW 8560   2.661   0.298   0.586
 2554SOL    HW1 8561   2.727   0.255   0.649
 2554SOL    HW2 8562   2.572   0.256   0.597
 2555SOL     OW 8563   5.982   1.673   4.650
 2555SOL    HW1 8564   5.986   1.601   4.580
 2555SOL    HW2 8565   6.011   1.760   4.610
 2556SOL     OW 8566   4.637   6.502   0.458
 2556SOL    HW1 8567   4.631   6.456   0.547
 2556SOL    HW2 8568   4.546   6.534   0.431
 2557SOL     OW 8569   1.547   3.628   0.847
 2557SOL    HW1 8570   1.582   3.648   0.755
 2557SOL    HW2 8571   1.464   3.573   0.839
 2558SOL     OW 8572   4.687   1.036   4.974
 2558SOL    HW1 8573   4.603   1.051   4.921
 2558SOL    HW2 8574   4.694   1.104   5.046
 2559SOL     OW 8575   1.181   3.973   5.350
 2559SOL    HW1 8576   1.102   3.922   5.317
 2559SOL    HW2 8577   1.249   3.979   5.277
 2560SOL     OW 8578   6.102   2.647   5.738
 2560SOL    HW1 8579   6.055   2.682   5.657
 2560SOL    HW2 8580   6.062   2.688   5.820
 2561SOL     OW 8581   2.629   4.720   4.868
 2561SOL    HW1 8582   2.629   4.741   4.771
 2561SOL    HW2 8583   2.723   4.711   4.901
 2562SOL     OW 8584   2.196   5.314   1.066
 2562SOL    HW1 8585   2.209   5.216   1.082
 2562SOL    HW2 8586   2.282   5.362   1.081
 2563SOL     OW 8587   3.720   1.191   0.878
 2563SOL    HW1 8588   3.720   1.251   0.957
 2563SOL    HW2 8589   3.644   1.126   0.885
 2564SOL     OW 8590   1.855   5.520   6.834
 2564SOL    HW1 8591   1.795   5.509   6.754
 2564SOL    HW2 8592   1.800   5.548   6.913
 2565SOL     OW 8593   1.543   0.344   6.988
 2565SOL    HW1 8594   1.443   0.354   6.988
 2565SOL    HW2 8595   1.585   0.431   6.961
 2566SOL     OW 8596   2.423   6.848   1.630
 2566SOL    HW1 8597   2.367   6.931   1.631
 2566SOL    HW2 8598   2.395   6.787   1.704
 2567SOL     OW 8599   1.124   0.541   0.757
 2567SOL    HW1 8600   1.071   0.557   0.673
 2567SOL    HW2 8601   1.168   0.452   0.752
 2568SOL     OW 8602   4.779   2.204   6.489
 2568SOL    HW1 8603   4.859   2.240   6.442
 2568SOL    HW2 8604   4.742   2.127   6.438
 2569SOL     OW 8605   3.100   0.616   2.801
 2569SOL    HW1 8606   3.077   0.679   2.727
 2569SOL    HW2 8607   3.105   0.523   2.765
 2570SOL     OW 8608   5.354   0.628   5.648
 2570SOL    HW1 8609   5.442   0.590   5.619
 2570SOL    HW2 8610   5.349   0.724   5.618
 2571SOL     OW 8611   1.920   4.805   3.992
 2571SOL    HW1 8612   1.887   4.897   4.013
 2571SOL    HW2 8613   1.968   4.768   4.071
 2572SOL     OW 8614   2.685   5.601   2.268
 2572SOL    HW1 8615   2.713   5.531   2.333
 2572SOL    HW2 8616   2.694   5.691   2.310
 2573SOL     OW 8617   0.646   1.773   1.254
 2573SOL    HW1 8618   0.719   1.767   1.322
 2573SOL    HW2 8619   0.594   1.687   1.254
 2574SOL     OW 8620   5.181   3.944   1.240
 2574SOL    HW1 8621   5.213   4.031   1.277
 2574SOL    HW2 8622   5.101   3.959   1.182
 2575SOL     OW 8623   5.749   5.813   6.506
 2575SOL    HW1 8624   5.755   5.845   6.601
 2575SOL    HW2 8625   5.794   5.724   6.498
 2576SOL     OW 8626   4.443   6.067   4.592
 2576SOL    HW1 8627   4.377   6.106   4.527
 2576SOL    HW2 8628   4.424   5.970   4.604
 2577SOL     OW 8629   3.157   5.101   1.709
 2577SOL    HW1 8630   3.158   5.172   1.779
 2577SOL    HW2 8631   3.079   5.115   1.649
 2578SOL     OW 8632   3.758   1.548   3.834
 2578SOL    HW1 8633   3.742   1.577   3.928
 2578SOL    HW2 8634   3.770   1.449   3.831
 2579SOL     OW 8635   1.402   6.544   4.033
 2579SOL    HW1 8636   1.408   6.449   4.064
 2579SOL    HW2 8637   1.486   6.592   4.057
 2580SOL     OW 8638   2.717   4.925   6.933
 2580SOL    HW1 8639   2.760   4.877   7.010
 2580SOL    HW2 8640   2.619   4.907   6.933
 2581SOL     OW 8641   2.176   5.787   1.122
 2581SOL    HW1 8642   2.110   5.859   1.102
 2581SOL    HW2 8643   2.130   5.711   1.169
 2582SOL     OW 8644   0.311   4.250   1.771
 2582SOL    HW1 8645   0.367   4.282   1.847
 2582SOL    HW2 8646   0.347   4.163   1.737
 2583SOL     OW 8647   0.513   0.945   6.490
 2583SOL    HW1 8648   0.513   0.976   6.585
 2583SOL    HW2 8649   0.604   0.960   6.450
 2584SOL     OW 8650   4.019   5.088   5.888
 2584SOL    HW1 8651   4.099   5.074   5.830
 2584SOL    HW2 8652   3.979   4.999   5.912
 2585SOL     OW 8653   2.995   3.901   0.486
 2585SOL    HW1 8654   3.066   3.965   0.458
 2585SOL    HW2 8655   2.985   3.904   0.586
 2586SOL     OW 8656   2.758   1.378   5.515
 2586SOL    HW1 8657   2.710   1.463   5.490
 2586SOL    HW2 8658   2.811   1.346   5.437
 2587SOL     OW 8659   6.639   1.320   3.225
 2587SOL    HW1 8660   6.690   1.235   3.217
 2587SOL    HW2 8661   6.585   1.334   3.142
 2588SOL     OW 8662   3.909   2.265   5.554
 2588SOL    HW1 8663   3.851   2.246   5.474
 2588SOL    HW2 8664   3.892   2.358   5.587
 2589SOL     OW 8665   1.145   6.954   6.430
 2589SOL    HW1 8666   1.078   6.902   6.377
 2589SOL    HW2 8667   1.237   6.936   6.394
 2590SOL     OW 8668   2.877   5.001   0.249
 2590SOL    HW1 8669   2.862   5.089   0.294
 2590SOL    HW2 8670   2.959   4.958   0.287
 2591SOL     OW 8671   6.888   5.511   3.281
 2591SOL    HW1 8672   6.969   5.452   3.283
 2591SOL    HW2 8673   6.826   5.479   3.209
 2592SOL     OW 8674   2.858   4.264   6.619
 2592SOL    HW1 8675   2.813   4.234   6.704
 2592SOL    HW2 8676   2.873   4.363   6.623
 2593SOL     OW 8677   3.128   5.901   0.557
 2593SOL    HW1 8678   3.053   5.846   0.596
 2593SOL    HW2 8679   3.208   5.892   0.615
 2594SOL     OW 8680   2.629   4.271   5.737
 2594SOL    HW1 8681   2.600   4.280   5.641
 2594SOL    HW2 8682   2.666   4.358   5.769
 2595SOL     OW 8683   6.799   1.581   4.068
 2595SOL    HW1 8684   6.741   1.500   4.073
 2595SOL    HW2 8685   6.863   1.572   3.992
 2596SOL     OW 8686   2.280   2.806   0.857
 2596SOL    HW1 8687   2.334   2.875   0.810
 2596SOL    HW2 8688   2.234   2.847   0.936
 2597SOL     OW 8689   0.357   5.527   6.765
 2597SOL    HW1 8690   0.386   5.463   6.836
 2597SOL    HW2 8691   0.314   5.475   6.691
 2598SOL     OW 8692   6.574   1.363   1.783
 2598SOL    HW1 8693   6.524   1.436   1.738
 2598SOL    HW2 8694   6.668   1.391   1.798
 2599SOL     OW 8695   1.452   6.095   0.757
 2599SOL    HW1 8696   1.457   6.155   0.677
 2599SOL    HW2 8697   1.411   6.008   0.730
 2600SOL     OW 8698   6.112   2.840   4.191
 2600SOL    HW1 8699   6.086   2.905   4.263
 2600SOL    HW2 8700   6.062   2.755   4.204
 2601SOL     OW 8701   1.393   1.832   1.476
 2601SOL    HW1 8702   1.319   1.855   1.412
 2601SOL    HW2 8703   1.457   1.769   1.432
 2602SOL     OW 8704   1.956   4.673   4.885
 2602SOL    HW1 8705   1.896   4.734   4.834
 2602SOL    HW2 8706   1.983   4.596   4.826
 2603SOL     OW 8707   2.434   0.864   2.596
 2603SOL    HW1 8708   2.334   0.861   2.594
 2603SOL    HW2 8709   2.466   0.920   2.520
 2604SOL     OW 8710   5.428   1.817   2.615
 2604SOL    HW1 8711   5.335   1.783   2.634
 2604SOL    HW2 8712   5.426   1.917   2.606
 2605SOL     OW 8713   1.527   3.432   2.362
 2605SOL    HW1 8714   1.565   3.443   2.454
 2605SOL    HW2 8715   1.427   3.429   2.367
 2606SOL     OW 8716   5.677   5.019   1.639
 2606SOL    HW1 8717   5.658   5.073   1.721
 2606SOL    HW2 8718   5.703   4.927   1.666
 2607SOL     OW 8719   1.659   1.529   0.867
 2607SOL    HW1 8720   1.726   1.539   0.941
 2607SOL    HW2 8721   1.660   1.611   0.810
 2608SOL     OW 8722   2.836   5.553   6.711
 2608SOL    HW1 8723   2.844   5.650   6.691
 2608SOL    HW2 8724   2.852   5.500   6.627
 2609SOL     OW 8725   6.832   1.359   1.616
 2609SOL    HW1 8726   6.789   1.278   1.576
 2609SOL    HW2 8727   6.930   1.356   1.598
 2610SOL     OW 8728   1.030   4.524   3.851
 2610SOL    HW1 8729   1.110   4.484   3.807
 2610SOL    HW2 8730   1.022   4.488   3.944
 2611SOL     OW 8731   4.336   6.420   6.967
 2611SOL    HW1 8732   4.405   6.479   6.925
 2611SOL    HW2 8733   4.353   6.414   0.044
 2612SOL     OW 8734   5.608   6.850   4.463
 2612SOL    HW1 8735   5.637   6.772   4.409
 2612SOL    HW2 8736   5.527   6.891   4.421
 2613SOL     OW 8737   2.073   4.796   6.320
 2613SOL    HW1 8738   2.159   4.755   6.351
 2613SOL    HW2 8739   2.091   4.888   6.286
 2614SOL     OW 8740   5.831   0.963   6.407
 2614SOL    HW1 8741   5.789   0.950   6.317
 2614SOL    HW2 8742   5.770   0.931   6.478
 2615SOL     OW 8743   0.738   2.787   1.712
 2615SOL    HW1 8744   0.743   2.862   1.778
 2615SOL    HW2 8745   0.831   2.761   1.684
 2616SOL     OW 8746   0.896   1.503   5.263
 2616SOL    HW1 8747   0.863   1.479   5.172
 2616SOL    HW2 8748   0.996   1.493   5.267
 2617SOL     OW 8749   4.889   1.098   0.835
 2617SOL    HW1 8750   4.956   1.027   0.818
 2617SOL    HW2 8751   4.898   1.132   0.929
 2618SOL     OW 8752   1.190   5.551   4.832
 2618SOL    HW1 8753   1.203   5.538   4.734
 2618SOL    HW2 8754   1.167   5.463   4.875
 2619SOL     OW 8755   4.259   1.845   1.872
 2619SOL    HW1 8756   4.238   1.749   1.851
 2619SOL    HW2 8757   4.217   1.870   1.959
 2620SOL     OW 8758   6.116   6.461   1.868
 2620SOL    HW1 8759   6.052   6.390   1.898
 2620SOL    HW2 8760   6.207   6.422   1.857
 2621SOL     OW 8761   0.624   4.900   2.864
 2621SOL    HW1 8762   0.684   4.852   2.800
 2621SOL    HW2 8763   0.659   4.991   2.883
 2622SOL     OW 8764   3.018   2.815   5.845
 2622SOL    HW1 8765   3.003   2.913   5.850
 2622SOL    HW2 8766   2.932   2.769   5.823
 2623SOL     OW 8767   0.443   0.041   3.823
 2623SOL    HW1 8768   0.390   7.008   3.758
 2623SOL    HW2 8769   0.389   0.056   3.906
 2624SOL     OW 8770   6.898   2.297   4.524
 2624SOL    HW1 8771   6.897   2.307   4.425
 2624SOL    HW2 8772   6.812   2.331   4.562
 2625SOL     OW 8773   2.287   5.249   5.770
 2625SOL    HW1 8774   2.244   5.225   5.683
 2625SOL    HW2 8775   2.385   5.232   5.765
 2626SOL     OW 8776   6.300   0.278   5.679
 2626SOL    HW1 8777   6.318   0.326   5.764
 2626SOL    HW2 8778   6.227   0.211   5.694
 2627SOL     OW 8779   0.735   0.470   6.339
 2627SOL    HW1 8780   0.798   0.500   6.411
 2627SOL    HW2 8781   0.788   0.434   6.262
 2628SOL     OW 8782   1.933   3.440   3.688
 2628SOL    HW1 8783   1.837   3.436   3.712
 2628SOL    HW2 8784   1.945   3.409   3.594
 2629SOL     OW 8785   3.250   3.547   2.977
 2629SOL    HW1 8786   3.185   3.476   3.006
 2629SOL    HW2 8787   3.206   3.636   2.980
 2630SOL     OW 8788   3.404   1.031   3.319
 2630SOL    HW1 8789   3.473   1.081   3.371
 2630SOL    HW2 8790   3.428   0.934   3.316
 2631SOL     OW 8791   5.571   0.556   6.288
 2631SOL    HW1 8792   5.609   0.559   6.381
 2631SOL    HW2 8793   5.520   0.471   6.276
 2632SOL     OW 8794   5.285   4.839   1.403
 2632SOL    HW1 8795   5.277   4.935   1.428
 2632SOL    HW2 8796   5.374   4.804   1.431
 2633SOL     OW 8797   6.814   2.611   5.545
 2633SOL    HW1 8798   6.875   2.643   5.472
 2633SOL    HW2 8799   6.868   2.562   5.614
 2634SOL     OW 8800   0.075   6.007   4.477
 2634SOL    HW1 8801   0.135   6.082   4.447
 2634SOL    HW2 8802   0.033   5.964   4.397
 2635SOL     OW 8803   5.451   5.430   3.974
 2635SOL    HW1 8804   5.523   5.385   4.027
 2635SOL    HW2 8805   5.471   5.527   3.967
 2636SOL     OW 8806   3.718   1.219   6.544
 2636SOL    HW1 8807   3.752   1.150   6.481
 2636SOL    HW2 8808   3.711   1.307   6.497
 2637SOL     OW 8809   6.998   1.810   3.544
 2637SOL    HW1 8810   6.907   1.834   3.512
 2637SOL    HW2 8811   0.015   1.739   3.485
 2638SOL     OW 8812   0.946   0.213   4.814
 2638SOL    HW1 8813   0.966   0.148   4.742
 2638SOL    HW2 8814   0.966   0.172   4.903
 2639SOL     OW 8815   5.145   5.171   4.890
 2639SOL    HW1 8816   5.060   5.205   4.931
 2639SOL    HW2 8817   5.123   5.110   4.814
 2640SOL     OW 8818   0.544   7.006   5.321
 2640SOL    HW1 8819   0.486   0.028   5.390
 2640SOL    HW2 8820   0.640   7.012   5.349
 2641SOL     OW 8821   5.256   2.904   0.426
 2641SOL    HW1 8822   5.190   2.846   0.472
 2641SOL    HW2 8823   5.330   2.927   0.490
 2642SOL     OW 8824   6.922   1.063   3.871
 2642SOL    HW1 8825   7.007   1.013   3.854
 2642SOL    HW2 8826   6.851   1.031   3.807
 2643SOL     OW 8827   0.980   3.305   3.775
 2643SOL    HW1 8828   0.956   3.375   3.842
 2643SOL    HW2 8829   1.071   3.269   3.795
 2644SOL     OW 8830   4.700   5.441   5.174
 2644SOL    HW1 8831   4.652   5.476   5.093
 2644SOL    HW2 8832   4.752   5.515   5.217
 2645SOL     OW 8833   5.039   5.314   3.732
 2645SOL    HW1 8834   5.110   5.289   3.797
 2645SOL    HW2 8835   4.990   5.394   3.765
 2646SOL     OW 8836   0.789   3.923   6.593
 2646SOL    HW1 8837   0.823   3.914   6.687
 2646SOL    HW2 8838   0.806   3.838   6.543
 2647SOL     OW 8839   5.148   6.950   1.847
 2647SOL    HW1 8840   5.172   0.024   1.826
 2647SOL    HW2 8841   5.229   6.901   1.879
 2648SOL     OW 8842   0.950   0.283   3.872
 2648SOL    HW1 8843   1.027   0.222   3.853
 2648SOL    HW2 8844   0.924   0.274   3.968
 2649SOL     OW 8845   5.273   2.958   2.106
 2649SOL    HW1 8846   5.195   2.899   2.084
 2649SOL    HW2 8847   5.356   2.903   2.112
 2650SOL     OW 8848   2.963   5.644   4.551
 2650SOL    HW1 8849   2.938   5.610   4.642
 2650SOL    HW2 8850   2.987   5.567   4.492
 2651SOL     OW 8851   3.583   1.802   6.332
 2651SOL    HW1 8852   3.569   1.892   6.373
 2651SOL    HW2 8853   3.497   1.772   6.289
 2652SOL     OW 8854   4.528   3.775   5.612
 2652SOL    HW1 8855   4.451   3.836   5.592
 2652SOL    HW2 8856   4.546   3.717   5.533
 2653SOL     OW 8857   3.334   5.931   5.846
 2653SOL    HW1 8858   3.393   6.007   5.816
 2653SOL    HW2 8859   3.271   5.906   5.772
 2654SOL     OW 8860   5.133   6.710   0.823
 2654SOL    HW1 8861   5.176   6.624   0.794
 2654SOL    HW2 8862   5.066   6.738   0.754
 2655SOL     OW 8863   4.470   6.295   3.588
 2655SOL    HW1 8864   4.466   6.265   3.684
 2655SOL    HW2 8865   4.469   6.395   3.585
 2656SOL     OW 8866   3.684   5.803   3.797
 2656SOL    HW1 8867   3.730   5.723   3.757
 2656SOL    HW2 8868   3.607   5.829   3.740
 2657SOL     OW 8869   1.833   3.786   0.462
 2657SOL    HW1 8870   1.879   3.758   0.378
 2657SOL    HW2 8871   1.800   3.880   0.452
 2658SOL     OW 8872   4.337   4.093   6.412
 2658SOL    HW1 8873   4.258   4.092   6.351
 2658SOL    HW2 8874   4.341   4.007   6.463
 2659SOL     OW 8875   5.447   2.627   4.916
 2659SOL    HW1 8876   5.386   2.583   4.982
 2659SOL    HW2 8877   5.400   2.704   4.874
 2660SOL     OW 8878   0.916   1.107   0.801
 2660SOL    HW1 8879   0.989   1.142   0.743
 2660SOL    HW2 8880   0.830   1.107   0.750
 2661SOL     OW 8881   1.486   0.685   1.759
 2661SOL    HW1 8882   1.538   0.758   1.715
 2661SOL    HW2 8883   1.422   0.645   1.694
 2662SOL     OW 8884   3.212   0.833   3.834
 2662SOL    HW1 8885   3.241   0.778   3.755
 2662SOL    HW2 8886   3.261   0.920   3.833
 2663SOL     OW 8887   3.097   6.969   5.906
 2663SOL    HW1 8888   3.179   6.984   5.960
 2663SOL    HW2 8889   3.117   6.904   5.832
 2664SOL     OW 8890   3.713   2.503   5.361
 2664SOL    HW1 8891   3.802   2.545   5.342
 2664SOL    HW2 8892   3.643   2.574   5.367
 2665SOL     OW 8893   2.276   3.514   5.304
 2665SOL    HW1 8894   2.334   3.434   5.322
 2665SOL    HW2 8895   2.332   3.597   5.305
 2666SOL     OW 8896   1.853   3.461   2.478
 2666SOL    HW1 8897   1.835   3.435   2.384
 2666SOL    HW2 8898   1.943   3.506   2.484
 2667SOL     OW 8899   6.380   4.494   3.669
 2667SOL    HW1 8900   6.429   4.458   3.749
 2667SOL    HW2 8901   6.372   4.422   3.600
 2668SOL     OW 8902   5.392   2.050   4.702
 2668SOL    HW1 8903   5.457   1.984   4.666
 2668SOL    HW2 8904   5.357   2.107   4.628
 2669SOL     OW 8905   2.545   6.320   6.983
 2669SOL    HW1 8906   2.610   6.261   0.009
 2669SOL    HW2 8907   2.542   6.295   6.886
 2670SOL     OW 8908   6.581   1.772   5.125
 2670SOL    HW1 8909   6.610   1.683   5.160
 2670SOL    HW2 8910   6.585   1.840   5.198
 2671SOL     OW 8911   3.999   5.608   6.302
 2671SOL    HW1 8912   4.057   5.571   6.374
 2671SOL    HW2 8913   3.987   5.540   6.230
 2672SOL     OW 8914   3.385   1.301   1.975
 2672SOL    HW1 8915   3.325   1.231   2.013
 2672SOL    HW2 8916   3.348   1.392   1.998
 2673SOL     OW 8917   5.080   6.813   3.078
 2673SOL    HW1 8918   5.092   6.873   2.999
 2673SOL    HW2 8919   5.012   6.852   3.140
 2674SOL     OW 8920   1.253   5.412   3.522
 2674SOL    HW1 8921   1.278   5.371   3.610
 2674SOL    HW2 8922   1.324   5.476   3.493
 2675SOL     OW 8923   6.955   6.299   3.947
 2675SOL    HW1 8924   6.992   6.278   3.857
 2675SOL    HW2 8925   6.909   6.388   3.946
 2676SOL     OW 8926   3.045   3.932   2.127
 2676SOL    HW1 8927   2.969   3.989   2.160
 2676SOL    HW2 8928   3.058   3.947   2.029
 2677SOL     OW 8929   2.310   4.605   0.870
 2677SOL    HW1 8930   2.322   4.701   0.845
 2677SOL    HW2 8931   2.349   4.590   0.960
 2678SOL     OW 8932   6.725   2.193   2.356
 2678SOL    HW1 8933   6.754   2.127   2.287
 2678SOL    HW2 8934   6.668   2.264   2.314
 2679SOL     OW 8935   1.650   5.715   2.282
 2679SOL    HW1 8936   1.565   5.766   2.294
 2679SOL    HW2 8937   1.666   5.658   2.362
 2680SOL     OW 8938   1.375   2.492   6.885
 2680SOL    HW1 8939   1.448   2.516   6.821
 2680SOL    HW2 8940   1.400   2.409   6.934
 2681SOL     OW 8941   1.101   2.894   5.231
 2681SOL    HW1 8942   1.038   2.855   5.298
 2681SOL    HW2 8943   1.192   2.855   5.244
 2682SOL     OW 8944   4.811   4.161   1.983
 2682SOL    HW1 8945   4.877   4.229   1.949
 2682SOL    HW2 8946   4.719   4.200   1.983
 2683SOL     OW 8947   2.421   4.409   2.962
 2683SOL    HW1 8948   2.424   4.344   2.886
 2683SOL    HW2 8949   2.362   4.486   2.938
 2684SOL     OW 8950   5.466   6.201   2.135
 2684SOL    HW1 8951   5.480   6.127   2.201
 2684SOL    HW2 8952   5.555   6.243   2.113
 2685SOL     OW 8953   6.944   5.077   4.862
 2685SOL    HW1 8954   7.006   5.014   4.910
 2685SOL    HW2 8955   6.919   5.152   4.923
 2686SOL     OW 8956   1.577   1.215   4.706
 2686SOL    HW1 8957   1.587   1.186   4.611
 2686SOL    HW2 8958   1.657   1.268   4.734
 2687SOL     OW 8959   4.084   1.238   1.790
 2687SOL    HW1 8960   4.163   1.288   1.824
 2687SOL    HW2 8961   4.085   1.237   1.690
 2688SOL     OW 8962   3.486   1.958   0.316
 2688SOL    HW1 8963   3.505   2.054   0.335
 2688SOL    HW2 8964   3.479   1.944   0.218
 2689SOL     OW 8965   0.638   4.081   2.753
 2689SOL    HW1 8966   0.573   4.153   2.774
 2689SOL    HW2 8967   0.590   3.999   2.724
 2690SOL     OW 8968   3.104   2.080   6.443
 2690SOL    HW1 8969   3.143   2.064   6.352
 2690SOL    HW2 8970   3.034   2.151   6.438
 2691SOL     OW 8971   0.393   4.306   4.368
 2691SOL    HW1 8972   0.436   4.266   4.287
 2691SOL    HW2 8973   0.461   4.359   4.419
 2692SOL     OW 8974   2.874   5.957   3.076
 2692SOL    HW1 8975   2.793   5.944   3.019
 2692SOL    HW2 8976   2.896   5.871   3.123
 2693SOL     OW 8977   1.706   5.213   3.775
 2693SOL    HW1 8978   1.758   5.215   3.690
 2693SOL    HW2 8979   1.639   5.139   3.771
 2694SOL     OW 8980   3.988   6.379   2.968
 2694SOL    HW1 8981   3.957   6.404   2.877
 2694SOL    HW2 8982   3.918   6.404   3.035
 2695SOL     OW 8983   6.620   6.669   2.638
 2695SOL    HW1 8984   6.691   6.598   2.637
 2695SOL    HW2 8985   6.587   6.684   2.546
 2696SOL     OW 8986   4.658   3.722   6.569
 2696SOL    HW1 8987   4.582   3.708   6.506
 2696SOL    HW2 8988   4.632   3.687   6.660
 2697SOL     OW 8989   4.292   1.428   1.166
 2697SOL    HW1 8990   4.272   1.331   1.160
 2697SOL    HW2 8991   4.378   1.447   1.118
 2698SOL     OW 8992   1.185   4.800   6.195
 2698SOL    HW1 8993   1.145   4.816   6.285
 2698SOL    HW2 8994   1.269   4.746   6.205
 2699SOL     OW 8995   2.769   6.009   2.271
 2699SOL    HW1 8996   2.795   5.941   2.340
 2699SOL    HW2 8997   2.828   6.089   2.279
 2700SOL     OW 8998   2.524   1.930   1.051
 2700SOL    HW1 8999   2.596   1.890   0.994
 2700SOL    HW2 9000   2.525   1.888   1.142
 2701SOL     OW 9001   5.342   2.592   4.556
 2701SOL    HW1 9002   5.420   2.639   4.596
 2701SOL    HW2 9003   5.350   2.593   4.456
 2702SOL     OW 9004   2.153   1.707   4.351
 2702SOL    HW1 9005   2.247   1.697   4.383
 2702SOL    HW2 9006   2.116   1.793   4.386
 2703SOL     OW 9007   1.542   5.731   1.296
 2703SOL    HW1 9008   1.501   5.819   1.321
 2703SOL    HW2 9009   1.471   5.661   1.295
 2704SOL     OW 9010   0.006   5.756   3.392
 2704SOL    HW1 9011   0.021   5.704   3.308
 2704SOL    HW2 9012   6.933   5.742   3.423
 2705SOL     OW 9013   6.992   1.116   5.372
 2705SOL    HW1 9014   0.040   1.179   5.408
 2705SOL    HW2 9015   6.923   1.168   5.322
 2706SOL     OW 9016   6.139   4.329   4.212
 2706SOL    HW1 9017   6.111   4.236   4.233
 2706SOL    HW2 9018   6.219   4.353   4.268
 2707SOL     OW 9019   3.818   6.743   2.764
 2707SOL    HW1 9020   3.863   6.832   2.759
 2707SOL    HW2 9021   3.798   6.721   2.860
 2708SOL     OW 9022   5.710   3.049   0.578
 2708SOL    HW1 9023   5.710   3.066   0.479
 2708SOL    HW2 9024   5.757   3.124   0.624
 2709SOL     OW 9025   5.064   0.051   6.146
 2709SOL    HW1 9026   5.137   0.006   6.198
 2709SOL    HW2 9027   4.989   0.074   6.207
 2710SOL     OW 9028   1.587   3.067   3.927
 2710SOL    HW1 9029   1.501   3.029   3.962
 2710SOL    HW2 9030   1.657   3.063   3.998
 2711SOL     OW 9031   3.785   1.735   3.652
 2711SOL    HW1 9032   3.882   1.749   3.637
 2711SOL    HW2 9033   3.772   1.668   3.726
 2712SOL     OW 9034   3.407   5.383   2.387
 2712SOL    HW1 9035   3.420   5.410   2.482
 2712SOL    HW2 9036   3.375   5.288   2.383
 2713SOL     OW 9037   4.568   4.460   6.429
 2713SOL    HW1 9038   4.624   4.530   6.385
 2713SOL    HW2 9039   4.602   4.444   6.522
 2714SOL     OW 9040   3.451   3.744   6.690
 2714SOL    HW1 9041   3.502   3.658   6.684
 2714SOL    HW2 9042   3.421   3.771   6.599
 2715SOL     OW 9043   5.530   1.777   1.015
 2715SOL    HW1 9044   5.589   1.808   0.941
 2715SOL    HW2 9045   5.567   1.808   1.103
 2716SOL     OW 9046   4.306   2.193   2.725
 2716SOL    HW1 9047   4.229   2.238   2.769
 2716SOL    HW2 9048   4.272   2.127   2.657
 2717SOL     OW 9049   0.871   0.836   1.980
 2717SOL    HW1 9050   0.956   0.813   1.933
 2717SOL    HW2 9051   0.866   0.785   2.066
 2718SOL     OW 9052   0.644   0.973   5.810
 2718SOL    HW1 9053   0.648   0.995   5.713
 2718SOL    HW2 9054   0.726   1.009   5.855
 2719SOL     OW 9055   1.397   4.362   2.570
 2719SOL    HW1 9056   1.390   4.388   2.667
 2719SOL    HW2 9057   1.465   4.289   2.561
 2720SOL     OW 9058   0.939   0.010   5.098
 2720SOL    HW1 9059   0.921   0.062   5.182
 2720SOL    HW2 9060   0.891   6.944   5.102
 2721SOL     OW 9061   2.938   6.038   1.631
 2721SOL    HW1 9062   3.029   6.015   1.597
 2721SOL    HW2 9063   2.936   6.026   1.730
 2722SOL     OW 9064   4.540   5.789   6.735
 2722SOL    HW1 9065   4.566   5.745   6.649
 2722SOL    HW2 9066   4.545   5.888   6.724
 2723SOL     OW 9067   3.217   6.575   6.829
 2723SOL    HW1 9068   3.186   6.554   6.737
 2723SOL    HW2 9069   3.279   6.653   6.827
 2724SOL     OW 9070   1.369   6.042   6.645
 2724SOL    HW1 9071   1.459   6.084   6.645
 2724SOL    HW2 9072   1.306   6.097   6.701
 2725SOL     OW 9073   5.402   3.777   4.012
 2725SOL    HW1 9074   5.451   3.836   3.948
 2725SOL    HW2 9075   5.442   3.786   4.103
 2726SOL     OW 9076   0.939   1.902   1.465
 2726SOL    HW1 9077   1.001   1.917   1.388
 2726SOL    HW2 9078   0.938   1.805   1.488
 2727SOL     OW 9079   2.218   4.066   3.780
 2727SOL    HW1 9080   2.217   4.106   3.872
 2727SOL    HW2 9081   2.154   4.116   3.721
 2728SOL     OW 9082   5.436   5.725   6.486
 2728SOL    HW1 9083   5.405   5.747   6.393
 2728SOL    HW2 9084   5.536   5.727   6.489
 2729SOL     OW 9085   5.658   6.790   6.937
 2729SOL    HW1 9086   5.752   6.793   6.902
 2729SOL    HW2 9087   5.602   6.733   6.877
 2730SOL     OW 9088   0.466   5.377   1.825
 2730SOL    HW1 9089   0.431   5.366   1.918
 2730SOL    HW2 9090   0.389   5.393   1.762
 2731SOL     OW 9091   3.127   3.208   3.703
 2731SOL    HW1 9092   3.184   3.138   3.746
 2731SOL    HW2 9093   3.178   3.250   3.628
 2732SOL     OW 9094   4.718   1.258   1.037
 2732SOL    HW1 9095   4.761   1.327   0.979
 2732SOL    HW2 9096   4.679   1.186   0.979
 2733SOL     OW 9097   6.902   1.184   5.877
 2733SOL    HW1 9098   6.947   1.137   5.953
 2733SOL    HW2 9099   6.874   1.275   5.906
 2734SOL     OW 9100   3.580   6.139   1.535
 2734SOL    HW1 9101   3.627   6.052   1.520
 2734SOL    HW2 9102   3.552   6.145   1.631
 2735SOL     OW 9103   1.170   1.926   0.480
 2735SOL    HW1 9104   1.139   1.908   0.573
 2735SOL    HW2 9105   1.113   1.998   0.439
 2736SOL     OW 9106   5.557   5.949   4.160
 2736SOL    HW1 9107   5.554   5.851   4.141
 2736SOL    HW2 9108   5.480   5.994   4.113
 2737SOL     OW 9109   2.821   2.023   6.150
 2737SOL    HW1 9110   2.908   2.024   6.100
 2737SOL    HW2 9111   2.827   1.957   6.225
 2738SOL     OW 9112   5.954   0.425   1.464
 2738SOL    HW1 9113   5.915   0.478   1.539
 2738SOL    HW2 9114   5.983   0.488   1.391
 2739SOL     OW 9115   1.104   5.358   1.294
 2739SOL    HW1 9116   1.022   5.352   1.351
 2739SOL    HW2 9117   1.083   5.330   1.201
 2740SOL     OW 9118   0.218   5.422   2.692
 2740SOL    HW1 9119   0.176   5.365   2.621
 2740SOL    HW2 9120   0.318   5.417   2.684
 2741SOL     OW 9121   1.196   2.317   4.256
 2741SOL    HW1 9122   1.217   2.368   4.340
 2741SOL    HW2 9123   1.150   2.231   4.280
 2742SOL     OW 9124   3.319   4.445   1.680
 2742SOL    HW1 9125   3.333   4.403   1.590
 2742SOL    HW2 9126   3.406   4.482   1.713
 2743SOL     OW 9127   6.889   4.749   1.948
 2743SOL    HW1 9128   6.985   4.774   1.940
 2743SOL    HW2 9129   6.864   4.686   1.875
 2744SOL     OW 9130   3.417   3.232   2.332
 2744SOL    HW1 9131   3.408   3.331   2.326
 2744SOL    HW2 9132   3.379   3.201   2.419
 2745SOL     OW 9133   6.432   1.602   5.751
 2745SOL    HW1 9134   6.456   1.632   5.659
 2745SOL    HW2 9135   6.350   1.651   5.782
 2746SOL     OW 9136   0.618   1.135   4.196
 2746SOL    HW1 9137   0.706   1.136   4.243
 2746SOL    HW2 9138   0.547   1.106   4.259
 2747SOL     OW 9139   3.689   5.893   6.798
 2747SOL    HW1 9140   3.713   5.976   6.848
 2747SOL    HW2 9141   3.652   5.825   6.862
 2748SOL     OW 9142   4.248   0.555   1.274
 2748SOL    HW1 9143   4.290   0.491   1.338
 2748SOL    HW2 9144   4.205   0.503   1.199
 2749SOL     OW 9145   1.137   3.531   0.334
 2749SOL    HW1 9146   1.213   3.466   0.342
 2749SOL    HW2 9147   1.156   3.594   0.259
 2750SOL     OW 9148   2.542   5.240   2.184
 2750SOL    HW1 9149   2.509   5.172   2.250
 2750SOL    HW2 9150   2.557   5.196   2.096
 2751SOL     OW 9151   1.957   2.023   1.390
 2751SOL    HW1 9152   1.894   2.100   1.401
 2751SOL    HW2 9153   2.046   2.047   1.430
 2752SOL     OW 9154   4.032   4.397   5.964
 2752SOL    HW1 9155   3.979   4.318   5.995
 2752SOL    HW2 9156   3.981   4.446   5.894
 2753SOL     OW 9157   6.146   6.484   4.951
 2753SOL    HW1 9158   6.120   6.530   5.036
 2753SOL    HW2 9159   6.073   6.492   4.884
 2754SOL     OW 9160   0.499   6.487   6.778
 2754SOL    HW1 9161   0.446   6.569   6.756
 2754SOL    HW2 9162   0.563   6.468   6.703
 2755SOL     OW 9163   2.731   6.831   2.738
 2755SOL    HW1 9164   2.780   6.759   2.689
 2755SOL    HW2 9165   2.782   6.917   2.732
 2756SOL     OW 9166   4.578   6.432   0.717
 2756SOL    HW1 9167   4.645   6.493   0.760
 2756SOL    HW2 9168   4.487   6.473   0.722
 2757SOL     OW 9169   1.575   5.153   0.345
 2757SOL    HW1 9170   1.536   5.078   0.399
 2757SOL    HW2 9171   1.529   5.238   0.368
 2758SOL     OW 9172   5.463   0.112   4.878
 2758SOL    HW1 9173   5.482   0.207   4.851
 2758SOL    HW2 9174   5.495   0.097   4.972
 2759SOL     OW 9175   5.096   6.455   4.499
 2759SOL    HW1 9176   5.074   6.362   4.528
 2759SOL    HW2 9177   5.083   6.518   4.576
 2760SOL     OW 9178   1.552   5.171   2.484
 2760SOL    HW1 9179   1.480   5.157   2.417
 2760SOL    HW2 9180   1.512   5.179   2.575
 2761SOL     OW 9181   1.798   4.887   3.721
 2761SOL    HW1 9182   1.784   4.871   3.819
 2761SOL    HW2 9183   1.870   4.828   3.687
 2762SOL     OW 9184   0.803   0.547   5.481
 2762SOL    HW1 9185   0.795   0.545   5.580
 2762SOL    HW2 9186   0.713   0.529   5.440
 2763SOL     OW 9187   5.703   2.245   3.805
 2763SOL    HW1 9188   5.801   2.259   3.790
 2763SOL    HW2 9189   5.685   2.148   3.822
 2764SOL     OW 9190   5.410   7.015   1.561
 2764SOL    HW1 9191   5.344   0.058   1.600
 2764SOL    HW2 9192   5.457   0.036   1.483
 2765SOL     OW 9193   5.374   0.893   1.550
 2765SOL    HW1 9194   5.369   0.951   1.631
 2765SOL    HW2 9195   5.287   0.845   1.538
 2766SOL     OW 9196   5.744   1.630   0.613
 2766SOL    HW1 9197   5.818   1.569   0.642
 2766SOL    HW2 9198   5.706   1.596   0.527
 2767SOL     OW 9199   6.639   4.949   6.942
 2767SOL    HW1 9200   6.548   4.913   6.919
 2767SOL    HW2 9201   6.660   5.026   6.882
 2768SOL     OW 9202   5.853   1.486   0.263
 2768SOL    HW1 9203   5.927   1.538   0.307
 2768SOL    HW2 9204   5.765   1.513   0.302
 2769SOL     OW 9205   6.284   4.261   3.530
 2769SOL    HW1 9206   6.224   4.268   3.610
 2769SOL    HW2 9207   6.366   4.209   3.554
 2770SOL     OW 9208   1.703   5.480   0.033
 2770SOL    HW1 9209   1.702   5.390   7.011
 2770SOL    HW2 9210   1.633   5.484   0.104
 2771SOL     OW 9211   5.123   1.376   1.166
 2771SOL    HW1 9212   5.213   1.392   1.207
 2771SOL    HW2 9213   5.102   1.278   1.170
 2772SOL     OW 9214   4.555   2.244   0.490
 2772SOL    HW1 9215   4.481   2.211   0.431
 2772SOL    HW2 9216   4.562   2.186   0.571
 2773SOL     OW 9217   4.244   3.195   5.850
 2773SOL    HW1 9218   4.159   3.143   5.852
 2773SOL    HW2 9219   4.302   3.162   5.775
 2774SOL     OW 9220   6.163   2.803   2.876
 2774SOL    HW1 9221   6.167   2.704   2.868
 2774SOL    HW2 9222   6.070   2.834   2.854
 2775SOL     OW 9223   6.739   5.691   0.753
 2775SOL    HW1 9224   6.792   5.742   0.821
 2775SOL    HW2 9225   6.652   5.738   0.737
 2776SOL     OW 9226   4.205   5.604   5.423
 2776SOL    HW1 9227   4.170   5.641   5.337
 2776SOL    HW2 9228   4.204   5.504   5.418
 2777SOL     OW 9229   3.127   1.113   2.774
 2777SOL    HW1 9230   3.164   1.204   2.754
 2777SOL    HW2 9231   3.076   1.117   2.859
 2778SOL     OW 9232   1.727   1.251   5.515
 2778SOL    HW1 9233   1.727   1.190   5.435
 2778SOL    HW2 9234   1.708   1.197   5.597
 2779SOL     OW 9235   4.496   0.302   0.513
 2779SOL    HW1 9236   4.510   0.312   0.415
 2779SOL    HW2 9237   4.584   0.299   0.560
 2780SOL     OW 9238   6.090   5.617   5.941
 2780SOL    HW1 9239   6.106   5.563   6.024
 2780SOL    HW2 9240   6.083   5.555   5.863
 2781SOL     OW 9241   6.250   5.581   1.801
 2781SOL    HW1 9242   6.339   5.584   1.847
 2781SOL    HW2 9243   6.263   5.558   1.705
 2782SOL     OW 9244   3.223   2.673   6.464
 2782SOL    HW1 9245   3.230   2.724   6.549
 2782SOL    HW2 9246   3.314   2.651   6.430
 2783SOL     OW 9247   5.811   3.209   4.780
 2783SOL    HW1 9248   5.809   3.215   4.680
 2783SOL    HW2 9249   5.889   3.153   4.808
 2784SOL     OW 9250   2.289   2.433   1.021
 2784SOL    HW1 9251   2.242   2.460   0.937
 2784SOL    HW2 9252   2.256   2.490   1.097
 2785SOL     OW 9253   6.343   1.317   0.028
 2785SOL    HW1 9254   6.423   1.329   6.991
 2785SOL    HW2 9255   6.318   1.220   0.030
 2786SOL     OW 9256   3.607   0.199   1.452
 2786SOL    HW1 9257   3.585   0.122   1.392
 2786SOL    HW2 9258   3.547   0.198   1.531
 2787SOL     OW 9259   2.540   3.559   6.607
 2787SOL    HW1 9260   2.634   3.592   6.614
 2787SOL    HW2 9261   2.519   3.502   6.686
 2788SOL     OW 9262   2.276   4.385   0.442
 2788SOL    HW1 9263   2.256   4.320   0.515
 2788SOL    HW2 9264   2.333   4.459   0.477
 2789SOL     OW 9265   1.518   1.930   4.130
 2789SOL    HW1 9266   1.509   1.902   4.226
 2789SOL    HW2 9267   1.429   1.959   4.095
 2790SOL     OW 9268   3.410   5.448   2.652
 2790SOL    HW1 9269   3.392   5.351   2.667
 2790SOL    HW2 9270   3.442   5.490   2.737
 2791SOL     OW 9271   1.890   4.338   4.859
 2791SOL    HW1 9272   1.953   4.282   4.912
 2791SOL    HW2 9273   1.941   4.395   4.795
 2792SOL     OW 9274   1.472   0.431   5.298
 2792SOL    HW1 9275   1.464   0.334   5.318
 2792SOL    HW2 9276   1.395   0.460   5.241
 2793SOL     OW 9277   4.894   1.608   2.560
 2793SOL    HW1 9278   4.885   1.701   2.597
 2793SOL    HW2 9279   4.985   1.598   2.519
 2794SOL     OW 9280   0.081   2.754   0.487
 2794SOL    HW1 9281   0.054   2.830   0.428
 2794SOL    HW2 9282   0.071   2.668   0.437
 2795SOL     OW 9283   2.998   3.947   1.489
 2795SOL    HW1 9284   2.955   4.003   1.559
 2795SOL    HW2 9285   2.978   3.985   1.399
 2796SOL     OW 9286   6.459   4.103   2.555
 2796SOL    HW1 9287   6.498   4.076   2.644
 2796SOL    HW2 9288   6.400   4.182   2.568
 2797SOL     OW 9289   5.425   5.824   4.955
 2797SOL    HW1 9290   5.473   5.799   4.871
 2797SOL    HW2 9291   5.395   5.919   4.949
 2798SOL     OW 9292   0.884   4.022   2.929
 2798SOL    HW1 9293   0.798   4.051   2.886
 2798SOL    HW2 9294   0.917   3.939   2.885
 2799SOL     OW 9295   0.281   5.796   6.847
 2799SOL    HW1 9296   0.258   5.863   6.918
 2799SOL    HW2 9297   0.345   5.837   6.782
 2800SOL     OW 9298   4.377   4.231   6.699
 2800SOL    HW1 9299   4.345   4.316   6.743
 2800SOL    HW2 9300   4.476   4.235   6.689
 2801SOL     OW 9301   3.994   6.099   3.330
 2801SOL    HW1 9302   3.955   6.047   3.254
 2801SOL    HW2 9303   4.093   6.097   3.325
 2802SOL     OW 9304   4.251   3.116   6.292
 2802SOL    HW1 9305   4.192   3.175   6.237
 2802SOL    HW2 9306   4.275   3.163   6.377
 2803SOL     OW 9307   2.321   6.048   5.734
 2803SOL    HW1 9308   2.232   6.088   5.758
 2803SOL    HW2 9309   2.378   6.117   5.689
 2804SOL     OW 9310   6.652   4.806   3.354
 2804SOL    HW1 9311   6.645   4.714   3.393
 2804SOL    HW2 9312   6.562   4.848   3.350
 2805SOL     OW 9313   4.479   3.707   1.443
 2805SOL    HW1 9314   4.420   3.690   1.522
 2805SOL    HW2 9315   4.537   3.787   1.461
 2806SOL     OW 9316   6.060   5.132   3.230
 2806SOL    HW1 9317   6.117   5.199   3.277
 2806SOL    HW2 9318   6.080   5.041   3.265
 2807SOL     OW 9319   5.879   4.916   3.803
 2807SOL    HW1 9320   5.813   4.988   3.822
 2807SOL    HW2 9321   5.891   4.907   3.704
 2808SOL     OW 9322   4.302   1.170   2.849
 2808SOL    HW1 9323   4.228   1.224   2.808
 2808SOL    HW2 9324   4.376   1.230   2.877
 2809SOL     OW 9325   6.875   2.381   1.459
 2809SOL    HW1 9326   6.894   2.353   1.365
 2809SOL    HW2 9327   6.809   2.456   1.459
 2810SOL     OW 9328   3.456   6.599   4.682
 2810SOL    HW1 9329   3.522   6.539   4.638
 2810SOL    HW2 9330   3.458   6.689   4.638
 2811SOL     OW 9331   0.524   0.714   2.509
 2811SOL    HW1 9332   0.517   0.639   2.444
 2811SOL    HW2 9333   0.494   0.799   2.466
 2812SOL     OW 9334   5.027   3.452   1.912
 2812SOL    HW1 9335   5.125   3.468   1.917
 2812SOL    HW2 9336   5.009   3.354   1.924
 2813SOL     OW 9337   5.717   0.013   5.751
 2813SOL    HW1 9338   5.775   0.020   5.670
 2813SOL    HW2 9339   5.690   0.105   5.781
 2814SOL     OW 9340   4.299   3.190   0.128
 2814SOL    HW1 9341   4.333   3.272   0.081
 2814SOL    HW2 9342   4.199   3.192   0.129
 2815SOL     OW 9343   6.920   1.308   4.580
 2815SOL    HW1 9344   6.970   1.327   4.665
 2815SOL    HW2 9345   6.831   1.354   4.583
 2816SOL     OW 9346   6.310   6.543   3.740
 2816SOL    HW1 9347   6.401   6.579   3.721
 2816SOL    HW2 9348   6.299   6.454   3.696
 2817SOL     OW 9349   1.721   0.137   1.417
 2817SOL    HW1 9350   1.785   0.213   1.427
 2817SOL    HW2 9351   1.701   0.098   1.506
 2818SOL     OW 9352   6.860   5.274   6.958
 2818SOL    HW1 9353   6.955   5.283   6.988
 2818SOL    HW2 9354   6.820   5.365   6.945
 2819SOL     OW 9355   0.466   1.810   0.818
 2819SOL    HW1 9356   0.389   1.856   0.775
 2819SOL    HW2 9357   0.514   1.754   0.751
 2820SOL     OW 9358   0.464   2.673   2.554
 2820SOL    HW1 9359   0.435   2.725   2.474
 2820SOL    HW2 9360   0.385   2.633   2.599
 2821SOL     OW 9361   2.884   4.515   6.725
 2821SOL    HW1 9362   2.969   4.490   6.771
 2821SOL    HW2 9363   2.901   4.591   6.662
 2822SOL     OW 9364   3.959   2.594   0.492
 2822SOL    HW1 9365   3.991   2.644   0.413
 2822SOL    HW2 9366   3.862   2.573   0.481
 2823SOL     OW 9367   2.046   6.680   1.549
 2823SOL    HW1 9368   2.134   6.670   1.504
 2823SOL    HW2 9369   2.056   6.738   1.630
 2824SOL     OW 9370   2.395   1.289   4.984
 2824SOL    HW1 9371   2.416   1.362   4.919
 2824SOL    HW2 9372   2.298   1.293   5.008
 2825SOL     OW 9373   6.379   6.814   0.483
 2825SOL    HW1 9374   6.432   6.867   0.549
 2825SOL    HW2 9375   6.341   6.733   0.528
 2826SOL     OW 9376   5.499   2.186   6.339
 2826SOL    HW1 9377   5.439   2.170   6.417
 2826SOL    HW2 9378   5.511   2.101   6.288
 2827SOL     OW 9379   6.905   0.863   5.324
 2827SOL    HW1 9380   6.860   0.883   5.237
 2827SOL    HW2 9381   6.922   0.949   5.373
 2828SOL     OW 9382   3.433   1.267   6.333
 2828SOL    HW1 9383   3.526   1.287   6.303
 2828SOL    HW2 9384   3.392   1.199   6.273
 2829SOL     OW 9385   4.070   4.241   6.529
 2829SOL    HW1 9386   4.037   4.221   6.621
 2829SOL    HW2 9387   4.100   4.336   6.524
 2830SOL     OW 9388   6.869   4.598   6.766
 2830SOL    HW1 9389   6.945   4.623   6.826
 2830SOL    HW2 9390   6.904   4.550   6.685
 2831SOL     OW 9391   6.739   6.356   4.736
 2831SOL    HW1 9392   6.645   6.321   4.745
 2831SOL    HW2 9393   6.803   6.287   4.768
 2832SOL     OW 9394   0.718   1.333   1.525
 2832SOL    HW1 9395   0.790   1.270   1.554
 2832SOL    HW2 9396   0.696   1.316   1.429
 2833SOL     OW 9397   5.450   1.477   2.237
 2833SOL    HW1 9398   5.351   1.470   2.233
 2833SOL    HW2 9399   5.487   1.492   2.146
 2834SOL     OW 9400   2.561   0.716   6.313
 2834SOL    HW1 9401   2.651   0.678   6.292
 2834SOL    HW2 9402   2.569   0.814   6.327
 2835SOL     OW 9403   0.386   6.884   1.747
 2835SOL    HW1 9404   0.421   6.868   1.655
 2835SOL    HW2 9405   0.419   6.972   1.781
 2836SOL     OW 9406   6.904   0.300   1.188
 2836SOL    HW1 9407   6.837   0.249   1.134
 2836SOL    HW2 9408   6.967   0.235   1.232
 2837SOL     OW 9409   5.782   3.313   3.308
 2837SOL    HW1 9410   5.853   3.296   3.375
 2837SOL    HW2 9411   5.823   3.336   3.220
 2838SOL     OW 9412   2.059   4.156   1.640
 2838SOL    HW1 9413   2.094   4.117   1.725
 2838SOL    HW2 9414   2.035   4.082   1.577
 2839SOL     OW 9415   5.945   1.389   2.080
 2839SOL    HW1 9416   6.040   1.415   2.067
 2839SOL    HW2 9417   5.892   1.469   2.108
 2840SOL     OW 9418   0.411   1.150   4.428
 2840SOL    HW1 9419   0.459   1.214   4.489
 2840SOL    HW2 9420   0.375   1.200   4.349
 2841SOL     OW 9421   0.003   0.617   6.379
 2841SOL    HW1 9422   0.095   0.622   6.341
 2841SOL    HW2 9423   6.962   0.577   6.312
 2842SOL     OW 9424   0.197   2.408   3.974
 2842SOL    HW1 9425   0.212   2.435   3.879
 2842SOL    HW2 9426   0.279   2.430   4.028
 2843SOL     OW 9427   3.118   1.785   4.131
 2843SOL    HW1 9428   3.147   1.881   4.130
 2843SOL    HW2 9429   3.192   1.729   4.169
 2844SOL     OW 9430   1.172   3.685   0.109
 2844SOL    HW1 9431   1.168   3.628   0.027
 2844SOL    HW2 9432   1.204   3.777   0.084
 2845SOL     OW 9433   0.995   3.381   0.746
 2845SOL    HW1 9434   0.961   3.428   0.828
 2845SOL    HW2 9435   1.042   3.297   0.774
 2846SOL     OW 9436   4.936   1.880   6.975
 2846SOL    HW1 9437   4.988   1.913   0.033
 2846SOL    HW2 9438   4.980   1.798   6.938
 2847SOL     OW 9439   5.286   3.689   3.539
 2847SOL    HW1 9440   5.298   3.658   3.634
 2847SOL    HW2 9441   5.284   3.609   3.479
 2848SOL     OW 9442   0.342   4.742   6.216
 2848SOL    HW1 9443   0.347   4.710   6.122
 2848SOL    HW2 9444   0.387   4.831   6.224
 2849SOL     OW 9445   3.583   0.496   1.368
 2849SOL    HW1 9446   3.515   0.541   1.427
 2849SOL    HW2 9447   3.611   0.409   1.408
 2850SOL     OW 9448   3.494   0.924   1.978
 2850SOL    HW1 9449   3.513   0.974   2.062
 2850SOL    HW2 9450   3.396   0.903   1.973
 2851SOL     OW 9451   0.938   4.314   5.282
 2851SOL    HW1 9452   0.891   4.244   5.336
 2851SOL    HW2 9453   0.956   4.394   5.339
 2852SOL     OW 9454   5.580   4.146   6.850
 2852SOL    HW1 9455   5.530   4.224   6.888
 2852SOL    HW2 9456   5.622   4.094   6.924
 2853SOL     OW 9457   2.828   2.118   6.811
 2853SOL    HW1 9458   2.928   2.122   6.807
 2853SOL    HW2 9459   2.800   2.074   6.896
 2854SOL     OW 9460   3.010   1.467   4.209
 2854SOL    HW1 9461   3.079   1.428   4.148
 2854SOL    HW2 9462   2.919   1.452   4.171
 2855SOL     OW 9463   1.677   0.668   6.099
 2855SOL    HW1 9464   1.621   0.748   6.115
 2855SOL    HW2 9465   1.668   0.638   6.004
 2856SOL     OW 9466   2.163   2.915   6.040
 2856SOL    HW1 9467   2.203   2.931   6.130
 2856SOL    HW2 9468   2.215   2.968   5.972
 2857SOL     OW 9469   2.932   1.664   1.553
 2857SOL    HW1 9470   2.872   1.590   1.583
 2857SOL    HW2 9471   2.947   1.728   1.628
 2858SOL     OW 9472   6.151   3.298   2.114
 2858SOL    HW1 9473   6.094   3.257   2.185
 2858SOL    HW2 9474   6.136   3.249   2.028
 2859SOL     OW 9475   5.270   1.793   0.510
 2859SOL    HW1 9476   5.336   1.735   0.558
 2859SOL    HW2 9477   5.316   1.876   0.477
 2860SOL     OW 9478   4.222   1.833   1.138
 2860SOL    HW1 9479   4.224   1.843   1.237
 2860SOL    HW2 9480   4.313   1.852   1.100
 2861SOL     OW 9481   4.728   5.280   5.695
 2861SOL    HW1 9482   4.658   5.212   5.673
 2861SOL    HW2 9483   4.731   5.350   5.624
 2862SOL     OW 9484   6.006   1.565   3.252
 2862SOL    HW1 9485   6.105   1.572   3.238
 2862SOL    HW2 9486   5.987   1.509   3.333
 2863SOL     OW 9487   5.876   1.258   0.096
 2863SOL    HW1 9488   5.868   1.325   0.170
 2863SOL    HW2 9489   5.972   1.248   0.070
 2864SOL     OW 9490   3.993   0.078   0.948
 2864SOL    HW1 9491   4.058   0.114   0.881
 2864SOL    HW2 9492   4.042   0.055   1.032
 2865SOL     OW 9493   5.001   4.501   5.158
 2865SOL    HW1 9494   5.068   4.449   5.105
 2865SOL    HW2 9495   5.022   4.598   5.153
 2866SOL     OW 9496   6.621   6.823   0.256
 2866SOL    HW1 9497   6.679   6.757   0.209
 2866SOL    HW2 9498   6.532   6.780   0.276
 2867SOL     OW 9499   5.620   4.212   2.158
 2867SOL    HW1 9500   5.701   4.162   2.189
 2867SOL    HW2 9501   5.627   4.229   2.060
 2868SOL     OW 9502   0.775   3.590   5.593
 2868SOL    HW1 9503   0.816   3.587   5.684
 2868SOL    HW2 9504   0.688   3.542   5.594
 2869SOL     OW 9505   6.030   1.015   2.896
 2869SOL    HW1 9506   6.060   1.018   2.991
 2869SOL    HW2 9507   5.985   1.101   2.873
 2870SOL     OW 9508   6.685   1.422   4.557
 2870SOL    HW1 9509   6.623   1.421   4.479
 2870SOL    HW2 9510   6.696   1.515   4.589
 2871SOL     OW 9511   2.083   1.776   6.482
 2871SOL    HW1 9512   2.106   1.848   6.417
 2871SOL    HW2 9513   1.984   1.760   6.479
 2872SOL     OW 9514   3.006   1.728   3.894
 2872SOL    HW1 9515   3.074   1.776   3.839
 2872SOL    HW2 9516   3.013   1.759   3.989
 2873SOL     OW 9517   0.925   5.051   3.549
 2873SOL    HW1 9518   0.848   5.007   3.502
 2873SOL    HW2 9519   1.005   5.050   3.489
 2874SOL     OW 9520   5.074   5.262   2.109
 2874SOL    HW1 9521   5.127   5.222   2.185
 2874SOL    HW2 9522   5.124   5.339   2.071
 2875SOL     OW 9523   4.122   6.383   6.446
 2875SOL    HW1 9524   4.195   6.336   6.495
 2875SOL    HW2 9525   4.098   6.332   6.363
 2876SOL     OW 9526   0.635   0.273   1.774
 2876SOL    HW1 9527   0.721   0.230   1.799
 2876SOL    HW2 9528   0.653   0.355   1.719
 2877SOL     OW 9529   3.516   2.693   5.421
 2877SOL    HW1 9530   3.479   2.714   5.331
 2877SOL    HW2 9531   3.443   2.662   5.482
 2878SOL     OW 9532   3.421   4.943   4.276
 2878SOL    HW1 9533   3.422   4.947   4.176
 2878SOL    HW2 9534   3.384   4.855   4.305
 2879SOL     OW 9535   5.083   5.346   7.013
 2879SOL    HW1 9536   5.067   5.321   0.087
 2879SOL    HW2 9537   5.171   5.308   6.983
 2880SOL     OW 9538   6.159   6.327   0.199
 2880SOL    HW1 9539   6.117   6.278   0.276
 2880SOL    HW2 9540   6.102   6.405   0.174
 2881SOL     OW 9541   5.786   6.345   0.861
 2881SOL    HW1 9542   5.798   6.267   0.922
 2881SOL    HW2 9543   5.690   6.370   0.855
 2882SOL     OW 9544   0.738   3.353   2.383
 2882SOL    HW1 9545   0.747   3.294   2.463
 2882SOL    HW2 9546   0.665   3.319   2.324
 2883SOL     OW 9547   4.230   6.628   3.608
 2883SOL    HW1 9548   4.201   6.573   3.530
 2883SOL    HW2 9549   4.164   6.617   3.683
 2884SOL     OW 9550   0.684   6.116   3.138
 2884SOL    HW1 9551   0.738   6.193   3.172
 2884SOL    HW2 9552   0.745   6.038   3.122
 2885SOL     OW 9553   0.258   2.569   3.233
 2885SOL    HW1 9554   0.203   2.544   3.153
 2885SOL    HW2 9555   0.349   2.526   3.225
 2886SOL     OW 9556   2.316   3.166   6.668
 2886SOL    HW1 9557   2.338   3.077   6.709
 2886SOL    HW2 9558   2.222   3.165   6.633
 2887SOL     OW 9559   2.449   7.003   5.294
 2887SOL    HW1 9560   2.457   0.035   5.379
 2887SOL    HW2 9561   2.379   0.024   5.236
 2888SOL     OW 9562   0.080   5.163   6.539
 2888SOL    HW1 9563   0.053   5.173   6.635
 2888SOL    HW2 9564   0.023   5.093   6.496
 2889SOL     OW 9565   1.407   0.855   2.234
 2889SOL    HW1 9566   1.336   0.813   2.291
 2889SOL    HW2 9567   1.391   0.830   2.139
 2890SOL     OW 9568   2.951   0.614   1.528
 2890SOL    HW1 9569   2.870   0.555   1.523
 2890SOL    HW2 9570   2.927   0.705   1.494
 2891SOL     OW 9571   2.601   4.641   3.311
 2891SOL    HW1 9572   2.530   4.698   3.268
 2891SOL    HW2 9573   2.563   4.596   3.391
 2892SOL     OW 9574   4.913   4.249   0.183
 2892SOL    HW1 9575   4.924   4.324   0.249
 2892SOL    HW2 9576   4.900   4.163   0.232
 2893SOL     OW 9577   1.712   6.572   5.642
 2893SOL    HW1 9578   1.724   6.492   5.584
 2893SOL    HW2 9579   1.620   6.572   5.681
 2894SOL     OW 9580   3.085   2.391   6.829
 2894SOL    HW1 9581   3.082   2.298   6.865
 2894SOL    HW2 9582   3.149   2.395   6.752
 2895SOL     OW 9583   3.986   3.077   6.563
 2895SOL    HW1 9584   3.955   2.983   6.545
 2895SOL    HW2 9585   4.084   3.076   6.581
 2896SOL     OW 9586   2.683   5.187   6.426
 2896SOL    HW1 9587   2.610   5.180   6.493
 2896SOL    HW2 9588   2.679   5.109   6.363
 2897SOL     OW 9589   2.243   6.217   4.053
 2897SOL    HW1 9590   2.271   6.190   3.960
 2897SOL    HW2 9591   2.322   6.255   4.101
 2898SOL     OW 9592   4.447   4.633   2.970
 2898SOL    HW1 9593   4.472   4.537   2.957
 2898SOL    HW2 9594   4.495   4.689   2.903
 2899SOL     OW 9595   0.258   1.424   6.478
 2899SOL    HW1 9596   0.260   1.515   6.437
 2899SOL    HW2 9597   0.246   1.356   6.406
 2900SOL     OW 9598   1.459   4.828   5.543
 2900SOL    HW1 9599   1.497   4.839   5.635
 2900SOL    HW2 9600   1.515   4.879   5.478
 2901SOL     OW 9601   1.438   0.185   2.832
 2901SOL    HW1 9602   1.470   0.244   2.758
 2901SOL    HW2 9603   1.417   0.094   2.794
 2902SOL     OW 9604   5.501   6.572   0.448
 2902SOL    HW1 9605   5.504   6.472   0.451
 2902SOL    HW2 9606   5.535   6.609   0.535
 2903SOL     OW 9607   3.224   6.870   2.075
 2903SOL    HW1 9608   3.209   6.778   2.109
 2903SOL    HW2 9609   3.278   6.866   1.991
 2904SOL     OW 9610   2.449   3.299   5.371
 2904SOL    HW1 9611   2.500   3.239   5.309
 2904SOL    HW2 9612   2.459   3.267   5.465
 2905SOL     OW 9613   1.290   1.758   2.796
 2905SOL    HW1 9614   1.236   1.729   2.717
 2905SOL    HW2 9615   1.321   1.852   2.782
 2906SOL     OW 9616   5.221   5.143   2.318
 2906SOL    HW1 9617   5.228   5.200   2.400
 2906SOL    HW2 9618   5.311   5.137   2.274
 2907SOL     OW 9619   6.401   0.907   4.916
 2907SOL    HW1 9620   6.345   0.970   4.970
 2907SOL    HW2 9621   6.379   0.813   4.941
 2908SOL     OW 9622   4.065   6.298   3.865
 2908SOL    HW1 9623   3.978   6.265   3.901
 2908SOL    HW2 9624   4.088   6.248   3.781
 2909SOL     OW 9625   0.693   4.859   4.590
 2909SOL    HW1 9626   0.667   4.803   4.668
 2909SOL    HW2 9627   0.736   4.944   4.622
 2910SOL     OW 9628   3.778   6.371   4.664
 2910SOL    HW1 9629   3.829   6.305   4.719
 2910SOL    HW2 9630   3.827   6.458   4.664
 2911SOL     OW 9631   2.196   5.567   4.073
 2911SOL    HW1 9632   2.272   5.586   4.136
 2911SOL    HW2 9633   2.113   5.612   4.106
 2912SOL     OW 9634   2.883   6.235   0.477
 2912SOL    HW1 9635   2.797   6.284   0.459
 2912SOL    HW2 9636   2.880   6.146   0.431
 2913SOL     OW 9637   2.045   4.432   2.757
 2913SOL    HW1 9638   1.964   4.485   2.731
 2913SOL    HW2 9639   2.038   4.339   2.721
 2914SOL     OW 9640   5.882   4.972   6.304
 2914SOL    HW1 9641   5.931   4.884   6.301
 2914SOL    HW2 9642   5.791   4.957   6.342
 2915SOL     OW 9643   4.715   1.727   4.250
 2915SOL    HW1 9644   4.663   1.758   4.170
 2915SOL    HW2 9645   4.770   1.803   4.285
 2916SOL     OW 9646   6.396   4.805   6.019
 2916SOL    HW1 9647   6.350   4.733   5.965
 2916SOL    HW2 9648   6.337   4.886   6.023
 2917SOL     OW 9649   3.886   0.278   1.451
 2917SOL    HW1 9650   3.910   0.295   1.546
 2917SOL    HW2 9651   3.801   0.226   1.446
 2918SOL     OW 9652   6.942   2.778   3.506
 2918SOL    HW1 9653   7.017   2.715   3.483
 2918SOL    HW2 9654   6.944   2.797   3.604
 2919SOL     OW 9655   6.262   0.308   0.207
 2919SOL    HW1 9656   6.223   0.344   0.121
 2919SOL    HW2 9657   6.350   0.353   0.225
 2920SOL     OW 9658   3.633   2.116   2.633
 2920SOL    HW1 9659   3.560   2.065   2.586
 2920SOL    HW2 9660   3.653   2.200   2.581
 2921SOL     OW 9661   6.935   1.035   2.910
 2921SOL    HW1 9662   6.839   1.061   2.919
 2921SOL    HW2 9663   6.993   1.114   2.928
 2922SOL     OW 9664   5.709   6.606   0.116
 2922SOL    HW1 9665   5.648   6.527   0.127
 2922SOL    HW2 9666   5.677   6.660   0.038
 2923SOL     OW 9667   7.001   5.336   2.214
 2923SOL    HW1 9668   6.935   5.332   2.289
 2923SOL    HW2 9669   0.006   5.243   2.188
 2924SOL     OW 9670   0.051   1.998   6.137
 2924SOL    HW1 9671   0.031   1.916   6.191
 2924SOL    HW2 9672   7.010   2.002   6.059
 2925SOL     OW 9673   5.617   0.996   3.005
 2925SOL    HW1 9674   5.678   0.969   3.080
 2925SOL    HW2 9675   5.669   1.002   2.920
 2926SOL     OW 9676   6.924   1.568   4.948
 2926SOL    HW1 9677   7.006   1.582   5.004
 2926SOL    HW2 9678   6.932   1.620   4.864
 2927SOL     OW 9679   1.665   2.219   2.325
 2927SOL    HW1 9680   1.575   2.212   2.369
 2927SOL    HW2 9681   1.703   2.310   2.342
 2928SOL     OW 9682   6.281   2.002   6.512
 2928SOL    HW1 9683   6.297   1.978   6.416
 2928SOL    HW2 9684   6.367   2.035   6.552
 2929SOL     OW 9685   1.178   1.159   5.769
 2929SOL    HW1 9686   1.163   1.131   5.674
 2929SOL    HW2 9687   1.108   1.226   5.795
 2930SOL     OW 9688   4.661   6.591   5.052
 2930SOL    HW1 9689   4.636   6.530   5.128
 2930SOL    HW2 9690   4.615   6.679   5.063
 2931SOL     OW 9691   5.035   5.869   6.474
 2931SOL    HW1 9692   4.953   5.845   6.422
 2931SOL    HW2 9693   5.009   5.922   6.555
 2932SOL     OW 9694   1.733   4.897   2.027
 2932SOL    HW1 9695   1.673   4.852   2.092
 2932SOL    HW2 9696   1.726   4.852   1.938
 2933SOL     OW 9697   5.338   2.638   3.800
 2933SOL    HW1 9698   5.267   2.590   3.748
 2933SOL    HW2 9699   5.426   2.591   3.788
 2934SOL     OW 9700   3.790   0.921   1.015
 2934SOL    HW1 9701   3.697   0.949   0.994
 2934SOL    HW2 9702   3.832   0.986   1.078
 2935SOL     OW 9703   6.547   2.978   1.595
 2935SOL    HW1 9704   6.508   3.069   1.582
 2935SOL    HW2 9705   6.586   2.970   1.687
 2936SOL     OW 9706   4.903   5.714   1.642
 2936SOL    HW1 9707   4.972   5.696   1.712
 2936SOL    HW2 9708   4.922   5.658   1.561
 2937SOL     OW 9709   3.343   5.131   0.580
 2937SOL    HW1 9710   3.266   5.174   0.533
 2937SOL    HW2 9711   3.428   5.178   0.554
 2938SOL     OW 9712   4.736   4.888   5.295
 2938SOL    HW1 9713   4.738   4.922   5.389
 2938SOL    HW2 9714   4.762   4.791   5.295
 2939SOL     OW 9715   0.362   6.421   4.518
 2939SOL    HW1 9716   0.441   6.424   4.580
 2939SOL    HW2 9717   0.363   6.500   4.458
 2940SOL     OW 9718   5.873   0.390   5.025
 2940SOL    HW1 9719   5.953   0.373   5.084
 2940SOL    HW2 9720   5.790   0.391   5.081
 2941SOL     OW 9721   1.620   2.418   5.729
 2941SOL    HW1 9722   1.571   2.439   5.644
 2941SOL    HW2 9723   1.717   2.401   5.708
 2942SOL     OW 9724   2.325   0.836   2.161
 2942SOL    HW1 9725   2.234   0.808   2.190
 2942SOL    HW2 9726   2.359   0.772   2.092
 2943SOL     OW 9727   5.210   3.416   3.024
 2943SOL    HW1 9728   5.291   3.380   2.979
 2943SOL    HW2 9729   5.155   3.340   3.059
 2944SOL     OW 9730   3.339   5.505   5.402
 2944SOL    HW1 9731   3.325   5.542   5.311
 2944SOL    HW2 9732   3.351   5.580   5.467
 2945SOL     OW 9733   3.960   3.740   3.293
 2945SOL    HW1 9734   3.952   3.780   3.385
 2945SOL    HW2 9735   3.868   3.728   3.255
 2946SOL     OW 9736   6.874   5.602   5.616
 2946SOL    HW1 9737   6.784   5.637   5.642
 2946SOL    HW2 9738   6.924   5.574   5.698
 2947SOL     OW 9739   0.936   3.866   0.269
 2947SOL    HW1 9740   0.926   3.795   0.339
 2947SOL    HW2 9741   1.030   3.899   0.269
 2948SOL     OW 9742   6.199   3.776   5.371
 2948SOL    HW1 9743   6.213   3.868   5.408
 2948SOL    HW2 9744   6.110   3.771   5.325
 2949SOL     OW 9745   1.764   6.405   1.332
 2949SOL    HW1 9746   1.833   6.403   1.404
 2949SOL    HW2 9747   1.803   6.368   1.247
 2950SOL     OW 9748   5.412   3.660   4.602
 2950SOL    HW1 9749   5.485   3.593   4.594
 2950SOL    HW2 9750   5.418   3.706   4.691
 2951SOL     OW 9751   6.941   2.587   6.968
 2951SOL    HW1 9752   6.856   2.613   7.013
 2951SOL    HW2 9753   6.930   2.497   6.927
 2952SOL     OW 9754   1.519   4.752   3.828
 2952SOL    HW1 9755   1.590   4.752   3.899
 2952SOL    HW2 9756   1.457   4.828   3.843
 2953SOL     OW 9757   5.165   2.499   2.370
 2953SOL    HW1 9758   5.066   2.493   2.359
 2953SOL    HW2 9759   5.192   2.594   2.385
 2954SOL     OW 9760   1.106   6.048   2.123
 2954SOL    HW1 9761   1.172   5.998   2.178
 2954SOL    HW2 9762   1.056   6.112   2.181
 2955SOL     OW 9763   0.484   3.043   0.121
 2955SOL    HW1 9764   0.417   3.118   0.124
 2955SOL    HW2 9765   0.576   3.080   0.133
 2956SOL     OW 9766   0.009   5.873   2.677
 2956SOL    HW1 9767   0.019   5.951   2.739
 2956SOL    HW2 9768   6.935   5.843   2.676
 2957SOL     OW 9769   6.857   3.749   1.129
 2957SOL    HW1 9770   6.786   3.703   1.075
 2957SOL    HW2 9771   6.928   3.684   1.152
 2958SOL     OW 9772   2.438   4.545   4.991
 2958SOL    HW1 9773   2.510   4.582   4.933
 2958SOL    HW2 9774   2.429   4.601   5.074
 2959SOL     OW 9775   4.958   4.627   6.676
 2959SOL    HW1 9776   4.910   4.688   6.613
 2959SOL    HW2 9777   5.039   4.674   6.713
 2960SOL     OW 9778   2.999   1.159   6.902
 2960SOL    HW1 9779   3.081   1.113   6.937
 2960SOL    HW2 9780   2.950   1.097   6.841
 2961SOL     OW 9781   5.325   2.797   4.302
 2961SOL    HW1 9782   5.337   2.851   4.218
 2961SOL    HW2 9783   5.276   2.713   4.281
 2962SOL     OW 9784   4.833   0.822   3.876
 2962SOL    HW1 9785   4.831   0.855   3.970
 2962SOL    HW2 9786   4.834   0.722   3.876
 2963SOL     OW 9787   1.873   1.726   5.916
 2963SOL    HW1 9788   1.929   1.801   5.951
 2963SOL    HW2 9789   1.917   1.685   5.837
 2964SOL     OW 9790   1.702   0.214   1.928
 2964SOL    HW1 9791   1.779   0.178   1.876
 2964SOL    HW2 9792   1.643   0.268   1.868
 2965SOL     OW 9793   0.185   1.010   5.198
 2965SOL    HW1 9794   0.109   1.021   5.262
 2965SOL    HW2 9795   0.260   0.961   5.244
 2966SOL     OW 9796   5.949   4.652   3.944
 2966SOL    HW1 9797   5.902   4.568   3.920
 2966SOL    HW2 9798   5.906   4.730   3.900
 2967SOL     OW 9799   5.869   2.868   3.767
 2967SOL    HW1 9800   5.859   2.892   3.671
 2967SOL    HW2 9801   5.930   2.790   3.777
 2968SOL     OW 9802   0.637   3.866   5.825
 2968SOL    HW1 9803   0.578   3.941   5.794
 2968SOL    HW2 9804   0.718   3.860   5.766
 2969SOL     OW 9805   5.479   1.331   5.070
 2969SOL    HW1 9806   5.401   1.344   5.009
 2969SOL    HW2 9807   5.552   1.394   5.044
 2970SOL     OW 9808   0.964   4.181   6.848
 2970SOL    HW1 9809   0.977   4.279   6.839
 2970SOL    HW2 9810   1.036   4.142   6.905
 2971SOL     OW 9811   5.691   2.629   4.344
 2971SOL    HW1 9812   5.664   2.552   4.403
 2971SOL    HW2 9813   5.634   2.631   4.263
 2972SOL     OW 9814   6.539   4.688   0.031
 2972SOL    HW1 9815   6.587   4.625   6.990
 2972SOL    HW2 9816   6.444   4.658   0.041
 2973SOL     OW 9817   5.385   0.475   4.275
 2973SOL    HW1 9818   5.424   0.526   4.351
 2973SOL    HW2 9819   5.301   0.519   4.244
 2974SOL     OW 9820   6.298   3.933   3.624
 2974SOL    HW1 9821   6.312   3.943   3.525
 2974SOL    HW2 9822   6.210   3.973   3.649
 2975SOL     OW 9823   0.090   1.679   5.113
 2975SOL    HW1 9824   0.135   1.731   5.041
 2975SOL    HW2 9825   0.100   1.727   5.200
 2976SOL     OW 9826   3.761   1.394   3.099
 2976SOL    HW1 9827   3.749   1.299   3.128
 2976SOL    HW2 9828   3.706   1.411   3.017
 2977SOL     OW 9829   2.706   0.056   4.087
 2977SOL    HW1 9830   2.687   0.135   4.029
 2977SOL    HW2 9831   2.686   0.080   4.182
 2978SOL     OW 9832   4.326   4.830   0.127
 2978SOL    HW1 9833   4.416   4.808   0.163
 2978SOL    HW2 9834   4.324   4.926   0.099
 2979SOL     OW 9835   4.205   6.853   3.867
 2979SOL    HW1 9836   4.213   6.758   3.896
 2979SOL    HW2 9837   4.108   6.877   3.860
 2980SOL     OW 9838   1.599   6.192   4.146
 2980SOL    HW1 9839   1.649   6.278   4.150
 2980SOL    HW2 9840   1.501   6.210   4.138
 2981SOL     OW 9841   0.627   0.310   6.030
 2981SOL    HW1 9842   0.700   0.246   6.006
 2981SOL    HW2 9843   0.562   0.266   6.091
 2982SOL     OW 9844   4.640   6.429   3.275
 2982SOL    HW1 9845   4.599   6.516   3.248
 2982SOL    HW2 9846   4.696   6.442   3.356
 2983SOL     OW 9847   0.822   0.548   3.810
 2983SOL    HW1 9848   0.742   0.567   3.866
 2983SOL    HW2 9849   0.851   0.453   3.825
 2984SOL     OW 9850   4.940   6.256   1.378
 2984SOL    HW1 9851   4.908   6.210   1.460
 2984SOL    HW2 9852   4.932   6.355   1.390
 2985SOL     OW 9853   0.797   1.939   4.420
 2985SOL    HW1 9854   0.699   1.931   4.439
 2985SOL    HW2 9855   0.824   2.035   4.422
 2986SOL     OW 9856   2.684   4.211   6.179
 2986SOL    HW1 9857   2.591   4.177   6.163
 2986SOL    HW2 9858   2.734   4.210   6.092
 2987SOL     OW 9859   5.014   1.368   3.985
 2987SOL    HW1 9860   5.059   1.283   4.014
 2987SOL    HW2 9861   4.981   1.417   4.065
 2988SOL     OW 9862   0.262   0.095   2.408
 2988SOL    HW1 9863   0.346   0.046   2.433
 2988SOL    HW2 9864   0.210   0.040   2.342
 2989SOL     OW 9865   5.877   5.428   1.083
 2989SOL    HW1 9866   5.795   5.393   1.039
 2989SOL    HW2 9867   5.869   5.527   1.094
 2990SOL     OW 9868   4.087   0.991   3.228
 2990SOL    HW1 9869   4.168   0.977   3.170
 2990SOL    HW2 9870   4.050   0.903   3.254
 2991SOL     OW 9871   0.051   3.856   0.658
 2991SOL    HW1 9872   0.150   3.849   0.650
 2991SOL    HW2 9873   0.008   3.774   0.619
 2992SOL     OW 9874   2.488   5.819   5.162
 2992SOL    HW1 9875   2.450   5.762   5.089
 2992SOL    HW2 9876   2.486   5.768   5.248
 2993SOL     OW 9877   1.296   4.642   1.994
 2993SOL    HW1 9878   1.285   4.741   1.989
 2993SOL    HW2 9879   1.324   4.607   1.905
 2994SOL     OW 9880   4.372   0.908   0.298
 2994SOL    HW1 9881   4.401   0.827   0.349
 2994SOL    HW2 9882   4.437   0.982   0.314
 2995SOL     OW 9883   0.964   2.828   6.673
 2995SOL    HW1 9884   1.019   2.911   6.683
 2995SOL    HW2 9885   0.904   2.818   6.753
 2996SOL     OW 9886   3.153   6.278   4.592
 2996SOL    HW1 9887   3.236   6.238   4.633
 2996SOL    HW2 9888   3.168   6.376   4.577
 2997SOL     OW 9889   4.905   6.018   1.954
 2997SOL    HW1 9890   4.986   6.068   1.925
 2997SOL    HW2 9891   4.906   6.005   2.053
 2998SOL     OW 9892   4.825   5.883   4.842
 2998SOL    HW1 9893   4.922   5.861   4.847
 2998SOL    HW2 9894   4.789   5.856   4.753
 2999SOL     OW 9895   3.922   5.910   3.508
 2999SOL    HW1 9896   3.828   5.885   3.486
 2999SOL    HW2 9897   3.955   5.978   3.442
 3000SOL     OW 9898   1.699   4.019   6.301
 3000SOL    HW1 9899   1.682   3.920   6.301
 3000SOL    HW2 9900   1.723   4.048   6.209
 3001SOL     OW 9901   5.129   6.898   6.792
 3001SOL    HW1 9902   5.049   6.928   6.844
 3001SOL    HW2 9903   5.192   6.974   6.780
 3002SOL     OW 9904   3.869   0.316   5.364
 3002SOL    HW1 9905   3.800   0.257   5.322
 3002SOL    HW2 9906   3.956   0.267   5.371
 3003SOL     OW 9907   2.875   6.156   6.097
 3003SOL    HW1 9908   2.879   6.082   6.164
 3003SOL    HW2 9909   2.958   6.211   6.102
 3004SOL     OW 9910   6.784   4.456   4.099
 3004SOL    HW1 9911   6.825   4.502   4.020
 3004SOL    HW2 9912   6.841   4.470   4.180
 3005SOL     OW 9913   3.654   3.316   1.112
 3005SOL    HW1 9914   3.565   3.361   1.109
 3005SOL    HW2 9915   3.642   3.218   1.126
 3006SOL     OW 9916   5.972   1.860   0.666
 3006SOL    HW1 9917   5.887   1.833   0.622
 3006SOL    HW2 9918   6.042   1.879   0.597
 3007SOL     OW 9919   6.105   5.265   2.207
 3007SOL    HW1 9920   6.127   5.255   2.110
 3007SOL    HW2 9921   6.190   5.269   2.260
 3008SOL     OW 9922   3.441   0.314   6.067
 3008SOL    HW1 9923   3.486   0.345   6.150
 3008SOL    HW2 9924   3.379   0.385   6.033
 3009SOL     OW 9925   0.651   6.452   2.617
 3009SOL    HW1 9926   0.605   6.368   2.592
 3009SOL    HW2 9927   0.686   6.497   2.535
 3010SOL     OW 9928   3.961   5.692   3.309
 3010SOL    HW1 9929   3.978   5.659   3.216
 3010SOL    HW2 9930   3.920   5.783   3.305
 3011SOL     OW 9931   5.393   0.873   6.501
 3011SOL    HW1 9932   5.345   0.947   6.549
 3011SOL    HW2 9933   5.412   0.902   6.407
 3012SOL     OW 9934   0.402   3.757   4.335
 3012SOL    HW1 9935   0.421   3.757   4.433
 3012SOL    HW2 9936   0.488   3.765   4.284
 3013SOL     OW 9937   5.154   6.066   4.057
 3013SOL    HW1 9938   5.248   6.065   4.025
 3013SOL    HW2 9939   5.145   6.135   4.130
 3014SOL     OW 9940   5.159   2.445   4.045
 3014SOL    HW1 9941   5.242   2.397   4.017
 3014SOL    HW2 9942   5.087   2.429   3.978
 3015SOL     OW 9943   3.432   2.366   0.237
 3015SOL    HW1 9944   3.357   2.335   0.296
 3015SOL    HW2 9945   3.402   2.366   0.142
 3016SOL     OW 9946   3.356   6.080   4.254
 3016SOL    HW1 9947   3.435   6.119   4.299
 3016SOL    HW2 9948   3.274   6.132   4.279
 3017SOL     OW 9949   1.244   5.780   0.952
 3017SOL    HW1 9950   1.274   5.854   0.892
 3017SOL    HW2 9951   1.273   5.800   1.046
 3018SOL     OW 9952   3.186   0.387   6.413
 3018SOL    HW1 9953   3.160   0.483   6.401
 3018SOL    HW2 9954   3.283   0.376   6.388
 3019SOL     OW 9955   3.390   6.304   1.075
 3019SOL    HW1 9956   3.399   6.382   1.137
 3019SOL    HW2 9957   3.408   6.332   0.981
 3020SOL     OW 9958   3.821   3.568   1.525
 3020SOL    HW1 9959   3.884   3.494   1.549
 3020SOL    HW2 9960   3.863   3.626   1.456
 3021SOL     OW 9961   2.552   1.758   7.020
 3021SOL    HW1 9962   2.482   1.758   0.070
 3021SOL    HW2 9963   2.631   1.704   0.030
 3022SOL     OW 9964   4.218   6.234   2.517
 3022SOL    HW1 9965   4.246   6.153   2.465
 3022SOL    HW2 9966   4.185   6.304   2.453
 3023SOL     OW 9967   3.687   6.045   2.990
 3023SOL    HW1 9968   3.719   6.013   2.900
 3023SOL    HW2 9969   3.652   6.138   2.981
 3024SOL     OW 9970   3.142   0.711   6.425
 3024SOL    HW1 9971   3.062   0.721   6.366
 3024SOL    HW2 9972   3.135   0.774   6.502
 3025SOL     OW 9973   3.510   2.638   0.224
 3025SOL    HW1 9974   3.464   2.556   0.258
 3025SOL    HW2 9975   3.607   2.633   0.245
 3026SOL     OW 9976   1.489   2.969   0.830
 3026SOL    HW1 9977   1.565   2.905   0.843
 3026SOL    HW2 9978   1.469   3.016   0.916
 3027SOL     OW 9979   3.872   1.442   1.878
 3027SOL    HW1 9980   3.941   1.379   1.843
 3027SOL    HW2 9981   3.904   1.484   1.963
 3028SOL     OW 9982   0.933   4.547   6.466
 3028SOL    HW1 9983   0.888   4.624   6.421
 3028SOL    HW2 9984   0.873   4.511   6.537
 3029SOL     OW 9985   6.713   5.240   4.986
 3029SOL    HW1 9986   6.626   5.217   4.943
 3029SOL    HW2 9987   6.758   5.312   4.934
 3030SOL     OW 9988   0.719   1.599   5.476
 3030SOL    HW1 9989   0.648   1.649   5.425
 3030SOL    HW2 9990   0.792   1.572   5.414
 3031SOL     OW 9991   0.742   3.345   0.508
 3031SOL    HW1 9992   0.688   3.314   0.586
 3031SOL    HW2 9993   0.788   3.431   0.532
 3032SOL     OW 9994   5.374   0.622   0.422
 3032SOL    HW1 9995   5.283   0.580   0.425
 3032SOL    HW2 9996   5.367   0.718   0.450
 3033SOL     OW 9997   0.935   2.526   6.988
 3033SOL    HW1 9998   0.875   2.496   0.041
 3033SOL    HW2 9999   1.024   2.554   0.005
 3034SOL     OW10000   1.913   5.908   3.721
 3034SOL    HW110001   1.953   5.828   3.766
 3034SOL    HW210002   1.983   5.953   3.665
 3035SOL     OW10003   6.614   2.205   0.652
 3035SOL    HW110004   6.645   2.272   0.585
 3035SOL    HW210005   6.644   2.114   0.625
 3036SOL     OW10006   1.886   3.671   0.188
 3036SOL    HW110007   1.818   3.602   0.212
 3036SOL    HW210008   1.950   3.634   0.121
 3037SOL     OW10009   6.118   6.156   4.323
 3037SOL    HW110010   6.159   6.065   4.335
 3037SOL    HW210011   6.093   6.169   4.227
 3038SOL     OW10012   5.666   6.864   6.523
 3038SOL    HW110013   5.714   6.802   6.585
 3038SOL    HW210014   5.715   6.951   6.519
 3039SOL     OW10015   7.002   4.235   2.437
 3039SOL    HW110016   0.081   4.227   2.437
 3039SOL    HW210017   6.974   4.303   2.504
 3040SOL     OW10018   4.616   4.045   6.052
 3040SOL    HW110019   4.573   4.006   6.133
 3040SOL    HW210020   4.701   4.091   6.078
 3041SOL     OW10021   1.385   2.447   5.897
 3041SOL    HW110022   1.398   2.506   5.976
 3041SOL    HW210023   1.465   2.454   5.837
 3042SOL     OW10024   5.021   6.327   1.714
 3042SOL    HW110025   4.983   6.235   1.704
 3042SOL    HW210026   5.089   6.343   1.643
 3043SOL     OW10027   0.057   5.537   0.876
 3043SOL    HW110028   0.087   5.536   0.781
 3043SOL    HW210029   0.009   5.452   0.897
 3044SOL     OW10030   2.937   4.444   5.886
 3044SOL    HW110031   2.988   4.498   5.953
 3044SOL    HW210032   2.936   4.493   5.798
 3045SOL     OW10033   4.483   0.482   2.595
 3045SOL    HW110034   4.568   0.430   2.595
 3045SOL    HW210035   4.439   0.474   2.685
 3046SOL     OW10036   1.475   3.178   5.406
 3046SOL    HW110037   1.497   3.191   5.309
 3046SOL    HW210038   1.526   3.245   5.460
 3047SOL     OW10039   5.274   5.482   2.100
 3047SOL    HW110040   5.285   5.557   2.036
 3047SOL    HW210041   5.351   5.420   2.093
 3048SOL     OW10042   3.981   3.310   1.508
 3048SOL    HW110043   3.964   3.273   1.600
 3048SOL    HW210044   3.983   3.235   1.442
 3049SOL     OW10045   0.801   6.181   1.131
 3049SOL    HW110046   0.704   6.161   1.138
 3049SOL    HW210047   0.853   6.095   1.136
 3050SOL     OW10048   3.672   0.315   3.534
 3050SOL    HW110049   3.701   0.228   3.495
 3050SOL    HW210050   3.749   0.379   3.534
 3051SOL     OW10051   2.720   3.719   0.167
 3051SOL    HW110052   2.773   3.699   0.249
 3051SOL    HW210053   2.769   3.684   0.087
 3052SOL     OW10054   4.340   0.720   2.845
 3052SOL    HW110055   4.367   0.625   2.859
 3052SOL    HW210056   4.295   0.755   2.928
 3053SOL     OW10057   6.395   0.578   0.001
 3053SOL    HW110058   6.450   0.522   0.063
 3053SOL    HW210059   6.305   0.595   0.041
 3054SOL     OW10060   0.178   2.500   6.989
 3054SOL    HW110061   0.229   2.501   6.903
 3054SOL    HW210062   0.090   2.545   6.975
 3055SOL     OW10063   5.123   0.660   3.808
 3055SOL    HW110064   5.196   0.593   3.814
 3055SOL    HW210065   5.112   0.689   3.713
 3056SOL     OW10066   6.650   0.367   6.956
 3056SOL    HW110067   6.685   0.456   6.987
 3056SOL    HW210068   6.693   0.294   7.009
 3057SOL     OW10069   4.239   5.840   2.712
 3057SOL    HW110070   4.171   5.783   2.758
 3057SOL    HW210071   4.256   5.805   2.620
 3058SOL     OW10072   6.320   5.695   1.214
 3058SOL    HW110073   6.346   5.684   1.310
 3058SOL    HW210074   6.314   5.792   1.192
 3059SOL     OW10075   1.826   3.010   5.014
 3059SOL    HW110076   1.750   2.945   5.015
 3059SOL    HW210077   1.832   3.056   5.102
 3060SOL     OW10078   0.115   6.373   0.307
 3060SOL    HW110079   0.189   6.322   0.352
 3060SOL    HW210080   0.030   6.359   0.358
 3061SOL     OW10081   6.794   1.020   5.127
 3061SOL    HW110082   6.797   1.120   5.133
 3061SOL    HW210083   6.755   0.993   5.039
 3062SOL     OW10084   1.817   6.848   0.931
 3062SOL    HW110085   1.842   6.942   0.909
 3062SOL    HW210086   1.869   6.785   0.873
 3063SOL     OW10087   2.258   5.228   2.355
 3063SOL    HW110088   2.202   5.200   2.433
 3063SOL    HW210089   2.238   5.323   2.332
 3064SOL     OW10090   5.965   3.495   3.756
 3064SOL    HW110091   6.027   3.424   3.792
 3064SOL    HW210092   5.991   3.517   3.662
 3065SOL     OW10093   2.024   0.135   6.458
 3065SOL    HW110094   2.110   0.180   6.434
 3065SOL    HW210095   1.950   0.203   6.461
 3066SOL     OW10096   5.770   4.472   0.385
 3066SOL    HW110097   5.805   4.411   0.314
 3066SOL    HW210098   5.681   4.508   0.356
 3067SOL     OW10099   3.440   1.232   4.375
 3067SOL    HW110100   3.344   1.217   4.399
 3067SOL    HW210101   3.497   1.218   4.456
 3068SOL     OW10102   5.707   5.996   0.405
 3068SOL    HW110103   5.645   5.996   0.327
 3068SOL    HW210104   5.774   5.922   0.395
 3069SOL     OW10105   6.648   5.660   1.396
 3069SOL    HW110106   6.728   5.696   1.444
 3069SOL    HW210107   6.629   5.718   1.316
 3070SOL     OW10108   1.973   1.040   2.293
 3070SOL    HW110109   1.898   1.076   2.348
 3070SOL    HW210110   1.970   1.080   2.201
 3071SOL     OW10111   6.515   6.754   3.606
 3071SOL    HW110112   6.597   6.778   3.658
 3071SOL    HW210113   6.440   6.815   3.631
 3072SOL     OW10114   0.732   6.084   0.863
 3072SOL    HW110115   0.763   6.090   0.768
 3072SOL    HW210116   0.748   6.172   0.908
 3073SOL     OW10117   1.029   3.908   4.925
 3073SOL    HW110118   0.968   3.944   4.854
 3073SOL    HW210119   0.975   3.869   4.999
 3074SOL     OW10120   5.376   2.550   1.018
 3074SOL    HW110121   5.346   2.646   1.016
 3074SOL    HW210122   5.472   2.545   0.990
 3075SOL     OW10123   1.601   6.294   1.559
 3075SOL    HW110124   1.649   6.358   1.499
 3075SOL    HW210125   1.666   6.254   1.623
 3076SOL     OW10126   6.968   0.647   4.377
 3076SOL    HW110127   6.933   0.715   4.443
 3076SOL    HW210128   0.001   0.579   4.426
 3077SOL     OW10129   5.458   4.580   2.768
 3077SOL    HW110130   5.535   4.634   2.802
 3077SOL    HW210131   5.428   4.616   2.680
 3078SOL     OW10132   2.154   3.712   1.241
 3078SOL    HW110133   2.235   3.654   1.253
 3078SOL    HW210134   2.114   3.731   1.331
 3079SOL     OW10135   1.844   2.604   4.810
 3079SOL    HW110136   1.783   2.561   4.876
 3079SOL    HW210137   1.895   2.677   4.855
 3080SOL     OW10138   5.470   5.205   2.160
 3080SOL    HW110139   5.483   5.133   2.228
 3080SOL    HW210140   5.520   5.287   2.188
 3081SOL     OW10141   0.646   4.542   6.117
 3081SOL    HW110142   0.634   4.455   6.069
 3081SOL    HW210143   0.582   4.547   6.193
 3082SOL     OW10144   3.758   6.624   3.595
 3082SOL    HW110145   3.708   6.543   3.625
 3082SOL    HW210146   3.692   6.696   3.570
 3083SOL     OW10147   4.078   6.653   2.611
 3083SOL    HW110148   4.105   6.744   2.582
 3083SOL    HW210149   4.007   6.660   2.681
 3084SOL     OW10150   5.059   4.564   4.401
 3084SOL    HW110151   5.077   4.513   4.317
 3084SOL    HW210152   5.144   4.573   4.453
 3085SOL     OW10153   0.055   4.515   2.867
 3085SOL    HW110154   0.089   4.421   2.870
 3085SOL    HW210155   0.014   4.538   2.956
 3086SOL     OW10156   4.406   1.540   1.782
 3086SOL    HW110157   4.307   1.533   1.769
 3086SOL    HW210158   4.425   1.573   1.875
 3087SOL     OW10159   0.283   4.721   4.030
 3087SOL    HW110160   0.223   4.667   3.972
 3087SOL    HW210161   0.330   4.660   4.094
 3088SOL     OW10162   3.001   5.051   5.156
 3088SOL    HW110163   2.981   4.990   5.079
 3088SOL    HW210164   3.094   5.086   5.148
 3089SOL     OW10165   1.493   2.972   6.698
 3089SOL    HW110166   1.589   2.973   6.725
 3089SOL    HW210167   1.445   3.047   6.742
 3090SOL     OW10168   1.541   1.626   1.365
 3090SOL    HW110169   1.581   1.537   1.388
 3090SOL    HW210170   1.603   1.675   1.304
 3091SOL     OW10171   2.810   6.638   0.524
 3091SOL    HW110172   2.776   6.715   0.469
 3091SOL    HW210173   2.775   6.552   0.485
 3092SOL     OW10174   5.023   0.010   0.005
 3092SOL    HW110175   5.098   6.994   0.059
 3092SOL    HW210176   4.972   0.076   0.060
 3093SOL     OW10177   5.653   5.206   5.623
 3093SOL    HW110178   5.705   5.263   5.560
 3093SOL    HW210179   5.571   5.171   5.576
 3094SOL     OW10180   3.320   0.081   5.027
 3094SOL    HW110181   3.298   0.013   5.097
 3094SOL    HW210182   3.248   0.151   5.025
 3095SOL     OW10183   2.584   4.536   4.315
 3095SOL    HW110184   2.536   4.511   4.399
 3095SOL    HW210185   2.551   4.480   4.239
 3096SOL     OW10186   0.213   0.381   4.230
 3096SOL    HW110187   0.262   0.295   4.244
 3096SOL    HW210188   0.150   0.371   4.153
 3097SOL     OW10189   0.880   2.292   0.162
 3097SOL    HW110190   0.847   2.299   0.068
 3097SOL    HW210191   0.804   2.310   0.225
 3098SOL     OW10192   2.396   3.592   1.313
 3098SOL    HW110193   2.482   3.559   1.272
 3098SOL    HW210194   2.374   3.537   1.393
 3099SOL     OW10195   0.263   5.805   4.964
 3099SOL    HW110196   0.184   5.756   4.927
 3099SOL    HW210197   0.324   5.832   4.889
 3100SOL     OW10198   6.603   0.236   4.845
 3100SOL    HW110199   6.694   0.206   4.815
 3100SOL    HW210200   6.610   0.279   4.935
 3101SOL     OW10201   4.467   6.258   5.423
 3101SOL    HW110202   4.417   6.296   5.501
 3101SOL    HW210203   4.401   6.227   5.354
 3102SOL     OW10204   1.093   5.102   1.598
 3102SOL    HW110205   1.177   5.143   1.562
 3102SOL    HW210206   1.063   5.028   1.537
 3103SOL     OW10207   3.705   1.642   0.679
 3103SOL    HW110208   3.776   1.708   0.656
 3103SOL    HW210209   3.665   1.666   0.768
 3104SOL     OW10210   5.750   6.239   4.171
 3104SOL    HW110211   5.755   6.183   4.254
 3104SOL    HW210212   5.656   6.268   4.156
 3105SOL     OW10213   6.239   5.454   3.721
 3105SOL    HW110214   6.319   5.451   3.780
 3105SOL    HW210215   6.228   5.365   3.675
 3106SOL     OW10216   6.947   1.863   2.536
 3106SOL    HW110217   6.960   1.778   2.485
 3106SOL    HW210218   7.007   1.934   2.498
 3107SOL     OW10219   3.805   0.260   4.456
 3107SOL    HW110220   3.813   0.330   4.527
 3107SOL    HW210221   3.849   0.176   4.486
 3108SOL     OW10222   1.930   0.964   4.355
 3108SOL    HW110223   1.928   1.064   4.360
 3108SOL    HW210224   1.910   0.925   4.445
 3109SOL     OW10225   6.019   6.044   2.934
 3109SOL    HW110226   6.097   6.106   2.947
 3109SOL    HW210227   6.053   5.954   2.907
 3110SOL     OW10228   0.494   1.789   3.723
 3110SOL    HW110229   0.499   1.845   3.806
 3110SOL    HW210230   0.543   1.834   3.649
 3111SOL     OW10231   6.084   5.440   4.095
 3111SOL    HW110232   6.151   5.504   4.058
 3111SOL    HW210233   6.008   5.492   4.136
 3112SOL     OW10234   4.943   2.527   5.717
 3112SOL    HW110235   4.901   2.538   5.807
 3112SOL    HW210236   4.871   2.524   5.647
 3113SOL     OW10237   2.358   0.221   4.011
 3113SOL    HW110238   2.368   0.220   4.110
 3113SOL    HW210239   2.322   0.133   3.980
 3114SOL     OW10240   5.166   3.691   0.033
 3114SOL    HW110241   5.131   3.748   6.979
 3114SOL    HW210242   5.254   3.652   0.007
 3115SOL     OW10243   4.567   3.630   0.270
 3115SOL    HW110244   4.592   3.623   0.366
 3115SOL    HW210245   4.597   3.548   0.221
 3116SOL     OW10246   6.898   3.302   0.027
 3116SOL    HW110247   6.977   3.319   6.988
 3116SOL    HW210248   6.857   3.390   0.052
 3117SOL     OW10249   4.592   3.839   5.278
 3117SOL    HW110250   4.495   3.822   5.260
 3117SOL    HW210251   4.647   3.770   5.231
 3118SOL     OW10252   6.942   4.489   6.217
 3118SOL    HW110253   6.862   4.441   6.180
 3118SOL    HW210254   0.004   4.452   6.175
 3119SOL     OW10255   1.883   4.033   5.164
 3119SOL    HW110256   1.917   3.939   5.167
 3119SOL    HW210257   1.877   4.069   5.257
 3120SOL     OW10258   2.434   6.237   4.859
 3120SOL    HW110259   2.509   6.223   4.924
 3120SOL    HW210260   2.397   6.330   4.871
 3121SOL     OW10261   0.241   1.215   2.435
 3121SOL    HW110262   0.331   1.226   2.478
 3121SOL    HW210263   0.253   1.202   2.337
 3122SOL     OW10264   3.487   5.709   5.894
 3122SOL    HW110265   3.418   5.763   5.846
 3122SOL    HW210266   3.486   5.732   5.991
 3123SOL     OW10267   3.408   6.616   3.607
 3123SOL    HW110268   3.460   6.535   3.581
 3123SOL    HW210269   3.468   6.696   3.605
 3124SOL     OW10270   3.952   0.795   5.430
 3124SOL    HW110271   3.905   0.818   5.345
 3124SOL    HW210272   3.974   0.697   5.430
 3125SOL     OW10273   6.216   2.139   6.152
 3125SOL    HW110274   6.278   2.217   6.151
 3125SOL    HW210275   6.257   2.064   6.204
 3126SOL     OW10276   4.813   4.796   6.516
 3126SOL    HW110277   4.820   4.893   6.540
 3126SOL    HW210278   4.840   4.782   6.421
 3127SOL     OW10279   0.782   2.258   2.901
 3127SOL    HW110280   0.745   2.167   2.921
 3127SOL    HW210281   0.747   2.290   2.813
 3128SOL     OW10282   1.441   0.205   0.638
 3128SOL    HW110283   1.481   0.239   0.552
 3128SOL    HW210284   1.461   0.108   0.648
 3129SOL     OW10285   0.542   4.950   6.485
 3129SOL    HW110286   0.479   4.888   6.530
 3129SOL    HW210287   0.508   4.972   6.394
 3130SOL     OW10288   2.522   4.571   2.420
 3130SOL    HW110289   2.595   4.568   2.352
 3130SOL    HW210290   2.510   4.479   2.459
 3131SOL     OW10291   1.053   2.722   3.031
 3131SOL    HW110292   1.005   2.635   3.040
 3131SOL    HW210293   1.138   2.718   3.085
 3132SOL     OW10294   5.373   6.404   5.199
 3132SOL    HW110295   5.413   6.461   5.271
 3132SOL    HW210296   5.400   6.309   5.212
 3133SOL     OW10297   2.542   2.125   4.332
 3133SOL    HW110298   2.475   2.151   4.262
 3133SOL    HW210299   2.497   2.123   4.422
 3134SOL     OW10300   5.302   3.730   2.031
 3134SOL    HW110301   5.345   3.676   1.959
 3134SOL    HW210302   5.246   3.802   1.990
 3135SOL     OW10303   3.992   1.837   4.745
 3135SOL    HW110304   4.084   1.807   4.770
 3135SOL    HW210305   3.995   1.933   4.715
 3136SOL     OW10306   6.138   6.843   5.825
 3136SOL    HW110307   6.081   6.763   5.809
 3136SOL    HW210308   6.185   6.868   5.740
 3137SOL     OW10309   5.207   1.262   3.582
 3137SOL    HW110310   5.233   1.178   3.534
 3137SOL    HW210311   5.234   1.341   3.528
 3138SOL     OW10312   6.134   2.092   4.323
 3138SOL    HW110313   6.051   2.080   4.269
 3138SOL    HW210314   6.214   2.089   4.263
 3139SOL     OW10315   5.274   6.715   6.466
 3139SOL    HW110316   5.297   6.767   6.549
 3139SOL    HW210317   5.206   6.765   6.413
 3140SOL     OW10318   6.535   5.964   6.369
 3140SOL    HW110319   6.485   5.945   6.454
 3140SOL    HW210320   6.476   6.018   6.308
 3141SOL     OW10321   0.634   6.672   6.512
 3141SOL    HW110322   0.720   6.719   6.527
 3141SOL    HW210323   0.645   6.574   6.531
 3142SOL     OW10324   4.942   6.410   0.058
 3142SOL    HW110325   4.919   6.385   6.985
 3142SOL    HW210326   4.862   6.398   0.116
 3143SOL     OW10327   6.880   2.311   6.570
 3143SOL    HW110328   6.945   2.376   6.530
 3143SOL    HW210329   6.916   2.218   6.560
 3144SOL     OW10330   2.275   3.473   0.999
 3144SOL    HW110331   2.314   3.450   0.910
 3144SOL    HW210332   2.294   3.569   1.020
 3145SOL     OW10333   2.903   5.707   2.763
 3145SOL    HW110334   2.857   5.658   2.689
 3145SOL    HW210335   2.987   5.749   2.728
 3146SOL     OW10336   1.331   6.251   3.076
 3146SOL    HW110337   1.260   6.257   3.006
 3146SOL    HW210338   1.298   6.290   3.162
 3147SOL     OW10339   4.100   5.420   0.090
 3147SOL    HW110340   4.187   5.469   0.092
 3147SOL    HW210341   4.109   5.339   0.031
 3148SOL     OW10342   4.509   5.198   4.179
 3148SOL    HW110343   4.525   5.117   4.121
 3148SOL    HW210344   4.594   5.223   4.225
 3149SOL     OW10345   3.120   0.727   5.254
 3149SOL    HW110346   3.182   0.697   5.181
 3149SOL    HW210347   3.032   0.753   5.213
 3150SOL     OW10348   5.308   5.988   4.459
 3150SOL    HW110349   5.272   6.014   4.548
 3150SOL    HW210350   5.398   6.030   4.445
 3151SOL     OW10351   4.539   1.352   6.492
 3151SOL    HW110352   4.487   1.341   6.577
 3151SOL    HW210353   4.636   1.359   6.513
 3152SOL     OW10354   0.812   5.219   1.970
 3152SOL    HW110355   0.794   5.314   1.944
 3152SOL    HW210356   0.860   5.217   2.058
 3153SOL     OW10357   5.915   4.488   1.365
 3153SOL    HW110358   6.002   4.496   1.316
 3153SOL    HW210359   5.929   4.508   1.462
 3154SOL     OW10360   6.425   2.294   0.257
 3154SOL    HW110361   6.509   2.327   0.298
 3154SOL    HW210362   6.362   2.370   0.243
 3155SOL     OW10363   0.288   4.770   1.683
 3155SOL    HW110364   0.368   4.741   1.630
 3155SOL    HW210365   0.206   4.759   1.628
 3156SOL     OW10366   3.898   3.705   3.589
 3156SOL    HW110367   3.821   3.644   3.571
 3156SOL    HW210368   3.976   3.651   3.621
 3157SOL     OW10369   1.777   3.200   4.500
 3157SOL    HW110370   1.756   3.211   4.597
 3157SOL    HW210371   1.732   3.273   4.447
 3158SOL     OW10372   4.953   0.147   1.636
 3158SOL    HW110373   4.961   0.126   1.734
 3158SOL    HW210374   5.020   0.217   1.612
 3159SOL     OW10375   4.772   6.179   6.510
 3159SOL    HW110376   4.785   6.277   6.525
 3159SOL    HW210377   4.840   6.128   6.563
 3160SOL     OW10378   6.329   4.217   6.473
 3160SOL    HW110379   6.239   4.177   6.488
 3160SOL    HW210380   6.397   4.144   6.466
 3161SOL     OW10381   1.658   1.162   3.075
 3161SOL    HW110382   1.576   1.196   3.122
 3161SOL    HW210383   1.692   1.231   3.012
 3162SOL     OW10384   6.974   5.363   0.296
 3162SOL    HW110385   6.957   5.378   0.394
 3162SOL    HW210386   6.900   5.308   0.258
 3163SOL     OW10387   3.945   2.811   6.546
 3163SOL    HW110388   3.996   2.733   6.509
 3163SOL    HW210389   3.852   2.812   6.510
 3164SOL     OW10390   4.925   4.035   1.368
 3164SOL    HW110391   4.948   3.968   1.438
 3164SOL    HW210392   4.892   4.119   1.411
 3165SOL     OW10393   0.620   6.843   1.922
 3165SOL    HW110394   0.533   6.877   1.884
 3165SOL    HW210395   0.682   6.823   1.846
 3166SOL     OW10396   5.115   2.932   6.431
 3166SOL    HW110397   5.054   2.973   6.499
 3166SOL    HW210398   5.207   2.970   6.442
 3167SOL     OW10399   6.786   4.538   1.779
 3167SOL    HW110400   6.781   4.559   1.681
 3167SOL    HW210401   6.788   4.439   1.791
 3168SOL     OW10402   5.366   2.902   1.119
 3168SOL    HW110403   5.332   2.855   1.200
 3168SOL    HW210404   5.465   2.912   1.126
 3169SOL     OW10405   0.720   3.709   6.033
 3169SOL    HW110406   0.668   3.748   5.956
 3169SOL    HW210407   0.707   3.610   6.035
 3170SOL     OW10408   4.305   0.551   6.990
 3170SOL    HW110409   4.306   0.536   0.067
 3170SOL    HW210410   4.394   0.525   6.951
 3171SOL     OW10411   6.469   0.095   1.548
 3171SOL    HW110412   6.389   0.139   1.590
 3171SOL    HW210413   6.484   0.134   1.457
 3172SOL     OW10414   6.558   6.309   5.151
 3172SOL    HW110415   6.623   6.370   5.105
 3172SOL    HW210416   6.600   6.273   5.234
 3173SOL     OW10417   2.146   0.533   2.517
 3173SOL    HW110418   2.233   0.558   2.559
 3173SOL    HW210419   2.162   0.466   2.445
 3174SOL     OW10420   2.777   2.929   6.009
 3174SOL    HW110421   2.733   3.015   6.033
 3174SOL    HW210422   2.707   2.857   6.004
 3175SOL     OW10423   0.879   6.254   6.743
 3175SOL    HW110424   0.923   6.206   6.667
 3175SOL    HW210425   0.795   6.206   6.769
 3176SOL     OW10426   1.626   4.359   6.371
 3176SOL    HW110427   1.582   4.405   6.294
 3176SOL    HW210428   1.632   4.261   6.352
 3177SOL     OW10429   5.694   4.783   5.961
 3177SOL    HW110430   5.729   4.777   5.868
 3177SOL    HW210431   5.711   4.874   5.997
 3178SOL     OW10432   0.756   3.996   1.798
 3178SOL    HW110433   0.773   3.993   1.700
 3178SOL    HW210434   0.803   3.921   1.844
 3179SOL     OW10435   2.025   2.102   1.833
 3179SOL    HW110436   1.948   2.166   1.836
 3179SOL    HW210437   2.096   2.132   1.897
 3180SOL     OW10438   4.796   1.146   5.610
 3180SOL    HW110439   4.887   1.144   5.651
 3180SOL    HW210440   4.788   1.074   5.542
 3181SOL     OW10441   0.612   0.823   3.554
 3181SOL    HW110442   0.552   0.744   3.571
 3181SOL    HW210443   0.633   0.828   3.456
 3182SOL     OW10444   0.472   0.449   5.845
 3182SOL    HW110445   0.522   0.400   5.917
 3182SOL    HW210446   0.452   0.542   5.875
 3183SOL     OW10447   4.028   4.874   1.468
 3183SOL    HW110448   3.959   4.899   1.537
 3183SOL    HW210449   4.054   4.956   1.416
 3184SOL     OW10450   2.224   1.735   2.321
 3184SOL    HW110451   2.203   1.651   2.372
 3184SOL    HW210452   2.199   1.815   2.376
 3185SOL     OW10453   0.213   6.967   5.275
 3185SOL    HW110454   0.204   6.880   5.324
 3185SOL    HW210455   0.277   0.005   5.324
 3186SOL     OW10456   3.549   0.973   2.801
 3186SOL    HW110457   3.453   0.965   2.775
 3186SOL    HW210458   3.603   0.902   2.757
 3187SOL     OW10459   3.817   4.035   6.954
 3187SOL    HW110460   3.717   4.027   6.950
 3187SOL    HW210461   3.857   3.944   6.966
 3188SOL     OW10462   3.271   5.894   2.931
 3188SOL    HW110463   3.360   5.860   2.962
 3188SOL    HW210464   3.284   5.959   2.856
 3189SOL     OW10465   1.327   0.656   3.309
 3189SOL    HW110466   1.424   0.667   3.285
 3189SOL    HW210467   1.319   0.587   3.381
 3190SOL     OW10468   1.347   6.315   1.625
 3190SOL    HW110469   1.438   6.285   1.595
 3190SOL    HW210470   1.278   6.287   1.559
 3191SOL     OW10471   3.856   0.502   1.264
 3191SOL    HW110472   3.901   0.463   1.344
 3191SOL    HW210473   3.757   0.499   1.277
 3192SOL     OW10474   0.766   2.094   1.223
 3192SOL    HW110475   0.814   2.180   1.202
 3192SOL    HW210476   0.730   2.055   1.139
 3193SOL     OW10477   4.586   2.397   6.553
 3193SOL    HW110478   4.508   2.352   6.509
 3193SOL    HW210479   4.664   2.335   6.554
 3194SOL     OW10480   1.636   3.863   6.749
 3194SOL    HW110481   1.731   3.833   6.739
 3194SOL    HW210482   1.592   3.867   6.660
 3195SOL     OW10483   1.413   2.574   3.738
 3195SOL    HW110484   1.505   2.605   3.760
 3195SOL    HW210485   1.359   2.566   3.822
 3196SOL     OW10486   0.268   0.126   4.613
 3196SOL    HW110487   0.346   0.154   4.557
 3196SOL    HW210488   0.259   0.187   4.692
 3197SOL     OW10489   1.297   5.821   3.295
 3197SOL    HW110490   1.241   5.745   3.263
 3197SOL    HW210491   1.347   5.794   3.378
 3198SOL     OW10492   6.897   1.897   5.961
 3198SOL    HW110493   6.864   1.848   6.041
 3198SOL    HW210494   6.839   1.876   5.883
 3199SOL     OW10495   4.935   1.398   1.849
 3199SOL    HW110496   4.866   1.455   1.805
 3199SOL    HW210497   5.027   1.428   1.822
 3200SOL     OW10498   0.248   2.432   0.630
 3200SOL    HW110499   0.260   2.374   0.549
 3200SOL    HW210500   0.213   2.521   0.602
 3201SOL     OW10501   5.499   4.055   3.682
 3201SOL    HW110502   5.547   4.044   3.595
 3201SOL    HW210503   5.545   4.004   3.754
 3202SOL     OW10504   1.952   4.457   2.000
 3202SOL    HW110505   1.852   4.463   1.996
 3202SOL    HW210506   1.979   4.364   2.025
 3203SOL     OW10507   6.602   0.989   1.179
 3203SOL    HW110508   6.658   0.938   1.243
 3203SOL    HW210509   6.604   0.945   1.089
 3204SOL     OW10510   6.393   5.678   1.474
 3204SOL    HW110511   6.485   5.656   1.440
 3204SOL    HW210512   6.345   5.593   1.497
 3205SOL     OW10513   6.730   3.699   5.886
 3205SOL    HW110514   6.779   3.681   5.800
 3205SOL    HW210515   6.722   3.797   5.899
 3206SOL     OW10516   0.416   6.728   5.643
 3206SOL    HW110517   0.425   6.629   5.640
 3206SOL    HW210518   0.373   6.760   5.558
 3207SOL     OW10519   0.914   1.166   5.307
 3207SOL    HW110520   0.820   1.191   5.284
 3207SOL    HW210521   0.974   1.189   5.231
 3208SOL     OW10522   4.634   5.514   4.908
 3208SOL    HW110523   4.592   5.425   4.894
 3208SOL    HW210524   4.608   5.575   4.833
 3209SOL     OW10525   3.176   6.962   4.006
 3209SOL    HW110526   3.103   6.957   4.074
 3209SOL    HW210527   3.147   6.915   3.923
 3210SOL     OW10528   6.997   3.908   2.503
 3210SOL    HW110529   0.028   3.955   2.574
 3210SOL    HW210530   6.901   3.936   2.508
 3211SOL     OW10531   2.225   4.594   1.303
 3211SOL    HW110532   2.251   4.595   1.400
 3211SOL    HW210533   2.153   4.526   1.289
 3212SOL     OW10534   4.417   2.456   6.790
 3212SOL    HW110535   4.360   2.538   6.782
 3212SOL    HW210536   4.479   2.451   6.711
 3213SOL     OW10537   5.827   5.765   3.268
 3213SOL    HW110538   5.877   5.841   3.226
 3213SOL    HW210539   5.821   5.779   3.366
 3214SOL     OW10540   4.201   6.308   6.701
 3214SOL    HW110541   4.107   6.279   6.680
 3214SOL    HW210542   4.205   6.407   6.703
 3215SOL     OW10543   6.694   2.633   0.045
 3215SOL    HW110544   6.626   2.637   6.992
 3215SOL    HW210545   6.657   2.676   0.127
 3216SOL     OW10546   5.592   6.318   3.826
 3216SOL    HW110547   5.652   6.398   3.822
 3216SOL    HW210548   5.500   6.345   3.796
 3217SOL     OW10549   0.788   4.194   2.552
 3217SOL    HW110550   0.850   4.124   2.517
 3217SOL    HW210551   0.738   4.159   2.631
 3218SOL     OW10552   3.656   0.125   2.914
 3218SOL    HW110553   3.697   0.131   3.005
 3218SOL    HW210554   3.569   0.075   2.920
 3219SOL     OW10555   0.374   0.045   2.774
 3219SOL    HW110556   0.352   0.124   2.831
 3219SOL    HW210557   0.341   6.983   2.820
 3220SOL     OW10558   0.173   4.958   4.914
 3220SOL    HW110559   0.125   4.875   4.883
 3220SOL    HW210560   0.265   4.934   4.943
 3221SOL     OW10561   2.315   6.621   3.812
 3221SOL    HW110562   2.365   6.649   3.894
 3221SOL    HW210563   2.358   6.662   3.731
 3222SOL     OW10564   4.763   1.767   2.924
 3222SOL    HW110565   4.819   1.790   3.004
 3222SOL    HW210566   4.784   1.674   2.894
 3223SOL     OW10567   2.709   5.431   5.722
 3223SOL    HW110568   2.758   5.428   5.635
 3223SOL    HW210569   2.687   5.527   5.743
 3224SOL     OW10570   4.344   5.662   6.917
 3224SOL    HW110571   4.362   5.579   6.863
 3224SOL    HW210572   4.422   5.724   6.910
 3225SOL     OW10573   3.783   3.247   0.476
 3225SOL    HW110574   3.730   3.289   0.549
 3225SOL    HW210575   3.723   3.191   0.419
 3226SOL     OW10576   2.148   0.803   4.261
 3226SOL    HW110577   2.199   0.823   4.344
 3226SOL    HW210578   2.054   0.836   4.271
 3227SOL     OW10579   3.676   1.672   5.936
 3227SOL    HW110580   3.620   1.590   5.947
 3227SOL    HW210581   3.713   1.699   6.026
 3228SOL     OW10582   5.564   3.385   4.129
 3228SOL    HW110583   5.590   3.469   4.176
 3228SOL    HW210584   5.587   3.394   4.032
 3229SOL     OW10585   3.921   1.856   5.590
 3229SOL    HW110586   3.847   1.807   5.545
 3229SOL    HW210587   3.886   1.906   5.668
 3230SOL     OW10588   0.442   0.941   3.018
 3230SOL    HW110589   0.466   0.952   2.921
 3230SOL    HW210590   0.343   0.938   3.027
 3231SOL     OW10591   5.102   5.559   1.240
 3231SOL    HW110592   5.053   5.644   1.258
 3231SOL    HW210593   5.190   5.580   1.196
 3232SOL     OW10594   3.039   5.128   4.544
 3232SOL    HW110595   3.082   5.038   4.533
 3232SOL    HW210596   2.948   5.117   4.584
 3233SOL     OW10597   0.420   3.724   1.325
 3233SOL    HW110598   0.470   3.789   1.267
 3233SOL    HW210599   0.481   3.688   1.395
 3234SOL     OW10600   7.009   1.972   6.854
 3234SOL    HW110601   0.062   1.999   6.793
 3234SOL    HW210602   6.922   2.005   6.817
 3235SOL     OW10603   5.523   6.963   3.067
 3235SOL    HW110604   5.478   0.030   3.058
 3235SOL    HW210605   5.495   6.920   3.153
 3236SOL     OW10606   0.913   2.703   2.766
 3236SOL    HW110607   0.818   2.675   2.753
 3236SOL    HW210608   0.928   2.729   2.862
 3237SOL     OW10609   4.087   6.363   4.830
 3237SOL    HW110610   4.031   6.442   4.857
 3237SOL    HW210611   4.027   6.286   4.807
 3238SOL     OW10612   0.506   5.605   6.334
 3238SOL    HW110613   0.479   5.628   6.428
 3238SOL    HW210614   0.424   5.594   6.277
 3239SOL     OW10615   6.315   0.437   5.912
 3239SOL    HW110616   6.353   0.440   6.004
 3239SOL    HW210617   6.365   0.502   5.853
 3240SOL     OW10618   1.253   0.105   4.754
 3240SOL    HW110619   1.298   0.044   4.819
 3240SOL    HW210620   1.274   0.200   4.778
 3241SOL     OW10621   5.052   0.985   3.795
 3241SOL    HW110622   4.985   0.912   3.806
 3241SOL    HW210623   5.122   0.956   3.729
 3242SOL     OW10624   3.869   6.034   6.386
 3242SOL    HW110625   3.940   6.000   6.325
 3242SOL    HW210626   3.821   6.111   6.343
 3243SOL     OW10627   4.524   5.383   0.250
 3243SOL    HW110628   4.461   5.450   0.209
 3243SOL    HW210629   4.550   5.315   0.182
 3244SOL     OW10630   3.741   5.860   5.716
 3244SOL    HW110631   3.786   5.844   5.804
 3244SOL    HW210632   3.693   5.948   5.719
 3245SOL     OW10633   4.076   3.266   6.137
 3245SOL    HW110634   4.127   3.345   6.103
 3245SOL    HW210635   3.979   3.279   6.122
 3246SOL     OW10636   5.551   6.532   2.974
 3246SOL    HW110637   5.510   6.440   2.967
 3246SOL    HW210638   5.482   6.600   2.947
 3247SOL     OW10639   6.914   3.240   3.895
 3247SOL    HW110640   6.862   3.254   3.811
 3247SOL    HW210641   6.874   3.165   3.948
 3248SOL     OW10642   6.172   3.017   2.233
 3248SOL    HW110643   6.258   3.050   2.194
 3248SOL    HW210644   6.107   2.998   2.159
 3249SOL     OW10645   2.957   4.860   4.728
 3249SOL    HW110646   2.947   4.769   4.687
 3249SOL    HW210647   2.947   4.853   4.827
 3250SOL     OW10648   4.639   6.798   2.485
 3250SOL    HW110649   4.559   6.841   2.443
 3250SOL    HW210650   4.693   6.752   2.414
 3251SOL     OW10651   3.616   1.988   3.028
 3251SOL    HW110652   3.691   2.041   3.068
 3251SOL    HW210653   3.554   1.957   3.100
 3252SOL     OW10654   2.718   1.064   2.951
 3252SOL    HW110655   2.648   1.090   3.017
 3252SOL    HW210656   2.717   0.965   2.938
 3253SOL     OW10657   5.076   2.712   1.617
 3253SOL    HW110658   5.152   2.718   1.681
 3253SOL    HW210659   5.031   2.801   1.609
 3254SOL     OW10660   4.100   4.779   3.408
 3254SOL    HW110661   4.173   4.830   3.454
 3254SOL    HW210662   4.099   4.803   3.311
 3255SOL     OW10663   4.406   5.848   0.219
 3255SOL    HW110664   4.437   5.854   0.314
 3255SOL    HW210665   4.458   5.913   0.163
 3256SOL     OW10666   5.068   6.541   5.909
 3256SOL    HW110667   5.082   6.638   5.930
 3256SOL    HW210668   5.156   6.495   5.905
 3257SOL     OW10669   1.464   1.985   0.876
 3257SOL    HW110670   1.394   1.954   0.941
 3257SOL    HW210671   1.421   2.034   0.801
 3258SOL     OW10672   5.326   6.604   1.524
 3258SOL    HW110673   5.389   6.642   1.592
 3258SOL    HW210674   5.321   6.666   1.445
 3259SOL     OW10675   4.095   5.745   4.399
 3259SOL    HW110676   4.028   5.744   4.325
 3259SOL    HW210677   4.051   5.780   4.482
 3260SOL     OW10678   1.752   1.384   6.939
 3260SOL    HW110679   1.807   1.456   6.898
 3260SOL    HW210680   1.812   1.308   6.965
 3261SOL     OW10681   4.707   6.639   0.890
 3261SOL    HW110682   4.717   6.737   0.903
 3261SOL    HW210683   4.635   6.605   0.950
 3262SOL     OW10684   3.594   1.820   2.834
 3262SOL    HW110685   3.496   1.798   2.830
 3262SOL    HW210686   3.610   1.890   2.902
 3263SOL     OW10687   4.570   6.736   1.742
 3263SOL    HW110688   4.656   6.686   1.744
 3263SOL    HW210689   4.584   6.824   1.696
 3264SOL     OW10690   0.106   5.145   0.350
 3264SOL    HW110691   0.055   5.059   0.353
 3264SOL    HW210692   0.041   5.221   0.346
 3265SOL     OW10693   4.843   1.449   6.381
 3265SOL    HW110694   4.841   1.537   6.429
 3265SOL    HW210695   4.887   1.460   6.292
 3266SOL     OW10696   0.549   2.377   6.579
 3266SOL    HW110697   0.615   2.447   6.552
 3266SOL    HW210698   0.490   2.356   6.501
 3267SOL     OW10699   3.434   2.087   0.837
 3267SOL    HW110700   3.513   2.103   0.897
 3267SOL    HW210701   3.465   2.055   0.748
 3268SOL     OW10702   0.855   4.106   0.216
 3268SOL    HW110703   0.818   4.121   0.124
 3268SOL    HW210704   0.877   4.009   0.228
 3269SOL     OW10705   4.422   4.423   0.986
 3269SOL    HW110706   4.333   4.465   0.968
 3269SOL    HW210707   4.427   4.335   0.940
 3270SOL     OW10708   0.649   5.385   4.091
 3270SOL    HW110709   0.732   5.433   4.120
 3270SOL    HW210710   0.629   5.311   4.156
 3271SOL     OW10711   6.439   2.879   1.339
 3271SOL    HW110712   6.454   2.891   1.437
 3271SOL    HW210713   6.525   2.851   1.296
 3272SOL     OW10714   3.764   0.711   0.485
 3272SOL    HW110715   3.781   0.732   0.581
 3272SOL    HW210716   3.818   0.631   0.458
 3273SOL     OW10717   0.753   6.566   2.371
 3273SOL    HW110718   0.712   6.580   2.280
 3273SOL    HW210719   0.845   6.528   2.360
 3274SOL     OW10720   2.373   2.090   5.681
 3274SOL    HW110721   2.375   2.102   5.780
 3274SOL    HW210722   2.465   2.102   5.644
 3275SOL     OW10723   2.081   0.454   6.912
 3275SOL    HW110724   2.144   0.467   6.989
 3275SOL    HW210725   2.116   0.381   6.853
 3276SOL     OW10726   3.279   5.717   6.282
 3276SOL    HW110727   3.354   5.776   6.253
 3276SOL    HW210728   3.260   5.732   6.379
 3277SOL     OW10729   6.953   6.146   5.494
 3277SOL    HW110730   6.953   6.082   5.417
 3277SOL    HW210731   6.877   6.124   5.555
 3278SOL     OW10732   1.303   0.566   5.932
 3278SOL    HW110733   1.398   0.537   5.923
 3278SOL    HW210734   1.263   0.526   6.014
 3279SOL     OW10735   0.148   6.807   1.020
 3279SOL    HW110736   0.110   6.818   0.928
 3279SOL    HW210737   0.141   6.711   1.048
 3280SOL     OW10738   2.151   5.029   6.202
 3280SOL    HW110739   2.122   5.105   6.145
 3280SOL    HW210740   2.232   5.055   6.254
 3281SOL     OW10741   2.464   5.579   7.000
 3281SOL    HW110742   2.554   5.545   6.972
 3281SOL    HW210743   2.392   5.520   6.963
 3282SOL     OW10744   2.500   5.289   3.968
 3282SOL    HW110745   2.557   5.349   4.024
 3282SOL    HW210746   2.555   5.254   3.891
 3283SOL     OW10747   2.731   0.762   3.191
 3283SOL    HW110748   2.822   0.752   3.232
 3283SOL    HW210749   2.724   0.703   3.111
 3284SOL     OW10750   6.776   5.518   6.878
 3284SOL    HW110751   6.724   5.530   6.793
 3284SOL    HW210752   6.853   5.582   6.880
 3285SOL     OW10753   0.621   2.054   2.946
 3285SOL    HW110754   0.584   2.040   3.038
 3285SOL    HW210755   0.623   1.967   2.897
 3286SOL     OW10756   3.283   3.710   4.861
 3286SOL    HW110757   3.249   3.797   4.825
 3286SOL    HW210758   3.371   3.689   4.820
 3287SOL     OW10759   1.855   5.413   0.314
 3287SOL    HW110760   1.878   5.491   0.256
 3287SOL    HW210761   1.869   5.329   0.262
 3288SOL     OW10762   0.712   5.793   6.361
 3288SOL    HW110763   0.733   5.853   6.438
 3288SOL    HW210764   0.613   5.775   6.360
 3289SOL     OW10765   0.683   6.172   5.437
 3289SOL    HW110766   0.730   6.091   5.474
 3289SOL    HW210767   0.639   6.148   5.351
 3290SOL     OW10768   6.818   5.677   1.623
 3290SOL    HW110769   6.897   5.660   1.682
 3290SOL    HW210770   6.737   5.691   1.681
 3291SOL     OW10771   1.603   6.045   6.975
 3291SOL    HW110772   1.663   5.980   0.000
 3291SOL    HW210773   1.636   6.138   6.993
 3292SOL     OW10774   6.800   6.911   5.989
 3292SOL    HW110775   6.846   6.836   6.036
 3292SOL    HW210776   6.783   6.985   6.054
 3293SOL     OW10777   6.681   1.137   2.787
 3293SOL    HW110778   6.585   1.118   2.807
 3293SOL    HW210779   6.705   1.100   2.698
 3294SOL     OW10780   6.813   0.537   6.165
 3294SOL    HW110781   6.874   0.600   6.117
 3294SOL    HW210782   6.732   0.586   6.197
 3295SOL     OW10783   2.212   3.091   0.982
 3295SOL    HW110784   2.131   3.133   0.941
 3295SOL    HW210785   2.243   3.147   1.059
 3296SOL     OW10786   2.040   6.605   2.584
 3296SOL    HW110787   2.117   6.576   2.527
 3296SOL    HW210788   1.981   6.527   2.603
 3297SOL     OW10789   3.153   2.670   6.070
 3297SOL    HW110790   3.169   2.583   6.023
 3297SOL    HW210791   3.109   2.735   6.008
 3298SOL     OW10792   6.632   3.187   2.529
 3298SOL    HW110793   6.686   3.135   2.595
 3298SOL    HW210794   6.551   3.134   2.503
 3299SOL     OW10795   1.735   0.012   5.215
 3299SOL    HW110796   1.688   6.951   5.246
 3299SOL    HW210797   1.762   0.067   5.294
 3300SOL     OW10798   6.374   6.612   4.740
 3300SOL    HW110799   6.344   6.638   4.832
 3300SOL    HW210800   6.296   6.583   4.686
 3301SOL     OW10801   0.133   3.369   3.118
 3301SOL    HW110802   0.189   3.374   3.200
 3301SOL    HW210803   0.170   3.300   3.055
 3302SOL     OW10804   1.504   4.657   3.574
 3302SOL    HW110805   1.465   4.719   3.506
 3302SOL    HW210806   1.505   4.702   3.663
 3303SOL     OW10807   3.885   3.689   3.896
 3303SOL    HW110808   3.961   3.633   3.862
 3303SOL    HW210809   3.821   3.632   3.947
 3304SOL     OW10810   0.667   6.383   4.309
 3304SOL    HW110811   0.628   6.461   4.259
 3304SOL    HW210812   0.657   6.398   4.407
 3305SOL     OW10813   1.891   1.088   2.022
 3305SOL    HW110814   1.847   1.040   1.946
 3305SOL    HW210815   1.875   1.186   2.015
 3306SOL     OW10816   2.248   4.090   3.378
 3306SOL    HW110817   2.343   4.092   3.348
 3306SOL    HW210818   2.223   4.180   3.413
 3307SOL     OW10819   6.236   6.118   0.678
 3307SOL    HW110820   6.308   6.144   0.614
 3307SOL    HW210821   6.152   6.096   0.627
 3308SOL     OW10822   4.983   6.106   0.939
 3308SOL    HW110823   5.036   6.172   0.886
 3308SOL    HW210824   4.890   6.101   0.902
 3309SOL     OW10825   0.707   4.904   3.435
 3309SOL    HW110826   0.675   4.885   3.528
 3309SOL    HW210827   0.771   4.832   3.407
 3310SOL     OW10828   0.422   4.776   2.658
 3310SOL    HW110829   0.395   4.764   2.753
 3310SOL    HW210830   0.482   4.855   2.649
 3311SOL     OW10831   4.366   6.950   1.008
 3311SOL    HW110832   4.370   6.890   1.088
 3311SOL    HW210833   4.302   6.911   0.941
 3312SOL     OW10834   3.404   3.452   6.116
 3312SOL    HW110835   3.442   3.484   6.202
 3312SOL    HW210836   3.304   3.464   6.117
 3313SOL     OW10837   0.562   4.972   3.757
 3313SOL    HW110838   0.526   4.923   3.836
 3313SOL    HW210839   0.559   5.071   3.776
 3314SOL     OW10840   1.804   3.488   5.427
 3314SOL    HW110841   1.879   3.495   5.361
 3314SOL    HW210842   1.763   3.579   5.440
 3315SOL     OW10843   6.927   2.142   3.835
 3315SOL    HW110844   6.944   2.054   3.879
 3315SOL    HW210845   6.889   2.127   3.744
 3316SOL     OW10846   4.918   2.195   6.101
 3316SOL    HW110847   4.904   2.238   6.011
 3316SOL    HW210848   4.834   2.149   6.129
 3317SOL     OW10849   4.414   2.535   1.371
 3317SOL    HW110850   4.328   2.556   1.324
 3317SOL    HW210851   4.424   2.595   1.450
 3318SOL     OW10852   2.635   6.196   5.077
 3318SOL    HW110853   2.683   6.149   5.003
 3318SOL    HW210854   2.580   6.130   5.129
 3319SOL     OW10855   0.860   6.021   4.518
 3319SOL    HW110856   0.874   5.990   4.424
 3319SOL    HW210857   0.946   6.056   4.555
 3320SOL     OW10858   5.927   0.888   5.408
 3320SOL    HW110859   6.009   0.940   5.432
 3320SOL    HW210860   5.869   0.879   5.489
 3321SOL     OW10861   3.089   3.138   3.391
 3321SOL    HW110862   3.057   3.070   3.457
 3321SOL    HW210863   3.018   3.207   3.377
 3322SOL     OW10864   4.231   1.919   0.744
 3322SOL    HW110865   4.193   1.961   0.661
 3322SOL    HW210866   4.309   1.973   0.775
 3323SOL     OW10867   2.054   5.030   6.882
 3323SOL    HW110868   2.020   5.123   6.870
 3323SOL    HW210869   2.088   5.018   6.975
 3324SOL     OW10870   1.032   3.376   0.062
 3324SOL    HW110871   1.104   3.307   0.057
 3324SOL    HW210872   1.037   3.423   0.150
 3325SOL     OW10873   1.624   2.501   0.850
 3325SOL    HW110874   1.626   2.401   0.844
 3325SOL    HW210875   1.547   2.529   0.907
 3326SOL     OW10876   6.283   1.794   0.746
 3326SOL    HW110877   6.207   1.737   0.777
 3326SOL    HW210878   6.254   1.889   0.739
 3327SOL     OW10879   3.150   6.621   2.130
 3327SOL    HW110880   3.132   6.578   2.042
 3327SOL    HW210881   3.219   6.569   2.180
 3328SOL     OW10882   5.095   1.101   2.025
 3328SOL    HW110883   5.058   1.043   2.098
 3328SOL    HW210884   5.195   1.095   2.027
 3329SOL     OW10885   4.730   0.918   5.401
 3329SOL    HW110886   4.657   0.906   5.333
 3329SOL    HW210887   4.819   0.911   5.356
 3330SOL     OW10888   5.898   6.385   2.437
 3330SOL    HW110889   5.967   6.453   2.460
 3330SOL    HW210890   5.810   6.412   2.477
 3331SOL     OW10891   2.114   3.480   2.777
 3331SOL    HW110892   2.123   3.471   2.876
 3331SOL    HW210893   2.166   3.408   2.732
 3332SOL     OW10894   4.270   5.549   0.566
 3332SOL    HW110895   4.239   5.643   0.577
 3332SOL    HW210896   4.368   5.543   0.584
 3333SOL     OW10897   3.938   3.703   1.786
 3333SOL    HW110898   3.961   3.778   1.848
 3333SOL    HW210899   3.901   3.741   1.701
 3334SOL     OW10900   1.842   2.240   2.652
 3334SOL    HW110901   1.916   2.307   2.645
 3334SOL    HW210902   1.854   2.169   2.582
 3335SOL     OW10903   3.858   4.319   5.214
 3335SOL    HW110904   3.762   4.292   5.207
 3335SOL    HW210905   3.899   4.319   5.123
 3336SOL     OW10906   3.951   6.769   3.716
 3336SOL    HW110907   3.893   6.700   3.674
 3336SOL    HW210908   3.906   6.858   3.712
 3337SOL     OW10909   3.238   4.129   2.981
 3337SOL    HW110910   3.235   4.225   3.009
 3337SOL    HW210911   3.204   4.120   2.887
 3338SOL     OW10912   2.078   1.341   1.738
 3338SOL    HW110913   1.999   1.371   1.685
 3338SOL    HW210914   2.096   1.407   1.811
 3339SOL     OW10915   2.295   0.660   5.939
 3339SOL    HW110916   2.375   0.635   5.994
 3339SOL    HW210917   2.243   0.731   5.987
 3340SOL     OW10918   4.088   1.154   4.253
 3340SOL    HW110919   4.018   1.217   4.288
 3340SOL    HW210920   4.056   1.115   4.166
 3341SOL     OW10921   2.478   4.707   2.681
 3341SOL    HW110922   2.491   4.664   2.592
 3341SOL    HW210923   2.479   4.807   2.669
 3342SOL     OW10924   6.524   0.038   2.994
 3342SOL    HW110925   6.430   0.022   2.966
 3342SOL    HW210926   6.586   0.013   2.920
 3343SOL     OW10927   4.870   5.510   6.490
 3343SOL    HW110928   4.934   5.560   6.432
 3343SOL    HW210929   4.920   5.447   6.549
 3344SOL     OW10930   6.954   3.148   1.446
 3344SOL    HW110931   7.005   3.066   1.471
 3344SOL    HW210932   7.006   3.202   1.380
 3345SOL     OW10933   0.262   4.702   0.734
 3345SOL    HW110934   0.189   4.707   0.666
 3345SOL    HW210935   0.345   4.667   0.691
 3346SOL     OW10936   1.867   0.928   6.956
 3346SOL    HW110937   1.858   0.861   6.882
 3346SOL    HW210938   1.940   0.900   7.018
 3347SOL     OW10939   0.856   3.252   6.226
 3347SOL    HW110940   0.934   3.249   6.289
 3347SOL    HW210941   0.788   3.183   6.253
 3348SOL     OW10942   3.888   3.954   6.154
 3348SOL    HW110943   3.955   4.016   6.195
 3348SOL    HW210944   3.907   3.943   6.057
 3349SOL     OW10945   2.819   4.783   3.528
 3349SOL    HW110946   2.872   4.838   3.464
 3349SOL    HW210947   2.757   4.723   3.477
 3350SOL     OW10948   0.078   4.288   5.592
 3350SOL    HW110949   0.089   4.278   5.691
 3350SOL    HW210950   0.168   4.279   5.547
 3351SOL     OW10951   5.135   1.176   0.671
 3351SOL    HW110952   5.172   1.093   0.713
 3351SOL    HW210953   5.138   1.251   0.737
 3352SOL     OW10954   5.461   3.165   6.394
 3352SOL    HW110955   5.431   3.204   6.306
 3352SOL    HW210956   5.386   3.171   6.460
 3353SOL     OW10957   2.669   1.213   1.954
 3353SOL    HW110958   2.645   1.298   1.907
 3353SOL    HW210959   2.606   1.140   1.925
 3354SOL     OW10960   3.796   2.974   6.104
 3354SOL    HW110961   3.747   2.953   6.020
 3354SOL    HW210962   3.745   2.940   6.183
 3355SOL     OW10963   2.255   0.661   4.770
 3355SOL    HW110964   2.323   0.714   4.820
 3355SOL    HW210965   2.288   0.568   4.758
 3356SOL     OW10966   1.543   6.999   5.542
 3356SOL    HW110967   1.577   6.911   5.509
 3356SOL    HW210968   1.489   6.985   5.625
 3357SOL     OW10969   3.453   3.205   1.624
 3357SOL    HW110970   3.470   3.276   1.693
 3357SOL    HW210971   3.516   3.218   1.548
 3358SOL     OW10972   6.443   0.622   2.736
 3358SOL    HW110973   6.355   0.588   2.770
 3358SOL    HW210974   6.473   0.699   2.792
 3359SOL     OW10975   6.617   5.601   4.133
 3359SOL    HW110976   6.649   5.566   4.045
 3359SOL    HW210977   6.661   5.550   4.207
 3360SOL     OW10978   6.978   2.982   5.520
 3360SOL    HW110979   6.922   2.947   5.445
 3360SOL    HW210980   0.018   3.053   5.486
 3361SOL     OW10981   0.452   0.829   4.724
 3361SOL    HW110982   0.482   0.924   4.729
 3361SOL    HW210983   0.529   0.769   4.747
 3362SOL     OW10984   3.725   1.655   4.077
 3362SOL    HW110985   3.656   1.640   4.147
 3362SOL    HW210986   3.713   1.745   4.036
 3363SOL     OW10987   5.890   3.289   1.322
 3363SOL    HW110988   5.857   3.259   1.411
 3363SOL    HW210989   5.990   3.287   1.320
 3364SOL     OW10990   2.281   4.150   3.066
 3364SOL    HW110991   2.199   4.175   3.118
 3364SOL    HW210992   2.358   4.205   3.096
 3365SOL     OW10993   2.048   3.282   4.541
 3365SOL    HW110994   2.067   3.282   4.639
 3365SOL    HW210995   1.951   3.258   4.527
 3366SOL     OW10996   6.097   3.758   4.285
 3366SOL    HW110997   6.196   3.752   4.273
 3366SOL    HW210998   6.075   3.747   4.382
 3367SOL     OW10999   3.834   3.199   4.498
 3367SOL    HW111000   3.768   3.272   4.511
 3367SOL    HW211001   3.927   3.235   4.507
 3368SOL     OW11002   1.690   5.885   0.292
 3368SOL    HW111003   1.790   5.893   0.298
 3368SOL    HW211004   1.665   5.850   0.202
 3369SOL     OW11005   4.127   2.472   1.044
 3369SOL    HW111006   4.120   2.376   1.072
 3369SOL    HW211007   4.115   2.478   0.945
 3370SOL     OW11008   0.378   5.597   2.035
 3370SOL    HW111009   0.390   5.534   2.111
 3370SOL    HW211010   0.302   5.659   2.054
 3371SOL     OW11011   2.396   2.767   3.187
 3371SOL    HW111012   2.370   2.851   3.140
 3371SOL    HW211013   2.381   2.779   3.286
 3372SOL     OW11014   6.581   3.323   1.233
 3372SOL    HW111015   6.542   3.314   1.141
 3372SOL    HW211016   6.521   3.277   1.299
 3373SOL     OW11017   0.265   2.223   1.330
 3373SOL    HW111018   0.333   2.152   1.311
 3373SOL    HW211019   0.190   2.184   1.384
 3374SOL     OW11020   0.431   0.605   3.605
 3374SOL    HW111021   0.453   0.524   3.659
 3374SOL    HW211022   0.336   0.632   3.624
 3375SOL     OW11023   6.791   4.846   6.650
 3375SOL    HW111024   6.860   4.873   6.583
 3375SOL    HW211025   6.812   4.754   6.684
 3376SOL     OW11026   2.489   3.537   5.640
 3376SOL    HW111027   2.524   3.600   5.570
 3376SOL    HW211028   2.401   3.570   5.674
 3377SOL     OW11029   5.794   4.387   3.045
 3377SOL    HW111030   5.759   4.320   3.111
 3377SOL    HW211031   5.894   4.383   3.043
 3378SOL     OW11032   1.204   6.502   6.707
 3378SOL    HW111033   1.197   6.595   6.741
 3378SOL    HW211034   1.133   6.445   6.748
 3379SOL     OW11035   0.457   3.934   3.844
 3379SOL    HW111036   0.552   3.935   3.875
 3379SOL    HW211037   0.452   3.891   3.754
 3380SOL     OW11038   3.804   4.213   5.954
 3380SOL    HW111039   3.834   4.169   5.870
 3380SOL    HW211040   3.717   4.173   5.983
 3381SOL     OW11041   1.641   3.280   1.284
 3381SOL    HW111042   1.567   3.346   1.271
 3381SOL    HW211043   1.726   3.319   1.249
 3382SOL     OW11044   6.771   2.270   0.876
 3382SOL    HW111045   6.739   2.260   0.782
 3382SOL    HW211046   6.841   2.342   0.880
 3383SOL     OW11047   5.285   5.002   0.123
 3383SOL    HW111048   5.290   5.031   0.218
 3383SOL    HW211049   5.217   4.928   0.115
 3384SOL     OW11050   2.655   4.228   0.733
 3384SOL    HW111051   2.683   4.166   0.806
 3384SOL    HW211052   2.620   4.175   0.656
 3385SOL     OW11053   0.554   2.053   3.209
 3385SOL    HW111054   0.466   2.062   3.255
 3385SOL    HW211055   0.610   1.987   3.259
 3386SOL     OW11056   6.445   4.873   6.649
 3386SOL    HW111057   6.426   4.912   6.739
 3386SOL    HW211058   6.449   4.774   6.656
 3387SOL     OW11059   6.339   0.236   3.197
 3387SOL    HW111060   6.375   0.285   3.276
 3387SOL    HW211061   6.374   0.142   3.197
 3388SOL     OW11062   6.172   3.009   1.838
 3388SOL    HW111063   6.271   3.017   1.847
 3388SOL    HW211064   6.135   3.094   1.800
 3389SOL     OW11065   6.203   6.009   0.918
 3389SOL    HW111066   6.203   6.043   0.824
 3389SOL    HW211067   6.168   5.915   0.920
 3390SOL     OW11068   4.041   6.306   6.188
 3390SOL    HW111069   3.944   6.329   6.186
 3390SOL    HW211070   4.086   6.346   6.109
 3391SOL     OW11071   5.587   2.996   3.349
 3391SOL    HW111072   5.529   2.927   3.393
 3391SOL    HW211073   5.566   2.998   3.251
 3392SOL     OW11074   4.241   6.715   5.715
 3392SOL    HW111075   4.167   6.720   5.782
 3392SOL    HW211076   4.213   6.760   5.630
 3393SOL     OW11077   5.317   6.720   1.269
 3393SOL    HW111078   5.371   6.783   1.213
 3393SOL    HW211079   5.224   6.714   1.232
 3394SOL     OW11080   2.880   5.534   1.725
 3394SOL    HW111081   2.801   5.566   1.777
 3394SOL    HW211082   2.872   5.566   1.630
 3395SOL     OW11083   4.183   0.344   2.980
 3395SOL    HW111084   4.100   0.355   2.925
 3395SOL    HW211085   4.174   0.398   3.064
 3396SOL     OW11086   4.282   1.812   3.833
 3396SOL    HW111087   4.380   1.794   3.839
 3396SOL    HW211088   4.236   1.770   3.912
 3397SOL     OW11089   2.518   5.739   6.570
 3397SOL    HW111090   2.511   5.778   6.478
 3397SOL    HW211091   2.471   5.650   6.571
 3398SOL     OW11092   7.004   2.050   4.985
 3398SOL    HW111093   0.006   2.099   5.069
 3398SOL    HW211094   6.944   1.973   5.006
 3399SOL     OW11095   6.948   4.970   2.499
 3399SOL    HW111096   6.941   4.874   2.474
 3399SOL    HW211097   7.016   4.981   2.571
 3400SOL     OW11098   5.779   2.371   5.664
 3400SOL    HW111099   5.735   2.446   5.714
 3400SOL    HW211100   5.715   2.333   5.598
 3401SOL     OW11101   6.919   3.432   5.433
 3401SOL    HW111102   6.925   3.514   5.377
 3401SOL    HW211103   6.971   3.446   5.518
 3402SOL     OW11104   6.858   4.631   1.527
 3402SOL    HW111105   6.863   4.534   1.502
 3402SOL    HW211106   6.779   4.673   1.482
 3403SOL     OW11107   3.997   6.682   6.796
 3403SOL    HW111108   3.972   6.704   6.890
 3403SOL    HW211109   3.928   6.620   6.757
 3404SOL     OW11110   5.245   3.399   5.319
 3404SOL    HW111111   5.177   3.377   5.389
 3404SOL    HW211112   5.225   3.348   5.236
 3405SOL     OW11113   5.703   6.055   5.713
 3405SOL    HW111114   5.750   6.092   5.633
 3405SOL    HW211115   5.756   6.077   5.795
 3406SOL     OW11116   2.015   3.807   1.755
 3406SOL    HW111117   2.070   3.889   1.770
 3406SOL    HW211118   2.029   3.743   1.830
 3407SOL     OW11119   1.697   3.883   0.131
 3407SOL    HW111120   1.746   3.965   0.161
 3407SOL    HW211121   1.752   3.802   0.150
 3408SOL     OW11122   4.995   2.380   3.859
 3408SOL    HW111123   5.028   2.410   3.769
 3408SOL    HW211124   5.011   2.282   3.870
 3409SOL     OW11125   4.646   1.088   0.707
 3409SOL    HW111126   4.598   1.176   0.705
 3409SOL    HW211127   4.717   1.091   0.777
 3410SOL     OW11128   5.092   0.250   2.421
 3410SOL    HW111129   5.085   0.152   2.440
 3410SOL    HW211130   5.005   0.284   2.387
 3411SOL     OW11131   6.940   2.287   0.510
 3411SOL    HW111132   6.919   2.384   0.526
 3411SOL    HW211133   6.988   2.278   0.423
 3412SOL     OW11134   5.612   3.235   1.733
 3412SOL    HW111135   5.623   3.295   1.812
 3412SOL    HW211136   5.533   3.175   1.748
 3413SOL     OW11137   0.141   1.867   5.799
 3413SOL    HW111138   0.108   1.862   5.893
 3413SOL    HW211139   0.175   1.959   5.780
 3414SOL     OW11140   4.027   3.055   1.131
 3414SOL    HW111141   4.116   3.054   1.086
 3414SOL    HW211142   3.968   2.987   1.089
 3415SOL     OW11143   2.082   2.603   5.112
 3415SOL    HW111144   2.000   2.651   5.080
 3415SOL    HW211145   2.151   2.670   5.140
 3416SOL     OW11146   6.412   0.009   6.485
 3416SOL    HW111147   6.435   0.060   6.568
 3416SOL    HW211148   6.496   6.995   6.443
 3417SOL     OW11149   6.830   6.501   2.917
 3417SOL    HW111150   6.785   6.553   2.989
 3417SOL    HW211151   6.906   6.448   2.955
 3418SOL     OW11152   4.611   5.039   1.483
 3418SOL    HW111153   4.574   5.039   1.576
 3418SOL    HW211154   4.545   5.081   1.422
 3419SOL     OW11155   3.012   6.039   5.856
 3419SOL    HW111156   2.990   5.995   5.769
 3419SOL    HW211157   2.928   6.064   5.903
 3420SOL     OW11158   4.381   2.326   3.901
 3420SOL    HW111159   4.371   2.276   3.986
 3420SOL    HW211160   4.294   2.328   3.852
 3421SOL     OW11161   5.427   2.397   3.499
 3421SOL    HW111162   5.459   2.366   3.589
 3421SOL    HW211163   5.505   2.428   3.445
 3422SOL     OW11164   1.960   0.028   1.158
 3422SOL    HW111165   1.946   6.978   1.227
 3422SOL    HW211166   1.993   7.008   1.073
 3423SOL     OW11167   0.961   4.532   5.439
 3423SOL    HW111168   0.956   4.616   5.384
 3423SOL    HW211169   0.979   4.556   5.534
 3424SOL     OW11170   4.697   0.138   1.741
 3424SOL    HW111171   4.760   0.172   1.670
 3424SOL    HW211172   4.741   0.147   1.831
 3425SOL     OW11173   5.656   4.400   1.408
 3425SOL    HW111174   5.671   4.310   1.449
 3425SOL    HW211175   5.742   4.436   1.372
 3426SOL     OW11176   5.441   3.613   6.996
 3426SOL    HW111177   5.497   3.643   6.919
 3426SOL    HW211178   5.478   3.649   0.060
 3427SOL     OW11179   1.295   2.615   0.368
 3427SOL    HW111180   1.267   2.582   0.458
 3427SOL    HW211181   1.390   2.647   0.372
 3428SOL     OW11182   5.463   6.142   5.235
 3428SOL    HW111183   5.533   6.079   5.269
 3428SOL    HW211184   5.374   6.096   5.235
 3429SOL     OW11185   6.938   0.657   1.520
 3429SOL    HW111186   6.933   0.619   1.428
 3429SOL    HW211187   6.852   0.637   1.569
 3430SOL     OW11188   2.272   4.541   5.524
 3430SOL    HW111189   2.313   4.494   5.446
 3430SOL    HW211190   2.179   4.570   5.500
 3431SOL     OW11191   2.564   6.010   2.670
 3431SOL    HW111192   2.524   6.102   2.665
 3431SOL    HW211193   2.504   5.945   2.623
 3432SOL     OW11194   2.219   4.336   0.835
 3432SOL    HW111195   2.246   4.432   0.829
 3432SOL    HW211196   2.283   4.287   0.894
 3433SOL     OW11197   2.628   0.972   6.376
 3433SOL    HW111198   2.629   1.052   6.437
 3433SOL    HW211199   2.650   1.001   6.283
 3434SOL     OW11200   2.852   1.969   1.357
 3434SOL    HW111201   2.875   1.897   1.422
 3434SOL    HW211202   2.903   2.052   1.379
 3435SOL     OW11203   2.162   0.666   0.292
 3435SOL    HW111204   2.064   0.645   0.289
 3435SOL    HW211205   2.212   0.590   0.332
 3436SOL     OW11206   3.198   6.210   0.252
 3436SOL    HW111207   3.144   6.234   0.171
 3436SOL    HW211208   3.224   6.113   0.247
 3437SOL     OW11209   1.223   6.396   6.453
 3437SOL    HW111210   1.307   6.343   6.445
 3437SOL    HW211211   1.217   6.437   6.544
 3438SOL     OW11212   1.169   4.082   1.217
 3438SOL    HW111213   1.137   4.062   1.124
 3438SOL    HW211214   1.090   4.107   1.274
 3439SOL     OW11215   1.956   5.588   1.994
 3439SOL    HW111216   1.986   5.493   1.993
 3439SOL    HW211217   1.857   5.593   2.005
 3440SOL     OW11218   4.075   3.679   4.613
 3440SOL    HW111219   4.104   3.603   4.672
 3440SOL    HW211220   4.034   3.644   4.530
 3441SOL     OW11221   5.836   5.628   5.487
 3441SOL    HW111222   5.810   5.719   5.455
 3441SOL    HW211223   5.806   5.616   5.582
 3442SOL     OW11224   3.893   3.050   1.381
 3442SOL    HW111225   3.988   3.022   1.392
 3442SOL    HW211226   3.875   3.069   1.284
 3443SOL     OW11227   2.157   6.031   2.179
 3443SOL    HW111228   2.077   5.971   2.177
 3443SOL    HW211229   2.138   6.108   2.241
 3444SOL     OW11230   5.742   3.614   1.568
 3444SOL    HW111231   5.837   3.581   1.561
 3444SOL    HW211232   5.728   3.688   1.503
 3445SOL     OW11233   6.226   4.200   3.260
 3445SOL    HW111234   6.143   4.144   3.256
 3445SOL    HW211235   6.245   4.224   3.355
 3446SOL     OW11236   5.150   1.109   1.185
 3446SOL    HW111237   5.234   1.086   1.234
 3446SOL    HW211238   5.071   1.095   1.245
 3447SOL     OW11239   4.990   0.771   0.231
 3447SOL    HW111240   4.943   0.858   0.246
 3447SOL    HW211241   4.931   0.711   0.177
 3448SOL     OW11242   1.545   6.024   4.925
 3448SOL    HW111243   1.459   5.973   4.932
 3448SOL    HW211244   1.607   5.977   4.862
 3449SOL     OW11245   6.358   4.100   5.243
 3449SOL    HW111246   6.315   4.014   5.216
 3449SOL    HW211247   6.451   4.082   5.274
 3450SOL     OW11248   1.249   6.089   0.462
 3450SOL    HW111249   1.238   6.002   0.510
 3450SOL    HW211250   1.280   6.071   0.368
 3451SOL     OW11251   2.216   6.517   0.984
 3451SOL    HW111252   2.299   6.462   0.990
 3451SOL    HW211253   2.208   6.575   1.065
 3452SOL     OW11254   4.823   0.485   5.747
 3452SOL    HW111255   4.913   0.443   5.753
 3452SOL    HW211256   4.774   0.448   5.668
 3453SOL     OW11257   5.206   6.184   5.699
 3453SOL    HW111258   5.144   6.144   5.767
 3453SOL    HW211259   5.301   6.174   5.730
 3454SOL     OW11260   1.196   2.822   2.149
 3454SOL    HW111261   1.185   2.918   2.176
 3454SOL    HW211262   1.115   2.793   2.098
 3455SOL     OW11263   1.231   3.565   5.881
 3455SOL    HW111264   1.150   3.609   5.920
 3455SOL    HW211265   1.298   3.549   5.954
 3456SOL     OW11266   5.039   3.808   2.409
 3456SOL    HW111267   5.016   3.833   2.315
 3456SOL    HW211268   5.071   3.713   2.411
 3457SOL     OW11269   3.946   5.890   5.091
 3457SOL    HW111270   4.012   5.835   5.142
 3457SOL    HW211271   3.862   5.838   5.079
 3458SOL     OW11272   4.289   1.644   2.854
 3458SOL    HW111273   4.381   1.612   2.831
 3458SOL    HW211274   4.277   1.642   2.953
 3459SOL     OW11275   4.104   0.254   3.390
 3459SOL    HW111276   4.157   0.337   3.405
 3459SOL    HW211277   4.148   0.199   3.320
 3460SOL     OW11278   4.085   1.962   5.389
 3460SOL    HW111279   4.026   1.933   5.465
 3460SOL    HW211280   4.123   2.052   5.409
 3461SOL     OW11281   5.620   4.959   6.338
 3461SOL    HW111282   5.588   4.909   6.418
 3461SOL    HW211283   5.584   4.915   6.255
 3462SOL     OW11284   2.508   3.975   6.774
 3462SOL    HW111285   2.510   3.899   6.709
 3462SOL    HW211286   2.552   3.947   6.859
 3463SOL     OW11287   6.015   4.194   1.115
 3463SOL    HW111288   5.948   4.137   1.163
 3463SOL    HW211289   6.105   4.150   1.118
 3464SOL     OW11290   0.125   4.612   6.039
 3464SOL    HW111291   0.091   4.690   5.985
 3464SOL    HW211292   0.155   4.645   6.128
 3465SOL     OW11293   1.811   0.614   1.872
 3465SOL    HW111294   1.887   0.644   1.930
 3465SOL    HW211295   1.847   0.562   1.795
 3466SOL     OW11296   6.212   3.881   5.090
 3466SOL    HW111297   6.285   3.833   5.042
 3466SOL    HW211298   6.200   3.841   5.181
 3467SOL     OW11299   1.755   2.207   6.410
 3467SOL    HW111300   1.771   2.150   6.490
 3467SOL    HW211301   1.781   2.302   6.431
 3468SOL     OW11302   3.438   0.523   3.895
 3468SOL    HW111303   3.341   0.509   3.915
 3468SOL    HW211304   3.453   0.514   3.796
 3469SOL     OW11305   5.805   2.409   3.217
 3469SOL    HW111306   5.895   2.446   3.240
 3469SOL    HW211307   5.735   2.478   3.234
 3470SOL     OW11308   0.086   5.587   1.154
 3470SOL    HW111309   0.072   5.640   1.070
 3470SOL    HW211310   0.082   5.490   1.133
 3471SOL     OW11311   4.366   6.030   5.164
 3471SOL    HW111312   4.323   5.941   5.149
 3471SOL    HW211313   4.459   6.028   5.128
 3472SOL     OW11314   3.114   1.115   5.366
 3472SOL    HW111315   3.093   1.090   5.460
 3472SOL    HW211316   3.046   1.073   5.305
 3473SOL     OW11317   5.363   0.921   6.239
 3473SOL    HW111318   5.438   0.881   6.187
 3473SOL    HW211319   5.354   1.018   6.215
 3474SOL     OW11320   3.894   5.077   1.282
 3474SOL    HW111321   3.917   5.168   1.316
 3474SOL    HW211322   3.837   5.030   1.350
 3475SOL     OW11323   1.464   6.099   4.426
 3475SOL    HW111324   1.541   6.037   4.444
 3475SOL    HW211325   1.435   6.089   4.331
 3476SOL     OW11326   4.496   0.950   4.132
 3476SOL    HW111327   4.541   0.942   4.221
 3476SOL    HW211328   4.541   0.889   4.067
 3477SOL     OW11329   3.619   6.041   0.902
 3477SOL    HW111330   3.633   6.078   0.994
 3477SOL    HW211331   3.572   5.953   0.909
 3478SOL     OW11332   3.753   5.567   6.727
 3478SOL    HW111333   3.765   5.593   6.631
 3478SOL    HW211334   3.664   5.600   6.759
 3479SOL     OW11335   1.003   0.487   1.637
 3479SOL    HW111336   0.987   0.487   1.538
 3479SOL    HW211337   0.928   0.535   1.683
 3480SOL     OW11338   0.426   1.239   3.181
 3480SOL    HW111339   0.468   1.321   3.220
 3480SOL    HW211340   0.437   1.163   3.244
 3481SOL     OW11341   2.551   6.351   6.703
 3481SOL    HW111342   2.637   6.331   6.656
 3481SOL    HW211343   2.476   6.304   6.657
 3482SOL     OW11344   0.312   2.242   0.438
 3482SOL    HW111345   0.313   2.144   0.421
 3482SOL    HW211346   0.327   2.291   0.352
 3483SOL     OW11347   2.422   0.578   1.270
 3483SOL    HW111348   2.492   0.616   1.330
 3483SOL    HW211349   2.398   0.486   1.301
 3484SOL     OW11350   4.108   3.524   3.773
 3484SOL    HW111351   4.103   3.424   3.775
 3484SOL    HW211352   4.178   3.553   3.708
 3485SOL     OW11353   0.933   2.970   5.007
 3485SOL    HW111354   0.978   3.047   4.961
 3485SOL    HW211355   1.001   2.918   5.058
 3486SOL     OW11356   4.737   2.108   1.699
 3486SOL    HW111357   4.667   2.044   1.733
 3486SOL    HW211358   4.699   2.162   1.624
 3487SOL     OW11359   5.986   1.647   6.594
 3487SOL    HW111360   5.899   1.601   6.579
 3487SOL    HW211361   6.061   1.583   6.574
 3488SOL     OW11362   5.636   3.444   3.505
 3488SOL    HW111363   5.693   3.419   3.427
 3488SOL    HW211364   5.568   3.373   3.522
 3489SOL     OW11365   3.421   0.614   1.553
 3489SOL    HW111366   3.325   0.604   1.527
 3489SOL    HW211367   3.452   0.707   1.530
 3490SOL     OW11368   4.523   4.016   0.272
 3490SOL    HW111369   4.434   4.028   0.227
 3490SOL    HW211370   4.513   4.031   0.370
 3491SOL     OW11371   0.299   3.228   5.216
 3491SOL    HW111372   0.335   3.153   5.272
 3491SOL    HW211373   0.372   3.294   5.198
 3492SOL     OW11374   6.643   4.493   6.886
 3492SOL    HW111375   6.713   4.548   6.841
 3492SOL    HW211376   6.647   4.399   6.852
 3493SOL     OW11377   6.400   4.623   0.646
 3493SOL    HW111378   6.459   4.542   0.653
 3493SOL    HW211379   6.385   4.644   0.549
 3494SOL     OW11380   3.260   0.298   1.350
 3494SOL    HW111381   3.217   0.387   1.364
 3494SOL    HW211382   3.267   0.250   1.438
 3495SOL     OW11383   4.499   5.004   1.034
 3495SOL    HW111384   4.484   5.060   0.953
 3495SOL    HW211385   4.426   5.019   1.100
 3496SOL     OW11386   1.908   2.598   0.732
 3496SOL    HW111387   1.843   2.522   0.736
 3496SOL    HW211388   1.997   2.567   0.763
 3497SOL     OW11389   4.564   0.697   3.947
 3497SOL    HW111390   4.476   0.696   3.899
 3497SOL    HW211391   4.549   0.677   4.044
 3498SOL     OW11392   2.518   1.667   1.733
 3498SOL    HW111393   2.547   1.680   1.638
 3498SOL    HW211394   2.538   1.750   1.785
 3499SOL     OW11395   6.656   2.952   4.432
 3499SOL    HW111396   6.710   2.965   4.348
 3499SOL    HW211397   6.711   2.979   4.511
 3500SOL     OW11398   6.098   3.815   6.683
 3500SOL    HW111399   6.134   3.834   6.774
 3500SOL    HW211400   6.056   3.724   6.683
 3501SOL     OW11401   2.052   4.511   4.700
 3501SOL    HW111402   2.026   4.480   4.608
 3501SOL    HW211403   2.150   4.493   4.715
 3502SOL     OW11404   1.025   2.416   0.729
 3502SOL    HW111405   1.083   2.344   0.767
 3502SOL    HW211406   1.077   2.466   0.659
 3503SOL     OW11407   4.944   6.220   5.248
 3503SOL    HW111408   5.005   6.287   5.205
 3503SOL    HW211409   4.920   6.149   5.181
 3504SOL     OW11410   2.268   3.158   1.701
 3504SOL    HW111411   2.362   3.190   1.715
 3504SOL    HW211412   2.245   3.090   1.771
 3505SOL     OW11413   5.474   5.437   5.905
 3505SOL    HW111414   5.392   5.406   5.954
 3505SOL    HW211415   5.465   5.414   5.808
 3506SOL     OW11416   4.864   5.671   3.207
 3506SOL    HW111417   4.869   5.571   3.216
 3506SOL    HW211418   4.793   5.706   3.268
 3507SOL     OW11419   0.753   0.015   6.301
 3507SOL    HW111420   0.733   0.074   6.380
 3507SOL    HW211421   0.679   6.970   6.289
 3508SOL     OW11422   5.598   3.899   0.132
 3508SOL    HW111423   5.503   3.914   0.104
 3508SOL    HW211424   5.626   3.969   0.197
 3509SOL     OW11425   6.446   6.458   0.003
 3509SOL    HW111426   6.444   6.505   0.091
 3509SOL    HW211427   6.437   6.360   0.017
 3510SOL     OW11428   2.283   2.304   1.948
 3510SOL    HW111429   2.211   2.360   1.989
 3510SOL    HW211430   2.272   2.209   1.976
 3511SOL     OW11431   0.517   2.158   6.762
 3511SOL    HW111432   0.543   2.210   6.681
 3511SOL    HW211433   0.521   2.060   6.742
 3512SOL     OW11434   2.742   2.743   0.804
 3512SOL    HW111435   2.784   2.679   0.740
 3512SOL    HW211436   2.669   2.697   0.854
 3513SOL     OW11437   6.525   4.045   1.404
 3513SOL    HW111438   6.514   3.995   1.490
 3513SOL    HW211439   6.482   4.134   1.411
 3514SOL     OW11440   0.542   6.070   1.190
 3514SOL    HW111441   0.469   6.003   1.180
 3514SOL    HW211442   0.589   6.057   1.277
 3515SOL     OW11443   3.185   6.543   3.103
 3515SOL    HW111444   3.099   6.493   3.105
 3515SOL    HW211445   3.195   6.594   3.188
 3516SOL     OW11446   2.944   1.396   0.826
 3516SOL    HW111447   2.875   1.357   0.886
 3516SOL    HW211448   2.965   1.489   0.856
 3517SOL     OW11449   1.253   1.536   6.539
 3517SOL    HW111450   1.320   1.543   6.465
 3517SOL    HW211451   1.226   1.628   6.568
 3518SOL     OW11452   4.508   3.118   6.203
 3518SOL    HW111453   4.512   3.195   6.139
 3518SOL    HW211454   4.420   3.119   6.250
 3519SOL     OW11455   2.203   6.573   6.497
 3519SOL    HW111456   2.161   6.650   6.545
 3519SOL    HW211457   2.257   6.520   6.561
 3520SOL     OW11458   3.685   5.651   1.226
 3520SOL    HW111459   3.677   5.594   1.144
 3520SOL    HW211460   3.594   5.683   1.253
 3521SOL     OW11461   6.046   2.482   1.389
 3521SOL    HW111462   6.011   2.390   1.370
 3521SOL    HW211463   6.123   2.502   1.328
 3522SOL     OW11464   3.288   4.980   2.467
 3522SOL    HW111465   3.295   5.038   2.385
 3522SOL    HW211466   3.379   4.949   2.494
 3523SOL     OW11467   2.312   4.777   4.690
 3523SOL    HW111468   2.322   4.848   4.760
 3523SOL    HW211469   2.321   4.687   4.733
 3524SOL     OW11470   2.778   0.472   0.970
 3524SOL    HW111471   2.807   0.493   1.064
 3524SOL    HW211472   2.836   0.400   0.933
 3525SOL     OW11473   0.668   3.002   2.365
 3525SOL    HW111474   0.767   3.007   2.361
 3525SOL    HW211475   0.635   3.057   2.442
 3526SOL     OW11476   1.227   0.828   2.443
 3526SOL    HW111477   1.147   0.779   2.408
 3526SOL    HW211478   1.198   0.908   2.495
 3527SOL     OW11479   5.377   3.232   6.125
 3527SOL    HW111480   5.304   3.172   6.159
 3527SOL    HW211481   5.345   3.326   6.125
 3528SOL     OW11482   0.613   6.585   4.164
 3528SOL    HW111483   0.667   6.653   4.213
 3528SOL    HW211484   0.536   6.629   4.119
 3529SOL     OW11485   4.308   5.958   5.722
 3529SOL    HW111486   4.279   5.933   5.814
 3529SOL    HW211487   4.229   5.962   5.661
 3530SOL     OW11488   2.410   5.563   2.842
 3530SOL    HW111489   2.401   5.638   2.777
 3530SOL    HW211490   2.410   5.600   2.935
 3531SOL     OW11491   5.927   4.219   0.106
 3531SOL    HW111492   5.836   4.253   0.130
 3531SOL    HW211493   5.976   4.193   0.189
 3532SOL     OW11494   2.103   0.158   0.054
 3532SOL    HW111495   2.199   0.180   0.038
 3532SOL    HW211496   2.060   0.233   0.105
 3533SOL     OW11497   0.758   1.398   3.459
 3533SOL    HW111498   0.831   1.341   3.420
 3533SOL    HW211499   0.797   1.461   3.526
 3534SOL     OW11500   4.925   1.052   4.835
 3534SOL    HW111501   4.833   1.046   4.876
 3534SOL    HW211502   4.989   0.999   4.890
 3535SOL     OW11503   5.259   5.116   6.162
 3535SOL    HW111504   5.271   5.106   6.063
 3535SOL    HW211505   5.180   5.174   6.180
 3536SOL     OW11506   1.567   3.536   2.675
 3536SOL    HW111507   1.476   3.500   2.696
 3536SOL    HW211508   1.559   3.607   2.605
 3537SOL     OW11509   1.746   5.326   0.931
 3537SOL    HW111510   1.713   5.242   0.975
 3537SOL    HW211511   1.756   5.398   1.000
 3538SOL     OW11512   2.930   0.266   3.492
 3538SOL    HW111513   2.888   0.181   3.459
 3538SOL    HW211514   2.910   0.340   3.428
 3539SOL     OW11515   4.654   5.067   5.974
 3539SOL    HW111516   4.724   5.070   6.045
 3539SOL    HW211517   4.682   5.124   5.897
 3540SOL     OW11518   3.341   3.405   6.988
 3540SOL    HW111519   3.382   3.322   0.005
 3540SOL    HW211520   3.289   3.453   0.038
 3541SOL     OW11521   3.116   2.248   0.821
 3541SOL    HW111522   3.205   2.219   0.858
 3541SOL    HW211523   3.106   2.347   0.835
 3542SOL     OW11524   5.667   2.148   6.007
 3542SOL    HW111525   5.636   2.055   6.027
 3542SOL    HW211526   5.752   2.167   6.057
 3543SOL     OW11527   1.565   2.632   3.429
 3543SOL    HW111528   1.648   2.575   3.428
 3543SOL    HW211529   1.511   2.610   3.510
 3544SOL     OW11530   2.633   4.597   5.878
 3544SOL    HW111531   2.557   4.571   5.817
 3544SOL    HW211532   2.616   4.559   5.969
 3545SOL     OW11533   3.559   0.202   0.878
 3545SOL    HW111534   3.590   0.117   0.921
 3545SOL    HW211535   3.504   0.254   0.943
 3546SOL     OW11536   6.887   3.310   3.106
 3546SOL    HW111537   6.823   3.338   3.177
 3546SOL    HW211538   6.977   3.352   3.123
 3547SOL     OW11539   0.352   3.648   6.009
 3547SOL    HW111540   0.437   3.599   5.989
 3547SOL    HW211541   0.360   3.694   6.097
 3548SOL     OW11542   5.671   0.819   5.648
 3548SOL    HW111543   5.723   0.837   5.731
 3548SOL    HW211544   5.663   0.720   5.634
 3549SOL     OW11545   3.032   5.729   6.164
 3549SOL    HW111546   3.005   5.633   6.177
 3549SOL    HW211547   3.131   5.737   6.175
 3550SOL     OW11548   5.209   1.138   5.058
 3550SOL    HW111549   5.262   1.186   4.988
 3550SOL    HW211550   5.255   1.148   5.146
 3551SOL     OW11551   4.331   2.091   4.653
 3551SOL    HW111552   4.255   2.102   4.717
 3551SOL    HW211553   4.360   1.995   4.652
 3552SOL     OW11554   0.257   5.987   3.069
 3552SOL    HW111555   0.293   6.075   3.098
 3552SOL    HW211556   0.159   5.983   3.089
 3553SOL     OW11557   4.060   5.489   6.532
 3553SOL    HW111558   4.085   5.406   6.582
 3553SOL    HW211559   3.964   5.511   6.549
 3554SOL     OW11560   4.846   3.264   1.646
 3554SOL    HW111561   4.876   3.245   1.739
 3554SOL    HW211562   4.896   3.343   1.611
 3555SOL     OW11563   2.495   2.180   4.618
 3555SOL    HW111564   2.593   2.196   4.607
 3555SOL    HW211565   2.447   2.267   4.626
 3556SOL     OW11566   4.569   0.845   5.732
 3556SOL    HW111567   4.562   0.945   5.734
 3556SOL    HW211568   4.656   0.817   5.770
 3557SOL     OW11569   6.666   1.268   1.239
 3557SOL    HW111570   6.712   1.296   1.324
 3557SOL    HW211571   6.658   1.169   1.236
 3558SOL     OW11572   3.140   6.716   1.418
 3558SOL    HW111573   3.048   6.741   1.447
 3558SOL    HW211574   3.198   6.798   1.416
 3559SOL     OW11575   3.790   6.115   4.554
 3559SOL    HW111576   3.720   6.077   4.492
 3559SOL    HW211577   3.754   6.197   4.598
 3560SOL     OW11578   2.196   6.005   4.571
 3560SOL    HW111579   2.201   6.105   4.569
 3560SOL    HW211580   2.211   5.970   4.478
 3561SOL     OW11581   4.698   4.127   5.219
 3561SOL    HW111582   4.655   4.038   5.236
 3561SOL    HW211583   4.633   4.187   5.173
 3562SOL     OW11584   2.250   1.395   5.449
 3562SOL    HW111585   2.260   1.427   5.543
 3562SOL    HW211586   2.157   1.362   5.435
 3563SOL     OW11587   5.813   2.594   5.249
 3563SOL    HW111588   5.838   2.578   5.153
 3563SOL    HW211589   5.865   2.532   5.307
 3564SOL     OW11590   6.585   4.273   2.170
 3564SOL    HW111591   6.667   4.224   2.200
 3564SOL    HW211592   6.551   4.330   2.244
 3565SOL     OW11593   3.768   5.530   3.501
 3565SOL    HW111594   3.794   5.590   3.425
 3565SOL    HW211595   3.824   5.447   3.499
 3566SOL     OW11596   0.294   1.362   5.703
 3566SOL    HW111597   0.378   1.369   5.649
 3566SOL    HW211598   0.270   1.453   5.738
 3567SOL     OW11599   0.354   4.791   6.632
 3567SOL    HW111600   0.313   4.863   6.688
 3567SOL    HW211601   0.285   4.752   6.572
 3568SOL     OW11602   6.454   3.574   5.934
 3568SOL    HW111603   6.465   3.513   5.855
 3568SOL    HW211604   6.540   3.621   5.953
 3569SOL     OW11605   1.953   2.303   5.364
 3569SOL    HW111606   2.039   2.351   5.378
 3569SOL    HW211607   1.914   2.328   5.275
 3570SOL     OW11608   6.192   1.304   4.002
 3570SOL    HW111609   6.290   1.287   3.992
 3570SOL    HW211610   6.169   1.311   4.098
 3571SOL     OW11611   6.142   5.581   6.564
 3571SOL    HW111612   6.224   5.546   6.609
 3571SOL    HW211613   6.120   5.671   6.601
 3572SOL     OW11614   5.685   3.777   4.890
 3572SOL    HW111615   5.589   3.768   4.916
 3572SOL    HW211616   5.731   3.838   4.955
 3573SOL     OW11617   1.579   3.293   3.479
 3573SOL    HW111618   1.651   3.311   3.413
 3573SOL    HW211619   1.490   3.309   3.436
 3574SOL     OW11620   0.393   4.139   0.554
 3574SOL    HW111621   0.318   4.191   0.513
 3574SOL    HW211622   0.357   4.053   0.591
 3575SOL     OW11623   6.402   5.312   2.815
 3575SOL    HW111624   6.326   5.363   2.775
 3575SOL    HW211625   6.476   5.375   2.839
 3576SOL     OW11626   0.645   1.244   6.061
 3576SOL    HW111627   0.705   1.190   6.002
 3576SOL    HW211628   0.554   1.248   6.020
 3577SOL     OW11629   0.731   2.749   6.489
 3577SOL    HW111630   0.799   2.783   6.555
 3577SOL    HW211631   0.663   2.820   6.471
 3578SOL     OW11632   3.101   4.888   0.364
 3578SOL    HW111633   3.190   4.924   0.334
 3578SOL    HW211634   3.104   4.867   0.462
 3579SOL     OW11635   6.539   3.637   4.733
 3579SOL    HW111636   6.478   3.671   4.662
 3579SOL    HW211637   6.558   3.540   4.717
 3580SOL     OW11638   6.199   1.498   2.059
 3580SOL    HW111639   6.233   1.526   2.149
 3580SOL    HW211640   6.267   1.441   2.014
 3581SOL     OW11641   0.029   0.250   2.469
 3581SOL    HW111642   0.117   0.204   2.457
 3581SOL    HW211643   0.015   0.269   2.566
 3582SOL     OW11644   1.145   0.537   5.721
 3582SOL    HW111645   1.176   0.580   5.806
 3582SOL    HW211646   1.129   0.440   5.737
 3583SOL     OW11647   0.721   4.832   6.862
 3583SOL    HW111648   0.772   4.828   6.948
 3583SOL    HW211649   0.630   4.869   6.879
 3584SOL     OW11650   5.140   6.278   6.663
 3584SOL    HW111651   5.125   6.325   6.749
 3584SOL    HW211652   5.125   6.341   6.587
 3585SOL     OW11653   3.733   4.960   4.085
 3585SOL    HW111654   3.806   4.898   4.055
 3585SOL    HW211655   3.646   4.931   4.045
 3586SOL     OW11656   6.480   3.385   5.750
 3586SOL    HW111657   6.537   3.366   5.670
 3586SOL    HW211658   6.385   3.366   5.729
 3587SOL     OW11659   3.602   6.754   0.381
 3587SOL    HW111660   3.659   6.818   0.432
 3587SOL    HW211661   3.526   6.723   0.439
 3588SOL     OW11662   1.164   2.426   6.263
 3588SOL    HW111663   1.113   2.406   6.179
 3588SOL    HW211664   1.230   2.352   6.280
 3589SOL     OW11665   2.833   0.867   5.497
 3589SOL    HW111666   2.861   0.898   5.588
 3589SOL    HW211667   2.891   0.910   5.428
 3590SOL     OW11668   1.413   5.191   6.033
 3590SOL    HW111669   1.511   5.179   6.022
 3590SOL    HW211670   1.369   5.194   5.943
 3591SOL     OW11671   5.258   2.651   5.927
 3591SOL    HW111672   5.231   2.712   5.852
 3591SOL    HW211673   5.281   2.705   6.008
 3592SOL     OW11674   5.065   2.879   2.909
 3592SOL    HW111675   5.105   2.787   2.914
 3592SOL    HW211676   5.082   2.927   2.995
 3593SOL     OW11677   1.861   6.493   3.909
 3593SOL    HW111678   1.958   6.472   3.924
 3593SOL    HW211679   1.808   6.463   3.988
 3594SOL     OW11680   2.536   1.094   3.382
 3594SOL    HW111681   2.607   1.138   3.436
 3594SOL    HW211682   2.547   0.995   3.386
 3595SOL     OW11683   2.502   6.589   6.382
 3595SOL    HW111684   2.510   6.675   6.331
 3595SOL    HW211685   2.447   6.525   6.329
 3596SOL     OW11686   6.488   0.920   2.193
 3596SOL    HW111687   6.429   0.839   2.199
 3596SOL    HW211688   6.526   0.926   2.100
 3597SOL     OW11689   4.084   6.157   4.634
 3597SOL    HW111690   3.997   6.155   4.585
 3597SOL    HW211691   4.137   6.237   4.605
 3598SOL     OW11692   0.638   6.801   6.222
 3598SOL    HW111693   0.670   6.707   6.237
 3598SOL    HW211694   0.538   6.802   6.222
 3599SOL     OW11695   6.745   2.119   4.878
 3599SOL    HW111696   6.819   2.083   4.934
 3599SOL    HW211697   6.718   2.209   4.912
 3600SOL     OW11698   6.321   3.027   1.128
 3600SOL    HW111699   6.369   3.013   1.215
 3600SOL    HW211700   6.243   2.965   1.123
 3601SOL     OW11701   0.010   3.506   0.561
 3601SOL    HW111702   0.029   3.505   0.463
 3601SOL    HW211703   6.938   3.538   0.577
 3602SOL     OW11704   2.048   0.837   0.106
 3602SOL    HW111705   2.105   0.762   0.141
 3602SOL    HW211706   2.006   0.885   0.183
 3603SOL     OW11707   4.287   5.007   3.894
 3603SOL    HW111708   4.202   5.054   3.917
 3603SOL    HW211709   4.266   4.920   3.848
 3604SOL     OW11710   0.006   2.542   2.715
 3604SOL    HW111711   6.942   2.499   2.685
 3604SOL    HW211712   7.006   2.626   2.765
 3605SOL     OW11713   6.100   4.081   6.553
 3605SOL    HW111714   6.126   4.024   6.631
 3605SOL    HW211715   6.005   4.109   6.562
 3606SOL     OW11716   6.553   4.585   5.705
 3606SOL    HW111717   6.605   4.665   5.735
 3606SOL    HW211718   6.467   4.580   5.756
 3607SOL     OW11719   5.228   0.559   0.783
 3607SOL    HW111720   5.134   0.576   0.752
 3607SOL    HW211721   5.292   0.598   0.717
 3608SOL     OW11722   0.748   2.178   1.488
 3608SOL    HW111723   0.770   2.153   1.394
 3608SOL    HW211724   0.801   2.122   1.551
 3609SOL     OW11725   6.855   0.734   4.611
 3609SOL    HW111726   6.812   0.822   4.591
 3609SOL    HW211727   6.904   0.740   4.699
 3610SOL     OW11728   0.636   6.329   5.645
 3610SOL    HW111729   0.709   6.396   5.659
 3610SOL    HW211730   0.657   6.272   5.566
 3611SOL     OW11731   3.451   5.301   5.074
 3611SOL    HW111732   3.438   5.396   5.099
 3611SOL    HW211733   3.522   5.260   5.131
 3612SOL     OW11734   1.150   6.264   0.076
 3612SOL    HW111735   1.231   6.310   0.111
 3612SOL    HW211736   1.160   6.245   7.000
 3613SOL     OW11737   5.255   4.803   0.606
 3613SOL    HW111738   5.334   4.832   0.661
 3613SOL    HW211739   5.277   4.718   0.558
 3614SOL     OW11740   3.924   4.010   3.473
 3614SOL    HW111741   4.018   4.044   3.473
 3614SOL    HW211742   3.916   3.933   3.536
 3615SOL     OW11743   6.108   5.377   5.465
 3615SOL    HW111744   6.082   5.331   5.380
 3615SOL    HW211745   6.083   5.473   5.460
 3616SOL     OW11746   6.649   2.079   5.934
 3616SOL    HW111747   6.586   2.009   5.901
 3616SOL    HW211748   6.653   2.076   6.034
 3617SOL     OW11749   6.114   2.391   6.384
 3617SOL    HW111750   6.090   2.300   6.419
 3617SOL    HW211751   6.202   2.419   6.422
 3618SOL     OW11752   1.713   2.068   5.889
 3618SOL    HW111753   1.623   2.105   5.914
 3618SOL    HW211754   1.774   2.073   5.969
 3619SOL     OW11755   6.158   2.481   3.954
 3619SOL    HW111756   6.231   2.415   3.937
 3619SOL    HW211757   6.102   2.450   4.031
 3620SOL     OW11758   5.871   0.560   5.831
 3620SOL    HW111759   5.928   0.582   5.752
 3620SOL    HW211760   5.919   0.584   5.915
 3621SOL     OW11761   2.796   2.632   5.718
 3621SOL    HW111762   2.802   2.564   5.645
 3621SOL    HW211763   2.702   2.639   5.749
 3622SOL     OW11764   0.525   1.319   2.944
 3622SOL    HW111765   0.593   1.385   2.977
 3622SOL    HW211766   0.457   1.304   3.015
 3623SOL     OW11767   5.712   5.185   3.751
 3623SOL    HW111768   5.775   5.256   3.784
 3623SOL    HW211769   5.639   5.171   3.817
 3624SOL     OW11770   2.351   6.496   3.327
 3624SOL    HW111771   2.295   6.566   3.371
 3624SOL    HW211772   2.295   6.445   3.262
 3625SOL     OW11773   6.214   3.324   5.670
 3625SOL    HW111774   6.172   3.384   5.738
 3625SOL    HW211775   6.156   3.243   5.656
 3626SOL     OW11776   2.173   3.599   4.891
 3626SOL    HW111777   2.263   3.572   4.857
 3626SOL    HW211778   2.174   3.697   4.913
 3627SOL     OW11779   3.814   4.031   3.227
 3627SOL    HW111780   3.851   4.008   3.316
 3627SOL    HW211781   3.888   4.058   3.166
 3628SOL     OW11782   2.379   5.675   1.761
 3628SOL    HW111783   2.338   5.643   1.846
 3628SOL    HW211784   2.321   5.747   1.722
 3629SOL     OW11785   5.989   2.079   5.385
 3629SOL    HW111786   5.926   2.002   5.375
 3629SOL    HW211787   5.993   2.106   5.481
 3630SOL     OW11788   5.679   2.267   4.930
 3630SOL    HW111789   5.693   2.232   4.837
 3630SOL    HW211790   5.583   2.290   4.943
 3631SOL     OW11791   2.683   0.077   4.375
 3631SOL    HW111792   2.698   7.002   4.351
 3631SOL    HW211793   2.772   0.121   4.390
 3632SOL     OW11794   5.209   0.779   1.259
 3632SOL    HW111795   5.279   0.818   1.200
 3632SOL    HW211796   5.253   0.733   1.337
 3633SOL     OW11797   2.594   2.409   5.680
 3633SOL    HW111798   2.631   2.344   5.746
 3633SOL    HW211799   2.652   2.412   5.599
 3634SOL     OW11800   1.260   6.640   4.767
 3634SOL    HW111801   1.202   6.560   4.784
 3634SOL    HW211802   1.296   6.674   4.853
 3635SOL     OW11803   2.764   1.585   4.982
 3635SOL    HW111804   2.804   1.512   5.037
 3635SOL    HW211805   2.670   1.602   5.012
 3636SOL     OW11806   0.180   5.657   6.060
 3636SOL    HW111807   0.127   5.734   6.097
 3636SOL    HW211808   0.186   5.584   6.127
 3637SOL     OW11809   5.884   2.205   1.455
 3637SOL    HW111810   5.897   2.273   1.527
 3637SOL    HW211811   5.786   2.189   1.442
 3638SOL     OW11812   6.625   4.294   4.510
 3638SOL    HW111813   6.724   4.300   4.493
 3638SOL    HW211814   6.580   4.373   4.468
 3639SOL     OW11815   3.869   4.217   1.057
 3639SOL    HW111816   3.898   4.313   1.055
 3639SOL    HW211817   3.855   4.189   1.151
 3640SOL     OW11818   3.535   6.277   0.123
 3640SOL    HW111819   3.628   6.265   0.157
 3640SOL    HW211820   3.499   6.189   0.091
 3641SOL     OW11821   3.540   1.421   4.630
 3641SOL    HW111822   3.577   1.435   4.538
 3641SOL    HW211823   3.447   1.457   4.635
 3642SOL     OW11824   4.578   1.110   5.741
 3642SOL    HW111825   4.658   1.101   5.681
 3642SOL    HW211826   4.560   1.206   5.759
 3643SOL     OW11827   3.234   5.825   4.253
 3643SOL    HW111828   3.259   5.922   4.248
 3643SOL    HW211829   3.246   5.793   4.347
 3644SOL     OW11830   6.887   2.297   1.190
 3644SOL    HW111831   6.849   2.209   1.217
 3644SOL    HW211832   6.975   2.283   1.144
 3645SOL     OW11833   5.431   1.758   3.785
 3645SOL    HW111834   5.418   1.691   3.859
 3645SOL    HW211835   5.343   1.799   3.761
 3646SOL     OW11836   6.819   4.850   5.061
 3646SOL    HW111837   6.769   4.790   5.123
 3646SOL    HW211838   6.879   4.796   5.003
 3647SOL     OW11839   1.212   3.164   0.067
 3647SOL    HW111840   1.204   3.123   0.158
 3647SOL    HW211841   1.297   3.215   0.061
 3648SOL     OW11842   4.083   5.628   2.811
 3648SOL    HW111843   4.082   5.590   2.903
 3648SOL    HW211844   4.080   5.554   2.744
 3649SOL     OW11845   4.341   3.807   0.752
 3649SOL    HW111846   4.319   3.715   0.723
 3649SOL    HW211847   4.270   3.842   0.813
 3650SOL     OW11848   6.275   6.407   1.016
 3650SOL    HW111849   6.283   6.444   1.108
 3650SOL    HW211850   6.186   6.430   0.977
 3651SOL     OW11851   0.503   5.942   2.274
 3651SOL    HW111852   0.594   5.980   2.292
 3651SOL    HW211853   0.466   5.981   2.190
 3652SOL     OW11854   4.754   6.442   3.545
 3652SOL    HW111855   4.839   6.482   3.510
 3652SOL    HW211856   4.722   6.495   3.623
 3653SOL     OW11857   6.032   1.007   3.174
 3653SOL    HW111858   5.943   0.962   3.168
 3653SOL    HW211859   6.027   1.082   3.239
 3654SOL     OW11860   2.278   6.650   0.725
 3654SOL    HW111861   2.265   6.649   0.824
 3654SOL    HW211862   2.190   6.639   0.680
 3655SOL     OW11863   1.284   0.005   4.288
 3655SOL    HW111864   1.328   7.015   4.377
 3655SOL    HW211865   1.268   0.102   4.270
 3656SOL     OW11866   1.843   2.295   1.802
 3656SOL    HW111867   1.809   2.317   1.710
 3656SOL    HW211868   1.769   2.307   1.868
 3657SOL     OW11869   4.004   5.719   6.715
 3657SOL    HW111870   3.905   5.707   6.702
 3657SOL    HW211871   4.053   5.650   6.660
 3658SOL     OW11872   1.025   5.460   5.205
 3658SOL    HW111873   0.973   5.497   5.129
 3658SOL    HW211874   1.015   5.519   5.285
 3659SOL     OW11875   2.915   4.515   0.039
 3659SOL    HW111876   2.824   4.502   0.000
 3659SOL    HW211877   2.981   4.456   7.013
 3660SOL     OW11878   4.777   6.203   2.425
 3660SOL    HW111879   4.678   6.196   2.439
 3660SOL    HW211880   4.799   6.294   2.392
 3661SOL     OW11881   5.274   2.572   6.693
 3661SOL    HW111882   5.205   2.505   6.721
 3661SOL    HW211883   5.365   2.538   6.714
 3662SOL     OW11884   3.690   6.974   5.057
 3662SOL    HW111885   3.639   6.941   4.977
 3662SOL    HW211886   3.775   7.016   5.026
 3663SOL     OW11887   1.449   1.247   0.551
 3663SOL    HW111888   1.481   1.206   0.466
 3663SOL    HW211889   1.486   1.196   0.629
 3664SOL     OW11890   4.865   1.497   0.146
 3664SOL    HW111891   4.904   1.419   0.097
 3664SOL    HW211892   4.800   1.545   0.087
 3665SOL     OW11893   0.388   5.867   5.210
 3665SOL    HW111894   0.323   5.846   5.137
 3665SOL    HW211895   0.338   5.891   5.293
 3666SOL     OW11896   1.647   4.510   3.772
 3666SOL    HW111897   1.608   4.545   3.857
 3666SOL    HW211898   1.601   4.553   3.694
 3667SOL     OW11899   6.177   0.750   7.018
 3667SOL    HW111900   6.088   0.784   0.028
 3667SOL    HW211901   6.195   0.784   6.926
 3668SOL     OW11902   1.260   6.952   2.571
 3668SOL    HW111903   1.335   7.017   2.557
 3668SOL    HW211904   1.276   6.869   2.517
 3669SOL     OW11905   5.907   1.659   4.269
 3669SOL    HW111906   5.936   1.690   4.179
 3669SOL    HW211907   5.960   1.706   4.339
 3670SOL     OW11908   2.225   5.320   0.313
 3670SOL    HW111909   2.214   5.386   0.387
 3670SOL    HW211910   2.213   5.227   0.349
 3671SOL     OW11911   6.698   0.282   3.024
 3671SOL    HW111912   6.627   0.213   3.023
 3671SOL    HW211913   6.750   0.276   3.109
 3672SOL     OW11914   5.951   2.187   0.474
 3672SOL    HW111915   5.970   2.230   0.562
 3672SOL    HW211916   5.865   2.135   0.479
 3673SOL     OW11917   3.854   1.051   6.121
 3673SOL    HW111918   3.932   0.999   6.086
 3673SOL    HW211919   3.851   1.043   6.220
 3674SOL     OW11920   0.313   6.713   6.728
 3674SOL    HW111921   0.325   6.811   6.740
 3674SOL    HW211922   0.333   6.688   6.633
 3675SOL     OW11923   1.515   2.548   5.517
 3675SOL    HW111924   1.526   2.644   5.491
 3675SOL    HW211925   1.536   2.490   5.437
 3676SOL     OW11926   4.069   5.152   3.982
 3676SOL    HW111927   4.003   5.090   4.025
 3676SOL    HW211928   4.020   5.225   3.933
 3677SOL     OW11929   0.859   6.312   3.239
 3677SOL    HW111930   0.864   6.405   3.203
 3677SOL    HW211931   0.951   6.278   3.258
 3678SOL     OW11932   1.150   2.164   3.591
 3678SOL    HW111933   1.185   2.225   3.520
 3678SOL    HW211934   1.119   2.218   3.669
 3679SOL     OW11935   0.334   0.684   2.693
 3679SOL    HW111936   0.362   0.606   2.749
 3679SOL    HW211937   0.403   0.702   2.623
 3680SOL     OW11938   6.148   2.740   3.938
 3680SOL    HW111939   6.143   2.781   4.029
 3680SOL    HW211940   6.149   2.640   3.947
 3681SOL     OW11941   0.918   0.957   5.629
 3681SOL    HW111942   0.929   0.934   5.726
 3681SOL    HW211943   0.858   0.890   5.586
 3682SOL     OW11944   6.072   2.064   5.657
 3682SOL    HW111945   6.095   2.161   5.667
 3682SOL    HW211946   6.003   2.038   5.724
 3683SOL     OW11947   6.400   0.062   4.803
 3683SOL    HW111948   6.469   0.133   4.794
 3683SOL    HW211949   6.423   7.006   4.743
 3684SOL     OW11950   1.900   3.052   1.603
 3684SOL    HW111951   1.941   3.040   1.512
 3684SOL    HW211952   1.876   2.963   1.641
 3685SOL     OW11953   6.205   5.891   6.228
 3685SOL    HW111954   6.168   5.964   6.286
 3685SOL    HW211955   6.147   5.810   6.236
 3686SOL     OW11956   6.701   5.056   2.601
 3686SOL    HW111957   6.658   4.965   2.592
 3686SOL    HW211958   6.800   5.046   2.598
 3687SOL     OW11959   3.175   6.540   5.940
 3687SOL    HW111960   3.180   6.441   5.924
 3687SOL    HW211961   3.081   6.565   5.964
 3688SOL     OW11962   0.934   3.849   6.868
 3688SOL    HW111963   0.900   3.777   6.928
 3688SOL    HW211964   1.011   3.896   6.913
 3689SOL     OW11965   0.732   0.324   5.186
 3689SOL    HW111966   0.761   0.378   5.107
 3689SOL    HW211967   0.685   0.383   5.252
 3690SOL     OW11968   4.287   0.731   6.278
 3690SOL    HW111969   4.316   0.798   6.210
 3690SOL    HW211970   4.187   0.733   6.286
 3691SOL     OW11971   2.456   2.923   6.742
 3691SOL    HW111972   2.427   2.883   6.829
 3691SOL    HW211973   2.555   2.938   6.744
 3692SOL     OW11974   0.894   5.594   4.432
 3692SOL    HW111975   0.822   5.539   4.475
 3692SOL    HW211976   0.932   5.658   4.499
 3693SOL     OW11977   1.834   2.426   3.104
 3693SOL    HW111978   1.744   2.383   3.104
 3693SOL    HW211979   1.901   2.363   3.143
 3694SOL     OW11980   0.992   5.486   3.427
 3694SOL    HW111981   0.926   5.505   3.500
 3694SOL    HW211982   1.084   5.484   3.466
 3695SOL     OW11983   0.432   2.337   2.947
 3695SOL    HW111984   0.417   2.392   2.865
 3695SOL    HW211985   0.507   2.273   2.931
 3696SOL     OW11986   4.643   6.089   5.954
 3696SOL    HW111987   4.681   6.164   5.900
 3696SOL    HW211988   4.717   6.046   6.006
 3697SOL     OW11989   6.891   6.532   3.373
 3697SOL    HW111990   6.936   6.462   3.318
 3697SOL    HW211991   6.952   6.561   3.447
 3698SOL     OW11992   3.892   0.505   5.577
 3698SOL    HW111993   3.870   0.434   5.510
 3698SOL    HW211994   3.808   0.549   5.608
 3699SOL     OW11995   6.897   3.831   2.790
 3699SOL    HW111996   6.864   3.858   2.700
 3699SOL    HW211997   6.871   3.735   2.807
 3700SOL     OW11998   6.190   0.651   3.977
 3700SOL    HW111999   6.167   0.702   4.059
 3700SOL    HW212000   6.179   0.553   3.995
 3701SOL     OW12001   0.443   0.898   4.069
 3701SOL    HW112002   0.530   0.948   4.064
 3701SOL    HW212003   0.458   0.801   4.051
 3702SOL     OW12004   4.167   0.053   2.004
 3702SOL    HW112005   4.192   0.149   2.016
 3702SOL    HW212006   4.227   0.011   1.936
 3703SOL     OW12007   4.043   3.951   5.895
 3703SOL    HW112008   4.133   3.921   5.927
 3703SOL    HW212009   4.054   4.019   5.822
 3704SOL     OW12010   3.050   0.997   2.521
 3704SOL    HW112011   3.049   1.029   2.616
 3704SOL    HW212012   3.083   0.903   2.519
 3705SOL     OW12013   4.703   6.965   3.890
 3705SOL    HW112014   4.636   6.907   3.844
 3705SOL    HW212015   4.780   6.982   3.829
 3706SOL     OW12016   2.027   2.823   4.594
 3706SOL    HW112017   2.093   2.897   4.607
 3706SOL    HW212018   1.941   2.860   4.557
 3707SOL     OW12019   5.314   3.013   5.582
 3707SOL    HW112020   5.269   2.932   5.620
 3707SOL    HW212021   5.391   3.038   5.640
 3708SOL     OW12022   5.827   0.350   6.364
 3708SOL    HW112023   5.914   0.372   6.409
 3708SOL    HW212024   5.753   0.354   6.430
 3709SOL     OW12025   3.430   1.049   6.160
 3709SOL    HW112026   3.510   1.030   6.103
 3709SOL    HW212027   3.347   1.014   6.115
 3710SOL     OW12028   6.693   6.172   0.022
 3710SOL    HW112029   6.677   6.199   6.948
 3710SOL    HW212030   6.621   6.111   0.052
 3711SOL     OW12031   0.498   5.819   2.725
 3711SOL    HW112032   0.408   5.774   2.727
 3711SOL    HW212033   0.549   5.787   2.645
 3712SOL     OW12034   6.940   6.377   6.787
 3712SOL    HW112035   6.959   6.327   6.871
 3712SOL    HW212036   6.848   6.355   6.755
 3713SOL     OW12037   2.161   6.171   5.062
 3713SOL    HW112038   2.245   6.182   5.008
 3713SOL    HW212039   2.082   6.175   5.002
 3714SOL     OW12040   4.953   6.466   4.872
 3714SOL    HW112041   4.947   6.542   4.937
 3714SOL    HW212042   4.863   6.449   4.832
 3715SOL     OW12043   5.948   4.294   4.771
 3715SOL    HW112044   5.970   4.199   4.751
 3715SOL    HW212045   5.905   4.336   4.690
 3716SOL     OW12046   6.838   0.166   4.373
 3716SOL    HW112047   6.768   0.106   4.411
 3716SOL    HW212048   6.830   0.257   4.415
 3717SOL     OW12049   5.828   5.763   0.329
 3717SOL    HW112050   5.831   5.663   0.333
 3717SOL    HW212051   5.852   5.794   0.237
 3718SOL     OW12052   1.447   6.854   6.664
 3718SOL    HW112053   1.465   6.952   6.667
 3718SOL    HW212054   1.439   6.819   6.758
 3719SOL     OW12055   4.806   4.417   0.659
 3719SOL    HW112056   4.859   4.338   0.689
 3719SOL    HW212057   4.760   4.459   0.738
 3720SOL     OW12058   6.348   2.303   6.643
 3720SOL    HW112059   6.349   2.262   6.734
 3720SOL    HW212060   6.441   2.306   6.607
 3721SOL     OW12061   5.487   4.877   6.965
 3721SOL    HW112062   5.464   4.898   6.870
 3721SOL    HW212063   5.412   4.907   0.003
 3722SOL     OW12064   6.769   6.219   2.491
 3722SOL    HW112065   6.766   6.177   2.400
 3722SOL    HW212066   6.846   6.282   2.497
 3723SOL     OW12067   5.667   6.708   2.067
 3723SOL    HW112068   5.752   6.667   2.034
 3723SOL    HW212069   5.684   6.801   2.100
 3724SOL     OW12070   1.777   4.914   6.764
 3724SOL    HW112071   1.728   4.851   6.703
 3724SOL    HW212072   1.875   4.896   6.759
 3725SOL     OW12073   6.216   6.329   6.854
 3725SOL    HW112074   6.267   6.404   6.897
 3725SOL    HW212075   6.131   6.313   6.903
 3726SOL     OW12076   6.955   4.145   1.298
 3726SOL    HW112077   6.989   4.176   1.210
 3726SOL    HW212078   7.001   4.059   1.324
 3727SOL     OW12079   0.439   3.496   5.686
 3727SOL    HW112080   0.442   3.511   5.785
 3727SOL    HW212081   0.427   3.584   5.640
 3728SOL     OW12082   2.243   3.433   0.483
 3728SOL    HW112083   2.343   3.425   0.483
 3728SOL    HW212084   2.218   3.526   0.458
 3729SOL     OW12085   0.646   2.348   2.702
 3729SOL    HW112086   0.577   2.342   2.630
 3729SOL    HW212087   0.692   2.436   2.697
 3730SOL     OW12088   2.573   0.084   0.363
 3730SOL    HW112089   2.604   0.135   0.443
 3730SOL    HW212090   2.651   0.041   0.318
 3731SOL     OW12091   5.328   2.027   0.433
 3731SOL    HW112092   5.284   2.074   0.509
 3731SOL    HW212093   5.419   2.066   0.418
 3732SOL     OW12094   2.359   3.383   5.992
 3732SOL    HW112095   2.309   3.416   6.073
 3732SOL    HW212096   2.457   3.394   6.008
 3733SOL     OW12097   2.219   3.993   1.827
 3733SOL    HW112098   2.247   4.029   1.916
 3733SOL    HW212099   2.297   3.951   1.782
 3734SOL     OW12100   4.679   1.566   2.158
 3734SOL    HW112101   4.690   1.596   2.253
 3734SOL    HW212102   4.740   1.489   2.140
 3735SOL     OW12103   1.498   2.175   2.532
 3735SOL    HW112104   1.517   2.202   2.626
 3735SOL    HW212105   1.400   2.161   2.520
 3736SOL     OW12106   0.309   2.905   0.628
 3736SOL    HW112107   0.282   2.836   0.561
 3736SOL    HW212108   0.386   2.958   0.592
 3737SOL     OW12109   5.051   0.383   3.522
 3737SOL    HW112110   5.037   0.290   3.556
 3737SOL    HW212111   5.148   0.397   3.502
 3738SOL     OW12112   6.193   5.859   3.217
 3738SOL    HW112113   6.104   5.902   3.227
 3738SOL    HW212114   6.215   5.808   3.300
 3739SOL     OW12115   1.709   3.918   2.874
 3739SOL    HW112116   1.661   3.967   2.801
 3739SOL    HW212117   1.804   3.949   2.877
 3740SOL     OW12118   4.447   0.944   6.711
 3740SOL    HW112119   4.544   0.922   6.712
 3740SOL    HW212120   4.411   0.935   6.618
 3741SOL     OW12121   4.525   3.836   1.177
 3741SOL    HW112122   4.476   3.780   1.111
 3741SOL    HW212123   4.536   3.786   1.263
 3742SOL     OW12124   3.020   2.404   5.968
 3742SOL    HW112125   3.037   2.448   5.880
 3742SOL    HW212126   2.925   2.420   5.996
 3743SOL     OW12127   6.185   4.923   0.425
 3743SOL    HW112128   6.141   4.942   0.337
 3743SOL    HW212129   6.281   4.952   0.421
 3744SOL     OW12130   0.646   5.190   4.289
 3744SOL    HW112131   0.733   5.158   4.327
 3744SOL    HW212132   0.594   5.112   4.253
 3745SOL     OW12133   3.429   5.304   2.988
 3745SOL    HW112134   3.498   5.249   3.035
 3745SOL    HW212135   3.473   5.378   2.938
 3746SOL     OW12136   4.578   1.365   1.415
 3746SOL    HW112137   4.546   1.460   1.414
 3746SOL    HW212138   4.559   1.325   1.505
 3747SOL     OW12139   3.400   6.634   6.026
 3747SOL    HW112140   3.365   6.712   6.077
 3747SOL    HW212141   3.325   6.589   5.978
 3748SOL     OW12142   5.858   1.242   1.648
 3748SOL    HW112143   5.855   1.305   1.725
 3748SOL    HW212144   5.808   1.158   1.673
 3749SOL     OW12145   1.909   0.029   4.465
 3749SOL    HW112146   1.869   6.964   4.436
 3749SOL    HW212147   1.961   0.015   4.549
 3750SOL     OW12148   1.443   3.591   0.207
 3750SOL    HW112149   1.359   3.632   0.170
 3750SOL    HW212150   1.449   3.612   0.305
 3751SOL     OW12151   0.197   3.911   2.781
 3751SOL    HW112152   0.117   3.866   2.821
 3751SOL    HW212153   0.274   3.903   2.844
 3752SOL     OW12154   5.045   0.955   5.957
 3752SOL    HW112155   5.006   0.970   6.048
 3752SOL    HW212156   5.139   0.922   5.966
 3753SOL     OW12157   6.462   1.110   4.396
 3753SOL    HW112158   6.484   1.066   4.309
 3753SOL    HW212159   6.469   1.209   4.385
 3754SOL     OW12160   2.161   1.143   1.924
 3754SOL    HW112161   2.075   1.115   1.966
 3754SOL    HW212162   2.142   1.209   1.851
 3755SOL     OW12163   3.158   4.887   4.531
 3755SOL    HW112164   3.240   4.944   4.522
 3755SOL    HW212165   3.148   4.858   4.626
 3756SOL     OW12166   2.398   5.900   0.283
 3756SOL    HW112167   2.376   5.994   0.309
 3756SOL    HW212168   2.344   5.837   0.339
 3757SOL     OW12169   6.252   4.957   1.947
 3757SOL    HW112170   6.337   4.992   1.907
 3757SOL    HW212171   6.247   4.983   2.043
 3758SOL     OW12172   1.713   0.461   3.973
 3758SOL    HW112173   1.759   0.382   4.015
 3758SOL    HW212174   1.779   0.535   3.961
 3759SOL     OW12175   5.375   0.889   3.908
 3759SOL    HW112176   5.419   0.961   3.961
 3759SOL    HW212177   5.291   0.859   3.953
 3760SOL     OW12178   0.270   0.340   3.906
 3760SOL    HW112179   0.212   0.265   3.938
 3760SOL    HW212180   0.219   0.425   3.909
 3761SOL     OW12181   5.569   1.530   4.542
 3761SOL    HW112182   5.638   1.558   4.608
 3761SOL    HW212183   5.479   1.526   4.587
 3762SOL     OW12184   1.299   4.166   2.300
 3762SOL    HW112185   1.315   4.235   2.228
 3762SOL    HW212186   1.276   4.079   2.258
 3763SOL     OW12187   0.138   4.181   0.413
 3763SOL    HW112188   0.106   4.176   0.507
 3763SOL    HW212189   0.104   4.266   0.371
 3764SOL     OW12190   2.002   0.052   3.394
 3764SOL    HW112191   2.043   0.143   3.383
 3764SOL    HW212192   1.903   0.059   3.381
 3765SOL     OW12193   6.496   1.704   1.185
 3765SOL    HW112194   6.526   1.700   1.280
 3765SOL    HW212195   6.516   1.616   1.141
 3766SOL     OW12196   1.937   2.661   3.587
 3766SOL    HW112197   1.865   2.605   3.545
 3766SOL    HW212198   1.898   2.715   3.661
 3767SOL     OW12199   3.040   4.308   6.147
 3767SOL    HW112200   3.030   4.408   6.145
 3767SOL    HW212201   2.984   4.268   6.075
 3768SOL     OW12202   1.346   0.763   4.564
 3768SOL    HW112203   1.325   0.851   4.607
 3768SOL    HW212204   1.339   0.772   4.464
 3769SOL     OW12205   5.611   5.787   4.756
 3769SOL    HW112206   5.575   5.803   4.664
 3769SOL    HW212207   5.635   5.691   4.766
 3770SOL     OW12208   1.136   1.213   0.683
 3770SOL    HW112209   1.170   1.300   0.645
 3770SOL    HW212210   1.156   1.139   0.619
 3771SOL     OW12211   6.893   5.321   0.921
 3771SOL    HW112212   6.856   5.248   0.978
 3771SOL    HW212213   6.818   5.370   0.876
 3772SOL     OW12214   1.056   6.130   0.851
 3772SOL    HW112215   1.036   6.186   0.770
 3772SOL    HW212216   1.012   6.041   0.842
 3773SOL     OW12217   5.645   3.431   5.890
 3773SOL    HW112218   5.555   3.471   5.872
 3773SOL    HW212219   5.711   3.468   5.825
 3774SOL     OW12220   5.393   5.613   1.554
 3774SOL    HW112221   5.364   5.518   1.568
 3774SOL    HW212222   5.474   5.615   1.496
 3775SOL     OW12223   4.027   4.800   3.151
 3775SOL    HW112224   3.933   4.821   3.127
 3775SOL    HW212225   4.084   4.801   3.068
 3776SOL     OW12226   4.059   2.991   6.053
 3776SOL    HW112227   4.086   3.077   6.098
 3776SOL    HW212228   3.962   2.974   6.070
 3777SOL     OW12229   2.635   6.570   4.279
 3777SOL    HW112230   2.558   6.506   4.279
 3777SOL    HW212231   2.703   6.541   4.211
 3778SOL     OW12232   3.101   6.167   4.349
 3778SOL    HW112233   3.134   6.188   4.441
 3778SOL    HW212234   3.032   6.094   4.355
 3779SOL     OW12235   7.015   5.229   0.695
 3779SOL    HW112236   6.975   5.268   0.777
 3779SOL    HW212237   0.075   5.281   0.669
 3780SOL     OW12238   6.980   2.514   2.171
 3780SOL    HW112239   0.021   2.505   2.249
 3780SOL    HW212240   7.014   2.584   2.109
 3781SOL     OW12241   1.612   6.789   5.251
 3781SOL    HW112242   1.553   6.721   5.294
 3781SOL    HW212243   1.702   6.748   5.232
 3782SOL     OW12244   4.002   6.416   1.814
 3782SOL    HW112245   4.026   6.326   1.849
 3782SOL    HW212246   3.927   6.407   1.748
 3783SOL     OW12247   5.505   4.915   5.510
 3783SOL    HW112248   5.449   4.872   5.439
 3783SOL    HW212249   5.565   4.846   5.551
 3784SOL     OW12250   5.327   2.523   2.722
 3784SOL    HW112251   5.426   2.521   2.736
 3784SOL    HW212252   5.304   2.598   2.660
 3785SOL     OW12253   0.779   2.928   4.624
 3785SOL    HW112254   0.764   2.948   4.527
 3785SOL    HW212255   0.788   3.014   4.674
 3786SOL     OW12256   2.734   2.079   4.085
 3786SOL    HW112257   2.653   2.042   4.132
 3786SOL    HW212258   2.737   2.178   4.098
 3787SOL     OW12259   4.013   0.696   2.688
 3787SOL    HW112260   4.089   0.757   2.708
 3787SOL    HW212261   4.032   0.646   2.603
 3788SOL     OW12262   0.564   3.605   5.051
 3788SOL    HW112263   0.652   3.648   5.069
 3788SOL    HW212264   0.572   3.543   4.973
 3789SOL     OW12265   1.043   2.352   2.738
 3789SOL    HW112266   1.108   2.427   2.722
 3789SOL    HW212267   0.979   2.378   2.810
 3790SOL     OW12268   0.710   5.992   0.534
 3790SOL    HW112269   0.616   5.992   0.568
 3790SOL    HW212270   0.728   6.079   0.489
 3791SOL     OW12271   5.606   1.256   5.750
 3791SOL    HW112272   5.643   1.230   5.661
 3791SOL    HW212273   5.573   1.350   5.746
 3792SOL     OW12274   0.771   0.557   4.175
 3792SOL    HW112275   0.821   0.644   4.169
 3792SOL    HW212276   0.736   0.545   4.269
 3793SOL     OW12277   6.068   6.185   0.421
 3793SOL    HW112278   6.124   6.103   0.432
 3793SOL    HW212279   6.000   6.190   0.494
 3794SOL     OW12280   1.672   3.759   1.270
 3794SOL    HW112281   1.754   3.796   1.313
 3794SOL    HW212282   1.698   3.707   1.189
 3795SOL     OW12283   2.799   5.883   0.826
 3795SOL    HW112284   2.824   5.973   0.789
 3795SOL    HW212285   2.881   5.839   0.864
 3796SOL     OW12286   4.000   1.857   0.970
 3796SOL    HW112287   4.069   1.826   0.905
 3796SOL    HW212288   4.036   1.848   1.063
 3797SOL     OW12289   1.071   4.152   2.677
 3797SOL    HW112290   1.149   4.133   2.736
 3797SOL    HW212291   1.000   4.082   2.693
 3798SOL     OW12292   2.937   6.794   3.204
 3798SOL    HW112293   2.917   6.746   3.289
 3798SOL    HW212294   2.852   6.832   3.167
 3799SOL     OW12295   6.622   2.514   2.813
 3799SOL    HW112296   6.644   2.607   2.844
 3799SOL    HW212297   6.690   2.486   2.745
 3800SOL     OW12298   5.811   1.755   3.258
 3800SOL    HW112299   5.891   1.698   3.278
 3800SOL    HW212300   5.842   1.846   3.230
 3801SOL     OW12301   5.371   6.561   2.478
 3801SOL    HW112302   5.335   6.632   2.539
 3801SOL    HW212303   5.436   6.602   2.414
 3802SOL     OW12304   0.123   1.813   2.214
 3802SOL    HW112305   0.080   1.895   2.251
 3802SOL    HW212306   0.084   1.793   2.124
 3803SOL     OW12307   3.211   4.019   4.049
 3803SOL    HW112308   3.145   3.948   4.072
 3803SOL    HW212309   3.270   4.037   4.128
 3804SOL     OW12310   3.838   0.411   4.684
 3804SOL    HW112311   3.901   0.486   4.705
 3804SOL    HW212312   3.785   0.388   4.766
 3805SOL     OW12313   2.104   3.054   0.659
 3805SOL    HW112314   2.151   2.989   0.599
 3805SOL    HW212315   2.019   3.014   0.692
 3806SOL     OW12316   3.979   4.552   6.234
 3806SOL    HW112317   4.031   4.542   6.318
 3806SOL    HW212318   3.905   4.484   6.232
 3807SOL     OW12319   1.489   5.072   4.262
 3807SOL    HW112320   1.512   5.104   4.354
 3807SOL    HW212321   1.488   5.150   4.199
 3808SOL     OW12322   4.816   0.386   5.998
 3808SOL    HW112323   4.909   0.403   6.031
 3808SOL    HW212324   4.804   0.432   5.910
 3809SOL     OW12325   5.618   2.143   1.413
 3809SOL    HW112326   5.610   2.075   1.485
 3809SOL    HW212327   5.529   2.186   1.397
 3810SOL     OW12328   6.417   2.394   2.959
 3810SOL    HW112329   6.445   2.400   3.055
 3810SOL    HW212330   6.483   2.442   2.901
 3811SOL     OW12331   0.114   5.283   4.868
 3811SOL    HW112332   0.089   5.211   4.933
 3811SOL    HW212333   0.206   5.266   4.832
 3812SOL     OW12334   3.431   6.148   6.839
 3812SOL    HW112335   3.474   6.237   6.853
 3812SOL    HW212336   3.342   6.146   6.884
 3813SOL     OW12337   6.153   3.709   1.030
 3813SOL    HW112338   6.108   3.620   1.033
 3813SOL    HW212339   6.146   3.753   1.120
 3814SOL     OW12340   6.988   6.846   3.942
 3814SOL    HW112341   6.944   6.905   3.874
 3814SOL    HW212342   0.064   6.839   3.920
 3815SOL     OW12343   5.333   3.061   0.634
 3815SOL    HW112344   5.380   3.135   0.587
 3815SOL    HW212345   5.325   3.083   0.731
 3816SOL     OW12346   0.738   6.506   5.347
 3816SOL    HW112347   0.746   6.553   5.435
 3816SOL    HW212348   0.668   6.435   5.354
 3817SOL     OW12349   4.894   3.554   2.659
 3817SOL    HW112350   4.921   3.646   2.631
 3817SOL    HW212351   4.898   3.547   2.759
 3818SOL     OW12352   0.328   0.363   1.126
 3818SOL    HW112353   0.267   0.431   1.166
 3818SOL    HW212354   0.420   0.402   1.116
 3819SOL     OW12355   6.712   4.447   2.683
 3819SOL    HW112356   6.750   4.514   2.619
 3819SOL    HW212357   6.747   4.356   2.662
 3820SOL     OW12358   5.390   6.581   4.015
 3820SOL    HW112359   5.455   6.602   4.088
 3820SOL    HW212360   5.307   6.635   4.028
 3821SOL     OW12361   0.400   6.959   6.733
 3821SOL    HW112362   0.476   7.010   6.692
 3821SOL    HW212363   0.333   0.002   6.770
 3822SOL     OW12364   3.477   0.797   0.355
 3822SOL    HW112365   3.568   0.764   0.381
 3822SOL    HW212366   3.410   0.764   0.421
 3823SOL     OW12367   4.913   4.603   6.142
 3823SOL    HW112368   4.836   4.541   6.131
 3823SOL    HW212369   4.912   4.671   6.069
 3824SOL     OW12370   1.126   3.042   0.304
 3824SOL    HW112371   1.062   3.119   0.307
 3824SOL    HW212372   1.075   2.956   0.305
 3825SOL     OW12373   1.074   4.319   0.964
 3825SOL    HW112374   1.014   4.369   1.027
 3825SOL    HW212375   1.086   4.226   0.996
 3826SOL     OW12376   6.851   4.180   2.722
 3826SOL    HW112377   6.849   4.147   2.816
 3826SOL    HW212378   6.798   4.119   2.664
 3827SOL     OW12379   0.784   0.799   0.951
 3827SOL    HW112380   0.873   0.837   0.925
 3827SOL    HW212381   0.780   0.788   1.051
 3828SOL     OW12382   3.640   4.199   4.914
 3828SOL    HW112383   3.614   4.215   5.009
 3828SOL    HW212384   3.692   4.277   4.880
 3829SOL     OW12385   0.508   5.142   2.583
 3829SOL    HW112386   0.579   5.085   2.541
 3829SOL    HW212387   0.462   5.090   2.655
 3830SOL     OW12388   0.420   0.647   5.064
 3830SOL    HW112389   0.441   0.552   5.038
 3830SOL    HW212390   0.367   0.646   5.149
 3831SOL     OW12391   4.140   2.053   3.067
 3831SOL    HW112392   4.208   2.087   3.132
 3831SOL    HW212393   4.118   1.958   3.088
 3832SOL     OW12394   0.360   0.265   1.630
 3832SOL    HW112395   0.414   0.236   1.709
 3832SOL    HW212396   0.398   0.350   1.593
 3833SOL     OW12397   1.497   6.422   6.760
 3833SOL    HW112398   1.401   6.442   6.742
 3833SOL    HW212399   1.527   6.471   6.842
 3834SOL     OW12400   4.308   4.373   1.402
 3834SOL    HW112401   4.293   4.369   1.501
 3834SOL    HW212402   4.332   4.467   1.376
 3835SOL     OW12403   3.846   6.050   5.367
 3835SOL    HW112404   3.852   5.952   5.385
 3835SOL    HW212405   3.823   6.065   5.271
 3836SOL     OW12406   0.636   5.026   6.041
 3836SOL    HW112407   0.616   4.962   5.966
 3836SOL    HW212408   0.733   5.051   6.037
 3837SOL     OW12409   3.640   5.199   5.240
 3837SOL    HW112410   3.640   5.105   5.275
 3837SOL    HW212411   3.661   5.262   5.315
 3838SOL     OW12412   1.585   1.000   3.663
 3838SOL    HW112413   1.527   0.918   3.661
 3838SOL    HW212414   1.551   1.067   3.597
 3839SOL     OW12415   4.446   0.609   3.184
 3839SOL    HW112416   4.520   0.639   3.124
 3839SOL    HW212417   4.485   0.559   3.262
 3840SOL     OW12418   2.461   1.318   6.264
 3840SOL    HW112419   2.488   1.227   6.230
 3840SOL    HW212420   2.543   1.374   6.278
 3841SOL     OW12421   0.537   4.359   4.046
 3841SOL    HW112422   0.519   4.433   4.111
 3841SOL    HW212423   0.627   4.320   4.064
 3842SOL     OW12424   2.332   2.468   4.255
 3842SOL    HW112425   2.353   2.379   4.215
 3842SOL    HW212426   2.415   2.506   4.297
 3843SOL     OW12427   5.358   3.445   1.332
 3843SOL    HW112428   5.402   3.462   1.420
 3843SOL    HW212429   5.335   3.348   1.323
 3844SOL     OW12430   1.554   4.783   0.161
 3844SOL    HW112431   1.569   4.713   0.231
 3844SOL    HW212432   1.506   4.861   0.201
 3845SOL     OW12433   2.294   6.210   0.058
 3845SOL    HW112434   2.267   6.270   0.134
 3845SOL    HW212435   2.377   6.247   0.016
 3846SOL     OW12436   0.704   3.097   4.371
 3846SOL    HW112437   0.606   3.087   4.387
 3846SOL    HW212438   0.723   3.191   4.343
 3847SOL     OW12439   5.598   1.896   4.601
 3847SOL    HW112440   5.623   1.897   4.504
 3847SOL    HW212441   5.630   1.811   4.643
 3848SOL     OW12442   4.753   2.845   3.052
 3848SOL    HW112443   4.753   2.839   2.952
 3848SOL    HW212444   4.721   2.759   3.091
 3849SOL     OW12445   0.240   6.945   6.443
 3849SOL    HW112446   0.286   6.918   6.528
 3849SOL    HW212447   0.179   0.001   6.461
 3850SOL     OW12448   3.333   3.144   1.201
 3850SOL    HW112449   3.238   3.167   1.180
 3850SOL    HW212450   3.342   3.124   1.299
 3851SOL     OW12451   6.828   4.742   3.572
 3851SOL    HW112452   6.843   4.743   3.473
 3851SOL    HW212453   6.772   4.821   3.598
 3852SOL     OW12454   3.690   6.832   3.955
 3852SOL    HW112455   3.675   6.886   4.038
 3852SOL    HW212456   3.607   6.784   3.930
 3853SOL     OW12457   2.326   1.645   3.482
 3853SOL    HW112458   2.235   1.622   3.517
 3853SOL    HW212459   2.319   1.675   3.387
 3854SOL     OW12460   1.380   3.248   3.070
 3854SOL    HW112461   1.401   3.162   3.117
 3854SOL    HW212462   1.450   3.266   3.001
 3855SOL     OW12463   4.066   6.361   0.394
 3855SOL    HW112464   4.056   6.309   0.309
 3855SOL    HW212465   4.040   6.456   0.378
 3856SOL     OW12466   0.749   1.802   6.162
 3856SOL    HW112467   0.806   1.736   6.211
 3856SOL    HW212468   0.725   1.766   6.072
 3857SOL     OW12469   1.738   6.336   5.486
 3857SOL    HW112470   1.832   6.320   5.515
 3857SOL    HW212471   1.694   6.249   5.467
 3858SOL     OW12472   3.251   1.445   6.035
 3858SOL    HW112473   3.161   1.402   6.040
 3858SOL    HW212474   3.248   1.521   5.970
 3859SOL     OW12475   5.861   1.267   0.905
 3859SOL    HW112476   5.882   1.180   0.861
 3859SOL    HW212477   5.883   1.261   1.003
 3860SOL     OW12478   1.826   0.931   4.614
 3860SOL    HW112479   1.889   0.861   4.648
 3860SOL    HW212480   1.748   0.938   4.675
 3861SOL     OW12481   4.664   5.977   2.672
 3861SOL    HW112482   4.623   6.054   2.721
 3861SOL    HW212483   4.731   5.932   2.732
 3862SOL     OW12484   0.767   0.381   4.470
 3862SOL    HW112485   0.671   0.380   4.440
 3862SOL    HW212486   0.794   0.288   4.494
 3863SOL     OW12487   5.990   1.840   0.144
 3863SOL    HW112488   5.951   1.794   0.064
 3863SOL    HW212489   5.971   1.938   0.138
 3864SOL     OW12490   2.587   0.472   4.659
 3864SOL    HW112491   2.501   0.429   4.684
 3864SOL    HW212492   2.568   0.559   4.612
 3865SOL     OW12493   4.633   1.367   0.693
 3865SOL    HW112494   4.547   1.413   0.717
 3865SOL    HW212495   4.662   1.396   0.602
 3866SOL     OW12496   3.609   1.017   0.020
 3866SOL    HW112497   3.704   0.993   0.040
 3866SOL    HW212498   3.603   1.050   6.947
 3867SOL     OW12499   1.504   4.200   3.185
 3867SOL    HW112500   1.569   4.254   3.238
 3867SOL    HW212501   1.540   4.108   3.171
 3868SOL     OW12502   4.274   0.507   6.686
 3868SOL    HW112503   4.322   0.558   6.614
 3868SOL    HW212504   4.288   0.553   6.774
 3869SOL     OW12505   6.294   2.958   3.796
 3869SOL    HW112506   6.250   2.889   3.854
 3869SOL    HW212507   6.388   2.930   3.777
 3870SOL     OW12508   6.930   6.685   2.083
 3870SOL    HW112509   6.846   6.717   2.127
 3870SOL    HW212510   6.977   6.621   2.144
 3871SOL     OW12511   3.135   6.933   3.340
 3871SOL    HW112512   3.132   0.001   3.296
 3871SOL    HW212513   3.054   6.880   3.314
 3872SOL     OW12514   3.308   3.171   4.277
 3872SOL    HW112515   3.278   3.167   4.182
 3872SOL    HW212516   3.228   3.171   4.337
 3873SOL     OW12517   4.994   3.869   1.023
 3873SOL    HW112518   5.042   3.880   0.936
 3873SOL    HW212519   4.899   3.896   1.013
 3874SOL     OW12520   4.122   0.565   0.447
 3874SOL    HW112521   4.132   0.661   0.420
 3874SOL    HW212522   4.106   0.559   0.545
 3875SOL     OW12523   1.856   2.841   3.775
 3875SOL    HW112524   1.805   2.927   3.775
 3875SOL    HW212525   1.954   2.860   3.767
 3876SOL     OW12526   3.318   5.216   1.184
 3876SOL    HW112527   3.274   5.306   1.180
 3876SOL    HW212528   3.416   5.227   1.167
 3877SOL     OW12529   6.671   2.497   1.096
 3877SOL    HW112530   6.748   2.445   1.131
 3877SOL    HW212531   6.670   2.588   1.138
 3878SOL     OW12532   4.740   6.134   4.630
 3878SOL    HW112533   4.731   6.034   4.635
 3878SOL    HW212534   4.668   6.172   4.573
 3879SOL     OW12535   5.527   5.490   0.601
 3879SOL    HW112536   5.473   5.483   0.685
 3879SOL    HW212537   5.508   5.578   0.556
 3880SOL     OW12538   4.910   4.131   4.605
 3880SOL    HW112539   4.940   4.214   4.653
 3880SOL    HW212540   4.861   4.072   4.669
 3881SOL     OW12541   1.898   3.423   1.492
 3881SOL    HW112542   1.964   3.392   1.560
 3881SOL    HW212543   1.844   3.498   1.530
 3882SOL     OW12544   0.644   1.291   6.903
 3882SOL    HW112545   0.714   1.220   6.912
 3882SOL    HW212546   0.674   1.374   6.950
 3883SOL     OW12547   3.933   1.157   2.411
 3883SOL    HW112548   4.030   1.172   2.393
 3883SOL    HW212549   3.879   1.207   2.343
 3884SOL     OW12550   0.382   5.395   2.371
 3884SOL    HW112551   0.393   5.493   2.357
 3884SOL    HW212552   0.398   5.373   2.468
 3885SOL     OW12553   6.347   6.008   3.503
 3885SOL    HW112554   6.415   5.975   3.569
 3885SOL    HW212555   6.386   6.006   3.411
 3886SOL     OW12556   4.370   5.416   5.226
 3886SOL    HW112557   4.404   5.502   5.187
 3886SOL    HW212558   4.416   5.399   5.313
 3887SOL     OW12559   0.674   6.973   6.979
 3887SOL    HW112560   0.661   6.884   6.937
 3887SOL    HW212561   0.637   0.023   6.919
 3888SOL     OW12562   6.519   0.085   5.339
 3888SOL    HW112563   6.577   0.007   5.317
 3888SOL    HW212564   6.485   0.076   5.433
 3889SOL     OW12565   6.747   2.878   0.430
 3889SOL    HW112566   6.814   2.892   0.357
 3889SOL    HW212567   6.765   2.942   0.505
 3890SOL     OW12568   6.017   5.192   3.642
 3890SOL    HW112569   6.101   5.174   3.591
 3890SOL    HW212570   5.950   5.120   3.622
 3891SOL     OW12571   5.163   3.879   4.166
 3891SOL    HW112572   5.138   3.974   4.146
 3891SOL    HW212573   5.213   3.841   4.088
 3892SOL     OW12574   0.715   2.416   0.590
 3892SOL    HW112575   0.741   2.344   0.655
 3892SOL    HW212576   0.653   2.479   0.635
 3893SOL     OW12577   4.112   4.172   0.506
 3893SOL    HW112578   4.121   4.227   0.423
 3893SOL    HW212579   4.079   4.081   0.481
 3894SOL     OW12580   4.753   0.957   6.988
 3894SOL    HW112581   4.656   0.938   6.971
 3894SOL    HW212582   4.801   0.871   7.007
 3895SOL     OW12583   1.004   6.982   5.655
 3895SOL    HW112584   0.951   6.914   5.705
 3895SOL    HW212585   1.021   6.950   5.562
 3896SOL     OW12586   0.856   1.099   5.916
 3896SOL    HW112587   0.911   1.183   5.916
 3896SOL    HW212588   0.897   1.033   5.979
 3897SOL     OW12589   3.994   5.706   2.559
 3897SOL    HW112590   3.900   5.697   2.525
 3897SOL    HW212591   4.012   5.636   2.627
 3898SOL     OW12592   2.738   2.373   6.021
 3898SOL    HW112593   2.703   2.305   5.956
 3898SOL    HW212594   2.717   2.342   6.114
 3899SOL     OW12595   4.504   6.611   5.764
 3899SOL    HW112596   4.541   6.686   5.819
 3899SOL    HW212597   4.405   6.620   5.758
 3900SOL     OW12598   4.512   2.560   3.787
 3900SOL    HW112599   4.472   2.473   3.813
 3900SOL    HW212600   4.568   2.595   3.862
 3901SOL     OW12601   3.319   0.654   6.218
 3901SOL    HW112602   3.263   0.679   6.297
 3901SOL    HW212603   3.413   0.635   6.248
 3902SOL     OW12604   6.701   2.928   1.852
 3902SOL    HW112605   6.631   2.882   1.907
 3902SOL    HW212606   6.692   3.027   1.864
 3903SOL     OW12607   3.744   6.523   0.298
 3903SOL    HW112608   3.688   6.603   0.318
 3903SOL    HW212609   3.801   6.502   0.377
 3904SOL     OW12610   1.925   1.053   6.212
 3904SOL    HW112611   2.008   0.997   6.209
 3904SOL    HW212612   1.905   1.079   6.307
 3905SOL     OW12613   6.542   6.730   6.056
 3905SOL    HW112614   6.482   6.798   6.014
 3905SOL    HW212615   6.636   6.743   6.022
 3906SOL     OW12616   6.060   6.605   5.194
 3906SOL    HW112617   5.962   6.586   5.196
 3906SOL    HW212618   6.088   6.644   5.281
 3907SOL     OW12619   6.292   0.898   3.901
 3907SOL    HW112620   6.196   0.923   3.885
 3907SOL    HW212621   6.296   0.805   3.936
 3908SOL     OW12622   0.717   2.270   6.940
 3908SOL    HW112623   0.773   2.209   6.884
 3908SOL    HW212624   0.620   2.253   6.922
 3909SOL     OW12625   6.316   6.240   5.035
 3909SOL    HW112626   6.249   6.312   5.016
 3909SOL    HW212627   6.392   6.280   5.087
 3910SOL     OW12628   3.091   3.752   2.721
 3910SOL    HW112629   3.067   3.738   2.625
 3910SOL    HW212630   3.057   3.676   2.776
 3911SOL     OW12631   5.552   1.762   5.473
 3911SOL    HW112632   5.515   1.680   5.430
 3911SOL    HW212633   5.479   1.829   5.485
 3912SOL     OW12634   5.131   0.916   5.577
 3912SOL    HW112635   5.103   0.823   5.552
 3912SOL    HW212636   5.231   0.920   5.581
 3913SOL     OW12637   2.747   6.530   5.784
 3913SOL    HW112638   2.742   6.569   5.876
 3913SOL    HW212639   2.659   6.540   5.738
 3914SOL     OW12640   2.878   0.952   1.721
 3914SOL    HW112641   2.924   1.017   1.781
 3914SOL    HW212642   2.914   0.961   1.629
 3915SOL     OW12643   4.839   5.681   1.110
 3915SOL    HW112644   4.873   5.721   1.195
 3915SOL    HW212645   4.894   5.716   1.033
 3916SOL     OW12646   0.968   6.928   3.910
 3916SOL    HW112647   0.893   6.987   3.881
 3916SOL    HW212648   0.948   6.891   4.001
 3917SOL     OW12649   6.560   5.912   0.109
 3917SOL    HW112650   6.472   5.869   0.089
 3917SOL    HW212651   6.590   5.887   0.201
 3918SOL     OW12652   5.743   5.565   1.579
 3918SOL    HW112653   5.782   5.520   1.499
 3918SOL    HW212654   5.803   5.641   1.607
 3919SOL     OW12655   4.017   6.617   0.368
 3919SOL    HW112656   4.018   6.691   0.300
 3919SOL    HW212657   3.995   6.654   0.458
 3920SOL     OW12658   3.369   3.419   0.712
 3920SOL    HW112659   3.420   3.501   0.684
 3920SOL    HW212660   3.315   3.386   0.635
 3921SOL     OW12661   0.332   3.653   1.653
 3921SOL    HW112662   0.310   3.564   1.613
 3921SOL    HW212663   0.265   3.721   1.623
 3922SOL     OW12664   6.655   3.599   2.256
 3922SOL    HW112665   6.740   3.650   2.246
 3922SOL    HW212666   6.578   3.663   2.261
 3923SOL     OW12667   6.961   1.143   0.319
 3923SOL    HW112668   0.031   1.144   0.360
 3923SOL    HW212669   6.921   1.052   0.331
 3924SOL     OW12670   6.247   5.104   3.534
 3924SOL    HW112671   6.331   5.156   3.550
 3924SOL    HW212672   6.270   5.010   3.510
 3925SOL     OW12673   2.083   5.247   1.525
 3925SOL    HW112674   2.142   5.316   1.484
 3925SOL    HW212675   2.122   5.157   1.510
 3926SOL     OW12676   6.653   5.088   2.902
 3926SOL    HW112677   6.630   5.010   2.961
 3926SOL    HW212678   6.723   5.060   2.837
 3927SOL     OW12679   6.589   2.661   4.417
 3927SOL    HW112680   6.608   2.757   4.436
 3927SOL    HW212681   6.542   2.653   4.329
 3928SOL     OW12682   4.024   5.842   6.162
 3928SOL    HW112683   4.026   5.769   6.230
 3928SOL    HW212684   4.098   5.907   6.181
 3929SOL     OW12685   0.204   0.815   4.985
 3929SOL    HW112686   0.187   0.894   5.044
 3929SOL    HW212687   0.300   0.787   4.993
 3930SOL     OW12688   2.872   1.932   3.748
 3930SOL    HW112689   2.932   1.862   3.709
 3930SOL    HW212690   2.805   1.889   3.808
 3931SOL     OW12691   1.678   0.879   1.405
 3931SOL    HW112692   1.744   0.813   1.442
 3931SOL    HW212693   1.701   0.898   1.310
 3932SOL     OW12694   2.060   4.386   3.078
 3932SOL    HW112695   1.991   4.316   3.057
 3932SOL    HW212696   2.037   4.471   3.030
 3933SOL     OW12697   1.934   6.241   6.786
 3933SOL    HW112698   1.901   6.207   6.698
 3933SOL    HW212699   1.992   6.171   6.829
 3934SOL     OW12700   0.009   1.485   6.530
 3934SOL    HW112701   6.997   1.449   6.443
 3934SOL    HW212702   0.109   1.486   6.530
 3935SOL     OW12703   2.684   6.627   6.968
 3935SOL    HW112704   2.734   6.678   6.898
 3935SOL    HW212705   2.613   6.572   6.925
 3936SOL     OW12706   0.243   5.041   5.450
 3936SOL    HW112707   0.162   5.090   5.417
 3936SOL    HW212708   0.257   5.060   5.547
 3937SOL     OW12709   6.721   1.905   3.437
 3937SOL    HW112710   6.772   1.845   3.376
 3937SOL    HW212711   6.634   1.930   3.394
 3938SOL     OW12712   0.436   2.474   4.156
 3938SOL    HW112713   0.523   2.439   4.120
 3938SOL    HW212714   0.431   2.456   4.254
 3939SOL     OW12715   2.359   2.697   2.596
 3939SOL    HW112716   2.449   2.721   2.633
 3939SOL    HW212717   2.369   2.660   2.504
 3940SOL     OW12718   5.064   4.671   0.986
 3940SOL    HW112719   4.990   4.609   1.010
 3940SOL    HW212720   5.027   4.750   0.937
 3941SOL     OW12721   4.904   3.313   5.778
 3941SOL    HW112722   4.937   3.309   5.872
 3941SOL    HW212723   4.812   3.274   5.773
 3942SOL     OW12724   0.372   6.854   6.236
 3942SOL    HW112725   0.342   6.898   6.321
 3942SOL    HW212726   0.377   6.923   6.164
 3943SOL     OW12727   0.054   3.059   2.853
 3943SOL    HW112728   0.016   3.063   2.945
 3943SOL    HW212729   7.019   3.114   2.791
 3944SOL     OW12730   4.440   2.511   4.987
 3944SOL    HW112731   4.457   2.492   4.891
 3944SOL    HW212732   4.380   2.441   5.026
 3945SOL     OW12733   0.789   1.482   0.215
 3945SOL    HW112734   0.829   1.525   0.297
 3945SOL    HW212735   0.738   1.551   0.164
 3946SOL     OW12736   5.788   5.270   5.000
 3946SOL    HW112737   5.848   5.340   4.961
 3946SOL    HW212738   5.729   5.312   5.069
 3947SOL     OW12739   5.180   6.438   0.591
 3947SOL    HW112740   5.169   6.425   0.689
 3947SOL    HW212741   5.264   6.392   0.560
 3948SOL     OW12742   0.553   4.880   2.255
 3948SOL    HW112743   0.502   4.798   2.228
 3948SOL    HW212744   0.578   4.873   2.352
 3949SOL     OW12745   4.956   0.314   3.112
 3949SOL    HW112746   5.006   0.399   3.130
 3949SOL    HW212747   4.872   0.312   3.166
 3950SOL     OW12748   1.361   4.285   0.798
 3950SOL    HW112749   1.421   4.249   0.727
 3950SOL    HW212750   1.365   4.225   0.878
 3951SOL     OW12751   5.055   6.801   1.510
 3951SOL    HW112752   4.975   6.859   1.493
 3951SOL    HW212753   5.080   6.805   1.607
 3952SOL     OW12754   6.682   2.459   2.174
 3952SOL    HW112755   6.616   2.529   2.200
 3952SOL    HW212756   6.774   2.486   2.202
 3953SOL     OW12757   3.463   4.815   1.472
 3953SOL    HW112758   3.424   4.726   1.450
 3953SOL    HW212759   3.392   4.885   1.466
 3954SOL     OW12760   4.098   5.143   4.938
 3954SOL    HW112761   4.101   5.119   4.841
 3954SOL    HW212762   4.171   5.209   4.959
 3955SOL     OW12763   3.020   6.627   6.344
 3955SOL    HW112764   3.015   6.548   6.283
 3955SOL    HW212765   3.094   6.613   6.410
 3956SOL     OW12766   0.884   0.815   2.758
 3956SOL    HW112767   0.945   0.790   2.832
 3956SOL    HW212768   0.813   0.744   2.748
 3957SOL     OW12769   4.654   6.490   3.912
 3957SOL    HW112770   4.733   6.485   3.973
 3957SOL    HW212771   4.617   6.398   3.898
 3958SOL     OW12772   5.553   1.253   4.741
 3958SOL    HW112773   5.577   1.343   4.706
 3958SOL    HW212774   5.626   1.219   4.800
 3959SOL     OW12775   3.994   6.689   0.660
 3959SOL    HW112776   3.960   6.773   0.703
 3959SOL    HW212777   3.997   6.616   0.729
 3960SOL     OW12778   5.033   1.644   6.287
 3960SOL    HW112779   4.992   1.654   6.378
 3960SOL    HW212780   5.043   1.733   6.244
 3961SOL     OW12781   5.609   1.480   2.666
 3961SOL    HW112782   5.582   1.466   2.762
 3961SOL    HW212783   5.528   1.503   2.612
 3962SOL     OW12784   2.709   4.195   6.859
 3962SOL    HW112785   2.621   4.158   6.828
 3962SOL    HW212786   2.739   4.147   6.941
 3963SOL     OW12787   5.311   5.409   3.042
 3963SOL    HW112788   5.224   5.429   2.998
 3963SOL    HW212789   5.324   5.469   3.120
 3964SOL     OW12790   4.941   5.530   3.884
 3964SOL    HW112791   4.845   5.535   3.859
 3964SOL    HW212792   4.955   5.457   3.951
 3965SOL     OW12793   5.099   2.718   4.570
 3965SOL    HW112794   5.048   2.637   4.540
 3965SOL    HW212795   5.197   2.700   4.562
 3966SOL     OW12796   4.788   6.196   6.213
 3966SOL    HW112797   4.881   6.207   6.179
 3966SOL    HW212798   4.791   6.162   6.307
 3967SOL     OW12799   2.121   3.590   2.416
 3967SOL    HW112800   2.083   3.640   2.494
 3967SOL    HW212801   2.175   3.652   2.360
 3968SOL     OW12802   4.422   0.215   1.259
 3968SOL    HW112803   4.469   0.249   1.178
 3968SOL    HW212804   4.325   0.241   1.255
 3969SOL     OW12805   1.074   4.285   2.430
 3969SOL    HW112806   1.162   4.239   2.420
 3969SOL    HW212807   1.031   4.258   2.516
 3970SOL     OW12808   6.120   6.314   3.396
 3970SOL    HW112809   6.106   6.353   3.305
 3970SOL    HW212810   6.058   6.358   3.461
 3971SOL     OW12811   3.277   5.544   3.498
 3971SOL    HW112812   3.281   5.464   3.439
 3971SOL    HW212813   3.240   5.622   3.447
 3972SOL     OW12814   1.204   3.661   0.647
 3972SOL    HW112815   1.245   3.577   0.682
 3972SOL    HW212816   1.124   3.638   0.592
 3973SOL     OW12817   1.513   5.826   6.356
 3973SOL    HW112818   1.426   5.791   6.321
 3973SOL    HW212819   1.531   5.917   6.317
 3974SOL     OW12820   2.355   0.301   5.524
 3974SOL    HW112821   2.337   0.207   5.553
 3974SOL    HW212822   2.316   0.316   5.433
 3975SOL     OW12823   5.021   1.743   5.389
 3975SOL    HW112824   4.988   1.652   5.362
 3975SOL    HW212825   4.990   1.763   5.482
 3976SOL     OW12826   1.424   6.399   1.922
 3976SOL    HW112827   1.452   6.317   1.973
 3976SOL    HW212828   1.373   6.372   1.841
 3977SOL     OW12829   2.063   3.480   6.065
 3977SOL    HW112830   2.093   3.417   6.136
 3977SOL    HW212831   2.037   3.428   5.983
 3978SOL     OW12832   6.083   5.250   4.303
 3978SOL    HW112833   6.098   5.300   4.217
 3978SOL    HW212834   6.019   5.301   4.360
 3979SOL     OW12835   3.305   0.444   0.141
 3979SOL    HW112836   3.330   0.362   0.192
 3979SOL    HW212837   3.381   0.509   0.142
 3980SOL     OW12838   5.600   6.285   0.199
 3980SOL    HW112839   5.597   6.307   0.296
 3980SOL    HW212840   5.536   6.344   0.149
 3981SOL     OW12841   3.438   0.251   0.655
 3981SOL    HW112842   3.461   0.344   0.625
 3981SOL    HW212843   3.478   0.234   0.745
 3982SOL     OW12844   2.685   6.786   3.592
 3982SOL    HW112845   2.592   6.762   3.617
 3982SOL    HW212846   2.717   6.725   3.518
 3983SOL     OW12847   5.020   5.077   4.034
 3983SOL    HW112848   5.013   5.078   4.134
 3983SOL    HW212849   5.096   5.137   4.006
 3984SOL     OW12850   6.528   0.942   2.483
 3984SOL    HW112851   6.512   0.934   2.385
 3984SOL    HW212852   6.553   0.853   2.520
 3985SOL     OW12853   2.481   4.835   6.682
 3985SOL    HW112854   2.515   4.784   6.603
 3985SOL    HW212855   2.535   4.811   6.763
 3986SOL     OW12856   5.172   1.733   2.655
 3986SOL    HW112857   5.084   1.780   2.648
 3986SOL    HW212858   5.169   1.669   2.732
 3987SOL     OW12859   3.776   4.853   3.063
 3987SOL    HW112860   3.763   4.886   2.970
 3987SOL    HW212861   3.687   4.848   3.110
 3988SOL     OW12862   3.276   5.158   0.088
 3988SOL    HW112863   3.324   5.100   0.154
 3988SOL    HW212864   3.330   5.163   0.003
 3989SOL     OW12865   0.042   2.837   6.942
 3989SOL    HW112866   7.009   2.871   6.865
 3989SOL    HW212867   0.011   2.746   6.968
 3990SOL     OW12868   4.386   2.004   2.915
 3990SOL    HW112869   4.359   2.071   2.847
 3990SOL    HW212870   4.305   1.962   2.955
 3991SOL     OW12871   6.784   1.067   2.546
 3991SOL    HW112872   6.859   1.079   2.481
 3991SOL    HW212873   6.704   1.031   2.498
 3992SOL     OW12874   3.162   1.612   0.209
 3992SOL    HW112875   3.086   1.580   0.152
 3992SOL    HW212876   3.218   1.534   0.237
 3993SOL     OW12877   1.556   2.549   2.222
 3993SOL    HW112878   1.642   2.594   2.201
 3993SOL    HW212879   1.487   2.575   2.154
 3994SOL     OW12880   1.447   0.089   6.468
 3994SOL    HW112881   1.545   0.094   6.487
 3994SOL    HW212882   1.425   7.021   6.430
 3995SOL     OW12883   2.441   3.615   6.220
 3995SOL    HW112884   2.349   3.604   6.258
 3995SOL    HW212885   2.443   3.696   6.161
 3996SOL     OW12886   0.757   6.708   4.610
 3996SOL    HW112887   0.705   6.725   4.693
 3996SOL    HW212888   0.813   6.626   4.622
 3997SOL     OW12889   5.530   1.494   3.029
 3997SOL    HW112890   5.621   1.490   3.069
 3997SOL    HW212891   5.481   1.409   3.048
 3998SOL     OW12892   4.038   1.038   3.721
 3998SOL    HW112893   4.076   1.000   3.805
 3998SOL    HW212894   4.105   1.030   3.648
 3999SOL     OW12895   5.287   2.927   4.073
 3999SOL    HW112896   5.281   3.025   4.058
 3999SOL    HW212897   5.198   2.885   4.057
 4000SOL     OW12898   3.604   0.133   3.739
 4000SOL    HW112899   3.611   0.200   3.664
 4000SOL    HW212900   3.584   0.181   3.824
 4001SOL     OW12901   2.581   1.496   3.707
 4001SOL    HW112902   2.600   1.542   3.621
 4001SOL    HW212903   2.634   1.539   3.780
 4002SOL     OW12904   3.111   4.410   0.523
 4002SOL    HW112905   3.069   4.464   0.449
 4002SOL    HW212906   3.182   4.351   0.485
 4003SOL     OW12907   3.814   6.980   3.776
 4003SOL    HW112908   3.739   0.018   3.747
 4003SOL    HW212909   3.781   6.915   3.845
 4004SOL     OW12910   5.663   1.948   3.857
 4004SOL    HW112911   5.570   1.923   3.831
 4004SOL    HW212912   5.683   1.911   3.948
 4005SOL     OW12913   4.987   5.630   6.956
 4005SOL    HW112914   5.003   5.533   6.975
 4005SOL    HW212915   5.028   5.686   0.006
 4006SOL     OW12916   4.537   5.267   2.563
 4006SOL    HW112917   4.537   5.290   2.660
 4006SOL    HW212918   4.627   5.284   2.524
 4007SOL     OW12919   0.046   2.521   6.501
 4007SOL    HW112920   0.105   2.575   6.561
 4007SOL    HW212921   0.020   2.575   6.421
 4008SOL     OW12922   2.862   1.776   4.793
 4008SOL    HW112923   2.818   1.733   4.714
 4008SOL    HW212924   2.832   1.731   4.877
 4009SOL     OW12925   4.311   3.527   1.301
 4009SOL    HW112926   4.332   3.429   1.313
 4009SOL    HW212927   4.386   3.581   1.339
 4010SOL     OW12928   2.539   2.709   1.171
 4010SOL    HW112929   2.451   2.757   1.162
 4010SOL    HW212930   2.547   2.671   1.262
 4011SOL     OW12931   0.287   1.237   1.917
 4011SOL    HW112932   0.352   1.164   1.894
 4011SOL    HW212933   0.335   1.325   1.920
 4012SOL     OW12934   6.559   4.431   1.619
 4012SOL    HW112935   6.539   4.463   1.711
 4012SOL    HW212936   6.501   4.352   1.598
 4013SOL     OW12937   3.347   1.265   4.885
 4013SOL    HW112938   3.272   1.329   4.871
 4013SOL    HW212939   3.381   1.234   4.796
 4014SOL     OW12940   5.229   6.173   2.291
 4014SOL    HW112941   5.301   6.194   2.225
 4014SOL    HW212942   5.222   6.247   2.358
 4015SOL     OW12943   4.622   4.846   6.240
 4015SOL    HW112944   4.690   4.886   6.179
 4015SOL    HW212945   4.554   4.916   6.264
 4016SOL     OW12946   2.457   6.283   5.936
 4016SOL    HW112947   2.458   6.361   5.998
 4016SOL    HW212948   2.373   6.231   5.948
 4017SOL     OW12949   6.613   6.057   0.604
 4017SOL    HW112950   6.655   6.068   0.514
 4017SOL    HW212951   6.681   6.079   0.675
 4018SOL     OW12952   3.756   5.564   2.530
 4018SOL    HW112953   3.771   5.512   2.445
 4018SOL    HW212954   3.666   5.606   2.527
 4019SOL     OW12955   5.055   4.545   3.525
 4019SOL    HW112956   4.981   4.483   3.498
 4019SOL    HW212957   5.142   4.507   3.496
 4020SOL     OW12958   4.672   1.997   4.920
 4020SOL    HW112959   4.634   1.906   4.906
 4020SOL    HW212960   4.771   1.994   4.915
 4021SOL     OW12961   3.800   5.089   6.114
 4021SOL    HW112962   3.717   5.055   6.070
 4021SOL    HW212963   3.879   5.040   6.078
 4022SOL     OW12964   5.104   1.689   6.861
 4022SOL    HW112965   5.156   1.643   6.789
 4022SOL    HW212966   5.162   1.702   6.941
 4023SOL     OW12967   6.240   2.037   4.584
 4023SOL    HW112968   6.208   2.060   4.492
 4023SOL    HW212969   6.300   1.956   4.580
 4024SOL     OW12970   3.534   6.745   4.196
 4024SOL    HW112971   3.434   6.755   4.192
 4024SOL    HW212972   3.567   6.711   4.108
 4025SOL     OW12973   0.508   3.725   2.916
 4025SOL    HW112974   0.599   3.735   2.956
 4025SOL    HW212975   0.504   3.777   2.831
 4026SOL     OW12976   5.843   5.909   4.082
 4026SOL    HW112977   5.872   5.845   4.153
 4026SOL    HW212978   5.753   5.945   4.104
 4027SOL     OW12979   3.826   4.024   2.295
 4027SOL    HW112980   3.855   4.083   2.370
 4027SOL    HW212981   3.736   4.052   2.262
 4028SOL     OW12982   1.822   1.942   4.485
 4028SOL    HW112983   1.908   1.955   4.437
 4028SOL    HW212984   1.824   1.990   4.572
 4029SOL     OW12985   2.535   3.985   5.686
 4029SOL    HW112986   2.596   3.929   5.629
 4029SOL    HW212987   2.574   4.076   5.696
 4030SOL     OW12988   0.702   2.041   5.648
 4030SOL    HW112989   0.766   1.968   5.624
 4030SOL    HW212990   0.716   2.069   5.742
 4031SOL     OW12991   4.679   5.829   3.330
 4031SOL    HW112992   4.587   5.814   3.294
 4031SOL    HW212993   4.710   5.920   3.304
 4032SOL     OW12994   6.281   6.693   3.972
 4032SOL    HW112995   6.331   6.780   3.976
 4032SOL    HW212996   6.319   6.637   3.898
 4033SOL     OW12997   3.211   4.107   4.438
 4033SOL    HW112998   3.190   4.200   4.469
 4033SOL    HW212999   3.309   4.097   4.425
 4034SOL     OW13000   6.294   1.440   4.535
 4034SOL    HW113001   6.296   1.535   4.503
 4034SOL    HW213002   6.386   1.403   4.535
 4035SOL     OW13003   0.199   4.688   6.447
 4035SOL    HW113004   0.167   4.594   6.457
 4035SOL    HW213005   0.215   4.707   6.350
 4036SOL     OW13006   6.328   6.044   2.811
 4036SOL    HW113007   6.368   6.078   2.727
 4036SOL    HW213008   6.244   5.993   2.790
 4037SOL     OW13009   1.474   3.878   6.528
 4037SOL    HW113010   1.377   3.856   6.538
 4037SOL    HW213011   1.484   3.973   6.499
 4038SOL     OW13012   5.327   4.351   3.156
 4038SOL    HW113013   5.382   4.403   3.091
 4038SOL    HW213014   5.381   4.276   3.194
 4039SOL     OW13015   5.535   6.182   0.708
 4039SOL    HW113016   5.578   6.099   0.744
 4039SOL    HW213017   5.537   6.254   0.778
 4040SOL     OW13018   2.974   0.043   1.438
 4040SOL    HW113019   2.970   0.069   1.341
 4040SOL    HW213020   2.972   0.126   1.495
 4041SOL     OW13021   1.325   6.405   3.309
 4041SOL    HW113022   1.295   6.493   3.274
 4041SOL    HW213023   1.385   6.419   3.388
 4042SOL     OW13024   5.861   5.352   1.988
 4042SOL    HW113025   5.952   5.336   2.026
 4042SOL    HW213026   5.835   5.447   2.004
 4043SOL     OW13027   5.122   2.018   2.600
 4043SOL    HW113028   5.102   2.109   2.637
 4043SOL    HW213029   5.209   2.020   2.551
 4044SOL     OW13030   5.718   0.096   3.264
 4044SOL    HW113031   5.767   0.012   3.240
 4044SOL    HW213032   5.626   0.093   3.225
 4045SOL     OW13033   2.102   5.088   6.561
 4045SOL    HW113034   2.033   5.061   6.495
 4045SOL    HW213035   2.135   5.008   6.611
 4046SOL     OW13036   0.791   2.440   1.521
 4046SOL    HW113037   0.783   2.341   1.527
 4046SOL    HW213038   0.703   2.480   1.496
 4047SOL     OW13039   3.175   3.594   1.846
 4047SOL    HW113040   3.258   3.615   1.795
 4047SOL    HW213041   3.096   3.594   1.785
 4048SOL     OW13042   5.422   0.785   0.652
 4048SOL    HW113043   5.509   0.764   0.608
 4048SOL    HW213044   5.436   0.851   0.726
 4049SOL     OW13045   5.654   6.767   5.843
 4049SOL    HW113046   5.707   6.849   5.823
 4049SOL    HW213047   5.687   6.692   5.786
 4050SOL     OW13048   1.609   6.400   0.483
 4050SOL    HW113049   1.521   6.362   0.512
 4050SOL    HW213050   1.654   6.336   0.421
 4051SOL     OW13051   2.966   4.711   0.605
 4051SOL    HW113052   2.965   4.749   0.698
 4051SOL    HW213053   2.881   4.660   0.590
 4052SOL     OW13054   0.541   0.721   6.880
 4052SOL    HW113055   0.619   0.700   6.939
 4052SOL    HW213056   0.514   0.816   6.893
 4053SOL     OW13057   3.063   4.827   3.828
 4053SOL    HW113058   3.115   4.833   3.743
 4053SOL    HW213059   2.987   4.763   3.816
 4054SOL     OW13060   3.420   2.400   0.831
 4054SOL    HW113061   3.368   2.375   0.913
 4054SOL    HW213062   3.504   2.448   0.858
 4055SOL     OW13063   3.254   2.421   6.602
 4055SOL    HW113064   3.254   2.398   6.505
 4055SOL    HW213065   3.274   2.518   6.613
 4056SOL     OW13066   3.622   2.694   6.780
 4056SOL    HW113067   3.566   2.647   6.849
 4056SOL    HW213068   3.612   2.793   6.791
 4057SOL     OW13069   4.742   3.230   6.330
 4057SOL    HW113070   4.669   3.183   6.281
 4057SOL    HW213071   4.716   3.325   6.348
 4058SOL     OW13072   2.332   1.092   5.382
 4058SOL    HW113073   2.251   1.097   5.440
 4058SOL    HW213074   2.404   1.150   5.419
 4059SOL     OW13075   1.644   1.806   5.047
 4059SOL    HW113076   1.581   1.870   5.003
 4059SOL    HW213077   1.732   1.852   5.063
 4060SOL     OW13078   4.011   4.869   4.051
 4060SOL    HW113079   4.094   4.858   4.105
 4060SOL    HW213080   4.012   4.805   3.974
 4061SOL     OW13081   3.610   4.160   1.854
 4061SOL    HW113082   3.546   4.101   1.806
 4061SOL    HW213083   3.614   4.250   1.810
 4062SOL     OW13084   3.340   0.962   2.617
 4062SOL    HW113085   3.305   0.944   2.525
 4062SOL    HW213086   3.263   0.978   2.679
 4063SOL     OW13087   3.352   5.436   5.825
 4063SOL    HW113088   3.330   5.494   5.746
 4063SOL    HW213089   3.310   5.474   5.907
 4064SOL     OW13090   0.293   0.318   3.409
 4064SOL    HW113091   0.290   0.397   3.471
 4064SOL    HW213092   0.235   0.336   3.330
 4065SOL     OW13093   6.726   6.888   0.744
 4065SOL    HW113094   6.660   6.954   0.709
 4065SOL    HW213095   6.696   6.855   0.834
 4066SOL     OW13096   5.523   4.362   1.665
 4066SOL    HW113097   5.559   4.396   1.578
 4066SOL    HW213098   5.426   4.385   1.672
 4067SOL     OW13099   6.296   1.089   2.573
 4067SOL    HW113100   6.389   1.074   2.538
 4067SOL    HW213101   6.275   1.020   2.642
 4068SOL     OW13102   5.638   0.735   3.892
 4068SOL    HW113103   5.547   0.769   3.915
 4068SOL    HW213104   5.707   0.792   3.937
 4069SOL     OW13105   5.389   5.377   0.812
 4069SOL    HW113106   5.345   5.293   0.781
 4069SOL    HW213107   5.370   5.390   0.910
 4070SOL     OW13108   1.853   3.731   3.212
 4070SOL    HW113109   1.847   3.700   3.307
 4070SOL    HW213110   1.906   3.815   3.208
 4071SOL     OW13111   2.020   0.322   4.062
 4071SOL    HW113112   2.015   0.232   4.018
 4071SOL    HW213113   2.072   0.313   4.148
 4072SOL     OW13114   1.661   0.166   4.466
 4072SOL    HW113115   1.755   0.132   4.471
 4072SOL    HW213116   1.624   0.173   4.559
 4073SOL     OW13117   2.825   5.836   6.744
 4073SOL    HW113118   2.759   5.876   6.681
 4073SOL    HW213119   2.779   5.811   6.829
 4074SOL     OW13120   1.164   2.213   0.852
 4074SOL    HW113121   1.177   2.175   0.943
 4074SOL    HW213122   1.226   2.170   0.787
 4075SOL     OW13123   5.217   1.062   3.230
 4075SOL    HW113124   5.207   1.161   3.231
 4075SOL    HW213125   5.235   1.029   3.323
 4076SOL     OW13126   1.659   3.441   4.407
 4076SOL    HW113127   1.620   3.460   4.497
 4076SOL    HW213128   1.734   3.504   4.389
 4077SOL     OW13129   3.197   0.943   0.616
 4077SOL    HW113130   3.108   0.973   0.650
 4077SOL    HW213131   3.261   1.020   0.618
 4078SOL     OW13132   6.114   3.817   1.262
 4078SOL    HW113133   6.022   3.819   1.298
 4078SOL    HW213134   6.173   3.763   1.322
 4079SOL     OW13135   0.754   0.899   3.899
 4079SOL    HW113136   0.728   0.803   3.886
 4079SOL    HW213137   0.686   0.958   3.855
 4080SOL     OW13138   3.595   3.778   1.573
 4080SOL    HW113139   3.619   3.813   1.483
 4080SOL    HW213140   3.647   3.694   1.590
 4081SOL     OW13141   1.721   2.101   5.607
 4081SOL    HW113142   1.734   2.070   5.701
 4081SOL    HW213143   1.801   2.154   5.578
 4082SOL     OW13144   0.713   2.973   5.187
 4082SOL    HW113145   0.691   3.053   5.242
 4082SOL    HW213146   0.767   3.000   5.108
 4083SOL     OW13147   5.912   4.943   3.517
 4083SOL    HW113148   5.973   4.892   3.457
 4083SOL    HW213149   5.830   4.970   3.466
 4084SOL     OW13150   4.163   1.006   3.483
 4084SOL    HW113151   4.247   1.059   3.472
 4084SOL    HW213152   4.109   1.012   3.399
 4085SOL     OW13153   2.795   5.360   2.344
 4085SOL    HW113154   2.713   5.320   2.302
 4085SOL    HW213155   2.858   5.287   2.371
 4086SOL     OW13156   6.545   5.706   6.268
 4086SOL    HW113157   6.491   5.637   6.316
 4086SOL    HW213158   6.530   5.796   6.311
 4087SOL     OW13159   2.212   0.233   2.557
 4087SOL    HW113160   2.306   0.256   2.583
 4087SOL    HW213161   2.151   0.253   2.633
 4088SOL     OW13162   0.136   1.131   5.722
 4088SOL    HW113163   0.045   1.131   5.763
 4088SOL    HW213164   0.182   1.217   5.743
 4089SOL     OW13165   0.121   6.906   3.552
 4089SOL    HW113166   0.087   6.889   3.459
 4089SOL    HW213167   0.195   6.842   3.573
 4090SOL     OW13168   2.687   0.245   5.577
 4090SOL    HW113169   2.624   0.167   5.571
 4090SOL    HW213170   2.756   0.237   5.505
 4091SOL     OW13171   2.100   5.553   1.235
 4091SOL    HW113172   2.172   5.488   1.262
 4091SOL    HW213173   2.019   5.502   1.205
 4092SOL     OW13174   4.977   3.233   4.340
 4092SOL    HW113175   5.070   3.233   4.303
 4092SOL    HW213176   4.959   3.145   4.384
 4093SOL     OW13177   5.390   5.806   3.142
 4093SOL    HW113178   5.384   5.767   3.050
 4093SOL    HW213179   5.378   5.905   3.137
 4094SOL     OW13180   6.945   5.723   6.875
 4094SOL    HW113181   6.965   5.760   6.784
 4094SOL    HW213182   0.008   5.716   6.928
 4095SOL     OW13183   0.106   4.958   0.073
 4095SOL    HW113184   0.114   5.044   0.123
 4095SOL    HW213185   0.190   4.905   0.084
 4096SOL     OW13186   1.950   2.215   6.758
 4096SOL    HW113187   1.852   2.199   6.771
 4096SOL    HW213188   1.999   2.193   6.842
 4097SOL     OW13189   0.003   4.717   4.896
 4097SOL    HW113190   6.944   4.686   4.845
 4097SOL    HW213191   0.045   4.640   4.943
 4098SOL     OW13192   2.042   5.017   3.056
 4098SOL    HW113193   1.990   4.986   3.136
 4098SOL    HW213194   2.072   4.939   3.002
 4099SOL     OW13195   4.424   4.626   5.907
 4099SOL    HW113196   4.356   4.671   5.849
 4099SOL    HW213197   4.379   4.552   5.958
 4100SOL     OW13198   1.775   0.795   3.664
 4100SOL    HW113199   1.703   0.865   3.661
 4100SOL    HW213200   1.806   0.783   3.758
 4101SOL     OW13201   6.235   0.866   6.774
 4101SOL    HW113202   6.227   0.925   6.694
 4101SOL    HW213203   6.289   0.912   6.844
 4102SOL     OW13204   1.827   0.537   6.999
 4102SOL    HW113205   1.919   0.532   6.961
 4102SOL    HW213206   1.761   0.548   6.925
 4103SOL     OW13207   1.605   6.845   2.089
 4103SOL    HW113208   1.572   6.773   2.027
 4103SOL    HW213209   1.575   6.934   2.054
 4104SOL     OW13210   0.692   5.732   3.784
 4104SOL    HW113211   0.601   5.704   3.815
 4104SOL    HW213212   0.684   5.814   3.728
 4105SOL     OW13213   4.547   1.023   1.041
 4105SOL    HW113214   4.480   0.954   1.016
 4105SOL    HW213215   4.636   0.980   1.056
 4106SOL     OW13216   0.152   2.144   3.754
 4106SOL    HW113217   0.055   2.150   3.777
 4106SOL    HW213218   0.168   2.191   3.667
 4107SOL     OW13219   0.066   6.303   6.266
 4107SOL    HW113220   0.126   6.281   6.189
 4107SOL    HW213221   7.001   6.254   6.257
 4108SOL     OW13222   6.806   5.233   3.950
 4108SOL    HW113223   6.824   5.162   3.882
 4108SOL    HW213224   6.820   5.323   3.909
 4109SOL     OW13225   6.270   6.293   2.965
 4109SOL    HW113226   6.304   6.257   2.878
 4109SOL    HW213227   6.335   6.271   3.037
 4110SOL     OW13228   4.788   4.006   0.248
 4110SOL    HW113229   4.802   3.909   0.269
 4110SOL    HW213230   4.691   4.023   0.232
 4111SOL     OW13231   6.761   4.044   4.698
 4111SOL    HW113232   6.757   4.114   4.770
 4111SOL    HW213233   6.847   3.994   4.706
 4112SOL     OW13234   4.682   0.268   5.249
 4112SOL    HW113235   4.719   0.188   5.202
 4112SOL    HW213236   4.756   0.330   5.274
 4113SOL     OW13237   4.636   4.369   4.736
 4113SOL    HW113238   4.701   4.319   4.793
 4113SOL    HW213239   4.682   4.448   4.694
 4114SOL     OW13240   6.813   1.378   2.707
 4114SOL    HW113241   6.763   1.302   2.751
 4114SOL    HW213242   6.882   1.341   2.645
 4115SOL     OW13243   2.963   5.173   3.591
 4115SOL    HW113244   2.926   5.109   3.659
 4115SOL    HW213245   2.935   5.266   3.614
 4116SOL     OW13246   5.161   2.694   3.382
 4116SOL    HW113247   5.088   2.637   3.418
 4116SOL    HW213248   5.211   2.644   3.312
 4117SOL     OW13249   1.364   2.537   2.930
 4117SOL    HW113250   1.439   2.520   2.867
 4117SOL    HW213251   1.392   2.608   2.996
 4118SOL     OW13252   6.571   6.823   6.332
 4118SOL    HW113253   6.540   6.785   6.244
 4118SOL    HW213254   6.670   6.836   6.329
 4119SOL     OW13255   2.052   0.996   3.806
 4119SOL    HW113256   2.045   1.028   3.901
 4119SOL    HW213257   2.096   1.067   3.750
 4120SOL     OW13258   2.179   1.105   6.473
 4120SOL    HW113259   2.171   1.196   6.432
 4120SOL    HW213260   2.089   1.075   6.505
 4121SOL     OW13261   6.666   6.963   1.963
 4121SOL    HW113262   6.587   6.904   1.947
 4121SOL    HW213263   6.674   6.983   2.061
 4122SOL     OW13264   7.017   4.469   4.253
 4122SOL    HW113265   0.019   4.564   4.235
 4122SOL    HW213266   0.053   4.409   4.197
 4123SOL     OW13267   3.553   4.931   2.464
 4123SOL    HW113268   3.597   4.951   2.552
 4123SOL    HW213269   3.599   4.982   2.392
 4124SOL     OW13270   6.488   5.816   0.643
 4124SOL    HW113271   6.469   5.808   0.741
 4124SOL    HW213272   6.546   5.896   0.627
 4125SOL     OW13273   5.793   2.164   2.021
 4125SOL    HW113274   5.863   2.146   1.953
 4125SOL    HW213275   5.823   2.129   2.110
 4126SOL     OW13276   0.957   3.015   2.385
 4126SOL    HW113277   0.975   2.922   2.415
 4126SOL    HW213278   1.007   3.033   2.300
 4127SOL     OW13279   4.132   1.700   4.016
 4127SOL    HW113280   4.085   1.616   4.041
 4127SOL    HW213281   4.144   1.757   4.097
 4128SOL     OW13282   0.394   3.411   1.208
 4128SOL    HW113283   0.428   3.349   1.278
 4128SOL    HW213284   0.378   3.501   1.247
 4129SOL     OW13285   2.507   2.876   0.710
 4129SOL    HW113286   2.597   2.871   0.754
 4129SOL    HW213287   2.492   2.793   0.656
 4130SOL     OW13288   6.176   3.208   1.348
 4130SOL    HW113289   6.199   3.161   1.263
 4130SOL    HW213290   6.255   3.204   1.410
 4131SOL     OW13291   4.729   0.955   2.128
 4131SOL    HW113292   4.712   1.049   2.097
 4131SOL    HW213293   4.662   0.894   2.087
 4132SOL     OW13294   0.006   4.109   4.242
 4132SOL    HW113295   6.932   4.138   4.238
 4132SOL    HW213296   0.027   4.077   4.335
 4133SOL     OW13297   5.859   6.989   1.904
 4133SOL    HW113298   5.900   0.059   1.909
 4133SOL    HW213299   5.923   6.927   1.858
 4134SOL     OW13300   2.278   2.980   1.438
 4134SOL    HW113301   2.315   3.072   1.452
 4134SOL    HW213302   2.325   2.915   1.498
 4135SOL     OW13303   6.993   1.071   2.331
 4135SOL    HW113304   0.057   1.110   2.297
 4135SOL    HW213305   6.916   1.110   2.281
 4136SOL     OW13306   1.614   4.494   2.145
 4136SOL    HW113307   1.524   4.470   2.182
 4136SOL    HW213308   1.669   4.536   2.217
 4137SOL     OW13309   1.702   3.205   0.216
 4137SOL    HW113310   1.661   3.157   0.138
 4137SOL    HW213311   1.685   3.152   0.299
 4138SOL     OW13312   4.313   6.502   0.687
 4138SOL    HW113313   4.269   6.423   0.645
 4138SOL    HW213314   4.276   6.516   0.779
 4139SOL     OW13315   2.156   2.374   3.105
 4139SOL    HW113316   2.202   2.429   3.034
 4139SOL    HW213317   2.220   2.307   3.141
 4140SOL     OW13318   2.736   2.374   4.888
 4140SOL    HW113319   2.678   2.452   4.867
 4140SOL    HW213320   2.679   2.297   4.918
 4141SOL     OW13321   4.400   0.150   6.932
 4141SOL    HW113322   4.365   0.215   6.865
 4141SOL    HW213323   4.358   0.169   7.021
 4142SOL     OW13324   0.252   4.681   2.932
 4142SOL    HW113325   0.232   4.744   3.007
 4142SOL    HW213326   0.170   4.626   2.912
 4143SOL     OW13327   6.104   2.795   0.903
 4143SOL    HW113328   6.050   2.717   0.872
 4143SOL    HW213329   6.076   2.819   0.996
 4144SOL     OW13330   5.553   2.197   0.535
 4144SOL    HW113331   5.501   2.241   0.609
 4144SOL    HW213332   5.582   2.266   0.469
 4145SOL     OW13333   6.968   6.845   1.311
 4145SOL    HW113334   6.908   6.774   1.347
 4145SOL    HW213335   0.020   6.803   1.257
 4146SOL     OW13336   5.588   6.606   3.787
 4146SOL    HW113337   5.678   6.591   3.829
 4146SOL    HW213338   5.522   6.628   3.858
 4147SOL     OW13339   4.974   4.119   5.240
 4147SOL    HW113340   4.877   4.126   5.219
 4147SOL    HW213341   5.024   4.098   5.155
 4148SOL     OW13342   3.055   1.355   5.659
 4148SOL    HW113343   3.044   1.257   5.644
 4148SOL    HW213344   3.153   1.377   5.667
 4149SOL     OW13345   1.687   3.076   0.460
 4149SOL    HW113346   1.741   2.997   0.489
 4149SOL    HW213347   1.617   3.095   0.529
 4150SOL     OW13348   5.880   2.808   6.439
 4150SOL    HW113349   5.882   2.820   6.339
 4150SOL    HW213350   5.878   2.897   6.483
 4151SOL     OW13351   2.448   6.670   4.804
 4151SOL    HW113352   2.482   6.760   4.775
 4151SOL    HW213353   2.431   6.614   4.723
 4152SOL     OW13354   3.057   5.730   1.568
 4152SOL    HW113355   3.085   5.642   1.531
 4152SOL    HW213356   2.999   5.715   1.648
 4153SOL     OW13357   6.687   4.815   1.674
 4153SOL    HW113358   6.777   4.854   1.656
 4153SOL    HW213359   6.696   4.717   1.694
 4154SOL     OW13360   0.895   5.737   4.692
 4154SOL    HW113361   0.914   5.786   4.777
 4154SOL    HW213362   0.804   5.764   4.657
 4155SOL     OW13363   0.998   2.082   1.686
 4155SOL    HW113364   1.012   2.013   1.614
 4155SOL    HW213365   0.902   2.083   1.714
 4156SOL     OW13366   6.859   5.076   5.208
 4156SOL    HW113367   6.870   4.998   5.146
 4156SOL    HW213368   6.768   5.115   5.197
 4157SOL     OW13369   6.711   6.326   1.962
 4157SOL    HW113370   6.682   6.234   1.937
 4157SOL    HW213371   6.809   6.325   1.985
 4158SOL     OW13372   1.759   2.607   1.943
 4158SOL    HW113373   1.819   2.636   2.017
 4158SOL    HW213374   1.801   2.530   1.895
 4159SOL     OW13375   2.553   1.401   2.905
 4159SOL    HW113376   2.460   1.394   2.941
 4159SOL    HW213377   2.600   1.313   2.916
 4160SOL     OW13378   6.503   0.125   6.706
 4160SOL    HW113379   6.587   0.181   6.708
 4160SOL    HW213380   6.513   0.048   6.769
 4161SOL     OW13381   2.247   2.261   1.357
 4161SOL    HW113382   2.325   2.238   1.298
 4161SOL    HW213383   2.248   2.359   1.376
 4162SOL     OW13384   6.344   6.220   1.282
 4162SOL    HW113385   6.330   6.292   1.214
 4162SOL    HW213386   6.329   6.258   1.374
 4163SOL     OW13387   4.071   6.293   0.986
 4163SOL    HW113388   4.077   6.238   0.902
 4163SOL    HW213389   4.163   6.314   1.019
 4164SOL     OW13390   0.171   6.711   4.848
 4164SOL    HW113391   0.227   6.630   4.869
 4164SOL    HW213392   0.229   6.781   4.807
 4165SOL     OW13393   4.153   1.213   5.357
 4165SOL    HW113394   4.205   1.271   5.421
 4165SOL    HW213395   4.161   1.117   5.385
 4166SOL     OW13396   6.093   0.687   2.599
 4166SOL    HW113397   6.108   0.599   2.556
 4166SOL    HW213398   5.995   0.706   2.604
 4167SOL     OW13399   3.652   5.183   5.694
 4167SOL    HW113400   3.588   5.235   5.638
 4167SOL    HW213401   3.732   5.240   5.714
 4168SOL     OW13402   6.220   4.361   0.260
 4168SOL    HW113403   6.224   4.460   0.257
 4168SOL    HW213404   6.210   4.331   0.355
 4169SOL     OW13405   4.960   4.055   4.968
 4169SOL    HW113406   4.915   3.974   4.930
 4169SOL    HW213407   5.053   4.061   4.932
 4170SOL     OW13408   5.327   3.127   4.668
 4170SOL    HW113409   5.278   3.098   4.586
 4170SOL    HW213410   5.423   3.099   4.661
 4171SOL     OW13411   1.324   3.773   1.161
 4171SOL    HW113412   1.397   3.841   1.153
 4171SOL    HW213413   1.358   3.693   1.210
 4172SOL     OW13414   3.312   3.713   0.857
 4172SOL    HW113415   3.303   3.636   0.921
 4172SOL    HW213416   3.408   3.723   0.831
 4173SOL     OW13417   4.495   2.816   5.267
 4173SOL    HW113418   4.528   2.843   5.176
 4173SOL    HW213419   4.430   2.741   5.258
 4174SOL     OW13420   4.672   0.451   4.307
 4174SOL    HW113421   4.647   0.456   4.403
 4174SOL    HW213422   4.623   0.376   4.263
 4175SOL     OW13423   1.480   4.320   6.631
 4175SOL    HW113424   1.533   4.349   6.551
 4175SOL    HW213425   1.535   4.260   6.688
 4176SOL     OW13426   4.604   6.757   0.072
 4176SOL    HW113427   4.693   6.790   0.104
 4176SOL    HW213428   4.544   6.741   0.150
 4177SOL     OW13429   4.845   4.845   4.627
 4177SOL    HW113430   4.758   4.868   4.671
 4177SOL    HW213431   4.838   4.864   4.529
 4178SOL     OW13432   3.011   5.686   2.143
 4178SOL    HW113433   3.094   5.632   2.156
 4178SOL    HW213434   2.936   5.625   2.115
 4179SOL     OW13435   5.295   3.216   4.244
 4179SOL    HW113436   5.268   3.313   4.244
 4179SOL    HW213437   5.372   3.204   4.182
 4180SOL     OW13438   5.615   3.158   0.917
 4180SOL    HW113439   5.516   3.153   0.903
 4180SOL    HW213440   5.643   3.253   0.930
 4181SOL     OW13441   5.042   0.416   5.487
 4181SOL    HW113442   5.047   0.397   5.585
 4181SOL    HW213443   5.084   0.341   5.436
 4182SOL     OW13444   0.255   6.192   4.041
 4182SOL    HW113445   0.343   6.191   4.088
 4182SOL    HW213446   0.186   6.233   4.100
 4183SOL     OW13447   2.417   1.089   2.045
 4183SOL    HW113448   2.325   1.114   2.013
 4183SOL    HW213449   2.409   1.014   2.111
 4184SOL     OW13450   3.024   6.635   2.676
 4184SOL    HW113451   3.006   6.623   2.773
 4184SOL    HW213452   3.076   6.556   2.641
 4185SOL     OW13453   6.892   3.718   3.185
 4185SOL    HW113454   6.965   3.694   3.120
 4185SOL    HW213455   6.910   3.673   3.273
 4186SOL     OW13456   1.660   5.831   6.575
 4186SOL    HW113457   1.729   5.760   6.569
 4186SOL    HW213458   1.600   5.826   6.495
 4187SOL     OW13459   2.249   3.605   6.866
 4187SOL    HW113460   2.268   3.507   6.878
 4187SOL    HW213461   2.231   3.624   6.770
 4188SOL     OW13462   4.960   0.373   6.348
 4188SOL    HW113463   5.043   0.358   6.401
 4188SOL    HW213464   4.985   0.397   6.254
 4189SOL     OW13465   5.068   5.555   2.912
 4189SOL    HW113466   5.062   5.635   2.971
 4189SOL    HW213467   5.084   5.584   2.818
 4190SOL     OW13468   6.985   6.852   0.778
 4190SOL    HW113469   0.003   6.776   0.726
 4190SOL    HW213470   6.891   6.868   0.749
 4191SOL     OW13471   5.095   3.869   5.816
 4191SOL    HW113472   5.124   3.796   5.877
 4191SOL    HW213473   5.003   3.850   5.782
 4192SOL     OW13474   1.167   1.702   2.567
 4192SOL    HW113475   1.200   1.616   2.528
 4192SOL    HW213476   1.146   1.767   2.494
 4193SOL     OW13477   5.869   0.520   0.499
 4193SOL    HW113478   5.796   0.458   0.528
 4193SOL    HW213479   5.944   0.466   0.459
 4194SOL     OW13480   4.167   0.961   5.459
 4194SOL    HW113481   4.251   0.907   5.470
 4194SOL    HW213482   4.089   0.899   5.449
 4195SOL     OW13483   4.613   6.434   2.050
 4195SOL    HW113484   4.595   6.350   2.100
 4195SOL    HW213485   4.701   6.427   2.003
 4196SOL     OW13486   6.790   2.639   3.980
 4196SOL    HW113487   6.831   2.713   3.927
 4196SOL    HW213488   6.833   2.552   3.954
 4197SOL     OW13489   3.799   5.862   6.003
 4197SOL    HW113490   3.871   5.856   6.072
 4197SOL    HW213491   3.711   5.839   6.045
 4198SOL     OW13492   6.559   0.565   2.127
 4198SOL    HW113493   6.596   0.473   2.138
 4198SOL    HW213494   6.480   0.576   2.187
 4199SOL     OW13495   1.898   4.380   6.443
 4199SOL    HW113496   1.938   4.288   6.443
 4199SOL    HW213497   1.799   4.374   6.435
 4200SOL     OW13498   4.119   0.845   4.991
 4200SOL    HW113499   4.128   0.750   5.021
 4200SOL    HW213500   4.106   0.848   4.891
 4201SOL     OW13501   6.325   6.891   3.732
 4201SOL    HW113502   6.315   6.927   3.825
 4201SOL    HW213503   6.251   6.925   3.675
 4202SOL     OW13504   3.583   5.656   6.943
 4202SOL    HW113505   3.509   5.602   6.983
 4202SOL    HW213506   3.638   5.697   7.017
 4203SOL     OW13507   5.392   5.318   0.455
 4203SOL    HW113508   5.334   5.268   0.519
 4203SOL    HW213509   5.462   5.369   0.506
 4204SOL     OW13510   3.340   3.267   5.880
 4204SOL    HW113511   3.242   3.289   5.872
 4204SOL    HW213512   3.375   3.299   5.968
 4205SOL     OW13513   3.799   5.677   4.718
 4205SOL    HW113514   3.858   5.745   4.674
 4205SOL    HW213515   3.723   5.655   4.657
 4206SOL     OW13516   1.348   1.484   4.872
 4206SOL    HW113517   1.359   1.385   4.888
 4206SOL    HW213518   1.251   1.507   4.878
 4207SOL     OW13519   2.017   2.299   1.134
 4207SOL    HW113520   1.937   2.239   1.138
 4207SOL    HW213521   2.085   2.269   1.202
 4208SOL     OW13522   1.528   4.165   5.423
 4208SOL    HW113523   1.457   4.222   5.466
 4208SOL    HW213524   1.587   4.223   5.368
 4209SOL     OW13525   0.229   5.720   2.648
 4209SOL    HW113526   0.147   5.774   2.667
 4209SOL    HW213527   0.215   5.626   2.679
 4210SOL     OW13528   4.004   3.227   4.897
 4210SOL    HW113529   3.941   3.299   4.871
 4210SOL    HW213530   4.000   3.153   4.830
 4211SOL     OW13531   3.859   1.958   5.002
 4211SOL    HW113532   3.872   1.939   4.905
 4211SOL    HW213533   3.938   1.923   5.053
 4212SOL     OW13534   0.169   1.137   3.508
 4212SOL    HW113535   0.209   1.047   3.524
 4212SOL    HW213536   0.111   1.133   3.426
 4213SOL     OW13537   2.973   1.102   3.039
 4213SOL    HW113538   2.950   1.179   3.099
 4213SOL    HW213539   2.893   1.078   2.984
 4214SOL     OW13540   0.884   5.100   4.388
 4214SOL    HW113541   0.975   5.134   4.412
 4214SOL    HW213542   0.885   5.000   4.390
 4215SOL     OW13543   4.878   6.402   5.453
 4215SOL    HW113544   4.960   6.459   5.448
 4215SOL    HW213545   4.876   6.339   5.375
 4216SOL     OW13546   1.363   0.947   2.934
 4216SOL    HW113547   1.371   1.040   2.899
 4216SOL    HW213548   1.418   0.885   2.878
 4217SOL     OW13549   0.859   0.092   1.789
 4217SOL    HW113550   0.939   0.102   1.730
 4217SOL    HW213551   0.844   7.016   1.808
 4218SOL     OW13552   3.653   1.340   1.098
 4218SOL    HW113553   3.713   1.418   1.115
 4218SOL    HW213554   3.580   1.368   1.035
 4219SOL     OW13555   4.287   6.338   4.503
 4219SOL    HW113556   4.223   6.377   4.437
 4219SOL    HW213557   4.373   6.316   4.456
 4220SOL     OW13558   5.361   2.016   1.855
 4220SOL    HW113559   5.419   1.988   1.779
 4220SOL    HW213560   5.415   2.066   1.922
 4221SOL     OW13561   6.468   5.310   6.835
 4221SOL    HW113562   6.390   5.254   6.862
 4221SOL    HW213563   6.526   5.326   6.915
 4222SOL     OW13564   5.769   2.146   3.292
 4222SOL    HW113565   5.755   2.078   3.219
 4222SOL    HW213566   5.731   2.234   3.263
 4223SOL     OW13567   4.182   4.029   0.895
 4223SOL    HW113568   4.104   4.083   0.862
 4223SOL    HW213569   4.167   4.004   0.990
 4224SOL     OW13570   5.167   4.320   5.008
 4224SOL    HW113571   5.221   4.247   5.050
 4224SOL    HW213572   5.182   4.319   4.909
 4225SOL     OW13573   1.372   2.193   5.367
 4225SOL    HW113574   1.281   2.233   5.371
 4225SOL    HW213575   1.410   2.186   5.459
 4226SOL     OW13576   0.429   5.932   4.406
 4226SOL    HW113577   0.486   5.987   4.466
 4226SOL    HW213578   0.384   5.991   4.338
 4227SOL     OW13579   5.106   5.658   1.905
 4227SOL    HW113580   5.157   5.742   1.885
 4227SOL    HW213581   5.145   5.582   1.853
 4228SOL     OW13582   1.076   5.772   4.933
 4228SOL    HW113583   1.072   5.761   5.032
 4228SOL    HW213584   1.101   5.686   4.890
 4229SOL     OW13585   5.628   5.760   5.752
 4229SOL    HW113586   5.528   5.763   5.748
 4229SOL    HW213587   5.666   5.849   5.726
 4230SOL     OW13588   1.109   0.077   2.740
 4230SOL    HW113589   1.137   0.172   2.727
 4230SOL    HW213590   1.138   0.022   2.662
 4231SOL     OW13591   5.037   1.101   5.733
 4231SOL    HW113592   5.069   1.024   5.677
 4231SOL    HW213593   5.032   1.073   5.829
 4232SOL     OW13594   2.324   5.542   3.828
 4232SOL    HW113595   2.385   5.463   3.839
 4232SOL    HW213596   2.294   5.574   3.918
 4233SOL     OW13597   0.328   6.839   4.230
 4233SOL    HW113598   0.365   6.769   4.290
 4233SOL    HW213599   0.233   6.817   4.207
 4234SOL     OW13600   1.789   5.391   5.462
 4234SOL    HW113601   1.724   5.331   5.417
 4234SOL    HW213602   1.881   5.375   5.426
 4235SOL     OW13603   6.799   5.128   5.671
 4235SOL    HW113604   6.819   5.148   5.767
 4235SOL    HW213605   6.713   5.078   5.664
 4236SOL     OW13606   0.502   5.417   2.624
 4236SOL    HW113607   0.590   5.447   2.662
 4236SOL    HW213608   0.504   5.318   2.610
 4237SOL     OW13609   6.599   4.270   4.097
 4237SOL    HW113610   6.680   4.328   4.088
 4237SOL    HW213611   6.518   4.327   4.108
 4238SOL     OW13612   1.703   0.943   3.314
 4238SOL    HW113613   1.612   0.925   3.353
 4238SOL    HW213614   1.693   0.991   3.227
 4239SOL     OW13615   4.280   0.983   3.036
 4239SOL    HW113616   4.286   1.024   2.945
 4239SOL    HW213617   4.360   1.011   3.090
 4240SOL     OW13618   1.934   5.198   0.104
 4240SOL    HW113619   2.026   5.228   0.077
 4240SOL    HW213620   1.869   5.223   0.032
 4241SOL     OW13621   6.573   1.793   0.740
 4241SOL    HW113622   6.485   1.757   0.770
 4241SOL    HW213623   6.559   1.864   0.671
 4242SOL     OW13624   2.466   2.141   3.891
 4242SOL    HW113625   2.554   2.120   3.847
 4242SOL    HW213626   2.391   2.118   3.829
 4243SOL     OW13627   5.134   1.558   2.879
 4243SOL    HW113628   5.156   1.628   2.947
 4243SOL    HW213629   5.201   1.484   2.884
 4244SOL     OW13630   3.860   3.489   1.950
 4244SOL    HW113631   3.798   3.433   1.895
 4244SOL    HW213632   3.867   3.580   1.909
 4245SOL     OW13633   6.652   1.970   6.190
 4245SOL    HW113634   6.676   1.881   6.151
 4245SOL    HW213635   6.700   1.982   6.277
 4246SOL     OW13636   0.020   4.355   3.199
 4246SOL    HW113637   0.107   4.389   3.235
 4246SOL    HW213638   6.984   4.432   3.173
 4247SOL     OW13639   0.180   6.255   4.388
 4247SOL    HW113640   0.254   6.306   4.432
 4247SOL    HW213641   0.096   6.309   4.391
 4248SOL     OW13642   1.888   1.911   5.102
 4248SOL    HW113643   1.941   1.826   5.103
 4248SOL    HW213644   1.948   1.988   5.086
 4249SOL     OW13645   6.608   2.786   5.619
 4249SOL    HW113646   6.527   2.735   5.645
 4249SOL    HW213647   6.679   2.722   5.589
 4250SOL     OW13648   0.007   4.918   3.401
 4250SOL    HW113649   0.017   4.982   3.477
 4250SOL    HW213650   0.074   4.844   3.410
 4251SOL     OW13651   6.198   4.317   0.533
 4251SOL    HW113652   6.212   4.370   0.616
 4251SOL    HW213653   6.226   4.222   0.548
 4252SOL     OW13654   6.598   6.046   4.942
 4252SOL    HW113655   6.676   6.082   4.993
 4252SOL    HW213656   6.549   6.122   4.899
 4253SOL     OW13657   3.485   0.399   2.339
 4253SOL    HW113658   3.516   0.305   2.325
 4253SOL    HW213659   3.462   0.440   2.251
 4254SOL     OW13660   1.301   2.908   1.421
 4254SOL    HW113661   1.277   2.980   1.356
 4254SOL    HW213662   1.247   2.826   1.401
 4255SOL     OW13663   6.290   2.378   3.696
 4255SOL    HW113664   6.343   2.345   3.775
 4255SOL    HW213665   6.226   2.307   3.667
 4256SOL     OW13666   1.618   6.573   0.812
 4256SOL    HW113667   1.610   6.578   0.911
 4256SOL    HW213668   1.529   6.548   0.773
 4257SOL     OW13669   3.302   0.950   5.563
 4257SOL    HW113670   3.298   0.984   5.469
 4257SOL    HW213671   3.261   0.858   5.567
 4258SOL     OW13672   5.993   6.703   2.261
 4258SOL    HW113673   5.960   6.780   2.315
 4258SOL    HW213674   6.089   6.720   2.235
 4259SOL     OW13675   2.356   0.958   6.909
 4259SOL    HW113676   2.300   1.002   6.979
 4259SOL    HW213677   2.347   1.009   6.823
 4260SOL     OW13678   4.450   5.858   3.836
 4260SOL    HW113679   4.450   5.770   3.788
 4260SOL    HW213680   4.542   5.878   3.869
 4261SOL     OW13681   2.383   0.451   2.000
 4261SOL    HW113682   2.404   0.540   1.959
 4261SOL    HW213683   2.422   0.379   1.944
 4262SOL     OW13684   1.453   4.996   5.830
 4262SOL    HW113685   1.523   4.987   5.900
 4262SOL    HW213686   1.375   4.937   5.852
 4263SOL     OW13687   2.600   6.626   4.547
 4263SOL    HW113688   2.615   6.597   4.452
 4263SOL    HW213689   2.613   6.725   4.554
 4264SOL     OW13690   0.022   1.793   1.359
 4264SOL    HW113691   6.963   1.849   1.336
 4264SOL    HW213692   7.015   1.698   1.372
 4265SOL     OW13693   6.204   2.020   6.884
 4265SOL    HW113694   6.262   1.952   6.928
 4265SOL    HW213695   6.158   1.978   6.805
 4266SOL     OW13696   2.652   5.438   0.350
 4266SOL    HW113697   2.595   5.371   0.302
 4266SOL    HW213698   2.624   5.530   0.323
 4267SOL     OW13699   2.134   3.865   4.908
 4267SOL    HW113700   2.191   3.928   4.960
 4267SOL    HW213701   2.154   3.875   4.810
 4268SOL     OW13702   1.389   6.370   0.140
 4268SOL    HW113703   1.425   6.438   0.076
 4268SOL    HW213704   1.415   6.395   0.234
 4269SOL     OW13705   2.163   1.767   0.369
 4269SOL    HW113706   2.111   1.726   0.294
 4269SOL    HW213707   2.159   1.707   0.449
 4270SOL     OW13708   4.083   3.286   4.530
 4270SOL    HW113709   4.165   3.232   4.512
 4270SOL    HW213710   4.093   3.334   4.618
 4271SOL     OW13711   0.369   0.257   5.243
 4271SOL    HW113712   0.291   0.303   5.285
 4271SOL    HW213713   0.336   0.199   5.168
 4272SOL     OW13714   6.919   5.082   4.579
 4272SOL    HW113715   6.983   5.015   4.541
 4272SOL    HW213716   6.922   5.077   4.679
 4273SOL     OW13717   4.513   6.264   4.357
 4273SOL    HW113718   4.603   6.296   4.326
 4273SOL    HW213719   4.471   6.208   4.286
 4274SOL     OW13720   0.642   6.920   3.433
 4274SOL    HW113721   0.568   6.987   3.425
 4274SOL    HW213722   0.636   6.854   3.358
 4275SOL     OW13723   6.750   1.161   6.192
 4275SOL    HW113724   6.726   1.065   6.181
 4275SOL    HW213725   6.672   1.219   6.168
 4276SOL     OW13726   1.488   5.215   2.767
 4276SOL    HW113727   1.553   5.170   2.828
 4276SOL    HW213728   1.414   5.256   2.820
 4277SOL     OW13729   0.187   4.499   3.893
 4277SOL    HW113730   0.184   4.430   3.966
 4277SOL    HW213731   0.134   4.467   3.815
 4278SOL     OW13732   6.778   0.406   5.085
 4278SOL    HW113733   6.713   0.404   5.161
 4278SOL    HW213734   6.791   0.501   5.055
 4279SOL     OW13735   3.634   6.291   5.363
 4279SOL    HW113736   3.657   6.200   5.399
 4279SOL    HW213737   3.652   6.360   5.433
 4280SOL     OW13738   5.726   1.516   5.233
 4280SOL    HW113739   5.635   1.553   5.255
 4280SOL    HW213740   5.796   1.572   5.276
 4281SOL     OW13741   1.660   4.617   4.588
 4281SOL    HW113742   1.694   4.675   4.662
 4281SOL    HW213743   1.626   4.531   4.625
 4282SOL     OW13744   2.469   2.195   0.229
 4282SOL    HW113745   2.517   2.111   0.254
 4282SOL    HW213746   2.409   2.177   0.151
 4283SOL     OW13747   1.487   0.447   4.152
 4283SOL    HW113748   1.528   0.453   4.243
 4283SOL    HW213749   1.558   0.427   4.085
 4284SOL     OW13750   5.407   0.049   2.514
 4284SOL    HW113751   5.388   0.132   2.566
 4284SOL    HW213752   5.494   0.057   2.467
 4285SOL     OW13753   0.404   0.020   6.027
 4285SOL    HW113754   0.330   6.998   5.976
 4285SOL    HW213755   0.483   0.033   5.968
 4286SOL     OW13756   5.283   5.657   6.692
 4286SOL    HW113757   5.208   5.723   6.691
 4286SOL    HW213758   5.342   5.673   6.612
 4287SOL     OW13759   5.596   0.646   5.314
 4287SOL    HW113760   5.598   0.627   5.412
 4287SOL    HW213761   5.637   0.735   5.296
 4288SOL     OW13762   0.891   6.598   3.401
 4288SOL    HW113763   0.908   6.602   3.303
 4288SOL    HW213764   0.811   6.653   3.424
 4289SOL     OW13765   5.431   2.422   2.125
 4289SOL    HW113766   5.428   2.453   2.220
 4289SOL    HW213767   5.483   2.487   2.070
 4290SOL     OW13768   2.659   6.641   1.123
 4290SOL    HW113769   2.568   6.633   1.164
 4290SOL    HW213770   2.681   6.556   1.075
 4291SOL     OW13771   4.916   3.182   1.381
 4291SOL    HW113772   4.878   3.212   1.469
 4291SOL    HW213773   4.890   3.248   1.310
 4292SOL     OW13774   6.203   4.536   5.350
 4292SOL    HW113775   6.211   4.525   5.449
 4292SOL    HW213776   6.110   4.565   5.327
 4293SOL     OW13777   6.458   3.985   6.478
 4293SOL    HW113778   6.418   3.924   6.547
 4293SOL    HW213779   6.555   3.996   6.497
 4294SOL     OW13780   4.883   3.041   6.570
 4294SOL    HW113781   4.934   3.109   6.518
 4294SOL    HW213782   4.840   3.084   6.649
 4295SOL     OW13783   3.887   0.094   4.922
 4295SOL    HW113784   3.944   0.046   4.855
 4295SOL    HW213785   3.942   0.115   5.003
 4296SOL     OW13786   2.591   1.997   0.350
 4296SOL    HW113787   2.572   2.027   0.444
 4296SOL    HW213788   2.686   1.967   0.344
 4297SOL     OW13789   5.213   7.008   5.477
 4297SOL    HW113790   5.251   6.991   5.386
 4297SOL    HW213791   5.222   6.925   5.532
 4298SOL     OW13792   1.655   5.142   6.707
 4298SOL    HW113793   1.718   5.065   6.719
 4298SOL    HW213794   1.603   5.155   6.792
 4299SOL     OW13795   1.737   3.278   6.585
 4299SOL    HW113796   1.680   3.315   6.512
 4299SOL    HW213797   1.778   3.192   6.555
 4300SOL     OW13798   2.877   1.574   6.139
 4300SOL    HW113799   2.965   1.528   6.138
 4300SOL    HW213800   2.816   1.527   6.204
 4301SOL     OW13801   2.790   1.329   0.273
 4301SOL    HW113802   2.851   1.366   0.203
 4301SOL    HW213803   2.821   1.237   0.298
 4302SOL     OW13804   1.329   6.534   5.968
 4302SOL    HW113805   1.266   6.460   5.988
 4302SOL    HW213806   1.340   6.591   6.050
 4303SOL     OW13807   6.473   4.416   3.269
 4303SOL    HW113808   6.455   4.319   3.252
 4303SOL    HW213809   6.457   4.468   3.185
 4304SOL     OW13810   3.236   3.546   4.370
 4304SOL    HW113811   3.287   3.618   4.323
 4304SOL    HW213812   3.177   3.588   4.440
 4305SOL     OW13813   6.185   1.808   3.780
 4305SOL    HW113814   6.266   1.820   3.723
 4305SOL    HW213815   6.196   1.725   3.836
 4306SOL     OW13816   0.212   3.791   6.920
 4306SOL    HW113817   0.207   3.877   6.971
 4306SOL    HW213818   0.232   3.810   6.824
 4307SOL     OW13819   4.944   4.636   5.693
 4307SOL    HW113820   4.862   4.579   5.685
 4307SOL    HW213821   4.953   4.669   5.787
 4308SOL     OW13822   5.099   5.795   6.080
 4308SOL    HW113823   5.055   5.713   6.043
 4308SOL    HW213824   5.079   5.873   6.022
 4309SOL     OW13825   0.705   6.990   0.241
 4309SOL    HW113826   0.657   0.050   0.276
 4309SOL    HW213827   0.704   6.991   0.141
 4310SOL     OW13828   2.092   2.486   3.829
 4310SOL    HW113829   2.036   2.444   3.758
 4310SOL    HW213830   2.055   2.463   3.919
 4311SOL     OW13831   1.519   6.007   3.198
 4311SOL    HW113832   1.474   5.918   3.203
 4311SOL    HW213833   1.458   6.072   3.152
 4312SOL     OW13834   1.091   5.845   1.661
 4312SOL    HW113835   1.012   5.846   1.599
 4312SOL    HW213836   1.060   5.862   1.754
 4313SOL     OW13837   5.852   1.440   1.838
 4313SOL    HW113838   5.896   1.423   1.926
 4313SOL    HW213839   5.796   1.523   1.845
 4314SOL     OW13840   4.984   3.161   3.461
 4314SOL    HW113841   4.971   3.108   3.545
 4314SOL    HW213842   4.949   3.109   3.383
 4315SOL     OW13843   1.884   0.631   2.578
 4315SOL    HW113844   1.966   0.576   2.561
 4315SOL    HW213845   1.830   0.588   2.651
 4316SOL     OW13846   4.849   0.107   1.198
 4316SOL    HW113847   4.769   0.154   1.234
 4316SOL    HW213848   4.876   0.149   1.111
 4317SOL     OW13849   3.180   0.970   4.708
 4317SOL    HW113850   3.274   0.956   4.677
 4317SOL    HW213851   3.180   1.008   4.800
 4318SOL     OW13852   0.461   3.557   3.418
 4318SOL    HW113853   0.551   3.546   3.375
 4318SOL    HW213854   0.427   3.649   3.400
 4319SOL     OW13855   2.729   3.023   0.233
 4319SOL    HW113856   2.744   3.103   0.175
 4319SOL    HW213857   2.725   3.051   0.329
 4320SOL     OW13858   1.578   6.513   2.263
 4320SOL    HW113859   1.492   6.546   2.224
 4320SOL    HW213860   1.638   6.590   2.284
 4321SOL     OW13861   6.451   0.608   4.448
 4321SOL    HW113862   6.522   0.540   4.467
 4321SOL    HW213863   6.436   0.663   4.530
 4322SOL     OW13864   6.311   1.383   6.632
 4322SOL    HW113865   6.396   1.414   6.589
 4322SOL    HW213866   6.290   1.441   6.711
 4323SOL     OW13867   5.542   3.204   2.175
 4323SOL    HW113868   5.512   3.293   2.142
 4323SOL    HW213869   5.470   3.163   2.230
 4324SOL     OW13870   5.806   4.596   0.024
 4324SOL    HW113871   5.856   4.637   0.100
 4324SOL    HW213872   5.799   4.662   6.970
 4325SOL     OW13873   1.130   0.788   0.285
 4325SOL    HW113874   1.066   0.865   0.283
 4325SOL    HW213875   1.179   0.783   0.197
 4326SOL     OW13876   6.900   2.922   5.014
 4326SOL    HW113877   6.873   3.018   5.020
 4326SOL    HW213878   6.974   2.904   5.079
 4327SOL     OW13879   5.966   5.737   2.357
 4327SOL    HW113880   6.039   5.782   2.408
 4327SOL    HW213881   5.883   5.733   2.414
 4328SOL     OW13882   4.749   4.840   5.813
 4328SOL    HW113883   4.691   4.882   5.884
 4328SOL    HW213884   4.724   4.743   5.803
 4329SOL     OW13885   3.071   1.788   6.184
 4329SOL    HW113886   3.101   1.851   6.112
 4329SOL    HW213887   2.976   1.761   6.168
 4330SOL     OW13888   2.705   0.768   5.957
 4330SOL    HW113889   2.649   0.689   5.984
 4330SOL    HW213890   2.701   0.780   5.858
 4331SOL     OW13891   5.231   3.422   1.648
 4331SOL    HW113892   5.295   3.486   1.607
 4331SOL    HW213893   5.137   3.455   1.634
 4332SOL     OW13894   5.396   3.732   2.437
 4332SOL    HW113895   5.383   3.826   2.406
 4332SOL    HW213896   5.336   3.671   2.385
 4333SOL     OW13897   4.846   1.647   5.006
 4333SOL    HW113898   4.769   1.688   4.956
 4333SOL    HW213899   4.863   1.700   5.089
 4334SOL     OW13900   2.588   1.859   2.114
 4334SOL    HW113901   2.646   1.908   2.180
 4334SOL    HW213902   2.583   1.763   2.141
 4335SOL     OW13903   2.997   3.622   3.616
 4335SOL    HW113904   3.015   3.720   3.609
 4335SOL    HW213905   3.049   3.583   3.691
 4336SOL     OW13906   1.008   6.786   5.437
 4336SOL    HW113907   1.108   6.776   5.445
 4336SOL    HW213908   0.976   6.729   5.361
 4337SOL     OW13909   0.925   4.714   0.369
 4337SOL    HW113910   0.834   4.702   0.409
 4337SOL    HW213911   0.989   4.652   0.413
 4338SOL     OW13912   4.888   5.506   4.809
 4338SOL    HW113913   4.802   5.521   4.858
 4338SOL    HW213914   4.936   5.428   4.848
 4339SOL     OW13915   5.960   2.741   5.526
 4339SOL    HW113916   5.975   2.668   5.459
 4339SOL    HW213917   5.862   2.745   5.549
 4340SOL     OW13918   6.047   3.628   2.566
 4340SOL    HW113919   6.063   3.726   2.557
 4340SOL    HW213920   5.951   3.612   2.589
 4341SOL     OW13921   1.043   3.900   1.657
 4341SOL    HW113922   0.964   3.926   1.602
 4341SOL    HW213923   1.117   3.870   1.597
 4342SOL     OW13924   6.737   3.015   3.858
 4342SOL    HW113925   6.666   2.947   3.874
 4342SOL    HW213926   6.711   3.074   3.782
 4343SOL     OW13927   2.952   0.152   6.536
 4343SOL    HW113928   2.971   0.063   6.493
 4343SOL    HW213929   3.016   0.167   6.610
 4344SOL     OW13930   1.763   5.248   3.523
 4344SOL    HW113931   1.857   5.234   3.554
 4344SOL    HW213932   1.748   5.344   3.501
 4345SOL     OW13933   1.605   3.347   5.565
 4345SOL    HW113934   1.626   3.337   5.663
 4345SOL    HW213935   1.672   3.408   5.522
 4346SOL     OW13936   2.224   2.925   1.836
 4346SOL    HW113937   2.274   2.857   1.890
 4346SOL    HW213938   2.163   2.879   1.772
 4347SOL     OW13939   6.805   1.119   1.441
 4347SOL    HW113940   6.813   1.082   1.534
 4347SOL    HW213941   6.845   1.054   1.376
 4348SOL     OW13942   0.217   3.084   2.599
 4348SOL    HW113943   0.218   2.987   2.575
 4348SOL    HW213944   0.122   3.113   2.615
 4349SOL     OW13945   0.297   1.868   2.849
 4349SOL    HW113946   0.255   1.867   2.940
 4349SOL    HW213947   0.243   1.810   2.788
 4350SOL     OW13948   4.716   2.202   4.201
 4350SOL    HW113949   4.664   2.285   4.187
 4350SOL    HW213950   4.804   2.224   4.243
 4351SOL     OW13951   2.445   6.699   1.350
 4351SOL    HW113952   2.472   6.606   1.373
 4351SOL    HW213953   2.432   6.752   1.434
 4352SOL     OW13954   0.486   2.045   1.273
 4352SOL    HW113955   0.569   2.044   1.218
 4352SOL    HW213956   0.500   1.991   1.356
 4353SOL     OW13957   2.900   5.137   0.870
 4353SOL    HW113958   2.938   5.229   0.860
 4353SOL    HW213959   2.843   5.115   0.791
 4354SOL     OW13960   2.105   6.169   5.818
 4354SOL    HW113961   2.009   6.196   5.824
 4354SOL    HW213962   2.157   6.240   5.771
 4355SOL     OW13963   3.620   0.140   1.841
 4355SOL    HW113964   3.718   0.134   1.860
 4355SOL    HW213965   3.599   0.231   1.805
 4356SOL     OW13966   4.584   4.438   1.748
 4356SOL    HW113967   4.578   4.522   1.801
 4356SOL    HW213968   4.550   4.361   1.803
 4357SOL     OW13969   5.932   0.021   6.723
 4357SOL    HW113970   6.017   0.001   6.675
 4357SOL    HW213971   5.867   0.065   6.660
 4358SOL     OW13972   6.402   6.134   0.436
 4358SOL    HW113973   6.475   6.081   0.480
 4358SOL    HW213974   6.441   6.219   0.402
 4359SOL     OW13975   1.553   2.222   4.638
 4359SOL    HW113976   1.598   2.279   4.570
 4359SOL    HW213977   1.600   2.133   4.643
 4360SOL     OW13978   1.537   3.742   2.492
 4360SOL    HW113979   1.462   3.751   2.426
 4360SOL    HW213980   1.616   3.793   2.459
 4361SOL     OW13981   3.073   2.653   1.743
 4361SOL    HW113982   3.009   2.588   1.783
 4361SOL    HW213983   3.036   2.689   1.658
 4362SOL     OW13984   6.187   4.020   5.505
 4362SOL    HW113985   6.105   4.051   5.554
 4362SOL    HW213986   6.261   4.085   5.520
 4363SOL     OW13987   5.087   1.914   5.925
 4363SOL    HW113988   5.145   1.994   5.909
 4363SOL    HW213989   5.066   1.907   6.022
 4364SOL     OW13990   2.927   3.740   5.408
 4364SOL    HW113991   2.993   3.669   5.386
 4364SOL    HW213992   2.965   3.830   5.386
 4365SOL     OW13993   3.133   1.461   2.290
 4365SOL    HW113994   3.062   1.531   2.281
 4365SOL    HW213995   3.092   1.370   2.279
 4366SOL     OW13996   5.705   6.536   1.123
 4366SOL    HW113997   5.678   6.573   1.034
 4366SOL    HW213998   5.624   6.522   1.179
 4367SOL     OW13999   1.189   4.892   5.512
 4367SOL    HW114000   1.177   4.986   5.480
 4367SOL    HW214001   1.279   4.859   5.485
 4368SOL     OW14002   4.112   5.326   1.052
 4368SOL    HW114003   4.065   5.346   0.966
 4368SOL    HW214004   4.104   5.229   1.072
 4369SOL     OW14005   4.884   5.583   2.426
 4369SOL    HW114006   4.837   5.657   2.379
 4369SOL    HW214007   4.980   5.580   2.398
 4370SOL     OW14008   5.519   4.462   3.014
 4370SOL    HW114009   5.486   4.478   2.921
 4370SOL    HW214010   5.618   4.448   3.013
 4371SOL     OW14011   6.278   0.460   1.316
 4371SOL    HW114012   6.328   0.543   1.341
 4371SOL    HW214013   6.193   0.485   1.270
 4372SOL     OW14014   4.494   1.324   2.643
 4372SOL    HW114015   4.408   1.358   2.603
 4372SOL    HW214016   4.525   1.387   2.713
 4373SOL     OW14017   0.231   3.050   6.765
 4373SOL    HW114018   0.181   3.015   6.686
 4373SOL    HW214019   0.273   2.973   6.814
 4374SOL     OW14020   1.365   2.130   1.744
 4374SOL    HW114021   1.314   2.047   1.722
 4374SOL    HW214022   1.447   2.106   1.795
 4375SOL     OW14023   2.531   6.909   3.949
 4375SOL    HW114024   2.563   6.967   4.024
 4375SOL    HW214025   2.567   6.817   3.960
 4376SOL     OW14026   6.940   0.364   2.253
 4376SOL    HW114027   6.901   0.289   2.198
 4376SOL    HW214028   6.993   0.326   2.328
 4377SOL     OW14029   5.337   3.826   0.730
 4377SOL    HW114030   5.323   3.923   0.710
 4377SOL    HW214031   5.307   3.771   0.652
 4378SOL     OW14032   2.167   0.794   3.027
 4378SOL    HW114033   2.123   0.884   3.027
 4378SOL    HW214034   2.258   0.801   2.987
 4379SOL     OW14035   2.670   1.317   4.292
 4379SOL    HW114036   2.619   1.297   4.376
 4379SOL    HW214037   2.653   1.411   4.264
 4380SOL     OW14038   1.516   0.962   1.644
 4380SOL    HW114039   1.523   1.061   1.659
 4380SOL    HW214040   1.539   0.940   1.549
 4381SOL     OW14041   1.785   5.352   5.129
 4381SOL    HW114042   1.801   5.350   5.031
 4381SOL    HW214043   1.861   5.401   5.174
 4382SOL     OW14044   6.588   3.236   6.177
 4382SOL    HW114045   6.542   3.198   6.097
 4382SOL    HW214046   6.675   3.275   6.150
 4383SOL     OW14047   5.985   3.838   6.412
 4383SOL    HW114048   5.981   3.937   6.402
 4383SOL    HW214049   6.055   3.814   6.478
 4384SOL     OW14050   6.455   0.835   3.299
 4384SOL    HW114051   6.514   0.756   3.282
 4384SOL    HW214052   6.378   0.835   3.235
 4385SOL     OW14053   4.493   2.389   4.747
 4385SOL    HW114054   4.426   2.408   4.674
 4385SOL    HW214055   4.464   2.308   4.798
 4386SOL     OW14056   1.433   3.796   5.500
 4386SOL    HW114057   1.422   3.857   5.422
 4386SOL    HW214058   1.403   3.844   5.584
 4387SOL     OW14059   6.687   2.576   1.514
 4387SOL    HW114060   6.728   2.662   1.544
 4387SOL    HW214061   6.695   2.508   1.588
 4388SOL     OW14062   5.185   2.145   6.106
 4388SOL    HW114063   5.243   2.226   6.105
 4388SOL    HW214064   5.094   2.168   6.072
 4389SOL     OW14065   6.921   3.877   1.627
 4389SOL    HW114066   6.894   3.870   1.531
 4389SOL    HW214067   7.017   3.903   1.632
 4390SOL     OW14068   5.593   6.665   0.715
 4390SOL    HW114069   5.570   6.762   0.706
 4390SOL    HW214070   5.669   6.655   0.778
 4391SOL     OW14071   1.850   5.015   6.440
 4391SOL    HW114072   1.770   5.074   6.451
 4391SOL    HW214073   1.831   4.945   6.371
 4392SOL     OW14074   0.637   1.877   3.977
 4392SOL    HW114075   0.724   1.887   3.928
 4392SOL    HW214076   0.647   1.810   4.049
 4393SOL     OW14077   6.164   0.560   1.642
 4393SOL    HW114078   6.158   0.495   1.566
 4393SOL    HW214079   6.257   0.595   1.649
 4394SOL     OW14080   1.130   6.967   1.524
 4394SOL    HW114081   1.132   6.963   1.424
 4394SOL    HW214082   1.093   0.034   1.554
 4395SOL     OW14083   1.924   0.420   1.696
 4395SOL    HW114084   1.927   0.328   1.736
 4395SOL    HW214085   1.894   0.414   1.601
 4396SOL     OW14086   1.743   1.669   4.190
 4396SOL    HW114087   1.803   1.599   4.149
 4396SOL    HW214088   1.670   1.692   4.125
 4397SOL     OW14089   2.158   3.177   4.046
 4397SOL    HW114090   2.184   3.245   3.977
 4397SOL    HW214091   2.207   3.091   4.029
 4398SOL     OW14092   2.140   3.691   6.294
 4398SOL    HW114093   2.104   3.718   6.205
 4398SOL    HW214094   2.093   3.608   6.325
 4399SOL     OW14095   1.772   5.890   1.700
 4399SOL    HW114096   1.753   5.857   1.607
 4399SOL    HW214097   1.869   5.875   1.721
 4400SOL     OW14098   1.877   6.707   3.739
 4400SOL    HW114099   1.833   6.793   3.762
 4400SOL    HW214100   1.842   6.635   3.800
 4401SOL     OW14101   3.978   6.249   5.172
 4401SOL    HW114102   3.879   6.266   5.175
 4401SOL    HW214103   4.000   6.197   5.089
 4402SOL     OW14104   1.115   0.571   2.059
 4402SOL    HW114105   1.089   0.479   2.029
 4402SOL    HW214106   1.092   0.637   1.986
 4403SOL     OW14107   0.636   5.831   0.808
 4403SOL    HW114108   0.681   5.919   0.815
 4403SOL    HW214109   0.539   5.842   0.828
 4404SOL     OW14110   1.307   5.588   5.645
 4404SOL    HW114111   1.334   5.614   5.552
 4404SOL    HW214112   1.341   5.497   5.666
 4405SOL     OW14113   2.620   5.320   3.394
 4405SOL    HW114114   2.656   5.383   3.324
 4405SOL    HW214115   2.614   5.228   3.356
 4406SOL     OW14116   6.769   3.306   1.566
 4406SOL    HW114117   6.830   3.233   1.535
 4406SOL    HW214118   6.800   3.393   1.529
 4407SOL     OW14119   0.297   5.599   1.626
 4407SOL    HW114120   0.229   5.632   1.560
 4407SOL    HW214121   0.280   5.503   1.645
 4408SOL     OW14122   3.163   6.058   6.912
 4408SOL    HW114123   3.198   5.970   6.941
 4408SOL    HW214124   3.170   6.066   6.813
 4409SOL     OW14125   4.053   0.974   1.832
 4409SOL    HW114126   4.079   1.069   1.815
 4409SOL    HW214127   4.064   0.921   1.747
 4410SOL     OW14128   6.840   6.523   0.609
 4410SOL    HW114129   6.829   6.602   0.549
 4410SOL    HW214130   6.859   6.442   0.555
 4411SOL     OW14131   3.625   5.010   5.454
 4411SOL    HW114132   3.667   5.066   5.526
 4411SOL    HW214133   3.616   4.916   5.487
 4412SOL     OW14134   5.104   6.825   4.526
 4412SOL    HW114135   5.122   6.743   4.580
 4412SOL    HW214136   5.007   6.850   4.533
 4413SOL     OW14137   4.169   6.266   4.130
 4413SOL    HW114138   4.156   6.355   4.174
 4413SOL    HW214139   4.159   6.276   4.031
 4414SOL     OW14140   4.494   5.424   1.709
 4414SOL    HW114141   4.483   5.504   1.768
 4414SOL    HW214142   4.404   5.398   1.673
 4415SOL     OW14143   3.519   3.913   1.117
 4415SOL    HW114144   3.489   4.004   1.088
 4415SOL    HW214145   3.440   3.859   1.145
 4416SOL     OW14146   3.944   1.562   4.428
 4416SOL    HW114147   3.990   1.644   4.461
 4416SOL    HW214148   3.959   1.487   4.494
 4417SOL     OW14149   6.350   2.667   4.185
 4417SOL    HW114150   6.276   2.734   4.191
 4417SOL    HW214151   6.435   2.714   4.160
 4418SOL     OW14152   6.306   1.966   1.866
 4418SOL    HW114153   6.398   1.972   1.829
 4418SOL    HW214154   6.281   1.870   1.878
 4419SOL     OW14155   6.098   6.140   5.892
 4419SOL    HW114156   6.102   6.041   5.905
 4419SOL    HW214157   6.132   6.163   5.800
 4420SOL     OW14158   3.668   1.956   1.284
 4420SOL    HW114159   3.582   1.964   1.335
 4420SOL    HW214160   3.725   1.885   1.325
 4421SOL     OW14161   1.206   3.419   5.294
 4421SOL    HW114162   1.227   3.322   5.281
 4421SOL    HW214163   1.278   3.462   5.349
 4422SOL     OW14164   0.922   5.094   0.018
 4422SOL    HW114165   0.980   5.016   7.016
 4422SOL    HW214166   0.978   5.168   0.054
 4423SOL     OW14167   6.289   4.607   5.854
 4423SOL    HW114168   6.301   4.548   5.934
 4423SOL    HW214169   6.262   4.551   5.776
 4424SOL     OW14170   5.245   5.628   4.171
 4424SOL    HW114171   5.217   5.681   4.251
 4424SOL    HW214172   5.210   5.672   4.088
 4425SOL     OW14173   1.934   5.406   0.696
 4425SOL    HW114174   2.019   5.417   0.748
 4425SOL    HW214175   1.857   5.395   0.759
 4426SOL     OW14176   1.149   0.548   3.974
 4426SOL    HW114177   1.070   0.489   3.985
 4426SOL    HW214178   1.230   0.503   4.011
 4427SOL     OW14179   3.733   6.316   2.517
 4427SOL    HW114180   3.716   6.333   2.420
 4427SOL    HW214181   3.716   6.219   2.537
 4428SOL     OW14182   5.444   1.024   4.832
 4428SOL    HW114183   5.461   1.108   4.779
 4428SOL    HW214184   5.437   0.946   4.770
 4429SOL     OW14185   2.930   6.578   2.921
 4429SOL    HW114186   2.948   6.657   2.981
 4429SOL    HW214187   2.950   6.494   2.970
 4430SOL     OW14188   5.854   4.791   4.233
 4430SOL    HW114189   5.891   4.873   4.189
 4430SOL    HW214190   5.918   4.758   4.301
 4431SOL     OW14191   3.266   0.752   3.571
 4431SOL    HW114192   3.318   0.668   3.585
 4431SOL    HW214193   3.328   0.830   3.572
 4432SOL     OW14194   2.515   3.819   6.573
 4432SOL    HW114195   2.483   3.859   6.487
 4432SOL    HW214196   2.497   3.721   6.573
 4433SOL     OW14197   0.910   2.022   4.809
 4433SOL    HW114198   0.901   1.932   4.767
 4433SOL    HW214199   0.838   2.035   4.877
 4434SOL     OW14200   6.504   1.125   1.682
 4434SOL    HW114201   6.441   1.089   1.750
 4434SOL    HW214202   6.533   1.217   1.709
 4435SOL     OW14203   3.521   4.182   1.058
 4435SOL    HW114204   3.452   4.221   0.997
 4435SOL    HW214205   3.612   4.202   1.021
 4436SOL     OW14206   4.388   1.951   1.499
 4436SOL    HW114207   4.467   1.969   1.441
 4436SOL    HW214208   4.407   1.983   1.592
 4437SOL     OW14209   0.286   3.285   2.402
 4437SOL    HW114210   0.212   3.351   2.416
 4437SOL    HW214211   0.282   3.215   2.474
 4438SOL     OW14212   4.428   6.973   5.597
 4438SOL    HW114213   4.493   6.908   5.557
 4438SOL    HW214214   4.335   6.945   5.574
 4439SOL     OW14215   0.869   6.276   2.927
 4439SOL    HW114216   0.967   6.299   2.933
 4439SOL    HW214217   0.817   6.360   2.909
 4440SOL     OW14218   2.643   4.769   1.125
 4440SOL    HW114219   2.716   4.745   1.060
 4440SOL    HW214220   2.568   4.704   1.116
 4441SOL     OW14221   0.971   1.638   0.649
 4441SOL    HW114222   1.013   1.551   0.623
 4441SOL    HW214223   0.908   1.623   0.725
 4442SOL     OW14224   1.208   4.888   5.902
 4442SOL    HW114225   1.141   4.863   5.832
 4442SOL    HW214226   1.193   4.832   5.984
 4443SOL     OW14227   0.598   4.663   6.693
 4443SOL    HW114228   0.651   4.734   6.737
 4443SOL    HW214229   0.517   4.703   6.650
 4444SOL     OW14230   4.358   4.288   0.610
 4444SOL    HW114231   4.398   4.248   0.693
 4444SOL    HW214232   4.287   4.227   0.576
 4445SOL     OW14233   0.688   5.508   6.809
 4445SOL    HW114234   0.675   5.518   6.710
 4445SOL    HW214235   0.774   5.459   6.826
 4446SOL     OW14236   5.301   1.708   0.026
 4446SOL    HW114237   5.272   1.651   0.103
 4446SOL    HW214238   5.400   1.701   0.015
 4447SOL     OW14239   5.315   4.503   5.319
 4447SOL    HW114240   5.252   4.430   5.346
 4447SOL    HW214241   5.301   4.525   5.222
 4448SOL     OW14242   2.876   6.519   1.403
 4448SOL    HW114243   2.898   6.598   1.460
 4448SOL    HW214244   2.939   6.444   1.423
 4449SOL     OW14245   4.411   1.183   6.337
 4449SOL    HW114246   4.444   1.252   6.401
 4449SOL    HW214247   4.370   1.228   6.257
 4450SOL     OW14248   3.414   1.053   0.229
 4450SOL    HW114249   3.425   0.979   0.296
 4450SOL    HW214250   3.485   1.044   0.158
 4451SOL     OW14251   4.739   4.589   3.697
 4451SOL    HW114252   4.693   4.673   3.724
 4451SOL    HW214253   4.838   4.601   3.708
 4452SOL     OW14254   5.717   6.133   4.567
 4452SOL    HW114255   5.709   6.058   4.501
 4452SOL    HW214256   5.709   6.096   4.660
 4453SOL     OW14257   0.438   3.013   1.881
 4453SOL    HW114258   0.455   2.962   1.798
 4453SOL    HW214259   0.524   3.054   1.913
 4454SOL     OW14260   0.514   1.108   6.737
 4454SOL    HW114261   0.416   1.130   6.738
 4454SOL    HW214262   0.564   1.178   6.788
 4455SOL     OW14263   5.830   5.839   5.100
 4455SOL    HW114264   5.914   5.792   5.075
 4455SOL    HW214265   5.837   5.936   5.076
 4456SOL     OW14266   2.198   6.180   3.403
 4456SOL    HW114267   2.259   6.154   3.478
 4456SOL    HW214268   2.117   6.225   3.440
 4457SOL     OW14269   1.663   1.963   4.779
 4457SOL    HW114270   1.760   1.941   4.792
 4457SOL    HW214271   1.609   1.878   4.783
 4458SOL     OW14272   2.089   3.413   1.729
 4458SOL    HW114273   2.065   3.317   1.741
 4458SOL    HW214274   2.165   3.436   1.789
 4459SOL     OW14275   2.012   1.685   4.963
 4459SOL    HW114276   1.965   1.666   4.877
 4459SOL    HW214277   2.084   1.753   4.947
 4460SOL     OW14278   0.063   3.129   4.153
 4460SOL    HW114279   0.099   3.091   4.067
 4460SOL    HW214280   0.024   3.220   4.135
 4461SOL     OW14281   2.149   0.608   1.441
 4461SOL    HW114282   2.208   0.637   1.366
 4461SOL    HW214283   2.175   0.516   1.470
 4462SOL     OW14284   6.025   3.817   2.177
 4462SOL    HW114285   5.988   3.819   2.084
 4462SOL    HW214286   5.979   3.746   2.230
 4463SOL     OW14287   5.405   0.811   1.029
 4463SOL    HW114288   5.393   0.726   0.977
 4463SOL    HW214289   5.486   0.860   0.995
 4464SOL     OW14290   0.533   5.403   0.616
 4464SOL    HW114291   0.553   5.347   0.536
 4464SOL    HW214292   0.477   5.351   0.680
 4465SOL     OW14293   2.537   5.665   0.246
 4465SOL    HW114294   2.513   5.626   0.157
 4465SOL    HW214295   2.508   5.761   0.249
 4466SOL     OW14296   2.406   1.871   3.584
 4466SOL    HW114297   2.505   1.878   3.579
 4466SOL    HW214298   2.377   1.780   3.554
 4467SOL     OW14299   2.379   5.936   4.085
 4467SOL    HW114300   2.451   5.995   4.122
 4467SOL    HW214301   2.419   5.873   4.018
 4468SOL     OW14302   0.891   3.136   0.400
 4468SOL    HW114303   0.828   3.059   0.386
 4468SOL    HW214304   0.840   3.214   0.435
 4469SOL     OW14305   2.716   0.131   1.617
 4469SOL    HW114306   2.700   0.168   1.526
 4469SOL    HW214307   2.702   0.032   1.615
 4470SOL     OW14308   0.627   0.884   2.147
 4470SOL    HW114309   0.558   0.882   2.076
 4470SOL    HW214310   0.676   0.797   2.149
 4471SOL     OW14311   2.284   2.954   6.292
 4471SOL    HW114312   2.310   3.048   6.314
 4471SOL    HW214313   2.265   2.904   6.377
 4472SOL     OW14314   1.571   2.905   1.197
 4472SOL    HW114315   1.609   2.976   1.256
 4472SOL    HW214316   1.525   2.947   1.119
 4473SOL     OW14317   6.813   2.925   4.223
 4473SOL    HW114318   6.847   2.947   4.131
 4473SOL    HW214319   6.889   2.894   4.280
 4474SOL     OW14320   3.004   1.025   2.123
 4474SOL    HW114321   2.986   1.081   2.042
 4474SOL    HW214322   2.945   0.944   2.121
 4475SOL     OW14323   1.014   3.406   2.370
 4475SOL    HW114324   0.927   3.358   2.377
 4475SOL    HW214325   1.009   3.475   2.298
 4476SOL     OW14326   5.735   1.210   4.074
 4476SOL    HW114327   5.747   1.279   4.145
 4476SOL    HW214328   5.759   1.249   3.985
 4477SOL     OW14329   2.042   0.276   5.118
 4477SOL    HW114330   1.961   0.333   5.103
 4477SOL    HW214331   2.099   0.319   5.189
 4478SOL     OW14332   0.970   0.170   1.235
 4478SOL    HW114333   0.986   0.256   1.186
 4478SOL    HW214334   1.047   0.108   1.219
 4479SOL     OW14335   1.269   1.831   0.121
 4479SOL    HW114336   1.305   1.872   0.037
 4479SOL    HW214337   1.325   1.860   0.199
 4480SOL     OW14338   0.101   4.660   4.598
 4480SOL    HW114339   0.190   4.705   4.599
 4480SOL    HW214340   0.052   4.681   4.682
 4481SOL     OW14341   2.624   5.396   5.157
 4481SOL    HW114342   2.545   5.334   5.166
 4481SOL    HW214343   2.664   5.410   5.248
 4482SOL     OW14344   2.880   4.171   5.972
 4482SOL    HW114345   2.893   4.099   5.904
 4482SOL    HW214346   2.892   4.260   5.928
 4483SOL     OW14347   0.709   2.835   2.011
 4483SOL    HW114348   0.632   2.772   2.005
 4483SOL    HW214349   0.676   2.929   2.017
 4484SOL     OW14350   2.390   3.122   0.700
 4484SOL    HW114351   2.442   3.039   0.724
 4484SOL    HW214352   2.292   3.103   0.707
 4485SOL     OW14353   4.814   2.725   4.837
 4485SOL    HW114354   4.816   2.638   4.787
 4485SOL    HW214355   4.899   2.775   4.822
 4486SOL     OW14356   5.719   4.710   5.476
 4486SOL    HW114357   5.816   4.709   5.501
 4486SOL    HW214358   5.685   4.617   5.469
 4487SOL     OW14359   1.936   3.076   6.905
 4487SOL    HW114360   1.955   2.981   6.932
 4487SOL    HW214361   1.947   3.136   6.984
 4488SOL     OW14362   0.748   3.740   3.607
 4488SOL    HW114363   0.760   3.824   3.659
 4488SOL    HW214364   0.830   3.684   3.614
 4489SOL     OW14365   4.960   5.316   5.015
 4489SOL    HW114366   5.045   5.357   5.048
 4489SOL    HW214367   4.896   5.307   5.091
 4490SOL     OW14368   5.274   1.836   0.882
 4490SOL    HW114369   5.248   1.926   0.846
 4490SOL    HW214370   5.365   1.842   0.923
 4491SOL     OW14371   0.642   3.062   3.170
 4491SOL    HW114372   0.719   3.126   3.172
 4491SOL    HW214373   0.561   3.109   3.135
 4492SOL     OW14374   6.003   0.791   1.295
 4492SOL    HW114375   6.101   0.791   1.280
 4492SOL    HW214376   5.963   0.876   1.261
 4493SOL     OW14377   5.306   6.756   4.848
 4493SOL    HW114378   5.372   6.775   4.775
 4493SOL    HW214379   5.332   6.672   4.896
 4494SOL     OW14380   0.866   0.627   5.747
 4494SOL    HW114381   0.962   0.611   5.724
 4494SOL    HW214382   0.843   0.578   5.831
 4495SOL     OW14383   3.411   5.779   2.327
 4495SOL    HW114384   3.351   5.705   2.296
 4495SOL    HW214385   3.458   5.752   2.411
 4496SOL     OW14386   4.378   6.209   6.420
 4496SOL    HW114387   4.429   6.257   6.347
 4496SOL    HW214388   4.329   6.131   6.380
 4497SOL     OW14389   3.795   2.200   6.991
 4497SOL    HW114390   3.783   2.284   0.021
 4497SOL    HW214391   3.885   2.200   6.948
 4498SOL     OW14392   6.938   5.277   6.299
 4498SOL    HW114393   0.014   5.276   6.275
 4498SOL    HW214394   6.923   5.340   6.375
 4499SOL     OW14395   6.892   1.621   2.827
 4499SOL    HW114396   6.840   1.705   2.814
 4499SOL    HW214397   6.841   1.543   2.791
 4500SOL     OW14398   4.139   5.201   6.919
 4500SOL    HW114399   4.062   5.140   6.902
 4500SOL    HW214400   4.156   5.256   6.837
 4501SOL     OW14401   5.939   2.094   1.771
 4501SOL    HW114402   5.865   2.075   1.707
 4501SOL    HW214403   6.021   2.044   1.744
 4502SOL     OW14404   0.991   3.610   6.698
 4502SOL    HW114405   0.960   3.530   6.646
 4502SOL    HW214406   0.914   3.673   6.711
 4503SOL     OW14407   2.824   0.047   2.224
 4503SOL    HW114408   2.919   0.015   2.230
 4503SOL    HW214409   2.783   0.016   2.138
 4504SOL     OW14410   6.805   2.111   3.585
 4504SOL    HW114411   6.775   2.038   3.523
 4504SOL    HW214412   6.725   2.149   3.633
 4505SOL     OW14413   6.618   4.668   2.326
 4505SOL    HW114414   6.695   4.627   2.278
 4505SOL    HW214415   6.557   4.713   2.259
 4506SOL     OW14416   4.755   2.889   4.260
 4506SOL    HW114417   4.782   2.921   4.169
 4506SOL    HW214418   4.773   2.960   4.327
 4507SOL     OW14419   6.869   3.278   2.803
 4507SOL    HW114420   6.775   3.263   2.774
 4507SOL    HW214421   6.873   3.290   2.902
 4508SOL     OW14422   0.463   4.390   0.686
 4508SOL    HW114423   0.379   4.336   0.688
 4508SOL    HW214424   0.542   4.329   0.679
 4509SOL     OW14425   4.692   2.158   2.632
 4509SOL    HW114426   4.666   2.079   2.687
 4509SOL    HW214427   4.614   2.186   2.575
 4510SOL     OW14428   4.459   1.428   3.903
 4510SOL    HW114429   4.404   1.419   3.986
 4510SOL    HW214430   4.553   1.399   3.922
 4511SOL     OW14431   6.781   4.132   1.002
 4511SOL    HW114432   6.821   4.041   1.010
 4511SOL    HW214433   6.721   4.135   0.922
 4512SOL     OW14434   3.473   2.092   5.588
 4512SOL    HW114435   3.513   2.002   5.571
 4512SOL    HW214436   3.373   2.085   5.586
 4513SOL     OW14437   0.752   5.948   6.584
 4513SOL    HW114438   0.847   5.981   6.582
 4513SOL    HW214439   0.736   5.900   6.670
 4514SOL     OW14440   3.500   3.481   6.782
 4514SOL    HW114441   3.454   3.451   6.866
 4514SOL    HW214442   3.469   3.426   6.705
 4515SOL     OW14443   5.735   0.586   4.609
 4515SOL    HW114444   5.819   0.624   4.649
 4515SOL    HW214445   5.688   0.530   4.676
 4516SOL     OW14446   2.983   1.635   5.682
 4516SOL    HW114447   2.947   1.661   5.592
 4516SOL    HW214448   2.979   1.536   5.693
 4517SOL     OW14449   4.340   0.080   6.434
 4517SOL    HW114450   4.294   0.104   6.519
 4517SOL    HW214451   4.422   0.027   6.454
 4518SOL     OW14452   1.690   6.804   0.668
 4518SOL    HW114453   1.611   6.862   0.687
 4518SOL    HW214454   1.683   6.719   0.720
 4519SOL     OW14455   5.159   6.907   0.222
 4519SOL    HW114456   5.230   6.971   0.250
 4519SOL    HW214457   5.192   6.813   0.232
 4520SOL     OW14458   4.181   5.721   5.180
 4520SOL    HW114459   4.279   5.709   5.194
 4520SOL    HW214460   4.146   5.647   5.123
 4521SOL     OW14461   4.945   1.964   4.884
 4521SOL    HW114462   4.985   1.904   4.953
 4521SOL    HW214463   5.005   2.042   4.868
 4522SOL     OW14464   5.648   3.914   3.875
 4522SOL    HW114465   5.655   3.937   3.972
 4522SOL    HW214466   5.710   3.839   3.853
 4523SOL     OW14467   0.656   3.677   6.602
 4523SOL    HW114468   0.627   3.717   6.689
 4523SOL    HW214469   0.584   3.686   6.534
 4524SOL     OW14470   0.567   3.454   3.073
 4524SOL    HW114471   0.525   3.364   3.074
 4524SOL    HW214472   0.525   3.510   3.001
 4525SOL     OW14473   1.919   2.884   5.856
 4525SOL    HW114474   1.890   2.789   5.871
 4525SOL    HW214475   1.995   2.905   5.917
 4526SOL     OW14476   0.508   0.616   6.352
 4526SOL    HW114477   0.591   0.564   6.371
 4526SOL    HW214478   0.527   0.714   6.357
 4527SOL     OW14479   6.733   6.879   2.771
 4527SOL    HW114480   6.697   6.966   2.738
 4527SOL    HW214481   6.685   6.803   2.728
 4528SOL     OW14482   4.125   0.712   5.855
 4528SOL    HW114483   4.223   0.691   5.862
 4528SOL    HW214484   4.092   0.686   5.765
 4529SOL     OW14485   2.644   1.139   5.876
 4529SOL    HW114486   2.611   1.084   5.799
 4529SOL    HW214487   2.720   1.197   5.845
 4530SOL     OW14488   2.305   6.484   4.944
 4530SOL    HW114489   2.208   6.502   4.959
 4530SOL    HW214490   2.351   6.569   4.918
 4531SOL     OW14491   0.936   4.819   6.696
 4531SOL    HW114492   0.855   4.837   6.752
 4531SOL    HW214493   0.909   4.808   6.601
 4532SOL     OW14494   4.738   0.829   2.840
 4532SOL    HW114495   4.686   0.788   2.765
 4532SOL    HW214496   4.831   0.794   2.840
 4533SOL     OW14497   1.760   0.974   2.901
 4533SOL    HW114498   1.704   1.013   2.975
 4533SOL    HW214499   1.716   0.993   2.813
 4534SOL     OW14500   4.496   1.766   4.407
 4534SOL    HW114501   4.555   1.691   4.377
 4534SOL    HW214502   4.535   1.853   4.377
 4535SOL     OW14503   3.606   2.003   0.633
 4535SOL    HW114504   3.700   2.002   0.667
 4535SOL    HW214505   3.572   1.909   0.625
 4536SOL     OW14506   2.128   2.005   5.718
 4536SOL    HW114507   2.223   2.034   5.717
 4536SOL    HW214508   2.090   2.009   5.626
 4537SOL     OW14509   3.510   3.681   3.332
 4537SOL    HW114510   3.426   3.733   3.348
 4537SOL    HW214511   3.550   3.707   3.245
 4538SOL     OW14512   0.940   2.538   2.131
 4538SOL    HW114513   0.921   2.448   2.170
 4538SOL    HW214514   0.892   2.608   2.185
 4539SOL     OW14515   2.320   5.140   4.716
 4539SOL    HW114516   2.326   5.070   4.788
 4539SOL    HW214517   2.320   5.095   4.626
 4540SOL     OW14518   0.567   0.896   0.441
 4540SOL    HW114519   0.556   0.995   0.438
 4540SOL    HW214520   0.662   0.873   0.463
 4541SOL     OW14521   4.089   1.552   6.816
 4541SOL    HW114522   4.178   1.555   6.770
 4541SOL    HW214523   4.038   1.471   6.787
 4542SOL     OW14524   6.981   2.392   0.779
 4542SOL    HW114525   6.998   2.307   0.730
 4542SOL    HW214526   0.041   2.450   0.775
 4543SOL     OW14527   4.512   2.472   0.678
 4543SOL    HW114528   4.566   2.397   0.639
 4543SOL    HW214529   4.447   2.506   0.609
 4544SOL     OW14530   4.715   4.609   0.493
 4544SOL    HW114531   4.743   4.700   0.525
 4544SOL    HW214532   4.766   4.539   0.543
 4545SOL     OW14533   0.885   4.419   4.805
 4545SOL    HW114534   0.947   4.373   4.742
 4545SOL    HW214535   0.896   4.380   4.897
 4546SOL     OW14536   2.774   1.376   5.784
 4546SOL    HW114537   2.748   1.470   5.808
 4546SOL    HW214538   2.780   1.367   5.684
 4547SOL     OW14539   6.594   0.781   0.031
 4547SOL    HW114540   6.684   0.753   7.019
 4547SOL    HW214541   6.533   0.701   0.032
 4548SOL     OW14542   2.559   2.516   3.140
 4548SOL    HW114543   2.520   2.606   3.156
 4548SOL    HW214544   2.591   2.510   3.045
 4549SOL     OW14545   5.421   4.321   2.539
 4549SOL    HW114546   5.429   4.307   2.440
 4549SOL    HW214547   5.389   4.414   2.557
 4550SOL     OW14548   0.869   4.713   3.355
 4550SOL    HW114549   0.897   4.639   3.416
 4550SOL    HW214550   0.872   4.681   3.260
 4551SOL     OW14551   1.590   3.648   4.877
 4551SOL    HW114552   1.632   3.559   4.897
 4551SOL    HW214553   1.591   3.704   4.959
 4552SOL     OW14554   6.103   1.621   1.438
 4552SOL    HW114555   6.116   1.616   1.537
 4552SOL    HW214556   6.134   1.535   1.396
 4553SOL     OW14557   5.291   4.767   6.338
 4553SOL    HW114558   5.362   4.710   6.379
 4553SOL    HW214559   5.333   4.826   6.268
 4554SOL     OW14560   0.041   6.480   1.201
 4554SOL    HW114561   0.080   6.392   1.229
 4554SOL    HW214562   0.092   6.554   1.245
 4555SOL     OW14563   1.353   1.418   6.764
 4555SOL    HW114564   1.308   1.446   6.680
 4555SOL    HW214565   1.361   1.318   6.766
 4556SOL     OW14566   6.508   3.143   5.915
 4556SOL    HW114567   6.443   3.199   5.864
 4556SOL    HW214568   6.588   3.124   5.858
 4557SOL     OW14569   6.170   5.009   4.426
 4557SOL    HW114570   6.080   4.971   4.452
 4557SOL    HW214571   6.157   5.099   4.384
 4558SOL     OW14572   6.315   2.919   5.205
 4558SOL    HW114573   6.286   2.917   5.109
 4558SOL    HW214574   6.381   2.846   5.221
 4559SOL     OW14575   0.632   2.774   3.062
 4559SOL    HW114576   0.628   2.866   3.101
 4559SOL    HW214577   0.549   2.756   3.009
 4560SOL     OW14578   6.827   4.249   1.822
 4560SOL    HW114579   6.777   4.205   1.747
 4560SOL    HW214580   6.925   4.247   1.802
 4561SOL     OW14581   3.372   2.142   4.374
 4561SOL    HW114582   3.375   2.190   4.462
 4561SOL    HW214583   3.465   2.137   4.336
 4562SOL     OW14584   2.073   6.522   0.496
 4562SOL    HW114585   2.068   6.614   0.535
 4562SOL    HW214586   1.981   6.491   0.471
 4563SOL     OW14587   0.151   3.006   1.769
 4563SOL    HW114588   0.220   2.998   1.841
 4563SOL    HW214589   0.105   3.095   1.776
 4564SOL     OW14590   0.303   4.276   2.217
 4564SOL    HW114591   0.218   4.308   2.174
 4564SOL    HW214592   0.378   4.283   2.151
 4565SOL     OW14593   1.950   0.202   4.717
 4565SOL    HW114594   2.015   0.127   4.713
 4565SOL    HW214595   1.998   0.289   4.726
 4566SOL     OW14596   0.146   4.072   0.953
 4566SOL    HW114597   0.129   4.159   0.908
 4566SOL    HW214598   0.060   4.021   0.962
 4567SOL     OW14599   6.752   0.047   6.213
 4567SOL    HW114600   6.762   0.135   6.260
 4567SOL    HW214601   6.769   6.994   6.278
 4568SOL     OW14602   1.007   4.138   3.968
 4568SOL    HW114603   1.050   4.049   3.954
 4568SOL    HW214604   1.077   4.206   3.986
 4569SOL     OW14605   3.163   0.920   3.160
 4569SOL    HW114606   3.234   0.978   3.201
 4569SOL    HW214607   3.096   0.978   3.114
 4570SOL     OW14608   6.259   5.460   1.549
 4570SOL    HW114609   6.169   5.456   1.506
 4570SOL    HW214610   6.309   5.375   1.530
 4571SOL     OW14611   4.454   2.908   6.642
 4571SOL    HW114612   4.528   2.973   6.626
 4571SOL    HW214613   4.413   2.924   6.732
 4572SOL     OW14614   2.477   2.335   6.567
 4572SOL    HW114615   2.556   2.287   6.530
 4572SOL    HW214616   2.452   2.411   6.508
 4573SOL     OW14617   0.846   6.291   0.675
 4573SOL    HW114618   0.889   6.277   0.586
 4573SOL    HW214619   0.881   6.375   0.716
 4574SOL     OW14620   5.863   3.722   0.118
 4574SOL    HW114621   5.887   3.683   0.206
 4574SOL    HW214622   5.798   3.662   0.071
 4575SOL     OW14623   6.075   1.134   4.406
 4575SOL    HW114624   6.149   1.073   4.434
 4575SOL    HW214625   5.989   1.083   4.401
 4576SOL     OW14626   3.055   4.824   4.994
 4576SOL    HW114627   2.980   4.759   4.980
 4576SOL    HW214628   3.118   4.786   5.062
 4577SOL     OW14629   1.504   2.047   2.949
 4577SOL    HW114630   1.499   1.992   3.032
 4577SOL    HW214631   1.412   2.056   2.910
 4578SOL     OW14632   0.983   1.026   2.627
 4578SOL    HW114633   1.076   1.021   2.589
 4578SOL    HW214634   0.962   0.941   2.674
 4579SOL     OW14635   4.798   0.338   2.048
 4579SOL    HW114636   4.701   0.319   2.035
 4579SOL    HW214637   4.819   0.337   2.146
 4580SOL     OW14638   5.494   3.639   0.278
 4580SOL    HW114639   5.465   3.614   0.371
 4580SOL    HW214640   5.580   3.690   0.282
 4581SOL     OW14641   2.854   6.625   2.160
 4581SOL    HW114642   2.950   6.645   2.141
 4581SOL    HW214643   2.837   6.631   2.258
 4582SOL     OW14644   5.027   0.825   2.798
 4582SOL    HW114645   5.078   0.910   2.810
 4582SOL    HW214646   4.983   0.825   2.708
 4583SOL     OW14647   1.817   0.768   6.453
 4583SOL    HW114648   1.825   0.682   6.402
 4583SOL    HW214649   1.721   0.790   6.466
 4584SOL     OW14650   1.627   0.017   6.139
 4584SOL    HW114651   1.667   0.020   6.230
 4584SOL    HW214652   1.565   6.959   6.133
 4585SOL     OW14653   1.753   3.522   3.081
 4585SOL    HW114654   1.791   3.601   3.129
 4585SOL    HW214655   1.819   3.490   3.013
 4586SOL     OW14656   4.951   4.438   0.398
 4586SOL    HW114657   4.961   4.384   0.481
 4586SOL    HW214658   4.915   4.528   0.421
 4587SOL     OW14659   3.060   3.710   5.094
 4587SOL    HW114660   3.070   3.701   5.193
 4587SOL    HW214661   3.046   3.805   5.069
 4588SOL     OW14662   3.132   3.411   6.202
 4588SOL    HW114663   3.118   3.360   6.117
 4588SOL    HW214664   3.065   3.486   6.207
 4589SOL     OW14665   5.491   5.750   2.029
 4589SOL    HW114666   5.431   5.830   2.032
 4589SOL    HW214667   5.464   5.692   1.952
 4590SOL     OW14668   3.613   5.624   1.612
 4590SOL    HW114669   3.582   5.559   1.542
 4590SOL    HW214670   3.537   5.683   1.638
 4591SOL     OW14671   2.236   0.342   5.832
 4591SOL    HW114672   2.300   0.399   5.780
 4591SOL    HW214673   2.278   0.315   5.919
 4592SOL     OW14674   2.637   1.627   4.212
 4592SOL    HW114675   2.597   1.707   4.166
 4592SOL    HW214676   2.714   1.657   4.269
 4593SOL     OW14677   6.811   5.759   3.040
 4593SOL    HW114678   6.883   5.693   3.060
 4593SOL    HW214679   6.777   5.798   3.125
 4594SOL     OW14680   2.741   0.135   2.977
 4594SOL    HW114681   2.724   0.183   2.891
 4594SOL    HW214682   2.694   0.183   3.051
 4595SOL     OW14683   4.686   1.982   6.079
 4595SOL    HW114684   4.699   1.991   5.980
 4595SOL    HW214685   4.668   1.887   6.102
 4596SOL     OW14686   0.776   0.582   1.744
 4596SOL    HW114687   0.811   0.593   1.837
 4596SOL    HW214688   0.676   0.587   1.745
 4597SOL     OW14689   2.694   5.170   0.044
 4597SOL    HW114690   2.609   5.205   0.084
 4597SOL    HW214691   2.675   5.082   0.000
 4598SOL     OW14692   2.454   5.326   0.182
 4598SOL    HW114693   2.436   5.332   0.083
 4598SOL    HW214694   2.370   5.347   0.232
 4599SOL     OW14695   2.173   3.254   2.614
 4599SOL    HW114696   2.194   3.292   2.525
 4599SOL    HW214697   2.089   3.199   2.608
 4600SOL     OW14698   0.107   6.762   6.017
 4600SOL    HW114699   0.194   6.715   6.001
 4600SOL    HW214700   0.109   6.806   6.106
 4601SOL     OW14701   0.689   0.814   4.381
 4601SOL    HW114702   0.740   0.794   4.297
 4601SOL    HW214703   0.606   0.758   4.384
 4602SOL     OW14704   2.506   0.474   6.514
 4602SOL    HW114705   2.547   0.565   6.522
 4602SOL    HW214706   2.562   0.408   6.566
 4603SOL     OW14707   4.242   5.933   1.213
 4603SOL    HW114708   4.341   5.918   1.207
 4603SOL    HW214709   4.224   6.011   1.272
 4604SOL     OW14710   4.768   6.928   6.146
 4604SOL    HW114711   4.818   6.966   6.223
 4604SOL    HW214712   4.735   7.002   6.087
 4605SOL     OW14713   2.304   6.760   1.867
 4605SOL    HW114714   2.342   6.833   1.924
 4605SOL    HW214715   2.205   6.755   1.880
 4606SOL     OW14716   0.433   6.525   2.766
 4606SOL    HW114717   0.472   6.587   2.834
 4606SOL    HW214718   0.504   6.498   2.701
 4607SOL     OW14719   1.770   3.646   2.793
 4607SOL    HW114720   1.725   3.727   2.831
 4607SOL    HW214721   1.702   3.584   2.755
 4608SOL     OW14722   0.426   3.342   4.940
 4608SOL    HW114723   0.508   3.372   4.892
 4608SOL    HW214724   0.396   3.254   4.903
 4609SOL     OW14725   4.177   6.069   6.171
 4609SOL    HW114726   4.237   6.050   6.093
 4609SOL    HW214727   4.153   6.166   6.172
 4610SOL     OW14728   5.511   2.348   6.660
 4610SOL    HW114729   5.582   2.350   6.589
 4610SOL    HW214730   5.515   2.260   6.708
 4611SOL     OW14731   0.279   1.053   6.037
 4611SOL    HW114732   0.317   1.089   5.952
 4611SOL    HW214733   0.201   0.994   6.017
 4612SOL     OW14734   2.183   6.259   2.416
 4612SOL    HW114735   2.113   6.291   2.352
 4612SOL    HW214736   2.141   6.199   2.484
 4613SOL     OW14737   2.053   4.422   2.455
 4613SOL    HW114738   2.042   4.521   2.464
 4613SOL    HW214739   2.057   4.396   2.359
 4614SOL     OW14740   6.112   3.266   3.871
 4614SOL    HW114741   6.191   3.221   3.829
 4614SOL    HW214742   6.045   3.196   3.896
 4615SOL     OW14743   0.585   1.077   1.011
 4615SOL    HW114744   0.660   1.023   1.051
 4615SOL    HW214745   0.608   1.099   0.916
 4616SOL     OW14746   6.286   2.577   5.346
 4616SOL    HW114747   6.377   2.607   5.315
 4616SOL    HW214748   6.294   2.534   5.436
 4617SOL     OW14749   0.571   2.587   2.192
 4617SOL    HW114750   0.658   2.611   2.236
 4617SOL    HW214751   0.584   2.584   2.093
 4618SOL     OW14752   2.646   3.762   5.496
 4618SOL    HW114753   2.660   3.844   5.440
 4618SOL    HW214754   2.732   3.713   5.507
 4619SOL     OW14755   3.564   6.185   3.839
 4619SOL    HW114756   3.547   6.155   3.745
 4619SOL    HW214757   3.514   6.125   3.902
 4620SOL     OW14758   0.776   5.694   1.324
 4620SOL    HW114759   0.802   5.694   1.227
 4620SOL    HW214760   0.677   5.686   1.332
 4621SOL     OW14761   4.856   0.363   2.311
 4621SOL    HW114762   4.858   0.462   2.317
 4621SOL    HW214763   4.761   0.331   2.320
 4622SOL     OW14764   4.535   5.482   0.703
 4622SOL    HW114765   4.581   5.449   0.785
 4622SOL    HW214766   4.538   5.412   0.632
 4623SOL     OW14767   3.673   5.223   1.006
 4623SOL    HW114768   3.748   5.227   0.941
 4623SOL    HW214769   3.659   5.128   1.036
 4624SOL     OW14770   3.556   1.510   3.331
 4624SOL    HW114771   3.582   1.551   3.419
 4624SOL    HW214772   3.486   1.440   3.346
 4625SOL     OW14773   1.672   5.572   2.021
 4625SOL    HW114774   1.648   5.558   2.117
 4625SOL    HW214775   1.630   5.658   1.989
 4626SOL     OW14776   4.121   3.929   1.868
 4626SOL    HW114777   4.195   3.953   1.805
 4626SOL    HW214778   4.145   3.959   1.960
 4627SOL     OW14779   0.363   5.926   4.710
 4627SOL    HW114780   0.321   5.998   4.766
 4627SOL    HW214781   0.424   5.968   4.643
 4628SOL     OW14782   4.522   4.777   3.519
 4628SOL    HW114783   4.445   4.714   3.534
 4628SOL    HW214784   4.593   4.731   3.466
 4629SOL     OW14785   2.182   5.727   6.373
 4629SOL    HW114786   2.218   5.640   6.339
 4629SOL    HW214787   2.220   5.802   6.319
 4630SOL     OW14788   1.108   5.522   2.242
 4630SOL    HW114789   1.135   5.429   2.217
 4630SOL    HW214790   1.141   5.542   2.334
 4631SOL     OW14791   0.593   0.589   3.989
 4631SOL    HW114792   0.648   0.565   4.069
 4631SOL    HW214793   0.496   0.592   4.015
 4632SOL     OW14794   3.143   5.482   2.803
 4632SOL    HW114795   3.088   5.453   2.725
 4632SOL    HW214796   3.212   5.412   2.823
 4633SOL     OW14797   5.277   1.535   3.983
 4633SOL    HW114798   5.218   1.562   3.907
 4633SOL    HW214799   5.278   1.435   3.990
 4634SOL     OW14800   3.013   3.958   4.941
 4634SOL    HW114801   3.080   3.974   4.868
 4634SOL    HW214802   2.992   4.044   4.987
 4635SOL     OW14803   4.632   5.374   0.969
 4635SOL    HW114804   4.657   5.440   1.040
 4635SOL    HW214805   4.538   5.343   0.984
 4636SOL     OW14806   1.474   5.564   0.856
 4636SOL    HW114807   1.568   5.583   0.827
 4636SOL    HW214808   1.438   5.485   0.806
 4637SOL     OW14809   1.610   6.915   1.292
 4637SOL    HW114810   1.664   6.998   1.311
 4637SOL    HW214811   1.671   6.838   1.275
 4638SOL     OW14812   3.839   5.412   0.174
 4638SOL    HW114813   3.928   5.417   0.129
 4638SOL    HW214814   3.815   5.502   0.211
 4639SOL     OW14815   2.424   2.512   0.285
 4639SOL    HW114816   2.492   2.439   0.296
 4639SOL    HW214817   2.351   2.481   0.223
 4640SOL     OW14818   6.023   3.131   5.386
 4640SOL    HW114819   5.933   3.115   5.427
 4640SOL    HW214820   6.086   3.060   5.415
 4641SOL     OW14821   1.312   6.571   3.751
 4641SOL    HW114822   1.265   6.659   3.761
 4641SOL    HW214823   1.381   6.561   3.823
 4642SOL     OW14824   1.875   1.891   4.037
 4642SOL    HW114825   1.792   1.926   3.993
 4642SOL    HW214826   1.856   1.801   4.075
 4643SOL     OW14827   6.710   2.232   0.372
 4643SOL    HW114828   6.718   2.266   0.279
 4643SOL    HW214829   6.792   2.254   0.424
 4644SOL     OW14830   0.738   1.080   6.341
 4644SOL    HW114831   0.820   1.104   6.394
 4644SOL    HW214832   0.765   1.034   6.256
 4645SOL     OW14833   1.561   0.799   3.999
 4645SOL    HW114834   1.654   0.775   3.974
 4645SOL    HW214835   1.497   0.732   3.961
 4646SOL     OW14836   2.421   5.151   4.436
 4646SOL    HW114837   2.493   5.098   4.392
 4646SOL    HW214838   2.461   5.226   4.489
 4647SOL     OW14839   1.796   6.345   2.874
 4647SOL    HW114840   1.798   6.434   2.918
 4647SOL    HW214841   1.703   6.310   2.871
 4648SOL     OW14842   3.226   1.116   3.925
 4648SOL    HW114843   3.311   1.151   3.965
 4648SOL    HW214844   3.173   1.068   3.994
 4649SOL     OW14845   6.018   1.080   0.677
 4649SOL    HW114846   6.097   1.142   0.674
 4649SOL    HW214847   6.051   0.986   0.688
 4650SOL     OW14848   5.083   6.054   1.665
 4650SOL    HW114849   5.000   6.010   1.632
 4650SOL    HW214850   5.162   5.995   1.647
 4651SOL     OW14851   6.462   3.930   5.897
 4651SOL    HW114852   6.398   3.883   5.836
 4651SOL    HW214853   6.444   3.902   5.992
 4652SOL     OW14854   0.025   5.611   4.506
 4652SOL    HW114855   0.015   5.512   4.502
 4652SOL    HW214856   0.041   5.646   4.414
 4653SOL     OW14857   4.825   6.154   0.337
 4653SOL    HW114858   4.761   6.104   0.395
 4653SOL    HW214859   4.915   6.158   0.382
 4654SOL     OW14860   6.677   6.779   5.001
 4654SOL    HW114861   6.772   6.775   4.972
 4654SOL    HW214862   6.668   6.846   5.075
 4655SOL     OW14863   5.430   3.054   1.843
 4655SOL    HW114864   5.487   2.972   1.852
 4655SOL    HW214865   5.336   3.027   1.821
 4656SOL     OW14866   0.561   0.397   1.293
 4656SOL    HW114867   0.610   0.420   1.209
 4656SOL    HW214868   0.620   0.416   1.372
 4657SOL     OW14869   5.374   6.850   1.993
 4657SOL    HW114870   5.368   6.860   2.092
 4657SOL    HW214871   5.423   6.766   1.971
 4658SOL     OW14872   2.402   2.643   5.600
 4658SOL    HW114873   2.459   2.586   5.541
 4658SOL    HW214874   2.452   2.665   5.683
 4659SOL     OW14875   3.600   4.370   1.249
 4659SOL    HW114876   3.649   4.313   1.314
 4659SOL    HW214877   3.565   4.312   1.175
 4660SOL     OW14878   1.433   6.896   3.657
 4660SOL    HW114879   1.359   6.847   3.704
 4660SOL    HW214880   1.471   6.966   3.718
 4661SOL     OW14881   2.315   3.838   5.795
 4661SOL    HW114882   2.360   3.887   5.721
 4661SOL    HW214883   2.252   3.770   5.757
 4662SOL     OW14884   3.139   7.007   5.204
 4662SOL    HW114885   3.127   0.084   5.188
 4662SOL    HW214886   3.067   6.974   5.266
 4663SOL     OW14887   1.032   6.871   0.215
 4663SOL    HW114888   1.102   6.929   0.255
 4663SOL    HW214889   0.961   6.852   0.283
 4664SOL     OW14890   6.201   6.674   0.792
 4664SOL    HW114891   6.202   6.749   0.858
 4664SOL    HW214892   6.114   6.673   0.743
 4665SOL     OW14893   2.132   1.096   5.560
 4665SOL    HW114894   2.188   1.119   5.640
 4665SOL    HW214895   2.044   1.059   5.590
 4666SOL     OW14896   2.012   2.604   6.815
 4666SOL    HW114897   1.962   2.530   6.860
 4666SOL    HW214898   2.090   2.566   6.766
 4667SOL     OW14899   6.466   3.911   1.659
 4667SOL    HW114900   6.537   3.922   1.729
 4667SOL    HW214901   6.377   3.904   1.704
 4668SOL     OW14902   4.158   2.174   4.864
 4668SOL    HW114903   4.065   2.138   4.870
 4668SOL    HW214904   4.163   2.263   4.910
 4669SOL     OW14905   5.120   0.299   0.335
 4669SOL    HW114906   5.137   0.394   0.361
 4669SOL    HW214907   5.208   0.254   0.316
 4670SOL     OW14908   1.709   3.462   0.271
 4670SOL    HW114909   1.617   3.497   0.255
 4670SOL    HW214910   1.713   3.365   0.248
 4671SOL     OW14911   0.558   3.305   6.902
 4671SOL    HW114912   0.653   3.308   6.870
 4671SOL    HW214913   0.552   3.354   6.989
 4672SOL     OW14914   3.683   4.586   5.457
 4672SOL    HW114915   3.719   4.514   5.517
 4672SOL    HW214916   3.630   4.651   5.511
 4673SOL     OW14917   5.095   0.322   6.905
 4673SOL    HW114918   5.000   0.352   6.899
 4673SOL    HW214919   5.105   0.254   6.977
 4674SOL     OW14920   6.755   1.432   0.468
 4674SOL    HW114921   6.841   1.459   0.425
 4674SOL    HW214922   6.771   1.354   0.529
 4675SOL     OW14923   3.269   6.463   6.428
 4675SOL    HW114924   3.268   6.433   6.332
 4675SOL    HW214925   3.326   6.401   6.482
 4676SOL     OW14926   0.897   6.567   4.888
 4676SOL    HW114927   0.818   6.546   4.945
 4676SOL    HW214928   0.943   6.648   4.923
 4677SOL     OW14929   3.105   0.188   6.795
 4677SOL    HW114930   3.035   0.246   6.836
 4677SOL    HW214931   3.190   0.197   6.848
 4678SOL     OW14932   1.892   5.423   1.435
 4678SOL    HW114933   1.958   5.365   1.483
 4678SOL    HW214934   1.899   5.407   1.337
 4679SOL     OW14935   2.715   1.395   6.319
 4679SOL    HW114936   2.813   1.372   6.313
 4679SOL    HW214937   2.690   1.412   6.414
 4680SOL     OW14938   1.927   5.320   1.188
 4680SOL    HW114939   1.985   5.319   1.107
 4680SOL    HW214940   1.888   5.229   1.203
 4681SOL     OW14941   0.334   5.581   5.298
 4681SOL    HW114942   0.336   5.652   5.228
 4681SOL    HW214943   0.344   5.623   5.389
 4682SOL     OW14944   4.036   6.144   0.217
 4682SOL    HW114945   4.066   6.049   0.224
 4682SOL    HW214946   3.942   6.146   0.181
 4683SOL     OW14947   6.282   3.776   2.254
 4683SOL    HW114948   6.302   3.774   2.352
 4683SOL    HW214949   6.188   3.806   2.240
 4684SOL     OW14950   1.852   2.626   4.458
 4684SOL    HW114951   1.907   2.570   4.396
 4684SOL    HW214952   1.893   2.625   4.549
 4685SOL     OW14953   6.242   5.445   4.574
 4685SOL    HW114954   6.235   5.432   4.673
 4685SOL    HW214955   6.276   5.361   4.531
 4686SOL     OW14956   5.144   6.213   0.093
 4686SOL    HW114957   5.089   6.129   0.086
 4686SOL    HW214958   5.083   6.292   0.094
 4687SOL     OW14959   6.679   4.032   4.437
 4687SOL    HW114960   6.631   4.120   4.441
 4687SOL    HW214961   6.724   4.015   4.524
 4688SOL     OW14962   0.496   3.518   6.414
 4688SOL    HW114963   0.414   3.462   6.426
 4688SOL    HW214964   0.577   3.459   6.415
 4689SOL     OW14965   6.907   0.292   5.767
 4689SOL    HW114966   6.980   0.320   5.705
 4689SOL    HW214967   6.938   0.301   5.861
 4690SOL     OW14968   1.387   1.179   0.094
 4690SOL    HW114969   1.449   1.252   0.120
 4690SOL    HW214970   1.363   1.188   7.019
 4691SOL     OW14971   2.601   4.181   1.178
 4691SOL    HW114972   2.639   4.269   1.206
 4691SOL    HW214973   2.590   4.123   1.258
 4692SOL     OW14974   0.190   5.291   3.051
 4692SOL    HW114975   0.141   5.231   3.115
 4692SOL    HW214976   0.289   5.279   3.064
 4693SOL     OW14977   0.518   1.503   4.448
 4693SOL    HW114978   0.605   1.454   4.452
 4693SOL    HW214979   0.467   1.490   4.533
 4694SOL     OW14980   2.734   0.805   0.419
 4694SOL    HW114981   2.822   0.851   0.411
 4694SOL    HW214982   2.748   0.706   0.418
 4695SOL     OW14983   4.026   2.900   1.780
 4695SOL    HW114984   4.050   2.884   1.684
 4695SOL    HW214985   4.100   2.869   1.839
 4696SOL     OW14986   0.856   3.703   6.425
 4696SOL    HW114987   0.901   3.637   6.364
 4696SOL    HW214988   0.784   3.656   6.477
 4697SOL     OW14989   1.654   3.647   0.603
 4697SOL    HW114990   1.692   3.555   0.601
 4697SOL    HW214991   1.709   3.707   0.545
 4698SOL     OW14992   5.369   5.113   1.438
 4698SOL    HW114993   5.463   5.103   1.406
 4698SOL    HW214994   5.318   5.173   1.376
 4699SOL     OW14995   0.118   6.896   2.077
 4699SOL    HW114996   0.122   6.868   2.173
 4699SOL    HW214997   0.048   6.843   2.030
 4700SOL     OW14998   5.477   1.816   1.274
 4700SOL    HW114999   5.444   1.785   1.363
 4700SOL    HW215000   5.405   1.869   1.229
 4701SOL     OW15001   0.871   1.139   6.959
 4701SOL    HW115002   0.890   1.044   6.934
 4701SOL    HW215003   0.955   1.193   6.951
 4702SOL     OW15004   4.592   3.633   6.820
 4702SOL    HW115005   4.679   3.633   6.869
 4702SOL    HW215006   4.522   3.675   6.877
 4703SOL     OW15007   1.497   1.321   3.605
 4703SOL    HW115008   1.531   1.387   3.672
 4703SOL    HW215009   1.513   1.356   3.513
 4704SOL     OW15010   6.652   6.312   0.963
 4704SOL    HW115011   6.656   6.364   0.878
 4704SOL    HW215012   6.567   6.260   0.966
 4705SOL     OW15013   3.817   2.934   4.356
 4705SOL    HW115014   3.811   3.013   4.417
 4705SOL    HW215015   3.741   2.871   4.375
 4706SOL     OW15016   3.617   5.882   6.409
 4706SOL    HW115017   3.678   5.961   6.402
 4706SOL    HW215018   3.552   5.896   6.484
 4707SOL     OW15019   1.878   5.776   0.977
 4707SOL    HW115020   1.859   5.776   0.879
 4707SOL    HW215021   1.868   5.683   1.013
 4708SOL     OW15022   3.293   2.275   0.587
 4708SOL    HW115023   3.259   2.368   0.596
 4708SOL    HW215024   3.344   2.250   0.670
 4709SOL     OW15025   3.823   4.956   5.200
 4709SOL    HW115026   3.731   4.952   5.163
 4709SOL    HW215027   3.857   4.864   5.217
 4710SOL     OW15028   4.682   1.930   6.900
 4710SOL    HW115029   4.663   1.932   6.802
 4710SOL    HW215030   4.774   1.894   6.915
 4711SOL     OW15031   3.270   0.096   2.399
 4711SOL    HW115032   3.361   0.087   2.439
 4711SOL    HW215033   3.229   0.183   2.427
 4712SOL     OW15034   1.831   4.803   1.222
 4712SOL    HW115035   1.740   4.830   1.192
 4712SOL    HW215036   1.823   4.737   1.297
 4713SOL     OW15037   2.673   5.242   1.477
 4713SOL    HW115038   2.622   5.202   1.400
 4713SOL    HW215039   2.615   5.308   1.525
 4714SOL     OW15040   2.280   1.458   1.525
 4714SOL    HW115041   2.283   1.522   1.602
 4714SOL    HW215042   2.229   1.376   1.551
 4715SOL     OW15043   6.748   2.973   2.698
 4715SOL    HW115044   6.788   2.892   2.656
 4715SOL    HW215045   6.750   2.964   2.797
 4716SOL     OW15046   3.659   4.902   6.310
 4716SOL    HW115047   3.630   4.990   6.273
 4716SOL    HW215048   3.673   4.837   6.234
 4717SOL     OW15049   0.859   5.759   2.291
 4717SOL    HW115050   0.810   5.704   2.223
 4717SOL    HW215051   0.844   5.856   2.273
 4718SOL     OW15052   5.182   1.999   6.476
 4718SOL    HW115053   5.154   1.961   6.564
 4718SOL    HW215054   5.187   2.098   6.482
 4719SOL     OW15055   5.538   3.737   2.974
 4719SOL    HW115056   5.444   3.719   3.002
 4719SOL    HW215057   5.544   3.733   2.874
 4720SOL     OW15058   2.349   6.706   5.627
 4720SOL    HW115059   2.261   6.668   5.596
 4720SOL    HW215060   2.334   6.763   5.708
 4721SOL     OW15061   0.958   1.955   0.941
 4721SOL    HW115062   0.907   2.040   0.959
 4721SOL    HW215063   0.902   1.877   0.968
 4722SOL     OW15064   1.808   6.595   0.438
 4722SOL    HW115065   1.727   6.536   0.430
 4722SOL    HW215066   1.779   6.690   0.447
 4723SOL     OW15067   2.394   6.429   6.166
 4723SOL    HW115068   2.348   6.514   6.141
 4723SOL    HW215069   2.328   6.354   6.163
 4724SOL     OW15070   3.854   6.655   2.381
 4724SOL    HW115071   3.931   6.718   2.373
 4724SOL    HW215072   3.888   6.565   2.410
 4725SOL     OW15073   5.129   6.377   3.161
 4725SOL    HW115074   5.184   6.415   3.087
 4725SOL    HW215075   5.134   6.437   3.241
 4726SOL     OW15076   1.088   3.999   6.701
 4726SOL    HW115077   1.052   4.092   6.715
 4726SOL    HW215078   1.029   3.934   6.749
 4727SOL     OW15079   6.706   5.814   0.319
 4727SOL    HW115080   6.646   5.745   0.360
 4727SOL    HW215081   6.790   5.770   0.287
 4728SOL     OW15082   6.270   1.561   0.301
 4728SOL    HW115083   6.256   1.462   0.299
 4728SOL    HW215084   6.183   1.606   0.321
 4729SOL     OW15085   2.111   0.368   2.259
 4729SOL    HW115086   2.109   0.391   2.161
 4729SOL    HW215087   2.017   0.353   2.291
 4730SOL     OW15088   2.449   6.037   5.297
 4730SOL    HW115089   2.448   5.962   5.232
 4730SOL    HW215090   2.544   6.055   5.326
 4731SOL     OW15091   5.679   0.874   5.202
 4731SOL    HW115092   5.775   0.896   5.218
 4731SOL    HW215093   5.644   0.929   5.126
 4732SOL     OW15094   7.014   3.798   6.675
 4732SOL    HW115095   0.088   3.794   6.645
 4732SOL    HW215096   6.957   3.742   6.614
 4733SOL     OW15097   0.133   3.370   2.757
 4733SOL    HW115098   0.141   3.391   2.659
 4733SOL    HW215099   0.038   3.380   2.786
 4734SOL     OW15100   5.167   3.305   7.021
 4734SOL    HW115101   5.067   3.302   0.005
 4734SOL    HW215102   5.206   3.251   0.074
 4735SOL     OW15103   0.860   4.301   4.343
 4735SOL    HW115104   0.955   4.272   4.331
 4735SOL    HW215105   0.802   4.255   4.275
 4736SOL     OW15106   0.255   1.066   6.578
 4736SOL    HW115107   0.305   1.075   6.491
 4736SOL    HW215108   0.176   1.126   6.577
 4737SOL     OW15109   2.605   4.702   1.826
 4737SOL    HW115110   2.682   4.664   1.878
 4737SOL    HW215111   2.519   4.677   1.871
 4738SOL     OW15112   6.638   6.393   1.533
 4738SOL    HW115113   6.687   6.450   1.599
 4738SOL    HW215114   6.638   6.439   1.444
 4739SOL     OW15115   4.110   0.732   1.968
 4739SOL    HW115116   4.066   0.809   1.921
 4739SOL    HW215117   4.069   0.720   2.058
 4740SOL     OW15118   0.997   2.098   2.621
 4740SOL    HW115119   1.016   2.180   2.675
 4740SOL    HW215120   0.900   2.074   2.631
 4741SOL     OW15121   4.210   2.402   1.761
 4741SOL    HW115122   4.269   2.453   1.699
 4741SOL    HW215123   4.250   2.402   1.853
 4742SOL     OW15124   2.703   6.806   0.166
 4742SOL    HW115125   2.637   6.801   0.241
 4742SOL    HW215126   2.692   6.725   0.108
 4743SOL     OW15127   1.866   4.027   1.888
 4743SOL    HW115128   1.892   3.931   1.885
 4743SOL    HW215129   1.778   4.036   1.935
 4744SOL     OW15130   1.974   6.257   0.903
 4744SOL    HW115131   2.068   6.230   0.923
 4744SOL    HW215132   1.972   6.309   0.818
 4745SOL     OW15133   2.506   4.082   0.550
 4745SOL    HW115134   2.510   3.997   0.602
 4745SOL    HW215135   2.416   4.125   0.563
 4746SOL     OW15136   4.542   5.057   4.516
 4746SOL    HW115137   4.548   4.969   4.564
 4746SOL    HW215138   4.459   5.105   4.545
 4747SOL     OW15139   1.852   3.044   0.823
 4747SOL    HW115140   1.852   3.129   0.875
 4747SOL    HW215141   1.761   3.002   0.828
 4748SOL     OW15142   1.487   6.338   2.502
 4748SOL    HW115143   1.544   6.373   2.576
 4748SOL    HW215144   1.514   6.379   2.415
 4749SOL     OW15145   2.223   6.771   0.279
 4749SOL    HW115146   2.207   6.840   0.209
 4749SOL    HW215147   2.322   6.759   0.291
 4750SOL     OW15148   6.009   3.054   4.865
 4750SOL    HW115149   6.084   3.020   4.809
 4750SOL    HW215150   5.981   2.985   4.931
 4751SOL     OW15151   4.513   1.339   2.352
 4751SOL    HW115152   4.561   1.422   2.381
 4751SOL    HW215153   4.548   1.261   2.403
 4752SOL     OW15154   4.721   2.192   0.293
 4752SOL    HW115155   4.676   2.110   0.258
 4752SOL    HW215156   4.696   2.205   0.389
 4753SOL     OW15157   1.843   6.660   5.181
 4753SOL    HW115158   1.873   6.567   5.205
 4753SOL    HW215159   1.854   6.674   5.083
 4754SOL     OW15160   4.003   3.907   6.503
 4754SOL    HW115161   3.934   3.839   6.530
 4754SOL    HW215162   3.956   3.991   6.474
 4755SOL     OW15163   1.532   0.352   1.758
 4755SOL    HW115164   1.452   0.301   1.725
 4755SOL    HW215165   1.510   0.449   1.761
 4756SOL     OW15166   5.995   4.428   6.944
 4756SOL    HW115167   5.920   4.478   6.986
 4756SOL    HW215168   6.021   4.351   7.002
 4757SOL     OW15169   1.634   3.061   1.413
 4757SOL    HW115170   1.641   3.152   1.371
 4757SOL    HW215171   1.722   3.015   1.407
 4758SOL     OW15172   1.766   0.001   3.182
 4758SOL    HW115173   1.670   7.009   3.157
 4758SOL    HW215174   1.823   6.955   3.134
 4759SOL     OW15175   0.848   5.078   0.800
 4759SOL    HW115176   0.851   4.987   0.759
 4759SOL    HW215177   0.923   5.134   0.765
 4760SOL     OW15178   1.274   6.781   0.533
 4760SOL    HW115179   1.341   6.833   0.586
 4760SOL    HW215180   1.200   6.751   0.593
 4761SOL     OW15181   0.442   6.816   0.551
 4761SOL    HW115182   0.389   6.734   0.576
 4761SOL    HW215183   0.391   6.867   0.480
 4762SOL     OW15184   1.788   5.422   2.724
 4762SOL    HW115185   1.761   5.345   2.782
 4762SOL    HW215186   1.714   5.489   2.721
 4763SOL     OW15187   4.685   5.703   1.832
 4763SOL    HW115188   4.745   5.664   1.903
 4763SOL    HW215189   4.738   5.717   1.748
 4764SOL     OW15190   4.825   3.917   5.737
 4764SOL    HW115191   4.754   3.956   5.795
 4764SOL    HW215192   4.807   3.940   5.641
 4765SOL     OW15193   3.939   1.637   5.237
 4765SOL    HW115194   3.976   1.712   5.182
 4765SOL    HW215195   3.877   1.582   5.180
 4766SOL     OW15196   6.462   6.679   4.232
 4766SOL    HW115197   6.533   6.740   4.195
 4766SOL    HW215198   6.383   6.680   4.171
 4767SOL     OW15199   2.070   5.036   4.307
 4767SOL    HW115200   2.113   4.980   4.235
 4767SOL    HW215201   2.115   5.017   4.394
 4768SOL     OW15202   4.781   2.765   6.691
 4768SOL    HW115203   4.763   2.847   6.635
 4768SOL    HW215204   4.878   2.742   6.686
 4769SOL     OW15205   3.436   5.769   1.313
 4769SOL    HW115206   3.424   5.795   1.409
 4769SOL    HW215207   3.392   5.836   1.254
 4770SOL     OW15208   6.918   1.818   5.313
 4770SOL    HW115209   7.017   1.834   5.306
 4770SOL    HW215210   6.875   1.842   5.226
 4771SOL     OW15211   2.857   0.247   5.354
 4771SOL    HW115212   2.881   0.274   5.261
 4771SOL    HW215213   2.864   0.148   5.363
 4772SOL     OW15214   2.734   5.531   0.909
 4772SOL    HW115215   2.686   5.617   0.924
 4772SOL    HW215216   2.832   5.549   0.901
 4773SOL     OW15217   2.538   5.818   4.756
 4773SOL    HW115218   2.459   5.873   4.781
 4773SOL    HW215219   2.598   5.871   4.696
 4774SOL     OW15220   1.446   3.928   0.265
 4774SOL    HW115221   1.521   3.912   0.201
 4774SOL    HW215222   1.456   3.868   0.344
 4775SOL     OW15223   5.649   6.524   4.863
 4775SOL    HW115224   5.617   6.453   4.801
 4775SOL    HW215225   5.747   6.540   4.847
 4776SOL     OW15226   1.420   0.826   5.997
 4776SOL    HW115227   1.393   0.731   6.011
 4776SOL    HW215228   1.416   0.848   5.900
 4777SOL     OW15229   0.951   5.926   0.666
 4777SOL    HW115230   0.939   5.831   0.694
 4777SOL    HW215231   0.875   5.954   0.607
 4778SOL     OW15232   0.559   2.142   4.809
 4778SOL    HW115233   0.604   2.227   4.784
 4778SOL    HW215234   0.571   2.075   4.736
 4779SOL     OW15235   6.488   1.331   3.434
 4779SOL    HW115236   6.422   1.255   3.435
 4779SOL    HW215237   6.551   1.319   3.357
 4780SOL     OW15238   5.412   2.424   5.508
 4780SOL    HW115239   5.337   2.427   5.574
 4780SOL    HW215240   5.488   2.371   5.546
 4781SOL     OW15241   1.424   5.850   2.398
 4781SOL    HW115242   1.389   5.937   2.363
 4781SOL    HW215243   1.356   5.778   2.383
 4782SOL     OW15244   5.629   5.372   5.198
 4782SOL    HW115245   5.550   5.310   5.198
 4782SOL    HW215246   5.599   5.463   5.172
 4783SOL     OW15247   6.039   3.457   1.091
 4783SOL    HW115248   5.965   3.408   1.139
 4783SOL    HW215249   6.030   3.441   0.993
 4784SOL     OW15250   5.808   3.012   6.606
 4784SOL    HW115251   5.871   3.064   6.663
 4784SOL    HW215252   5.727   2.989   6.659
 4785SOL     OW15253   0.731   5.955   3.623
 4785SOL    HW115254   0.694   5.969   3.531
 4785SOL    HW215255   0.829   5.934   3.616
 4786SOL     OW15256   2.865   6.733   0.865
 4786SOL    HW115257   2.882   6.644   0.907
 4786SOL    HW215258   2.917   6.739   0.779
 4787SOL     OW15259   4.041   1.825   4.412
 4787SOL    HW115260   4.001   1.902   4.463
 4787SOL    HW215261   4.029   1.840   4.314
 4788SOL     OW15262   6.384   6.208   0.110
 4788SOL    HW115263   6.378   6.111   0.085
 4788SOL    HW215264   6.294   6.243   0.133
 4789SOL     OW15265   4.995   0.918   2.199
 4789SOL    HW115266   4.988   0.846   2.269
 4789SOL    HW215267   4.904   0.944   2.169
 4790SOL     OW15268   5.676   1.498   4.979
 4790SOL    HW115269   5.717   1.495   5.070
 4790SOL    HW215270   5.741   1.462   4.912
 4791SOL     OW15271   0.296   2.826   0.929
 4791SOL    HW115272   0.276   2.846   0.833
 4791SOL    HW215273   0.257   2.737   0.952
 4792SOL     OW15274   2.130   3.767   4.090
 4792SOL    HW115275   2.146   3.854   4.044
 4792SOL    HW215276   2.106   3.698   4.021
 4793SOL     OW15277   1.294   4.105   6.509
 4793SOL    HW115278   1.205   4.076   6.543
 4793SOL    HW215279   1.334   4.171   6.573
 4794SOL     OW15280   4.833   1.075   4.393
 4794SOL    HW115281   4.896   1.013   4.440
 4794SOL    HW215282   4.740   1.036   4.396
 4795SOL     OW15283   0.516   0.640   4.447
 4795SOL    HW115284   0.575   0.643   4.528
 4795SOL    HW215285   0.422   0.661   4.474
 4796SOL     OW15286   3.511   1.368   5.699
 4796SOL    HW115287   3.596   1.345   5.651
 4796SOL    HW215288   3.448   1.413   5.636
 4797SOL     OW15289   0.790   5.426   4.688
 4797SOL    HW115290   0.723   5.422   4.613
 4797SOL    HW215291   0.802   5.522   4.715
 4798SOL     OW15292   4.864   5.041   6.155
 4798SOL    HW115293   4.837   5.115   6.216
 4798SOL    HW215294   4.944   4.994   6.194
 4799SOL     OW15295   3.710   2.576   6.538
 4799SOL    HW115296   3.810   2.571   6.539
 4799SOL    HW215297   3.677   2.607   6.627
 4800SOL     OW15298   1.415   4.978   6.959
 4800SOL    HW115299   1.462   4.921   6.892
 4800SOL    HW215300   1.347   4.923   7.007
 4801SOL     OW15301   5.211   2.424   1.803
 4801SOL    HW115302   5.195   2.336   1.757
 4801SOL    HW215303   5.125   2.456   1.842
 4802SOL     OW15304   0.201   6.131   2.443
 4802SOL    HW115305   0.178   6.034   2.433
 4802SOL    HW215306   0.237   6.165   2.357
 4803SOL     OW15307   5.212   4.203   6.717
 4803SOL    HW115308   5.259   4.121   6.685
 4803SOL    HW215309   5.261   4.241   6.795
 4804SOL     OW15310   5.053   2.165   0.073
 4804SOL    HW115311   5.082   2.095   0.139
 4804SOL    HW215312   4.995   2.232   0.118
 4805SOL     OW15313   6.258   2.054   1.162
 4805SOL    HW115314   6.339   2.105   1.132
 4805SOL    HW215315   6.219   2.006   1.083
 4806SOL     OW15316   1.440   2.990   3.158
 4806SOL    HW115317   1.478   2.935   3.233
 4806SOL    HW215318   1.450   2.940   3.072
 4807SOL     OW15319   1.191   2.999   6.694
 4807SOL    HW115320   1.221   2.991   6.599
 4807SOL    HW215321   1.225   2.922   6.747
 4808SOL     OW15322   3.813   5.937   0.743
 4808SOL    HW115323   3.777   5.936   0.649
 4808SOL    HW215324   3.750   5.986   0.802
 4809SOL     OW15325   3.330   4.865   1.769
 4809SOL    HW115326   3.281   4.943   1.730
 4809SOL    HW215327   3.275   4.782   1.758
 4810SOL     OW15328   1.343   3.999   3.628
 4810SOL    HW115329   1.410   3.952   3.570
 4810SOL    HW215330   1.251   3.968   3.606
 4811SOL     OW15331   3.187   3.937   4.707
 4811SOL    HW115332   3.148   3.974   4.623
 4811SOL    HW215333   3.279   3.974   4.719
 4812SOL     OW15334   0.584   6.589   2.122
 4812SOL    HW115335   0.605   6.508   2.067
 4812SOL    HW215336   0.569   6.667   2.062
 4813SOL     OW15337   6.261   1.761   0.041
 4813SOL    HW115338   6.324   1.740   0.116
 4813SOL    HW215339   6.177   1.801   0.078
 4814SOL     OW15340   0.042   4.189   1.716
 4814SOL    HW115341   0.137   4.219   1.724
 4814SOL    HW215342   0.030   4.138   1.631
 4815SOL     OW15343   5.660   5.155   2.442
 4815SOL    HW115344   5.731   5.177   2.376
 4815SOL    HW215345   5.670   5.060   2.472
 4816SOL     OW15346   1.326   6.552   2.158
 4816SOL    HW115347   1.348   6.494   2.080
 4816SOL    HW215348   1.231   6.537   2.185
 4817SOL     OW15349   3.752   1.523   1.599
 4817SOL    HW115350   3.715   1.435   1.568
 4817SOL    HW215351   3.803   1.510   1.684
 4818SOL     OW15352   2.905   0.546   4.542
 4818SOL    HW115353   2.934   0.621   4.603
 4818SOL    HW215354   2.966   0.543   4.463
 4819SOL     OW15355   2.734   1.528   1.368
 4819SOL    HW115356   2.722   1.483   1.279
 4819SOL    HW215357   2.830   1.525   1.394
 4820SOL     OW15358   0.287   4.028   2.563
 4820SOL    HW115359   0.245   3.988   2.644
 4820SOL    HW215360   0.277   4.127   2.565
 4821SOL     OW15361   6.690   5.415   1.595
 4821SOL    HW115362   6.712   5.508   1.565
 4821SOL    HW215363   6.686   5.412   1.695
 4822SOL     OW15364   2.034   4.222   3.592
 4822SOL    HW115365   1.978   4.139   3.586
 4822SOL    HW215366   1.984   4.292   3.644
 4823SOL     OW15367   0.814   0.129   4.477
 4823SOL    HW115368   0.806   0.090   4.385
 4823SOL    HW215369   0.855   0.062   4.539
 4824SOL     OW15370   5.431   2.100   2.622
 4824SOL    HW115371   5.407   2.164   2.548
 4824SOL    HW215372   5.496   2.143   2.684
 4825SOL     OW15373   1.897   3.423   4.057
 4825SOL    HW115374   1.944   3.500   4.012
 4825SOL    HW215375   1.949   3.397   4.139
 4826SOL     OW15376   0.291   6.592   0.624
 4826SOL    HW115377   0.352   6.514   0.630
 4826SOL    HW215378   0.205   6.571   0.672
 4827SOL     OW15379   4.317   1.158   1.193
 4827SOL    HW115380   4.395   1.102   1.163
 4827SOL    HW215381   4.233   1.104   1.183
 4828SOL     OW15382   5.578   3.406   1.939
 4828SOL    HW115383   5.598   3.484   1.881
 4828SOL    HW215384   5.640   3.405   2.017
 4829SOL     OW15385   2.938   0.744   6.092
 4829SOL    HW115386   2.842   0.752   6.066
 4829SOL    HW215387   2.946   0.686   6.173
 4830SOL     OW15388   4.741   6.154   3.545
 4830SOL    HW115389   4.722   6.101   3.462
 4830SOL    HW215390   4.664   6.215   3.564
 4831SOL     OW15391   6.670   4.709   5.237
 4831SOL    HW115392   6.571   4.704   5.249
 4831SOL    HW215393   6.709   4.772   5.304
 4832SOL     OW15394   3.377   2.982   5.836
 4832SOL    HW115395   3.333   3.070   5.821
 4832SOL    HW215396   3.358   2.921   5.759
 4833SOL     OW15397   4.288   1.284   3.172
 4833SOL    HW115398   4.190   1.267   3.161
 4833SOL    HW215399   4.332   1.276   3.082
 4834SOL     OW15400   4.355   0.804   1.029
 4834SOL    HW115401   4.311   0.829   0.942
 4834SOL    HW215402   4.291   0.819   1.104
 4835SOL     OW15403   1.746   0.017   6.373
 4835SOL    HW115404   1.789   0.107   6.375
 4835SOL    HW215405   1.791   6.978   6.438
 4836SOL     OW15406   5.188   1.672   4.213
 4836SOL    HW115407   5.182   1.625   4.301
 4836SOL    HW215408   5.239   1.615   4.148
 4837SOL     OW15409   3.016   2.807   1.520
 4837SOL    HW115410   3.101   2.794   1.469
 4837SOL    HW215411   2.939   2.809   1.456
 4838SOL     OW15412   3.804   4.881   2.057
 4838SOL    HW115413   3.731   4.840   2.002
 4838SOL    HW215414   3.890   4.835   2.038
 4839SOL     OW15415   0.299   5.120   5.714
 4839SOL    HW115416   0.365   5.180   5.758
 4839SOL    HW215417   0.210   5.128   5.760
 4840SOL     OW15418   5.852   6.561   0.380
 4840SOL    HW115419   5.768   6.583   0.330
 4840SOL    HW215420   5.923   6.534   0.314
 4841SOL     OW15421   3.311   5.810   1.588
 4841SOL    HW115422   3.217   5.781   1.572
 4841SOL    HW215423   3.330   5.808   1.687
 4842SOL     OW15424   3.816   5.698   1.763
 4842SOL    HW115425   3.747   5.669   1.697
 4842SOL    HW215426   3.854   5.617   1.809
 4843SOL     OW15427   0.247   3.973   0.307
 4843SOL    HW115428   0.201   4.047   0.357
 4843SOL    HW215429   0.213   3.971   0.213
 4844SOL     OW15430   6.365   3.711   0.390
 4844SOL    HW115431   6.447   3.763   0.368
 4844SOL    HW215432   6.387   3.642   0.459
 4845SOL     OW15433   6.093   5.747   3.978
 4845SOL    HW115434   6.035   5.737   4.059
 4845SOL    HW215435   6.167   5.812   3.998
 4846SOL     OW15436   1.104   2.799   0.663
 4846SOL    HW115437   1.091   2.898   0.653
 4846SOL    HW215438   1.048   2.751   0.595
 4847SOL     OW15439   3.966   2.098   4.686
 4847SOL    HW115440   4.030   2.160   4.639
 4847SOL    HW215441   3.873   2.119   4.658
 4848SOL     OW15442   2.004   1.377   3.724
 4848SOL    HW115443   2.061   1.387   3.806
 4848SOL    HW215444   1.928   1.315   3.744
 4849SOL     OW15445   1.532   6.975   0.060
 4849SOL    HW115446   1.448   0.005   0.079
 4849SOL    HW215447   1.591   0.006   7.020
 4850SOL     OW15448   3.845   0.513   2.150
 4850SOL    HW115449   3.888   0.423   2.165
 4850SOL    HW215450   3.911   0.585   2.172
 4851SOL     OW15451   4.546   5.831   5.615
 4851SOL    HW115452   4.621   5.846   5.679
 4851SOL    HW215453   4.458   5.851   5.660
 4852SOL     OW15454   1.602   0.986   6.932
 4852SOL    HW115455   1.694   0.969   6.966
 4852SOL    HW215456   1.543   1.014   7.008
 4853SOL     OW15457   3.282   1.351   2.722
 4853SOL    HW115458   3.299   1.378   2.817
 4853SOL    HW215459   3.368   1.319   2.681
 4854SOL     OW15460   4.563   5.272   2.155
 4854SOL    HW115461   4.644   5.304   2.205
 4854SOL    HW215462   4.564   5.311   2.062
 4855SOL     OW15463   5.920   1.876   2.029
 4855SOL    HW115464   5.825   1.872   1.996
 4855SOL    HW215465   5.921   1.905   2.124
 4856SOL     OW15466   2.794   4.716   3.813
 4856SOL    HW115467   2.757   4.701   3.721
 4856SOL    HW215468   2.730   4.681   3.881
 4857SOL     OW15469   0.879   2.122   5.948
 4857SOL    HW115470   0.975   2.150   5.948
 4857SOL    HW215471   0.873   2.024   5.934
 4858SOL     OW15472   1.928   1.975   4.781
 4858SOL    HW115473   1.944   2.051   4.719
 4858SOL    HW215474   2.013   1.953   4.829
 4859SOL     OW15475   1.681   5.670   4.945
 4859SOL    HW115476   1.772   5.677   4.986
 4859SOL    HW215477   1.632   5.757   4.958
 4860SOL     OW15478   4.240   5.282   1.633
 4860SOL    HW115479   4.196   5.347   1.570
 4860SOL    HW215480   4.170   5.236   1.688
 4861SOL     OW15481   5.378   5.210   6.995
 4861SOL    HW115482   5.405   5.168   6.908
 4861SOL    HW215483   5.340   5.139   0.034
 4862SOL     OW15484   1.281   5.234   3.295
 4862SOL    HW115485   1.258   5.259   3.389
 4862SOL    HW215486   1.377   5.257   3.277
 4863SOL     OW15487   5.800   4.095   0.609
 4863SOL    HW115488   5.716   4.084   0.662
 4863SOL    HW215489   5.879   4.085   0.670
 4864SOL     OW15490   3.027   0.971   3.537
 4864SOL    HW115491   3.092   0.895   3.535
 4864SOL    HW215492   3.068   1.048   3.585
 4865SOL     OW15493   2.364   0.010   4.513
 4865SOL    HW115494   2.413   0.098   4.513
 4865SOL    HW215495   2.338   7.008   4.420
 4866SOL     OW15496   6.876   3.581   1.527
 4866SOL    HW115497   6.826   3.587   1.441
 4866SOL    HW215498   6.845   3.654   1.589
 4867SOL     OW15499   4.529   5.595   2.197
 4867SOL    HW115500   4.624   5.616   2.218
 4867SOL    HW215501   4.488   5.543   2.272
 4868SOL     OW15502   6.500   4.539   2.021
 4868SOL    HW115503   6.563   4.611   1.993
 4868SOL    HW215504   6.550   4.467   2.068
 4869SOL     OW15505   1.775   1.312   0.654
 4869SOL    HW115506   1.753   1.299   0.557
 4869SOL    HW215507   1.698   1.357   0.700
 4870SOL     OW15508   0.392   6.440   1.695
 4870SOL    HW115509   0.463   6.509   1.684
 4870SOL    HW215510   0.389   6.410   1.790
 4871SOL     OW15511   1.482   0.662   4.767
 4871SOL    HW115512   1.433   0.669   4.680
 4871SOL    HW215513   1.417   0.676   4.842
 4872SOL     OW15514   6.967   6.273   3.030
 4872SOL    HW115515   7.015   6.198   2.985
 4872SOL    HW215516   0.007   6.317   3.096
 4873SOL     OW15517   6.869   5.433   4.894
 4873SOL    HW115518   6.960   5.393   4.895
 4873SOL    HW215519   6.877   5.533   4.896
 4874SOL     OW15520   4.918   2.416   2.915
 4874SOL    HW115521   4.837   2.381   2.963
 4874SOL    HW215522   4.907   2.402   2.816
 4875SOL     OW15523   4.860   6.856   0.168
 4875SOL    HW115524   4.902   6.893   0.251
 4875SOL    HW215525   4.893   6.906   0.088
 4876SOL     OW15526   0.546   1.480   3.307
 4876SOL    HW115527   0.489   1.554   3.343
 4876SOL    HW215528   0.610   1.450   3.378
 4877SOL     OW15529   0.601   2.114   5.232
 4877SOL    HW115530   0.504   2.131   5.221
 4877SOL    HW215531   0.635   2.167   5.311
 4878SOL     OW15532   6.900   1.564   1.814
 4878SOL    HW115533   6.917   1.501   1.738
 4878SOL    HW215534   6.884   1.511   1.897
 4879SOL     OW15535   4.926   1.842   2.687
 4879SOL    HW115536   4.853   1.855   2.755
 4879SOL    HW215537   4.981   1.926   2.681
 4880SOL     OW15538   6.777   3.086   0.172
 4880SOL    HW115539   6.841   3.062   0.245
 4880SOL    HW215540   6.816   3.159   0.116
 4881SOL     OW15541   1.946   2.577   1.187
 4881SOL    HW115542   1.925   2.480   1.174
 4881SOL    HW215543   1.977   2.591   1.281
 4882SOL     OW15544   4.316   2.163   5.196
 4882SOL    HW115545   4.320   2.071   5.156
 4882SOL    HW215546   4.391   2.174   5.261
 4883SOL     OW15547   5.035   3.864   1.957
 4883SOL    HW115548   5.068   3.952   1.992
 4883SOL    HW215549   4.995   3.812   2.032
 4884SOL     OW15550   2.279   5.688   0.883
 4884SOL    HW115551   2.374   5.721   0.877
 4884SOL    HW215552   2.246   5.698   0.977
 4885SOL     OW15553   2.364   4.622   2.001
 4885SOL    HW115554   2.421   4.629   2.083
 4885SOL    HW215555   2.364   4.527   1.969
 4886SOL     OW15556   2.728   6.749   1.904
 4886SOL    HW115557   2.693   6.668   1.858
 4886SOL    HW215558   2.762   6.724   1.994
 4887SOL     OW15559   1.135   6.384   1.390
 4887SOL    HW115560   1.104   6.342   1.306
 4887SOL    HW215561   1.057   6.405   1.448
 4888SOL     OW15562   2.729   6.444   2.794
 4888SOL    HW115563   2.737   6.344   2.794
 4888SOL    HW215564   2.815   6.484   2.763
 4889SOL     OW15565   6.781   1.655   4.676
 4889SOL    HW115566   6.734   1.711   4.608
 4889SOL    HW215567   6.875   1.687   4.686
 4890SOL     OW15568   0.870   1.826   5.562
 4890SOL    HW115569   0.813   1.756   5.520
 4890SOL    HW215570   0.957   1.833   5.513
 4891SOL     OW15571   2.364   5.112   6.326
 4891SOL    HW115572   2.403   5.199   6.296
 4891SOL    HW215573   2.403   5.086   6.414
 4892SOL     OW15574   5.567   6.556   2.277
 4892SOL    HW115575   5.537   6.484   2.213
 4892SOL    HW215576   5.642   6.607   2.236
 4893SOL     OW15577   0.343   3.365   2.010
 4893SOL    HW115578   0.267   3.429   2.017
 4893SOL    HW215579   0.339   3.318   1.922
 4894SOL     OW15580   3.438   0.236   2.023
 4894SOL    HW115581   3.478   0.181   1.950
 4894SOL    HW215582   3.354   0.192   2.055
 4895SOL     OW15583   0.789   4.778   3.713
 4895SOL    HW115584   0.747   4.859   3.753
 4895SOL    HW215585   0.729   4.700   3.725
 4896SOL     OW15586   2.200   4.803   3.340
 4896SOL    HW115587   2.224   4.896   3.369
 4896SOL    HW215588   2.201   4.742   3.419
 4897SOL     OW15589   1.744   5.744   5.279
 4897SOL    HW115590   1.834   5.702   5.266
 4897SOL    HW215591   1.708   5.719   5.368
 4898SOL     OW15592   4.325   0.993   5.076
 4898SOL    HW115593   4.348   1.056   5.001
 4898SOL    HW215594   4.238   0.948   5.055
 4899SOL     OW15595   6.114   5.485   2.368
 4899SOL    HW115596   6.053   5.409   2.344
 4899SOL    HW215597   6.071   5.571   2.342
 4900SOL     OW15598   4.778   5.753   5.761
 4900SOL    HW115599   4.847   5.782   5.694
 4900SOL    HW215600   4.824   5.708   5.838
 4901SOL     OW15601   1.473   2.064   5.130
 4901SOL    HW115602   1.419   2.094   5.209
 4901SOL    HW215603   1.419   2.001   5.075
 4902SOL     OW15604   1.829   0.551   6.282
 4902SOL    HW115605   1.788   0.603   6.207
 4902SOL    HW215606   1.910   0.502   6.249
 4903SOL     OW15607   4.381   5.618   0.965
 4903SOL    HW115608   4.443   5.558   0.914
 4903SOL    HW215609   4.424   5.708   0.976
 4904SOL     OW15610   2.282   0.818   5.675
 4904SOL    HW115611   2.337   0.754   5.729
 4904SOL    HW215612   2.206   0.852   5.730
 4905SOL     OW15613   3.143   0.390   3.072
 4905SOL    HW115614   3.073   0.397   3.143
 4905SOL    HW215615   3.098   0.387   2.982
 4906SOL     OW15616   4.956   3.064   5.024
 4906SOL    HW115617   5.029   3.117   5.069
 4906SOL    HW215618   4.886   3.040   5.092
 4907SOL     OW15619   4.887   1.216   0.476
 4907SOL    HW115620   4.910   1.198   0.571
 4907SOL    HW215621   4.904   1.312   0.455
 4908SOL     OW15622   4.805   0.438   0.913
 4908SOL    HW115623   4.831   0.418   1.007
 4908SOL    HW215624   4.886   0.465   0.860
 4909SOL     OW15625   6.506   4.141   3.624
 4909SOL    HW115626   6.520   4.127   3.722
 4909SOL    HW215627   6.530   4.057   3.575
 4910SOL     OW15628   5.726   1.232   4.427
 4910SOL    HW115629   5.772   1.266   4.345
 4910SOL    HW215630   5.748   1.291   4.505
 4911SOL     OW15631   1.924   2.649   2.915
 4911SOL    HW115632   1.836   2.651   2.867
 4911SOL    HW215633   1.921   2.579   2.987
 4912SOL     OW15634   5.108   1.992   5.599
 4912SOL    HW115635   5.090   1.907   5.648
 4912SOL    HW215636   5.022   2.029   5.564
 4913SOL     OW15637   5.722   2.924   5.909
 4913SOL    HW115638   5.720   2.893   6.004
 4913SOL    HW215639   5.655   2.998   5.898
 4914SOL     OW15640   4.434   0.166   5.377
 4914SOL    HW115641   4.518   0.218   5.358
 4914SOL    HW215642   4.442   0.123   5.467
 4915SOL     OW15643   2.899   5.910   5.304
 4915SOL    HW115644   2.805   5.929   5.274
 4915SOL    HW215645   2.897   5.852   5.385
 4916SOL     OW15646   6.988   0.691   4.101
 4916SOL    HW115647   6.909   0.747   4.077
 4916SOL    HW215648   7.004   0.697   4.200
 4917SOL     OW15649   3.503   5.770   0.919
 4917SOL    HW115650   3.469   5.776   1.013
 4917SOL    HW215651   3.598   5.739   0.919
 4918SOL     OW15652   6.440   5.625   2.018
 4918SOL    HW115653   6.408   5.605   2.111
 4918SOL    HW215654   6.409   5.716   1.991
 4919SOL     OW15655   3.763   2.981   2.274
 4919SOL    HW115656   3.819   2.990   2.356
 4919SOL    HW215657   3.679   2.931   2.297
 4920SOL     OW15658   5.613   0.407   5.150
 4920SOL    HW115659   5.551   0.337   5.185
 4920SOL    HW215660   5.611   0.487   5.210
 4921SOL     OW15661   0.959   5.608   0.273
 4921SOL    HW115662   0.866   5.638   0.250
 4921SOL    HW215663   1.025   5.662   0.221
 4922SOL     OW15664   3.353   2.126   5.277
 4922SOL    HW115665   3.426   2.178   5.322
 4922SOL    HW215666   3.299   2.188   5.220
 4923SOL     OW15667   2.892   1.779   2.870
 4923SOL    HW115668   2.859   1.873   2.868
 4923SOL    HW215669   2.815   1.716   2.862
 4924SOL     OW15670   2.296   1.769   5.793
 4924SOL    HW115671   2.276   1.796   5.699
 4924SOL    HW215672   2.225   1.804   5.854
 4925SOL     OW15673   4.227   0.128   3.196
 4925SOL    HW115674   4.178   0.188   3.133
 4925SOL    HW215675   4.312   0.097   3.153
 4926SOL     OW15676   5.582   1.548   1.582
 4926SOL    HW115677   5.651   1.560   1.511
 4926SOL    HW215678   5.505   1.610   1.565
 4927SOL     OW15679   3.017   2.592   6.295
 4927SOL    HW115680   3.091   2.607   6.359
 4927SOL    HW215681   3.045   2.620   6.203
 4928SOL     OW15682   1.289   0.972   0.586
 4928SOL    HW115683   1.373   0.997   0.536
 4928SOL    HW215684   1.311   0.901   0.654
 4929SOL     OW15685   0.035   6.866   3.288
 4929SOL    HW115686   0.051   6.947   3.232
 4929SOL    HW215687   0.088   6.789   3.251
 4930SOL     OW15688   6.131   0.072   2.163
 4930SOL    HW115689   6.202   0.069   2.093
 4930SOL    HW215690   6.172   0.056   2.253
 4931SOL     OW15691   6.038   6.202   1.962
 4931SOL    HW115692   6.036   6.105   1.987
 4931SOL    HW215693   5.985   6.254   2.028
 4932SOL     OW15694   3.350   3.918   3.415
 4932SOL    HW115695   3.400   3.988   3.365
 4932SOL    HW215696   3.386   3.910   3.508
 4933SOL     OW15697   2.434   6.355   4.424
 4933SOL    HW115698   2.467   6.413   4.498
 4933SOL    HW215699   2.367   6.290   4.460
 4934SOL     OW15700   3.723   5.987   2.550
 4934SOL    HW115701   3.780   6.005   2.469
 4934SOL    HW215702   3.778   5.995   2.632
 4935SOL     OW15703   1.458   2.045   6.915
 4935SOL    HW115704   1.442   2.120   6.978
 4935SOL    HW215705   1.409   2.061   6.829
 4936SOL     OW15706   2.379   4.857   0.799
 4936SOL    HW115707   2.367   4.956   0.806
 4936SOL    HW215708   2.476   4.836   0.793
 4937SOL     OW15709   5.189   3.225   5.079
 4937SOL    HW115710   5.188   3.302   5.015
 4937SOL    HW215711   5.276   3.177   5.070
 4938SOL     OW15712   3.568   5.745   5.105
 4938SOL    HW115713   3.541   5.827   5.056
 4938SOL    HW215714   3.650   5.707   5.063
 4939SOL     OW15715   4.795   2.944   5.212
 4939SOL    HW115716   4.724   2.880   5.184
 4939SOL    HW215717   4.857   2.900   5.277
 4940SOL     OW15718   1.933   0.548   5.053
 4940SOL    HW115719   1.931   0.554   5.153
 4940SOL    HW215720   1.840   0.548   5.018
 4941SOL     OW15721   4.303   1.551   0.024
 4941SOL    HW115722   4.223   1.522   6.993
 4941SOL    HW215723   4.349   1.626   6.997
 4942SOL     OW15724   4.960   3.688   5.399
 4942SOL    HW115725   4.921   3.654   5.485
 4942SOL    HW215726   4.987   3.610   5.342
 4943SOL     OW15727   4.757   2.616   0.597
 4943SOL    HW115728   4.684   2.567   0.645
 4943SOL    HW215729   4.737   2.714   0.598
 4944SOL     OW15730   2.117   3.920   2.767
 4944SOL    HW115731   2.075   3.850   2.708
 4944SOL    HW215732   2.168   3.875   2.840
 4945SOL     OW15733   1.334   0.302   3.912
 4945SOL    HW115734   1.283   0.252   3.842
 4945SOL    HW215735   1.281   0.305   3.997
 4946SOL     OW15736   1.426   2.941   1.989
 4946SOL    HW115737   1.338   2.901   2.013
 4946SOL    HW215738   1.492   2.868   1.971
 4947SOL     OW15739   0.864   6.991   0.618
 4947SOL    HW115740   0.866   6.914   0.554
 4947SOL    HW215741   0.771   0.007   0.623
 4948SOL     OW15742   2.175   0.809   2.573
 4948SOL    HW115743   2.116   0.729   2.583
 4948SOL    HW215744   2.132   0.888   2.615
 4949SOL     OW15745   5.088   0.684   5.441
 4949SOL    HW115746   5.172   0.692   5.387
 4949SOL    HW215747   5.078   0.589   5.471
 4950SOL     OW15748   2.752   6.196   4.387
 4950SOL    HW115749   2.716   6.203   4.480
 4950SOL    HW215750   2.801   6.109   4.376
 4951SOL     OW15751   4.318   1.424   4.149
 4951SOL    HW115752   4.394   1.480   4.183
 4951SOL    HW215753   4.233   1.454   4.193
 4952SOL     OW15754   0.253   6.177   4.823
 4952SOL    HW115755   0.185   6.178   4.896
 4952SOL    HW215756   0.222   6.236   4.748
 4953SOL     OW15757   2.164   5.454   0.833
 4953SOL    HW115758   2.183   5.392   0.909
 4953SOL    HW215759   2.198   5.545   0.855
 4954SOL     OW15760   5.398   4.586   0.265
 4954SOL    HW115761   5.385   4.577   0.363
 4954SOL    HW215762   5.310   4.574   0.218
 4955SOL     OW15763   1.368   6.306   0.566
 4955SOL    HW115764   1.313   6.226   0.543
 4955SOL    HW215765   1.330   6.387   0.520
 4956SOL     OW15766   4.042   0.052   5.698
 4956SOL    HW115767   3.986   0.020   5.622
 4956SOL    HW215768   4.066   0.148   5.685
 4957SOL     OW15769   0.347   1.512   4.037
 4957SOL    HW115770   0.248   1.527   4.036
 4957SOL    HW215771   0.371   1.453   4.113
 4958SOL     OW15772   0.266   6.226   6.071
 4958SOL    HW115773   0.328   6.254   5.997
 4958SOL    HW215774   0.318   6.177   6.141
 4959SOL     OW15775   1.226   0.811   0.015
 4959SOL    HW115776   1.239   0.743   6.964
 4959SOL    HW215777   1.199   0.898   6.995
 4960SOL     OW15778   3.932   6.739   4.002
 4960SOL    HW115779   3.840   6.775   3.989
 4960SOL    HW215780   3.975   6.722   3.913
 4961SOL     OW15781   5.705   0.295   4.670
 4961SOL    HW115782   5.737   0.248   4.752
 4961SOL    HW215783   5.764   0.273   4.593
 4962SOL     OW15784   5.633   2.575   1.926
 4962SOL    HW115785   5.729   2.566   1.952
 4962SOL    HW215786   5.611   2.672   1.915
 4963SOL     OW15787   0.497   5.588   1.334
 4963SOL    HW115788   0.427   5.614   1.268
 4963SOL    HW215789   0.528   5.495   1.314
 4964SOL     OW15790   3.543   5.493   3.640
 4964SOL    HW115791   3.615   5.508   3.573
 4964SOL    HW215792   3.455   5.522   3.602
 4965SOL     OW15793   0.349   6.715   4.500
 4965SOL    HW115794   0.350   6.759   4.590
 4965SOL    HW215795   0.261   6.668   4.487
 4966SOL     OW15796   2.985   6.055   4.667
 4966SOL    HW115797   3.042   6.130   4.635
 4966SOL    HW215798   3.033   6.004   4.738
 4967SOL     OW15799   4.228   2.819   6.893
 4967SOL    HW115800   4.213   2.744   6.957
 4967SOL    HW215801   4.238   2.782   6.801
 4968SOL     OW15802   4.831   2.800   3.474
 4968SOL    HW115803   4.832   2.874   3.406
 4968SOL    HW215804   4.750   2.743   3.459
 4969SOL     OW15805   1.567   1.229   1.662
 4969SOL    HW115806   1.611   1.253   1.749
 4969SOL    HW215807   1.600   1.290   1.590
 4970SOL     OW15808   1.185   2.110   4.922
 4970SOL    HW115809   1.251   2.035   4.919
 4970SOL    HW215810   1.097   2.078   4.889
 4971SOL     OW15811   6.381   5.895   3.043
 4971SOL    HW115812   6.295   5.879   3.091
 4971SOL    HW215813   6.363   5.943   2.956
 4972SOL     OW15814   2.014   3.574   1.057
 4972SOL    HW115815   2.057   3.637   1.122
 4972SOL    HW215816   2.081   3.508   1.025
 4973SOL     OW15817   6.175   6.031   2.273
 4973SOL    HW115818   6.209   5.956   2.330
 4973SOL    HW215819   6.111   5.995   2.206
 4974SOL     OW15820   5.405   6.105   2.625
 4974SOL    HW115821   5.492   6.155   2.626
 4974SOL    HW215822   5.338   6.153   2.682
 4975SOL     OW15823   5.849   6.175   0.608
 4975SOL    HW115824   5.770   6.159   0.549
 4975SOL    HW215825   5.822   6.233   0.685
 4976SOL     OW15826   3.449   0.241   4.850
 4976SOL    HW115827   3.396   0.180   4.910
 4976SOL    HW215828   3.387   0.308   4.809
 4977SOL     OW15829   4.343   3.751   0.385
 4977SOL    HW115830   4.383   3.839   0.411
 4977SOL    HW215831   4.396   3.711   0.311
 4978SOL     OW15832   5.774   3.881   5.371
 4978SOL    HW115833   5.695   3.835   5.411
 4978SOL    HW215834   5.771   3.978   5.394
 4979SOL     OW15835   0.443   0.773   5.585
 4979SOL    HW115836   0.507   0.850   5.592
 4979SOL    HW215837   0.350   0.808   5.589
 4980SOL     OW15838   3.878   5.248   2.509
 4980SOL    HW115839   3.817   5.279   2.436
 4980SOL    HW215840   3.824   5.205   2.581
 4981SOL     OW15841   4.517   7.019   5.849
 4981SOL    HW115842   4.456   0.054   5.905
 4981SOL    HW215843   4.476   7.003   5.759
 4982SOL     OW15844   2.034   2.131   0.001
 4982SOL    HW115845   2.131   2.111   7.008
 4982SOL    HW215846   1.989   2.051   0.040
 4983SOL     OW15847   5.317   2.891   3.666
 4983SOL    HW115848   5.301   2.818   3.733
 4983SOL    HW215849   5.314   2.980   3.713
 4984SOL     OW15850   4.860   3.738   4.569
 4984SOL    HW115851   4.876   3.640   4.560
 4984SOL    HW215852   4.869   3.782   4.479
 4985SOL     OW15853   5.386   5.592   3.304
 4985SOL    HW115854   5.391   5.673   3.245
 4985SOL    HW215855   5.478   5.555   3.317
 4986SOL     OW15856   5.902   4.501   2.563
 4986SOL    HW115857   5.935   4.582   2.612
 4986SOL    HW215858   5.906   4.422   2.624
 4987SOL     OW15859   0.038   3.576   1.047
 4987SOL    HW115860   0.120   3.531   1.084
 4987SOL    HW215861   0.017   3.536   0.957
 4988SOL     OW15862   0.510   1.764   4.399
 4988SOL    HW115863   0.519   1.669   4.431
 4988SOL    HW215864   0.488   1.764   4.302
 4989SOL     OW15865   6.378   1.347   0.788
 4989SOL    HW115866   6.445   1.273   0.795
 4989SOL    HW215867   6.362   1.387   0.878
 4990SOL     OW15868   0.878   2.805   5.372
 4990SOL    HW115869   0.809   2.861   5.325
 4990SOL    HW215870   0.873   2.821   5.470
 4991SOL     OW15871   0.313   3.274   4.154
 4991SOL    HW115872   0.396   3.224   4.132
 4991SOL    HW215873   0.240   3.210   4.177
 4992SOL     OW15874   3.522   0.702   5.295
 4992SOL    HW115875   3.587   0.661   5.231
 4992SOL    HW215876   3.550   0.681   5.388
 4993SOL     OW15877   3.067   5.910   3.647
 4993SOL    HW115878   3.090   5.857   3.565
 4993SOL    HW215879   3.063   5.848   3.726
 4994SOL     OW15880   0.807   6.519   2.804
 4994SOL    HW115881   0.854   6.599   2.766
 4994SOL    HW215882   0.732   6.492   2.744
 4995SOL     OW15883   6.812   2.920   6.473
 4995SOL    HW115884   6.732   2.967   6.436
 4995SOL    HW215885   6.805   2.822   6.454
 4996SOL     OW15886   0.702   2.350   1.885
 4996SOL    HW115887   0.738   2.413   1.954
 4996SOL    HW215888   0.602   2.353   1.886
 4997SOL     OW15889   6.853   2.113   2.589
 4997SOL    HW115890   6.791   2.136   2.514
 4997SOL    HW215891   6.881   2.017   2.581
 4998SOL     OW15892   1.604   5.088   4.927
 4998SOL    HW115893   1.520   5.139   4.913
 4998SOL    HW215894   1.682   5.149   4.919
 4999SOL     OW15895   5.195   5.663   0.763
 4999SOL    HW115896   5.251   5.743   0.784
 4999SOL    HW215897   5.206   5.639   0.666
 5000SOL     OW15898   0.889   0.144   5.325
 5000SOL    HW115899   0.824   0.204   5.279
 5000SOL    HW215900   0.840   0.072   5.374
 5001SOL     OW15901   2.241   4.111   5.867
 5001SOL    HW115902   2.174   4.102   5.940
 5001SOL    HW215903   2.282   4.023   5.847
 5002SOL     OW15904   1.946   1.361   2.454
 5002SOL    HW115905   1.936   1.377   2.356
 5002SOL    HW215906   1.890   1.282   2.480
 5003SOL     OW15907   0.098   6.278   2.649
 5003SOL    HW115908   0.147   6.365   2.642
 5003SOL    HW215909   0.113   6.224   2.566
 5004SOL     OW15910   2.548   5.889   6.326
 5004SOL    HW115911   2.580   5.801   6.290
 5004SOL    HW215912   2.473   5.922   6.270
 5005SOL     OW15913   4.331   3.137   0.560
 5005SOL    HW115914   4.426   3.143   0.592
 5005SOL    HW215915   4.281   3.070   0.613
 5006SOL     OW15916   5.359   0.011   5.215
 5006SOL    HW115917   5.302   6.965   5.168
 5006SOL    HW215918   5.436   0.036   5.156
 5007SOL     OW15919   4.071   0.931   6.013
 5007SOL    HW115920   4.085   0.852   5.954
 5007SOL    HW215921   4.160   0.964   6.047
 5008SOL     OW15922   5.825   1.215   3.239
 5008SOL    HW115923   5.736   1.170   3.251
 5008SOL    HW215924   5.853   1.208   3.143
 5009SOL     OW15925   0.785   6.179   1.794
 5009SOL    HW115926   0.877   6.174   1.755
 5009SOL    HW215927   0.745   6.087   1.799
 5010SOL     OW15928   3.714   3.885   3.796
 5010SOL    HW115929   3.785   3.814   3.799
 5010SOL    HW215930   3.696   3.918   3.888
 5011SOL     OW15931   0.683   3.094   2.057
 5011SOL    HW115932   0.673   3.080   2.156
 5011SOL    HW215933   0.776   3.127   2.038
 5012SOL     OW15934   6.945   2.895   6.186
 5012SOL    HW115935   7.016   2.964   6.206
 5012SOL    HW215936   6.864   2.914   6.241
 5013SOL     OW15937   3.860   1.009   6.431
 5013SOL    HW115938   3.945   0.987   6.478
 5013SOL    HW215939   3.800   0.929   6.431
 5014SOL     OW15940   6.070   5.924   0.517
 5014SOL    HW115941   5.972   5.938   0.531
 5014SOL    HW215942   6.093   5.829   0.536
 5015SOL     OW15943   4.306   2.069   3.725
 5015SOL    HW115944   4.277   1.986   3.773
 5015SOL    HW215945   4.236   2.139   3.733
 5016SOL     OW15946   1.786   0.437   2.815
 5016SOL    HW115947   1.809   0.526   2.853
 5016SOL    HW215948   1.765   0.373   2.889
 5017SOL     OW15949   2.633   2.055   0.612
 5017SOL    HW115950   2.707   1.988   0.611
 5017SOL    HW215951   2.598   2.064   0.705
 5018SOL     OW15952   0.083   4.237   2.848
 5018SOL    HW115953   0.008   4.222   2.783
 5018SOL    HW215954   0.063   4.186   2.932
 5019SOL     OW15955   2.746   4.081   0.971
 5019SOL    HW115956   2.687   4.099   1.051
 5019SOL    HW215957   2.710   4.003   0.921
 5020SOL     OW15958   4.812   5.281   6.304
 5020SOL    HW115959   4.713   5.283   6.289
 5020SOL    HW215960   4.835   5.341   6.380
 5021SOL     OW15961   1.885   4.771   5.778
 5021SOL    HW115962   1.888   4.712   5.698
 5021SOL    HW215963   1.968   4.759   5.833
 5022SOL     OW15964   1.881   6.433   0.667
 5022SOL    HW115965   1.901   6.350   0.615
 5022SOL    HW215966   1.783   6.452   0.663
 5023SOL     OW15967   6.378   2.750   0.833
 5023SOL    HW115968   6.286   2.766   0.871
 5023SOL    HW215969   6.407   2.657   0.856
 5024SOL     OW15970   6.736   4.275   3.568
 5024SOL    HW115971   6.643   4.242   3.579
 5024SOL    HW215972   6.780   4.284   3.657
 5025SOL     OW15973   5.166   1.335   3.257
 5025SOL    HW115974   5.088   1.375   3.306
 5025SOL    HW215975   5.215   1.406   3.208
 5026SOL     OW15976   6.037   5.677   4.470
 5026SOL    HW115977   5.982   5.692   4.552
 5026SOL    HW215978   6.099   5.600   4.485
 5027SOL     OW15979   0.224   6.662   3.163
 5027SOL    HW115980   0.246   6.652   3.260
 5027SOL    HW215981   0.235   6.574   3.117
 5028SOL     OW15982   0.369   6.260   2.253
 5028SOL    HW115983   0.464   6.284   2.232
 5028SOL    HW215984   0.319   6.343   2.280
 5029SOL     OW15985   0.277   2.710   1.505
 5029SOL    HW115986   0.202   2.690   1.568
 5029SOL    HW215987   0.281   2.639   1.435
 5030SOL     OW15988   6.371   0.282   6.897
 5030SOL    HW115989   6.451   0.338   6.918
 5030SOL    HW215990   6.385   0.236   6.809
 5031SOL     OW15991   5.711   0.621   4.331
 5031SOL    HW115992   5.729   0.612   4.429
 5031SOL    HW215993   5.660   0.705   4.314
 5032SOL     OW15994   1.645   5.248   0.675
 5032SOL    HW115995   1.693   5.298   0.747
 5032SOL    HW215996   1.700   5.170   0.646
 5033SOL     OW15997   2.559   4.554   5.596
 5033SOL    HW115998   2.581   4.470   5.546
 5033SOL    HW215999   2.461   4.557   5.615
 5034SOL     OW16000   6.239   2.029   2.130
 5034SOL    HW116001   6.167   2.095   2.153
 5034SOL    HW216002   6.230   2.002   2.034
 5035SOL     OW16003   4.652   5.315   0.500
 5035SOL    HW116004   4.746   5.349   0.510
 5035SOL    HW216005   4.614   5.349   0.414
 5036SOL     OW16006   0.735   6.229   0.400
 5036SOL    HW116007   0.834   6.239   0.395
 5036SOL    HW216008   0.693   6.269   0.319
 5037SOL     OW16009   4.055   1.496   3.608
 5037SOL    HW116010   4.055   1.568   3.678
 5037SOL    HW216011   4.026   1.410   3.648
 5038SOL     OW16012   1.332   5.887   5.683
 5038SOL    HW116013   1.428   5.913   5.692
 5038SOL    HW216014   1.325   5.789   5.663
 5039SOL     OW16015   2.320   3.021   5.418
 5039SOL    HW116016   2.233   3.024   5.368
 5039SOL    HW216017   2.394   3.050   5.357
 5040SOL     OW16018   2.982   3.453   6.598
 5040SOL    HW116019   2.971   3.421   6.692
 5040SOL    HW216020   3.035   3.537   6.598
 5041SOL     OW16021   1.034   3.587   1.456
 5041SOL    HW116022   0.957   3.523   1.458
 5041SOL    HW216023   1.013   3.664   1.396
 5042SOL     OW16024   5.668   3.660   6.498
 5042SOL    HW116025   5.761   3.652   6.463
 5042SOL    HW216026   5.612   3.585   6.461
 5043SOL     OW16027   3.672   0.815   3.744
 5043SOL    HW116028   3.699   0.719   3.732
 5043SOL    HW216029   3.725   0.872   3.681
 5044SOL     OW16030   6.195   5.723   3.724
 5044SOL    HW116031   6.134   5.747   3.799
 5044SOL    HW216032   6.220   5.627   3.731
 5045SOL     OW16033   6.062   3.607   0.290
 5045SOL    HW116034   6.105   3.652   0.369
 5045SOL    HW216035   6.133   3.559   0.237
 5046SOL     OW16036   3.577   3.064   5.213
 5046SOL    HW116037   3.669   3.096   5.191
 5046SOL    HW216038   3.581   2.999   5.289
 5047SOL     OW16039   6.103   0.225   2.761
 5047SOL    HW116040   6.071   0.211   2.855
 5047SOL    HW216041   6.199   0.200   2.755
 5048SOL     OW16042   0.080   2.034   1.675
 5048SOL    HW116043   0.061   2.077   1.763
 5048SOL    HW216044   0.167   1.986   1.679
 5049SOL     OW16045   1.109   2.061   1.931
 5049SOL    HW116046   1.081   2.095   1.842
 5049SOL    HW216047   1.209   2.070   1.941
 5050SOL     OW16048   0.493   2.283   1.488
 5050SOL    HW116049   0.586   2.248   1.477
 5050SOL    HW216050   0.428   2.211   1.466
 5051SOL     OW16051   2.980   4.246   0.953
 5051SOL    HW116052   3.049   4.204   0.895
 5051SOL    HW216053   2.893   4.200   0.941
 5052SOL     OW16054   4.331   5.077   0.775
 5052SOL    HW116055   4.285   5.118   0.696
 5052SOL    HW216056   4.404   5.017   0.742
 5053SOL     OW16057   2.682   4.124   1.645
 5053SOL    HW116058   2.609   4.087   1.703
 5053SOL    HW216059   2.702   4.219   1.671
 5054SOL     OW16060   3.399   6.174   4.623
 5054SOL    HW116061   3.451   6.229   4.558
 5054SOL    HW216062   3.404   6.078   4.596
 5055SOL     OW16063   1.000   2.212   5.098
 5055SOL    HW116064   0.910   2.224   5.057
 5055SOL    HW216065   1.071   2.232   5.030
 5056SOL     OW16066   0.178   3.876   5.925
 5056SOL    HW116067   0.249   3.924   5.874
 5056SOL    HW216068   0.215   3.789   5.958
 5057SOL     OW16069   0.758   6.065   3.888
 5057SOL    HW116070   0.721   6.033   3.975
 5057SOL    HW216071   0.721   6.010   3.814
 5058SOL     OW16072   4.246   3.810   6.546
 5058SOL    HW116073   4.151   3.838   6.551
 5058SOL    HW216074   4.254   3.714   6.575
 5059SOL     OW16075   3.637   2.070   5.099
 5059SOL    HW116076   3.591   2.009   5.164
 5059SOL    HW216077   3.705   2.019   5.047
 5060SOL     OW16078   0.524   3.407   5.241
 5060SOL    HW116079   0.565   3.475   5.180
 5060SOL    HW216080   0.594   3.342   5.270
 5061SOL     OW16081   3.543   3.774   4.739
 5061SOL    HW116082   3.601   3.772   4.820
 5061SOL    HW216083   3.600   3.759   4.658
 5062SOL     OW16084   4.683   1.088   2.934
 5062SOL    HW116085   4.768   1.140   2.935
 5062SOL    HW216086   4.696   1.005   2.878
 5063SOL     OW16087   0.974   6.263   2.224
 5063SOL    HW116088   0.980   6.277   2.125
 5063SOL    HW216089   0.982   6.351   2.270
 5064SOL     OW16090   4.659   5.781   0.675
 5064SOL    HW116091   4.729   5.849   0.655
 5064SOL    HW216092   4.701   5.694   0.700
 5065SOL     OW16093   2.456   6.773   3.301
 5065SOL    HW116094   2.371   6.740   3.259
 5065SOL    HW216095   2.534   6.742   3.246
 5066SOL     OW16096   2.123   4.591   1.817
 5066SOL    HW116097   2.058   4.666   1.804
 5066SOL    HW216098   2.095   4.535   1.895
 5067SOL     OW16099   4.446   2.276   1.451
 5067SOL    HW116100   4.351   2.248   1.465
 5067SOL    HW216101   4.449   2.363   1.402
 5068SOL     OW16102   3.671   6.165   0.437
 5068SOL    HW116103   3.621   6.094   0.487
 5068SOL    HW216104   3.675   6.141   0.340
 5069SOL     OW16105   3.069   4.201   6.454
 5069SOL    HW116106   3.065   4.260   6.374
 5069SOL    HW216107   2.978   4.196   6.496
 5070SOL     OW16108   5.662   3.151   4.064
 5070SOL    HW116109   5.578   3.098   4.071
 5070SOL    HW216110   5.648   3.243   4.103
 5071SOL     OW16111   3.565   1.371   3.691
 5071SOL    HW116112   3.470   1.354   3.664
 5071SOL    HW216113   3.577   1.469   3.711
 5072SOL     OW16114   1.490   1.065   1.344
 5072SOL    HW116115   1.412   1.029   1.294
 5072SOL    HW216116   1.563   0.996   1.346
 5073SOL     OW16117   2.835   6.594   2.462
 5073SOL    HW116118   2.772   6.519   2.485
 5073SOL    HW216119   2.907   6.600   2.531
 5074SOL     OW16120   3.834   2.219   1.661
 5074SOL    HW116121   3.848   2.124   1.690
 5074SOL    HW216122   3.768   2.263   1.721
 5075SOL     OW16123   1.885   3.462   6.871
 5075SOL    HW116124   1.869   3.380   6.816
 5075SOL    HW216125   1.953   3.441   6.942
 5076SOL     OW16126   5.240   1.133   0.404
 5076SOL    HW116127   5.224   1.154   0.501
 5076SOL    HW216128   5.173   1.182   0.348
 5077SOL     OW16129   1.408   4.645   4.457
 5077SOL    HW116130   1.501   4.645   4.495
 5077SOL    HW216131   1.407   4.697   4.372
 5078SOL     OW16132   0.595   1.132   3.875
 5078SOL    HW116133   0.649   1.206   3.835
 5078SOL    HW216134   0.552   1.163   3.959
 5079SOL     OW16135   1.796   2.617   5.902
 5079SOL    HW116136   1.766   2.525   5.875
 5079SOL    HW216137   1.716   2.677   5.909
 5080SOL     OW16138   6.396   5.257   6.037
 5080SOL    HW116139   6.332   5.181   6.027
 5080SOL    HW216140   6.463   5.254   5.963
 5081SOL     OW16141   3.675   6.201   5.086
 5081SOL    HW116142   3.600   6.221   5.023
 5081SOL    HW216143   3.650   6.232   5.178
 5082SOL     OW16144   4.919   6.491   0.960
 5082SOL    HW116145   4.868   6.433   1.023
 5082SOL    HW216146   4.856   6.555   0.915
 5083SOL     OW16147   2.454   0.610   2.608
 5083SOL    HW116148   2.457   0.710   2.599
 5083SOL    HW216149   2.531   0.570   2.558
 5084SOL     OW16150   0.805   5.231   5.209
 5084SOL    HW116151   0.834   5.313   5.161
 5084SOL    HW216152   0.755   5.171   5.146
 5085SOL     OW16153   1.477   3.703   6.196
 5085SOL    HW116154   1.430   3.789   6.214
 5085SOL    HW216155   1.576   3.720   6.194
 5086SOL     OW16156   0.993   4.774   2.419
 5086SOL    HW116157   1.030   4.685   2.395
 5086SOL    HW216158   0.972   4.825   2.336
 5087SOL     OW16159   6.768   5.679   2.403
 5087SOL    HW116160   6.829   5.614   2.448
 5087SOL    HW216161   6.674   5.659   2.429
 5088SOL     OW16162   4.336   6.084   2.090
 5088SOL    HW116163   4.318   6.015   2.020
 5088SOL    HW216164   4.426   6.125   2.074
 5089SOL     OW16165   5.532   4.127   4.599
 5089SOL    HW116166   5.478   4.104   4.518
 5089SOL    HW216167   5.617   4.076   4.599
 5090SOL     OW16168   1.777   0.226   3.332
 5090SOL    HW116169   1.715   0.297   3.298
 5090SOL    HW216170   1.772   0.146   3.273
 5091SOL     OW16171   6.584   0.066   0.230
 5091SOL    HW116172   6.567   0.104   0.321
 5091SOL    HW216173   6.612   6.992   0.238
 5092SOL     OW16174   3.717   3.769   4.496
 5092SOL    HW116175   3.775   3.841   4.532
 5092SOL    HW216176   3.767   3.717   4.426
 5093SOL     OW16177   1.781   1.570   2.894
 5093SOL    HW116178   1.798   1.473   2.881
 5093SOL    HW216179   1.773   1.615   2.805
 5094SOL     OW16180   2.658   5.658   6.242
 5094SOL    HW116181   2.733   5.594   6.260
 5094SOL    HW216182   2.578   5.607   6.210
 5095SOL     OW16183   0.406   1.280   3.560
 5095SOL    HW116184   0.319   1.246   3.526
 5095SOL    HW216185   0.392   1.332   3.644
 5096SOL     OW16186   5.241   3.905   6.095
 5096SOL    HW116187   5.283   3.993   6.071
 5096SOL    HW216188   5.141   3.917   6.100
 5097SOL     OW16189   6.358   0.009   6.201
 5097SOL    HW116190   6.419   0.076   6.158
 5097SOL    HW216191   6.353   0.026   6.299
 5098SOL     OW16192   3.708   1.928   1.902
 5098SOL    HW116193   3.730   1.859   1.971
 5098SOL    HW216194   3.700   2.018   1.946
 5099SOL     OW16195   0.504   5.813   1.487
 5099SOL    HW116196   0.490   5.816   1.586
 5099SOL    HW216197   0.496   5.718   1.455
 5100SOL     OW16198   5.045   4.649   2.757
 5100SOL    HW116199   4.998   4.637   2.845
 5100SOL    HW216200   4.992   4.708   2.698
 5101SOL     OW16201   4.091   0.327   5.613
 5101SOL    HW116202   4.025   0.403   5.610
 5101SOL    HW216203   4.158   0.344   5.685
 5102SOL     OW16204   4.903   5.316   4.081
 5102SOL    HW116205   4.934   5.228   4.044
 5102SOL    HW216206   4.954   5.338   4.164
 5103SOL     OW16207   0.766   0.910   5.327
 5103SOL    HW116208   0.825   0.991   5.330
 5103SOL    HW216209   0.737   0.893   5.233
 5104SOL     OW16210   3.599   5.838   1.921
 5104SOL    HW116211   3.630   5.933   1.920
 5104SOL    HW216212   3.653   5.785   1.856
 5105SOL     OW16213   3.623   3.475   0.004
 5105SOL    HW116214   3.610   3.485   0.103
 5105SOL    HW216215   3.603   3.561   6.979
 5106SOL     OW16216   4.194   2.311   0.621
 5106SOL    HW116217   4.238   2.398   0.600
 5106SOL    HW216218   4.095   2.325   0.631
 5107SOL     OW16219   5.196   2.518   1.452
 5107SOL    HW116220   5.169   2.586   1.520
 5107SOL    HW216221   5.146   2.433   1.469
 5108SOL     OW16222   4.593   3.979   6.322
 5108SOL    HW116223   4.659   4.010   6.390
 5108SOL    HW216224   4.501   4.011   6.348
 5109SOL     OW16225   1.893   3.020   1.316
 5109SOL    HW116226   1.901   3.120   1.315
 5109SOL    HW216227   1.919   2.984   1.226
 5110SOL     OW16228   6.028   6.854   6.415
 5110SOL    HW116229   6.076   6.840   6.329
 5110SOL    HW216230   5.939   6.809   6.411
 5111SOL     OW16231   1.346   5.859   4.973
 5111SOL    HW116232   1.391   5.834   5.058
 5111SOL    HW216233   1.265   5.802   4.960
 5112SOL     OW16234   0.487   0.325   3.154
 5112SOL    HW116235   0.569   0.270   3.170
 5112SOL    HW216236   0.485   0.401   3.219
 5113SOL     OW16237   1.809   5.032   0.706
 5113SOL    HW116238   1.752   4.955   0.734
 5113SOL    HW216239   1.898   5.025   0.750
 5114SOL     OW16240   4.025   0.090   0.545
 5114SOL    HW116241   4.010   0.034   0.627
 5114SOL    HW216242   4.119   0.123   0.544
 5115SOL     OW16243   2.158   3.685   1.541
 5115SOL    HW116244   2.113   3.703   1.628
 5115SOL    HW216245   2.248   3.644   1.559
 5116SOL     OW16246   2.726   6.894   6.544
 5116SOL    HW116247   2.679   6.834   6.609
 5116SOL    HW216248   2.731   6.849   6.455
 5117SOL     OW16249   0.915   3.129   4.209
 5117SOL    HW116250   1.000   3.123   4.261
 5117SOL    HW216251   0.842   3.082   4.259
 5118SOL     OW16252   5.879   0.535   6.978
 5118SOL    HW116253   5.855   0.486   0.041
 5118SOL    HW216254   5.968   0.502   6.946
 5119SOL     OW16255   5.356   2.083   0.076
 5119SOL    HW116256   5.273   2.091   0.130
 5119SOL    HW216257   5.352   2.001   0.020
 5120SOL     OW16258   5.247   0.693   4.936
 5120SOL    HW116259   5.279   0.700   4.841
 5120SOL    HW216260   5.235   0.597   4.960
 5121SOL     OW16261   3.181   3.748   0.337
 5121SOL    HW116262   3.185   3.830   0.281
 5121SOL    HW216263   3.160   3.773   0.432
 5122SOL     OW16264   4.096   5.548   3.080
 5122SOL    HW116265   4.175   5.543   3.141
 5122SOL    HW216266   4.065   5.456   3.058
 5123SOL     OW16267   5.381   1.794   2.137
 5123SOL    HW116268   5.312   1.760   2.073
 5123SOL    HW216269   5.339   1.860   2.199
 5124SOL     OW16270   1.766   6.420   4.194
 5124SOL    HW116271   1.751   6.519   4.202
 5124SOL    HW216272   1.857   6.398   4.229
 5125SOL     OW16273   0.511   2.088   4.134
 5125SOL    HW116274   0.559   2.048   4.056
 5125SOL    HW216275   0.413   2.075   4.123
 5126SOL     OW16276   1.893   6.971   0.545
 5126SOL    HW116277   1.883   6.970   0.446
 5126SOL    HW216278   1.825   6.911   0.586
 5127SOL     OW16279   2.082   5.544   0.490
 5127SOL    HW116280   2.045   5.510   0.576
 5127SOL    HW216281   2.025   5.512   0.414
 5128SOL     OW16282   6.861   5.930   1.198
 5128SOL    HW116283   6.767   5.965   1.206
 5128SOL    HW216284   6.887   5.883   1.282
 5129SOL     OW16285   4.500   5.922   1.248
 5129SOL    HW116286   4.584   5.899   1.200
 5129SOL    HW216287   4.516   5.999   1.310
 5130SOL     OW16288   6.626   4.803   2.588
 5130SOL    HW116289   6.671   4.714   2.589
 5130SOL    HW216290   6.567   4.809   2.507
 5131SOL     OW16291   0.930   2.991   3.383
 5131SOL    HW116292   0.880   3.028   3.304
 5131SOL    HW216293   0.931   2.892   3.377
 5132SOL     OW16294   3.597   4.302   6.413
 5132SOL    HW116295   3.659   4.228   6.440
 5132SOL    HW216296   3.600   4.374   6.482
 5133SOL     OW16297   3.479   5.597   6.584
 5133SOL    HW116298   3.550   5.645   6.532
 5133SOL    HW216299   3.397   5.655   6.590
 5134SOL     OW16300   0.442   2.952   1.343
 5134SOL    HW116301   0.433   2.867   1.292
 5134SOL    HW216302   0.512   2.942   1.414
 5135SOL     OW16303   6.916   2.305   5.506
 5135SOL    HW116304   6.969   2.367   5.564
 5135SOL    HW216305   6.862   2.245   5.564
 5136SOL     OW16306   5.304   0.636   4.602
 5136SOL    HW116307   5.228   0.628   4.537
 5136SOL    HW216308   5.316   0.550   4.651
 5137SOL     OW16309   5.362   3.917   6.378
 5137SOL    HW116310   5.415   3.977   6.318
 5137SOL    HW216311   5.314   3.848   6.324
 5138SOL     OW16312   3.783   3.261   6.618
 5138SOL    HW116313   3.708   3.248   6.552
 5138SOL    HW216314   3.860   3.204   6.591
 5139SOL     OW16315   1.981   0.052   4.107
 5139SOL    HW116316   2.001   7.013   4.030
 5139SOL    HW216317   1.882   0.050   4.126
 5140SOL     OW16318   3.198   1.908   0.670
 5140SOL    HW116319   3.112   1.957   0.661
 5140SOL    HW216320   3.204   1.866   0.760
 5141SOL     OW16321   5.607   3.828   1.469
 5141SOL    HW116322   5.605   3.920   1.509
 5141SOL    HW216323   5.523   3.779   1.493
 5142SOL     OW16324   5.979   3.006   4.375
 5142SOL    HW116325   5.970   3.020   4.473
 5142SOL    HW216326   5.949   3.087   4.326
 5143SOL     OW16327   1.079   4.869   4.079
 5143SOL    HW116328   1.108   4.908   4.166
 5143SOL    HW216329   1.091   4.937   4.007
 5144SOL     OW16330   1.397   6.826   6.393
 5144SOL    HW116331   1.398   6.820   6.493
 5144SOL    HW216332   1.450   6.750   6.354
 5145SOL     OW16333   2.087   5.315   6.385
 5145SOL    HW116334   1.995   5.337   6.351
 5145SOL    HW216335   2.081   5.241   6.452
 5146SOL     OW16336   3.732   3.848   6.532
 5146SOL    HW116337   3.731   3.756   6.572
 5146SOL    HW216338   3.684   3.847   6.445
 5147SOL     OW16339   6.812   4.813   1.036
 5147SOL    HW116340   6.817   4.724   1.081
 5147SOL    HW216341   6.892   4.868   1.060
 5148SOL     OW16342   0.107   6.013   1.200
 5148SOL    HW116343   0.012   6.000   1.227
 5148SOL    HW216344   0.142   6.097   1.241
 5149SOL     OW16345   6.589   0.610   3.149
 5149SOL    HW116346   6.688   0.614   3.157
 5149SOL    HW216347   6.553   0.540   3.210
 5150SOL     OW16348   1.998   5.753   4.137
 5150SOL    HW116349   1.974   5.773   4.232
 5150SOL    HW216350   2.050   5.829   4.099
 5151SOL     OW16351   5.271   1.564   6.671
 5151SOL    HW116352   5.341   1.554   6.742
 5151SOL    HW216353   5.308   1.616   6.594
 5152SOL     OW16354   1.719   4.612   0.314
 5152SOL    HW116355   1.791   4.545   0.331
 5152SOL    HW216356   1.744   4.699   0.356
 5153SOL     OW16357   2.038   2.379   0.507
 5153SOL    HW116358   2.135   2.401   0.499
 5153SOL    HW216359   2.028   2.290   0.551
 5154SOL     OW16360   1.813   3.654   6.199
 5154SOL    HW116361   1.849   3.576   6.148
 5154SOL    HW216362   1.857   3.738   6.167
 5155SOL     OW16363   4.062   6.134   2.160
 5155SOL    HW116364   4.065   6.204   2.232
 5155SOL    HW216365   4.154   6.103   2.140
 5156SOL     OW16366   6.537   2.231   6.248
 5156SOL    HW116367   6.477   2.303   6.214
 5156SOL    HW216368   6.506   2.142   6.214
 5157SOL     OW16369   4.707   2.850   3.749
 5157SOL    HW116370   4.773   2.821   3.680
 5157SOL    HW216371   4.615   2.824   3.720
 5158SOL     OW16372   3.070   1.788   1.269
 5158SOL    HW116373   3.032   1.750   1.353
 5158SOL    HW216374   3.165   1.757   1.259
 5159SOL     OW16375   0.487   3.073   3.869
 5159SOL    HW116376   0.464   3.079   3.772
 5159SOL    HW216377   0.549   3.148   3.894
 5160SOL     OW16378   1.471   3.621   4.251
 5160SOL    HW116379   1.422   3.668   4.324
 5160SOL    HW216380   1.488   3.526   4.278
 5161SOL     OW16381   1.088   4.015   5.612
 5161SOL    HW116382   1.134   4.003   5.524
 5161SOL    HW216383   1.066   3.925   5.650
 5162SOL     OW16384   6.622   5.118   4.124
 5162SOL    HW116385   6.627   5.146   4.220
 5162SOL    HW216386   6.688   5.171   4.071
 5163SOL     OW16387   4.816   4.986   1.012
 5163SOL    HW116388   4.801   5.022   1.104
 5163SOL    HW216389   4.816   4.886   1.014
 5164SOL     OW16390   5.319   2.480   5.141
 5164SOL    HW116391   5.274   2.568   5.127
 5164SOL    HW216392   5.398   2.492   5.201
 5165SOL     OW16393   6.063   4.723   5.055
 5165SOL    HW116394   6.097   4.657   4.987
 5165SOL    HW216395   5.975   4.760   5.024
 5166SOL     OW16396   1.613   4.934   1.559
 5166SOL    HW116397   1.573   5.025   1.549
 5166SOL    HW216398   1.711   4.937   1.539
 5167SOL     OW16399   6.166   6.498   5.584
 5167SOL    HW116400   6.099   6.566   5.554
 5167SOL    HW216401   6.200   6.522   5.675
 5168SOL     OW16402   4.301   2.172   3.262
 5168SOL    HW116403   4.356   2.177   3.346
 5168SOL    HW216404   4.332   2.241   3.197
 5169SOL     OW16405   3.374   3.832   6.415
 5169SOL    HW116406   3.440   3.892   6.371
 5169SOL    HW216407   3.317   3.886   6.478
 5170SOL     OW16408   6.785   4.463   5.207
 5170SOL    HW116409   6.749   4.555   5.222
 5170SOL    HW216410   6.838   4.435   5.286
 5171SOL     OW16411   2.336   4.456   4.455
 5171SOL    HW116412   2.328   4.364   4.417
 5171SOL    HW216413   2.330   4.451   4.555
 5172SOL     OW16414   0.645   3.349   1.792
 5172SOL    HW116415   0.671   3.413   1.864
 5172SOL    HW216416   0.546   3.333   1.796
 5173SOL     OW16417   5.700   4.398   6.109
 5173SOL    HW116418   5.608   4.417   6.143
 5173SOL    HW216419   5.761   4.472   6.136
 5174SOL     OW16420   1.802   4.929   5.070
 5174SOL    HW116421   1.736   5.004   5.060
 5174SOL    HW216422   1.890   4.965   5.100
 5175SOL     OW16423   2.103   4.142   6.905
 5175SOL    HW116424   2.023   4.190   6.869
 5175SOL    HW216425   2.137   4.077   6.838
 5176SOL     OW16426   4.297   3.550   0.619
 5176SOL    HW116427   4.216   3.506   0.583
 5176SOL    HW216428   4.324   3.625   0.558
 5177SOL     OW16429   4.885   6.854   5.602
 5177SOL    HW116430   4.923   6.764   5.624
 5177SOL    HW216431   4.903   6.917   5.677
 5178SOL     OW16432   2.383   2.647   1.632
 5178SOL    HW116433   2.397   2.578   1.561
 5178SOL    HW216434   2.434   2.730   1.608
 5179SOL     OW16435   4.587   6.705   5.501
 5179SOL    HW116436   4.643   6.787   5.515
 5179SOL    HW216437   4.563   6.666   5.590
 5180SOL     OW16438   3.384   2.333   6.982
 5180SOL    HW116439   3.430   2.282   6.909
 5180SOL    HW216440   3.396   2.431   6.967
 5181SOL     OW16441   3.716   0.477   2.662
 5181SOL    HW116442   3.723   0.502   2.566
 5181SOL    HW216443   3.722   0.378   2.671
 5182SOL     OW16444   5.787   4.754   1.661
 5182SOL    HW116445   5.855   4.684   1.637
 5182SOL    HW216446   5.740   4.727   1.744
 5183SOL     OW16447   4.548   6.900   2.093
 5183SOL    HW116448   4.495   6.834   2.040
 5183SOL    HW216449   4.612   6.851   2.152
 5184SOL     OW16450   0.926   1.206   3.377
 5184SOL    HW116451   0.854   1.177   3.313
 5184SOL    HW216452   0.929   1.143   3.454
 5185SOL     OW16453   3.657   6.795   2.550
 5185SOL    HW116454   3.681   6.789   2.646
 5185SOL    HW216455   3.731   6.757   2.494
 5186SOL     OW16456   6.651   3.547   1.365
 5186SOL    HW116457   6.614   3.608   1.294
 5186SOL    HW216458   6.625   3.453   1.345
 5187SOL     OW16459   6.861   1.783   3.249
 5187SOL    HW116460   6.879   1.834   3.165
 5187SOL    HW216461   6.900   1.691   3.242
 5188SOL     OW16462   0.091   5.315   6.986
 5188SOL    HW116463   0.127   5.237   6.935
 5188SOL    HW216464   0.163   5.353   0.023
 5189SOL     OW16465   5.068   4.917   6.299
 5189SOL    HW116466   5.131   4.845   6.329
 5189SOL    HW216467   5.080   4.997   6.359
 5190SOL     OW16468   0.906   2.054   4.144
 5190SOL    HW116469   0.922   1.983   4.075
 5190SOL    HW216470   0.864   2.134   4.101
 5191SOL     OW16471   3.324   1.564   2.073
 5191SOL    HW116472   3.263   1.524   2.141
 5191SOL    HW216473   3.353   1.655   2.102
 5192SOL     OW16474   5.676   5.783   2.775
 5192SOL    HW116475   5.595   5.783   2.834
 5192SOL    HW216476   5.741   5.715   2.808
 5193SOL     OW16477   4.518   4.396   3.707
 5193SOL    HW116478   4.557   4.322   3.761
 5193SOL    HW216479   4.581   4.474   3.708
 5194SOL     OW16480   4.862   1.268   5.886
 5194SOL    HW116481   4.930   1.341   5.875
 5194SOL    HW216482   4.872   1.202   5.811
 5195SOL     OW16483   6.608   6.744   4.718
 5195SOL    HW116484   6.528   6.686   4.712
 5195SOL    HW216485   6.628   6.765   4.813
 5196SOL     OW16486   0.811   4.398   1.803
 5196SOL    HW116487   0.890   4.356   1.847
 5196SOL    HW216488   0.737   4.410   1.870
 5197SOL     OW16489   2.035   6.485   4.994
 5197SOL    HW116490   2.020   6.436   5.079
 5197SOL    HW216491   1.955   6.474   4.934
 5198SOL     OW16492   2.960   6.352   5.125
 5198SOL    HW116493   2.938   6.348   5.027
 5198SOL    HW216494   2.948   6.446   5.158
 5199SOL     OW16495   1.995   5.656   1.539
 5199SOL    HW116496   2.047   5.711   1.473
 5199SOL    HW216497   1.963   5.573   1.494
 5200SOL     OW16498   0.768   1.532   4.693
 5200SOL    HW116499   0.799   1.453   4.641
 5200SOL    HW216500   0.813   1.614   4.659
 5201SOL     OW16501   5.500   5.101   3.961
 5201SOL    HW116502   5.513   5.031   4.032
 5201SOL    HW216503   5.472   5.056   3.876
 5202SOL     OW16504   4.867   3.362   6.937
 5202SOL    HW116505   4.827   3.293   6.876
 5202SOL    HW216506   4.931   3.418   6.885
 5203SOL     OW16507   1.667   0.380   0.492
 5203SOL    HW116508   1.710   0.469   0.482
 5203SOL    HW216509   1.625   0.353   0.405
 5204SOL     OW16510   3.551   0.107   6.373
 5204SOL    HW116511   3.480   0.043   6.402
 5204SOL    HW216512   3.520   0.201   6.389
 5205SOL     OW16513   6.483   5.800   0.941
 5205SOL    HW116514   6.437   5.881   0.978
 5205SOL    HW216515   6.419   5.723   0.940
 5206SOL     OW16516   0.375   4.562   4.889
 5206SOL    HW116517   0.436   4.488   4.915
 5206SOL    HW216518   0.313   4.583   4.965
 5207SOL     OW16519   0.058   7.004   4.506
 5207SOL    HW116520   0.118   0.057   4.535
 5207SOL    HW216521   7.013   0.017   4.439
 5208SOL     OW16522   4.889   2.377   0.209
 5208SOL    HW116523   4.829   2.309   0.252
 5208SOL    HW216524   4.841   2.422   0.134
 5209SOL     OW16525   5.148   6.615   3.295
 5209SOL    HW116526   5.199   6.632   3.380
 5209SOL    HW216527   5.164   6.691   3.232
 5210SOL     OW16528   5.246   4.426   0.949
 5210SOL    HW116529   5.184   4.492   0.906
 5210SOL    HW216530   5.313   4.476   1.005
 5211SOL     OW16531   4.873   1.965   4.171
 5211SOL    HW116532   4.814   2.037   4.207
 5211SOL    HW216533   4.935   1.933   4.244
 5212SOL     OW16534   1.587   2.609   0.603
 5212SOL    HW116535   1.510   2.659   0.642
 5212SOL    HW216536   1.628   2.551   0.674
 5213SOL     OW16537   4.016   3.177   2.804
 5213SOL    HW116538   3.923   3.166   2.836
 5213SOL    HW216539   4.080   3.153   2.876
 5214SOL     OW16540   5.543   4.393   6.593
 5214SOL    HW116541   5.545   4.416   6.691
 5214SOL    HW216542   5.450   4.370   6.567
 5215SOL     OW16543   6.545   3.380   4.703
 5215SOL    HW116544   6.583   3.374   4.611
 5215SOL    HW216545   6.561   3.293   4.751
 5216SOL     OW16546   5.524   4.790   0.951
 5216SOL    HW116547   5.587   4.715   0.973
 5216SOL    HW216548   5.437   4.775   0.999
 5217SOL     OW16549   4.249   5.572   4.058
 5217SOL    HW116550   4.339   5.613   4.069
 5217SOL    HW216551   4.250   5.479   4.095
 5218SOL     OW16552   0.889   0.288   0.920
 5218SOL    HW116553   0.819   0.313   0.853
 5218SOL    HW216554   0.929   0.200   0.894
 5219SOL     OW16555   2.321   2.203   5.021
 5219SOL    HW116556   2.358   2.229   5.110
 5219SOL    HW216557   2.376   2.129   4.983
 5220SOL     OW16558   2.455   4.957   2.935
 5220SOL    HW116559   2.448   4.947   2.836
 5220SOL    HW216560   2.447   5.053   2.960
 5221SOL     OW16561   0.075   0.485   1.681
 5221SOL    HW116562   0.024   0.544   1.619
 5221SOL    HW216563   0.072   0.390   1.648
 5222SOL     OW16564   4.125   4.623   1.407
 5222SOL    HW116565   4.071   4.706   1.421
 5222SOL    HW216566   4.205   4.624   1.467
 5223SOL     OW16567   0.581   2.791   0.771
 5223SOL    HW116568   0.583   2.706   0.719
 5223SOL    HW216569   0.510   2.851   0.734
 5224SOL     OW16570   0.809   1.648   4.301
 5224SOL    HW116571   0.727   1.640   4.243
 5224SOL    HW216572   0.810   1.737   4.346
 5225SOL     OW16573   6.742   1.340   5.022
 5225SOL    HW116574   6.685   1.314   4.944
 5225SOL    HW216575   6.809   1.408   4.993
 5226SOL     OW16576   0.399   5.742   3.801
 5226SOL    HW116577   0.403   5.677   3.876
 5226SOL    HW216578   0.381   5.693   3.715
 5227SOL     OW16579   6.880   3.172   5.095
 5227SOL    HW116580   6.836   3.261   5.099
 5227SOL    HW216581   6.932   3.157   5.179
 5228SOL     OW16582   1.593   2.988   5.573
 5228SOL    HW116583   1.548   3.043   5.503
 5228SOL    HW216584   1.660   3.043   5.621
 5229SOL     OW16585   3.119   0.151   6.247
 5229SOL    HW116586   3.073   0.081   6.303
 5229SOL    HW216587   3.138   0.231   6.303
 5230SOL     OW16588   6.703   0.390   1.714
 5230SOL    HW116589   6.704   0.399   1.615
 5230SOL    HW216590   6.688   0.294   1.739
 5231SOL     OW16591   5.911   1.819   2.819
 5231SOL    HW116592   5.888   1.790   2.727
 5231SOL    HW216593   5.828   1.831   2.873
 5232SOL     OW16594   2.016   3.829   6.049
 5232SOL    HW116595   1.996   3.809   5.953
 5232SOL    HW216596   2.038   3.926   6.059
 5233SOL     OW16597   3.071   0.345   2.780
 5233SOL    HW116598   2.972   0.338   2.764
 5233SOL    HW216599   3.115   0.259   2.753
 5234SOL     OW16600   1.926   2.352   0.879
 5234SOL    HW116601   1.838   2.390   0.904
 5234SOL    HW216602   1.978   2.331   0.962
 5235SOL     OW16603   2.336   1.629   1.221
 5235SOL    HW116604   2.383   1.626   1.309
 5235SOL    HW216605   2.282   1.713   1.215
 5236SOL     OW16606   3.540   5.153   1.934
 5236SOL    HW116607   3.522   5.238   1.983
 5236SOL    HW216608   3.488   5.079   1.975
 5237SOL     OW16609   2.072   2.287   4.791
 5237SOL    HW116610   2.145   2.356   4.789
 5237SOL    HW216611   2.054   2.261   4.886
 5238SOL     OW16612   1.098   5.315   2.651
 5238SOL    HW116613   1.169   5.331   2.583
 5238SOL    HW216614   1.134   5.257   2.724
 5239SOL     OW16615   2.881   3.686   1.894
 5239SOL    HW116616   2.894   3.603   1.947
 5239SOL    HW216617   2.955   3.751   1.913
 5240SOL     OW16618   2.642   2.626   6.074
 5240SOL    HW116619   2.677   2.542   6.033
 5240SOL    HW216620   2.679   2.637   6.166
 5241SOL     OW16621   1.002   5.771   2.547
 5241SOL    HW116622   0.966   5.705   2.613
 5241SOL    HW216623   0.951   5.764   2.462
 5242SOL     OW16624   4.673   0.809   0.683
 5242SOL    HW116625   4.583   0.768   0.670
 5242SOL    HW216626   4.665   0.909   0.682
 5243SOL     OW16627   1.798   6.170   1.694
 5243SOL    HW116628   1.773   6.074   1.706
 5243SOL    HW216629   1.873   6.177   1.629
 5244SOL     OW16630   4.929   3.817   0.515
 5244SOL    HW116631   4.878   3.732   0.525
 5244SOL    HW216632   5.002   3.805   0.448
 5245SOL     OW16633   4.199   4.181   7.006
 5245SOL    HW116634   4.210   4.255   6.940
 5245SOL    HW216635   4.154   4.103   6.962
 5246SOL     OW16636   6.674   2.730   1.270
 5246SOL    HW116637   6.676   2.672   1.352
 5246SOL    HW216638   6.731   2.810   1.285
 5247SOL     OW16639   3.801   1.980   5.856
 5247SOL    HW116640   3.869   1.980   5.929
 5247SOL    HW216641   3.730   1.912   5.877
 5248SOL     OW16642   6.503   1.733   2.645
 5248SOL    HW116643   6.549   1.726   2.557
 5248SOL    HW216644   6.505   1.829   2.676
 5249SOL     OW16645   0.580   4.781   0.237
 5249SOL    HW116646   0.617   4.817   0.322
 5249SOL    HW216647   0.652   4.734   0.186
 5250SOL     OW16648   1.972   5.645   0.200
 5250SOL    HW116649   1.959   5.739   0.231
 5250SOL    HW216650   2.021   5.645   0.113
 5251SOL     OW16651   0.691   3.951   0.909
 5251SOL    HW116652   0.698   3.853   0.889
 5251SOL    HW216653   0.666   4.000   0.826
 5252SOL     OW16654   3.349   6.521   2.283
 5252SOL    HW116655   3.434   6.573   2.280
 5252SOL    HW216656   3.347   6.465   2.366
 5253SOL     OW16657   5.553   4.621   4.609
 5253SOL    HW116658   5.557   4.657   4.703
 5253SOL    HW216659   5.591   4.529   4.607
 5254SOL     OW16660   6.060   6.907   3.091
 5254SOL    HW116661   6.080   6.822   3.041
 5254SOL    HW216662   5.972   6.900   3.137
 5255SOL     OW16663   5.745   1.901   4.931
 5255SOL    HW116664   5.791   1.960   4.997
 5255SOL    HW216665   5.647   1.920   4.932
 5256SOL     OW16666   5.100   0.543   3.188
 5256SOL    HW116667   5.026   0.603   3.220
 5256SOL    HW216668   5.121   0.565   3.092
 5257SOL     OW16669   4.012   0.658   6.658
 5257SOL    HW116670   4.022   0.572   6.606
 5257SOL    HW216671   4.094   0.674   6.712
 5258SOL     OW16672   5.234   1.312   2.495
 5258SOL    HW116673   5.277   1.246   2.434
 5258SOL    HW216674   5.300   1.383   2.520
 5259SOL     OW16675   5.320   5.120   3.038
 5259SOL    HW116676   5.273   5.206   3.057
 5259SOL    HW216677   5.254   5.045   3.044
 5260SOL     OW16678   2.506   6.426   0.208
 5260SOL    HW116679   2.544   6.394   0.121
 5260SOL    HW216680   2.406   6.433   0.200
 5261SOL     OW16681   6.707   4.922   0.536
 5261SOL    HW116682   6.701   4.835   0.487
 5261SOL    HW216683   6.620   4.970   0.530
 5262SOL     OW16684   1.810   0.238   2.638
 5262SOL    HW116685   1.794   0.302   2.713
 5262SOL    HW216686   1.793   0.283   2.551
 5263SOL     OW16687   1.763   1.235   3.722
 5263SOL    HW116688   1.729   1.162   3.663
 5263SOL    HW216689   1.688   1.297   3.744
 5264SOL     OW16690   0.030   2.135   1.422
 5264SOL    HW116691   6.956   2.110   1.403
 5264SOL    HW216692   0.054   2.105   1.515
 5265SOL     OW16693   5.546   2.781   4.620
 5265SOL    HW116694   5.613   2.712   4.645
 5265SOL    HW216695   5.585   2.872   4.635
 5266SOL     OW16696   2.456   6.680   0.532
 5266SOL    HW116697   2.388   6.666   0.604
 5266SOL    HW216698   2.530   6.614   0.543
 5267SOL     OW16699   4.484   2.369   4.308
 5267SOL    HW116700   4.518   2.386   4.216
 5267SOL    HW216701   4.523   2.435   4.371
 5268SOL     OW16702   5.705   1.257   6.737
 5268SOL    HW116703   5.732   1.160   6.740
 5268SOL    HW216704   5.737   1.303   6.820
 5269SOL     OW16705   0.220   6.479   2.343
 5269SOL    HW116706   0.285   6.544   2.304
 5269SOL    HW216707   0.206   6.500   2.440
 5270SOL     OW16708   6.951   2.051   0.117
 5270SOL    HW116709   6.968   2.033   0.020
 5270SOL    HW216710   6.854   2.037   0.137
 5271SOL     OW16711   6.202   5.902   4.372
 5271SOL    HW116712   6.285   5.848   4.358
 5271SOL    HW216713   6.128   5.842   4.402
 5272SOL     OW16714   3.959   6.922   0.347
 5272SOL    HW116715   3.990   7.005   0.394
 5272SOL    HW216716   3.905   6.948   0.266
 5273SOL     OW16717   1.101   3.174   3.106
 5273SOL    HW116718   1.104   3.083   3.067
 5273SOL    HW216719   1.194   3.210   3.115
 5274SOL     OW16720   5.198   5.856   2.384
 5274SOL    HW116721   5.231   5.926   2.322
 5274SOL    HW216722   5.114   5.888   2.429
 5275SOL     OW16723   3.163   0.470   0.821
 5275SOL    HW116724   3.090   0.531   0.793
 5275SOL    HW216725   3.249   0.522   0.829
 5276SOL     OW16726   2.686   6.516   1.686
 5276SOL    HW116727   2.636   6.504   1.600
 5276SOL    HW216728   2.759   6.447   1.692
 5277SOL     OW16729   1.757   1.147   2.426
 5277SOL    HW116730   1.707   1.094   2.495
 5277SOL    HW216731   1.709   1.143   2.339
 5278SOL     OW16732   4.312   5.139   2.198
 5278SOL    HW116733   4.396   5.193   2.201
 5278SOL    HW216734   4.240   5.187   2.248
 5279SOL     OW16735   2.428   5.817   1.218
 5279SOL    HW116736   2.479   5.767   1.148
 5279SOL    HW216737   2.333   5.828   1.189
 5280SOL     OW16738   3.482   6.220   4.901
 5280SOL    HW116739   3.459   6.228   4.804
 5280SOL    HW216740   3.419   6.276   4.955
 5281SOL     OW16741   0.361   2.078   2.269
 5281SOL    HW116742   0.443   2.045   2.316
 5281SOL    HW216743   0.387   2.144   2.199
 5282SOL     OW16744   2.475   2.037   3.270
 5282SOL    HW116745   2.444   2.047   3.365
 5282SOL    HW216746   2.492   2.128   3.232
 5283SOL     OW16747   5.220   5.724   0.480
 5283SOL    HW116748   5.306   5.765   0.449
 5283SOL    HW216749   5.164   5.795   0.524
 5284SOL     OW16750   5.357   3.948   3.081
 5284SOL    HW116751   5.443   3.938   3.032
 5284SOL    HW216752   5.332   3.860   3.123
 5285SOL     OW16753   2.880   5.065   3.883
 5285SOL    HW116754   2.953   4.998   3.869
 5285SOL    HW216755   2.917   5.147   3.926
 5286SOL     OW16756   1.489   3.993   1.500
 5286SOL    HW116757   1.392   3.980   1.481
 5286SOL    HW216758   1.508   3.970   1.596
 5287SOL     OW16759   2.581   1.394   0.617
 5287SOL    HW116760   2.630   1.307   0.622
 5287SOL    HW216761   2.636   1.461   0.567
 5288SOL     OW16762   3.020   0.216   1.199
 5288SOL    HW116763   3.045   0.232   1.104
 5288SOL    HW216764   3.098   0.236   1.258
 5289SOL     OW16765   1.041   5.276   1.029
 5289SOL    HW116766   1.036   5.176   1.029
 5289SOL    HW216767   1.053   5.309   0.935
 5290SOL     OW16768   3.453   5.710   0.281
 5290SOL    HW116769   3.474   5.636   0.345
 5290SOL    HW216770   3.386   5.772   0.321
 5291SOL     OW16771   2.142   5.122   5.567
 5291SOL    HW116772   2.050   5.090   5.588
 5291SOL    HW216773   2.199   5.044   5.540
 5292SOL     OW16774   5.122   3.355   6.213
 5292SOL    HW116775   5.097   3.295   6.289
 5292SOL    HW216776   5.113   3.451   6.241
 5293SOL     OW16777   0.512   0.225   4.113
 5293SOL    HW116778   0.428   0.221   4.165
 5293SOL    HW216779   0.493   0.255   4.019
 5294SOL     OW16780   6.031   3.209   6.101
 5294SOL    HW116781   5.986   3.158   6.175
 5294SOL    HW216782   6.101   3.268   6.141
 5295SOL     OW16783   6.139   0.601   3.090
 5295SOL    HW116784   6.160   0.576   2.995
 5295SOL    HW216785   6.076   0.534   3.129
 5296SOL     OW16786   1.029   4.476   0.692
 5296SOL    HW116787   0.938   4.515   0.708
 5296SOL    HW216788   1.054   4.417   0.769
 5297SOL     OW16789   1.936   1.488   1.572
 5297SOL    HW116790   1.946   1.549   1.651
 5297SOL    HW216791   1.912   1.542   1.491
 5298SOL     OW16792   6.780   5.116   1.060
 5298SOL    HW116793   6.735   5.087   0.975
 5298SOL    HW216794   6.845   5.046   1.088
 5299SOL     OW16795   2.849   0.799   2.097
 5299SOL    HW116796   2.813   0.711   2.066
 5299SOL    HW216797   2.801   0.828   2.180
 5300SOL     OW16798   0.009   5.820   3.832
 5300SOL    HW116799   0.067   5.900   3.813
 5300SOL    HW216800   0.032   5.747   3.768
 5301SOL     OW16801   4.339   1.538   6.710
 5301SOL    HW116802   4.319   1.494   6.622
 5301SOL    HW216803   4.408   1.485   6.759
 5302SOL     OW16804   6.375   4.404   2.647
 5302SOL    HW116805   6.351   4.495   2.681
 5302SOL    HW216806   6.446   4.364   2.705
 5303SOL     OW16807   6.105   4.231   3.725
 5303SOL    HW116808   6.095   4.237   3.824
 5303SOL    HW216809   6.059   4.148   3.692
 5304SOL     OW16810   5.067   1.741   5.721
 5304SOL    HW116811   5.155   1.693   5.717
 5304SOL    HW216812   5.060   1.789   5.808
 5305SOL     OW16813   2.618   0.824   3.422
 5305SOL    HW116814   2.670   0.810   3.337
 5305SOL    HW216815   2.582   0.735   3.453
 5306SOL     OW16816   3.200   6.823   5.709
 5306SOL    HW116817   3.298   6.841   5.706
 5306SOL    HW216818   3.184   6.725   5.714
 5307SOL     OW16819   4.522   6.930   6.517
 5307SOL    HW116820   4.474   6.943   6.604
 5307SOL    HW216821   4.498   6.841   6.479
 5308SOL     OW16822   6.965   1.452   3.302
 5308SOL    HW116823   6.944   1.469   3.205
 5308SOL    HW216824   6.992   1.357   3.314
 5309SOL     OW16825   3.527   4.105   3.335
 5309SOL    HW116826   3.528   4.159   3.419
 5309SOL    HW216827   3.620   4.077   3.312
 5310SOL     OW16828   5.270   1.990   1.219
 5310SOL    HW116829   5.193   1.935   1.251
 5310SOL    HW216830   5.288   2.064   1.285
 5311SOL     OW16831   2.097   5.579   6.955
 5311SOL    HW116832   2.013   5.574   6.901
 5311SOL    HW216833   2.131   5.487   6.972
 5312SOL     OW16834   0.605   4.024   3.240
 5312SOL    HW116835   0.525   4.069   3.201
 5312SOL    HW216836   0.687   4.077   3.219
 5313SOL     OW16837   1.029   5.722   6.566
 5313SOL    HW116838   1.080   5.808   6.561
 5313SOL    HW216839   1.065   5.659   6.496
 5314SOL     OW16840   3.948   5.190   0.377
 5314SOL    HW116841   3.902   5.258   0.320
 5314SOL    HW216842   3.973   5.111   0.321
 5315SOL     OW16843   5.978   2.958   2.046
 5315SOL    HW116844   5.883   2.958   2.013
 5315SOL    HW216845   6.038   2.990   1.973
 5316SOL     OW16846   6.769   4.527   3.778
 5316SOL    HW116847   6.823   4.443   3.787
 5316SOL    HW216848   6.759   4.549   3.681
 5317SOL     OW16849   5.386   6.783   2.884
 5317SOL    HW116850   5.374   6.820   2.792
 5317SOL    HW216851   5.435   6.849   2.941
 5318SOL     OW16852   0.816   2.657   4.297
 5318SOL    HW116853   0.781   2.563   4.294
 5318SOL    HW216854   0.754   2.717   4.248
 5319SOL     OW16855   5.115   0.553   0.452
 5319SOL    HW116856   5.084   0.582   0.361
 5319SOL    HW216857   5.037   0.545   0.513
 5320SOL     OW16858   5.903   3.579   6.387
 5320SOL    HW116859   5.936   3.673   6.398
 5320SOL    HW216860   5.879   3.563   6.291
 5321SOL     OW16861   1.875   5.312   5.967
 5321SOL    HW116862   1.827   5.273   6.046
 5321SOL    HW216863   1.973   5.299   5.977
 5322SOL     OW16864   3.248   5.752   6.572
 5322SOL    HW116865   3.187   5.675   6.590
 5322SOL    HW216866   3.209   5.835   6.613
 5323SOL     OW16867   5.030   2.384   0.742
 5323SOL    HW116868   4.949   2.439   0.724
 5323SOL    HW216869   5.036   2.363   0.840
 5324SOL     OW16870   3.683   2.930   1.766
 5324SOL    HW116871   3.780   2.951   1.777
 5324SOL    HW216872   3.632   2.958   1.847
 5325SOL     OW16873   5.610   6.257   2.694
 5325SOL    HW116874   5.564   6.280   2.780
 5325SOL    HW216875   5.706   6.235   2.712
 5326SOL     OW16876   6.629   6.111   1.251
 5326SOL    HW116877   6.647   6.153   1.163
 5326SOL    HW216878   6.538   6.138   1.283
 5327SOL     OW16879   6.492   0.144   4.084
 5327SOL    HW116880   6.498   0.213   4.013
 5327SOL    HW216881   6.501   0.188   4.174
 5328SOL     OW16882   3.735   4.286   0.198
 5328SOL    HW116883   3.827   4.305   0.163
 5328SOL    HW216884   3.728   4.315   0.293
 5329SOL     OW16885   0.275   4.451   0.461
 5329SOL    HW116886   0.289   4.426   0.556
 5329SOL    HW216887   0.180   4.433   0.434
 5330SOL     OW16888   4.406   4.105   1.396
 5330SOL    HW116889   4.365   4.052   1.322
 5330SOL    HW216890   4.382   4.201   1.386
 5331SOL     OW16891   4.689   2.958   0.322
 5331SOL    HW116892   4.738   2.872   0.304
 5331SOL    HW216893   4.750   3.021   0.370
 5332SOL     OW16894   5.896   3.813   0.791
 5332SOL    HW116895   5.797   3.812   0.804
 5332SOL    HW216896   5.926   3.906   0.769
 5333SOL     OW16897   2.455   1.021   4.056
 5333SOL    HW116898   2.475   0.996   3.961
 5333SOL    HW216899   2.423   1.115   4.060
 5334SOL     OW16900   4.580   4.860   2.519
 5334SOL    HW116901   4.537   4.920   2.451
 5334SOL    HW216902   4.629   4.786   2.473
 5335SOL     OW16903   0.206   4.614   1.914
 5335SOL    HW116904   0.187   4.709   1.939
 5335SOL    HW216905   0.255   4.612   1.827
 5336SOL     OW16906   1.496   2.306   4.166
 5336SOL    HW116907   1.441   2.255   4.233
 5336SOL    HW216908   1.506   2.401   4.197
 5337SOL     OW16909   6.972   4.297   0.895
 5337SOL    HW116910   6.962   4.376   0.954
 5337SOL    HW216911   6.906   4.226   0.922
 5338SOL     OW16912   6.830   3.298   0.702
 5338SOL    HW116913   6.889   3.329   0.777
 5338SOL    HW216914   6.842   3.200   0.689
 5339SOL     OW16915   5.882   2.686   2.821
 5339SOL    HW116916   5.910   2.595   2.791
 5339SOL    HW216917   5.846   2.680   2.915
 5340SOL     OW16918   5.261   2.732   2.572
 5340SOL    HW116919   5.168   2.766   2.556
 5340SOL    HW216920   5.315   2.802   2.619
 5341SOL     OW16921   4.520   5.299   3.257
 5341SOL    HW116922   4.441   5.259   3.209
 5341SOL    HW216923   4.594   5.232   3.262
 5342SOL     OW16924   6.067   6.744   4.393
 5342SOL    HW116925   6.046   6.646   4.392
 5342SOL    HW216926   6.066   6.778   4.486
 5343SOL     OW16927   3.940   3.627   5.850
 5343SOL    HW116928   3.970   3.709   5.899
 5343SOL    HW216929   3.982   3.625   5.760
 5344SOL     OW16930   0.929   1.616   6.275
 5344SOL    HW116931   0.947   1.655   6.365
 5344SOL    HW216932   0.867   1.538   6.284
 5345SOL     OW16933   5.779   2.081   6.899
 5345SOL    HW116934   5.877   2.088   6.921
 5345SOL    HW216935   5.728   2.063   6.983
 5346SOL     OW16936   2.883   5.496   3.808
 5346SOL    HW116937   2.973   5.490   3.766
 5346SOL    HW216938   2.814   5.462   3.744
 5347SOL     OW16939   5.921   2.050   4.159
 5347SOL    HW116940   5.950   2.046   4.064
 5347SOL    HW216941   5.840   2.109   4.167
 5348SOL     OW16942   5.292   1.476   3.471
 5348SOL    HW116943   5.306   1.557   3.528
 5348SOL    HW216944   5.290   1.503   3.375
 5349SOL     OW16945   0.131   3.498   2.477
 5349SOL    HW116946   0.032   3.494   2.461
 5349SOL    HW216947   0.162   3.593   2.474
 5350SOL     OW16948   2.027   6.391   6.327
 5350SOL    HW116949   2.009   6.467   6.390
 5350SOL    HW216950   2.085   6.324   6.372
 5351SOL     OW16951   0.093   5.042   1.766
 5351SOL    HW116952   0.176   5.085   1.804
 5351SOL    HW216953   0.017   5.107   1.771
 5352SOL     OW16954   1.912   3.540   4.354
 5352SOL    HW116955   1.952   3.458   4.313
 5352SOL    HW216956   1.943   3.549   4.449
 5353SOL     OW16957   4.432   5.768   3.216
 5353SOL    HW116958   4.454   5.776   3.119
 5353SOL    HW216959   4.362   5.697   3.228
 5354SOL     OW16960   3.792   5.818   0.454
 5354SOL    HW116961   3.790   5.727   0.496
 5354SOL    HW216962   3.885   5.856   0.461
 5355SOL     OW16963   5.070   4.774   5.203
 5355SOL    HW116964   5.162   4.769   5.162
 5355SOL    HW216965   5.078   4.773   5.303
 5356SOL     OW16966   6.942   4.920   1.597
 5356SOL    HW116967   6.901   5.004   1.562
 5356SOL    HW216968   7.014   4.944   1.663
 5357SOL     OW16969   5.370   4.008   2.418
 5357SOL    HW116970   5.427   4.023   2.499
 5357SOL    HW216971   5.278   4.042   2.434
 5358SOL     OW16972   4.894   2.202   0.555
 5358SOL    HW116973   4.916   2.211   0.458
 5358SOL    HW216974   4.963   2.248   0.610
 5359SOL     OW16975   2.433   1.800   6.211
 5359SOL    HW116976   2.469   1.754   6.292
 5359SOL    HW216977   2.508   1.850   6.166
 5360SOL     OW16978   4.915   4.618   2.991
 5360SOL    HW116979   4.968   4.547   3.038
 5360SOL    HW216980   4.889   4.688   3.057
 5361SOL     OW16981   2.493   5.887   2.369
 5361SOL    HW116982   2.557   5.954   2.330
 5361SOL    HW216983   2.437   5.848   2.296
 5362SOL     OW16984   6.100   0.487   2.195
 5362SOL    HW116985   6.153   0.487   2.110
 5362SOL    HW216986   6.045   0.570   2.199
 5363SOL     OW16987   5.871   5.333   4.482
 5363SOL    HW116988   5.817   5.250   4.501
 5363SOL    HW216989   5.887   5.382   4.568
 5364SOL     OW16990   5.007   1.285   2.329
 5364SOL    HW116991   4.928   1.252   2.380
 5364SOL    HW216992   5.081   1.306   2.393
 5365SOL     OW16993   3.488   2.920   4.286
 5365SOL    HW116994   3.424   2.995   4.266
 5365SOL    HW216995   3.536   2.894   4.202
 5366SOL     OW16996   6.450   6.455   2.058
 5366SOL    HW116997   6.409   6.411   1.979
 5366SOL    HW216998   6.434   6.399   2.140
 5367SOL     OW16999   6.277   5.997   1.705
 5367SOL    HW117000   6.331   5.985   1.621
 5367SOL    HW217001   6.189   6.037   1.682
 5368SOL     OW17002   6.738   5.523   3.877
 5368SOL    HW117003   6.817   5.557   3.926
 5368SOL    HW217004   6.707   5.592   3.812
 5369SOL     OW17005   2.378   6.152   2.081
 5369SOL    HW117006   2.358   6.212   2.004
 5369SOL    HW217007   2.295   6.103   2.108
 5370SOL     OW17008   2.667   3.629   1.685
 5370SOL    HW117009   2.727   3.653   1.762
 5370SOL    HW217010   2.702   3.547   1.640
 5371SOL     OW17011   5.930   5.468   4.780
 5371SOL    HW117012   6.010   5.462   4.840
 5371SOL    HW217013   5.912   5.563   4.756
 5372SOL     OW17014   0.556   0.525   2.922
 5372SOL    HW117015   0.479   0.469   2.953
 5372SOL    HW217016   0.616   0.544   2.999
 5373SOL     OW17017   3.182   0.497   6.908
 5373SOL    HW117018   3.249   0.539   6.846
 5373SOL    HW217019   3.230   0.448   6.981
 5374SOL     OW17020   2.715   4.933   2.121
 5374SOL    HW117021   2.806   4.900   2.096
 5374SOL    HW217022   2.666   4.962   2.038
 5375SOL     OW17023   1.131   5.004   4.561
 5375SOL    HW117024   1.093   5.091   4.593
 5375SOL    HW217025   1.185   4.962   4.634
 5376SOL     OW17026   6.961   1.330   6.288
 5376SOL    HW117027   0.012   1.262   6.270
 5376SOL    HW217028   6.872   1.287   6.277
 5377SOL     OW17029   2.465   0.569   3.067
 5377SOL    HW117030   2.564   0.563   3.049
 5377SOL    HW217031   2.414   0.550   2.983
 5378SOL     OW17032   5.892   0.864   2.062
 5378SOL    HW117033   5.921   0.939   2.002
 5378SOL    HW217034   5.798   0.882   2.092
 5379SOL     OW17035   1.459   2.683   6.103
 5379SOL    HW117036   1.501   2.771   6.086
 5379SOL    HW217037   1.504   2.638   6.181
 5380SOL     OW17038   4.646   6.835   1.380
 5380SOL    HW117039   4.715   6.903   1.405
 5380SOL    HW217040   4.580   6.826   1.454
 5381SOL     OW17041   4.504   6.229   3.891
 5381SOL    HW117042   4.574   6.191   3.951
 5381SOL    HW217043   4.420   6.175   3.900
 5382SOL     OW17044   4.469   2.005   1.799
 5382SOL    HW117045   4.393   1.952   1.837
 5382SOL    HW217046   4.492   2.080   1.862
 5383SOL     OW17047   2.416   2.714   4.443
 5383SOL    HW117048   2.468   2.641   4.400
 5383SOL    HW217049   2.436   2.716   4.541
 5384SOL     OW17050   5.623   5.488   4.795
 5384SOL    HW117051   5.579   5.467   4.882
 5384SOL    HW217052   5.722   5.475   4.804
 5385SOL     OW17053   4.563   2.721   5.927
 5385SOL    HW117054   4.579   2.626   5.954
 5385SOL    HW217055   4.591   2.782   6.001
 5386SOL     OW17056   6.063   4.221   3.987
 5386SOL    HW117057   6.095   4.128   4.000
 5386SOL    HW217058   6.089   4.277   4.066
 5387SOL     OW17059   1.422   1.178   2.751
 5387SOL    HW117060   1.333   1.198   2.710
 5387SOL    HW217061   1.456   1.259   2.798
 5388SOL     OW17062   1.072   6.827   1.746
 5388SOL    HW117063   1.151   6.818   1.807
 5388SOL    HW217064   1.096   6.888   1.670
 5389SOL     OW17065   4.156   1.282   3.952
 5389SOL    HW117066   4.183   1.345   4.025
 5389SOL    HW217067   4.223   1.208   3.946
 5390SOL     OW17068   0.127   2.730   3.897
 5390SOL    HW117069   0.116   2.655   3.963
 5390SOL    HW217070   0.176   2.696   3.816
 5391SOL     OW17071   2.480   3.405   0.758
 5391SOL    HW117072   2.490   3.312   0.791
 5391SOL    HW217073   2.473   3.405   0.658
 5392SOL     OW17074   5.910   2.080   3.505
 5392SOL    HW117075   5.886   2.005   3.567
 5392SOL    HW217076   5.832   2.101   3.447
 5393SOL     OW17077   3.576   1.838   5.551
 5393SOL    HW117078   3.524   1.810   5.471
 5393SOL    HW217079   3.671   1.811   5.540
 5394SOL     OW17080   1.326   0.803   1.047
 5394SOL    HW117081   1.300   0.896   1.074
 5394SOL    HW217082   1.256   0.739   1.077
 5395SOL     OW17083   6.202   1.481   0.980
 5395SOL    HW117084   6.157   1.522   0.901
 5395SOL    HW217085   6.222   1.551   1.048
 5396SOL     OW17086   5.293   5.318   2.512
 5396SOL    HW117087   5.332   5.409   2.496
 5396SOL    HW217088   5.338   5.277   2.591
 5397SOL     OW17089   0.186   0.967   2.556
 5397SOL    HW117090   0.106   0.959   2.616
 5397SOL    HW217091   0.177   1.049   2.500
 5398SOL     OW17092   5.083   1.751   3.380
 5398SOL    HW117093   5.060   1.817   3.452
 5398SOL    HW217094   5.182   1.735   3.381
 5399SOL     OW17095   2.585   0.515   5.992
 5399SOL    HW117096   2.568   0.450   6.065
 5399SOL    HW217097   2.534   0.488   5.910
 5400SOL     OW17098   4.352   3.207   1.516
 5400SOL    HW117099   4.328   3.288   1.570
 5400SOL    HW217100   4.442   3.173   1.544
 5401SOL     OW17101   5.891   3.966   1.690
 5401SOL    HW117102   5.907   3.935   1.784
 5401SOL    HW217103   5.805   4.017   1.686
 5402SOL     OW17104   1.032   6.599   1.142
 5402SOL    HW117105   1.127   6.621   1.118
 5402SOL    HW217106   1.024   6.501   1.158
 5403SOL     OW17107   5.284   2.789   6.973
 5403SOL    HW117108   5.332   2.714   6.926
 5403SOL    HW217109   5.191   2.760   6.996
 5404SOL     OW17110   6.745   0.954   0.874
 5404SOL    HW117111   6.731   0.970   0.776
 5404SOL    HW217112   6.837   0.984   0.899
 5405SOL     OW17113   5.509   5.643   6.843
 5405SOL    HW117114   5.422   5.652   6.795
 5405SOL    HW217115   5.497   5.583   6.922
 5406SOL     OW17116   3.165   0.474   3.900
 5406SOL    HW117117   3.072   0.498   3.872
 5406SOL    HW217118   3.185   0.380   3.872
 5407SOL     OW17119   1.650   6.746   2.542
 5407SOL    HW117120   1.652   6.836   2.586
 5407SOL    HW217121   1.678   6.755   2.447
 5408SOL     OW17122   3.594   1.844   4.365
 5408SOL    HW117123   3.561   1.762   4.318
 5408SOL    HW217124   3.583   1.832   4.464
 5409SOL     OW17125   1.049   3.065   0.639
 5409SOL    HW117126   0.992   3.092   0.561
 5409SOL    HW217127   1.138   3.110   0.632
 5410SOL     OW17128   0.983   2.146   0.406
 5410SOL    HW117129   0.895   2.130   0.451
 5410SOL    HW217130   0.971   2.212   0.332
 5411SOL     OW17131   3.610   4.920   6.576
 5411SOL    HW117132   3.639   4.988   6.643
 5411SOL    HW217133   3.632   4.952   6.484
 5412SOL     OW17134   0.131   2.315   5.971
 5412SOL    HW117135   0.214   2.331   6.024
 5412SOL    HW217136   0.051   2.331   6.029
 5413SOL     OW17137   0.051   6.723   4.514
 5413SOL    HW117138   6.986   6.693   4.557
 5413SOL    HW217139   0.054   6.822   4.512
 5414SOL     OW17140   5.476   3.578   5.053
 5414SOL    HW117141   5.420   3.612   5.129
 5414SOL    HW217142   5.504   3.484   5.073
 5415SOL     OW17143   3.628   0.236   6.907
 5415SOL    HW117144   3.708   0.285   6.873
 5415SOL    HW217145   3.658   0.156   6.959
 5416SOL     OW17146   3.240   5.476   6.110
 5416SOL    HW117147   3.297   5.402   6.146
 5416SOL    HW217148   3.238   5.551   6.177
 5417SOL     OW17149   4.802   5.950   3.717
 5417SOL    HW117150   4.758   6.017   3.657
 5417SOL    HW217151   4.819   5.991   3.807
 5418SOL     OW17152   6.444   3.860   4.485
 5418SOL    HW117153   6.424   3.817   4.396
 5418SOL    HW217154   6.518   3.926   4.474
 5419SOL     OW17155   4.250   6.831   6.359
 5419SOL    HW117156   4.283   6.769   6.431
 5419SOL    HW217157   4.301   6.918   6.365
 5420SOL     OW17158   0.868   1.016   1.607
 5420SOL    HW117159   0.837   1.036   1.700
 5420SOL    HW217160   0.941   1.079   1.582
 5421SOL     OW17161   3.793   4.902   2.331
 5421SOL    HW117162   3.817   4.884   2.236
 5421SOL    HW217163   3.713   4.846   2.356
 5422SOL     OW17164   2.491   5.856   3.839
 5422SOL    HW117165   2.529   5.764   3.841
 5422SOL    HW217166   2.566   5.923   3.842
 5423SOL     OW17167   5.710   5.834   1.907
 5423SOL    HW117168   5.618   5.800   1.929
 5423SOL    HW217169   5.715   5.931   1.928
 5424SOL     OW17170   4.248   3.915   5.615
 5424SOL    HW117171   4.250   3.979   5.538
 5424SOL    HW217172   4.262   3.966   5.700
 5425SOL     OW17173   0.954   3.976   5.882
 5425SOL    HW117174   0.890   4.029   5.938
 5425SOL    HW217175   0.921   3.971   5.788
 5426SOL     OW17176   5.491   5.255   1.881
 5426SOL    HW117177   5.537   5.344   1.871
 5426SOL    HW217178   5.491   5.228   1.977
 5427SOL     OW17179   4.756   2.513   6.769
 5427SOL    HW117180   4.687   2.461   6.719
 5427SOL    HW217181   4.754   2.608   6.739
 5428SOL     OW17182   6.219   5.694   3.443
 5428SOL    HW117183   6.305   5.646   3.461
 5428SOL    HW217184   6.170   5.710   3.529
 5429SOL     OW17185   3.413   7.010   4.426
 5429SOL    HW117186   3.500   0.030   4.453
 5429SOL    HW217187   3.411   6.998   4.326
 5430SOL     OW17188   3.016   4.002   5.828
 5430SOL    HW117189   3.067   3.966   5.907
 5430SOL    HW217190   2.965   3.927   5.786
 5431SOL     OW17191   3.305   4.958   6.356
 5431SOL    HW117192   3.279   4.972   6.452
 5431SOL    HW217193   3.297   5.045   6.307
 5432SOL     OW17194   5.713   4.971   0.171
 5432SOL    HW117195   5.634   4.916   0.143
 5432SOL    HW217196   5.760   5.005   0.090
 5433SOL     OW17197   1.887   0.405   1.410
 5433SOL    HW117198   1.788   0.408   1.427
 5433SOL    HW217199   1.907   0.446   1.321
 5434SOL     OW17200   5.396   0.407   4.709
 5434SOL    HW117201   5.399   0.337   4.638
 5434SOL    HW217202   5.488   0.418   4.748
 5435SOL     OW17203   0.021   4.127   0.649
 5435SOL    HW117204   0.031   4.037   0.691
 5435SOL    HW217205   7.017   4.194   0.719
 5436SOL     OW17206   1.158   4.530   2.983
 5436SOL    HW117207   1.161   4.522   3.083
 5436SOL    HW217208   1.100   4.456   2.946
 5437SOL     OW17209   3.667   5.882   1.510
 5437SOL    HW117210   3.654   5.783   1.520
 5437SOL    HW217211   3.763   5.905   1.527
 5438SOL     OW17212   5.038   4.709   2.313
 5438SOL    HW117213   5.095   4.630   2.291
 5438SOL    HW217214   5.053   4.781   2.246
 5439SOL     OW17215   1.291   5.219   1.431
 5439SOL    HW117216   1.376   5.264   1.461
 5439SOL    HW217217   1.230   5.288   1.391
 5440SOL     OW17218   6.553   6.298   3.655
 5440SOL    HW117219   6.468   6.267   3.611
 5440SOL    HW217220   6.591   6.374   3.603
 5441SOL     OW17221   4.832   2.991   3.268
 5441SOL    HW117222   4.779   3.073   3.245
 5441SOL    HW217223   4.818   2.921   3.198
 5442SOL     OW17224   4.404   6.307   5.691
 5442SOL    HW117225   4.310   6.276   5.694
 5442SOL    HW217226   4.419   6.375   5.764
 5443SOL     OW17227   4.090   0.702   4.141
 5443SOL    HW117228   4.139   0.623   4.103
 5443SOL    HW217229   4.155   0.767   4.178
 5444SOL     OW17230   5.836   1.277   4.778
 5444SOL    HW117231   5.843   1.178   4.793
 5444SOL    HW217232   5.916   1.308   4.727
 5445SOL     OW17233   5.898   5.043   5.676
 5445SOL    HW117234   5.810   5.087   5.692
 5445SOL    HW217235   5.908   5.024   5.579
 5446SOL     OW17236   0.420   4.487   6.263
 5446SOL    HW117237   0.354   4.451   6.198
 5446SOL    HW217238   0.391   4.577   6.294
 5447SOL     OW17239   1.338   1.713   0.440
 5447SOL    HW117240   1.295   1.800   0.464
 5447SOL    HW217241   1.423   1.701   0.492
 5448SOL     OW17242   4.317   5.396   2.879
 5448SOL    HW117243   4.271   5.441   2.803
 5448SOL    HW217244   4.405   5.441   2.895
 5449SOL     OW17245   2.492   1.626   1.434
 5449SOL    HW117246   2.432   1.554   1.469
 5449SOL    HW217247   2.586   1.593   1.433
 5450SOL     OW17248   4.234   5.643   1.656
 5450SOL    HW117249   4.307   5.680   1.598
 5450SOL    HW217250   4.178   5.580   1.603
 5451SOL     OW17251   0.341   6.806   3.399
 5451SOL    HW117252   0.417   6.755   3.358
 5451SOL    HW217253   0.363   6.903   3.400
 5452SOL     OW17254   2.166   4.483   2.186
 5452SOL    HW117255   2.210   4.563   2.227
 5452SOL    HW217256   2.096   4.513   2.122
 5453SOL     OW17257   5.757   4.074   3.035
 5453SOL    HW117258   5.700   4.142   2.990
 5453SOL    HW217259   5.845   4.068   2.989
 5454SOL     OW17260   5.509   5.485   2.841
 5454SOL    HW117261   5.452   5.437   2.906
 5454SOL    HW217262   5.594   5.434   2.826
 5455SOL     OW17263   1.247   1.223   3.607
 5455SOL    HW117264   1.344   1.245   3.607
 5455SOL    HW217265   1.195   1.303   3.576
 5456SOL     OW17266   6.398   0.963   6.982
 5456SOL    HW117267   6.444   1.028   6.921
 5456SOL    HW217268   6.455   0.883   6.995
 5457SOL     OW17269   5.975   2.819   6.862
 5457SOL    HW117270   5.942   2.768   6.941
 5457SOL    HW217271   5.982   2.758   6.783
 5458SOL     OW17272   5.961   4.221   0.419
 5458SOL    HW117273   5.895   4.168   0.471
 5458SOL    HW217274   6.022   4.269   0.482
 5459SOL     OW17275   2.212   3.641   5.586
 5459SOL    HW117276   2.145   3.582   5.632
 5459SOL    HW217277   2.221   3.614   5.490
 5460SOL     OW17278   1.834   0.496   0.818
 5460SOL    HW117279   1.866   0.549   0.897
 5460SOL    HW217280   1.883   0.409   0.816
 5461SOL     OW17281   6.269   1.066   5.700
 5461SOL    HW117282   6.247   0.979   5.742
 5461SOL    HW217283   6.294   1.133   5.770
 5462SOL     OW17284   5.009   5.360   6.647
 5462SOL    HW117285   5.104   5.368   6.678
 5462SOL    HW217286   4.952   5.326   6.722
 5463SOL     OW17287   0.610   3.275   6.462
 5463SOL    HW117288   0.614   3.204   6.392
 5463SOL    HW217289   0.548   3.245   6.535
 5464SOL     OW17290   6.902   6.482   5.129
 5464SOL    HW117291   6.850   6.501   5.212
 5464SOL    HW217292   6.841   6.480   5.050
 5465SOL     OW17293   6.798   5.873   3.943
 5465SOL    HW117294   6.881   5.846   3.894
 5465SOL    HW217295   6.798   5.831   4.034
 5466SOL     OW17296   6.094   2.580   6.111
 5466SOL    HW117297   6.012   2.555   6.163
 5466SOL    HW217298   6.067   2.625   6.026
 5467SOL     OW17299   5.298   3.458   3.996
 5467SOL    HW117300   5.271   3.470   4.092
 5467SOL    HW217301   5.389   3.496   3.982
 5468SOL     OW17302   0.503   1.394   1.663
 5468SOL    HW117303   0.598   1.381   1.636
 5468SOL    HW217304   0.499   1.417   1.760
 5469SOL     OW17305   2.715   0.546   5.169
 5469SOL    HW117306   2.760   0.550   5.258
 5469SOL    HW217307   2.747   0.465   5.119
 5470SOL     OW17308   3.976   5.377   4.256
 5470SOL    HW117309   4.048   5.316   4.290
 5470SOL    HW217310   3.897   5.323   4.228
 5471SOL     OW17311   4.659   0.679   3.042
 5471SOL    HW117312   4.697   0.729   2.964
 5471SOL    HW217313   4.734   0.639   3.095
 5472SOL     OW17314   2.458   2.063   6.724
 5472SOL    HW117315   2.449   1.967   6.698
 5472SOL    HW217316   2.427   2.121   6.649
 5473SOL     OW17317   2.631   3.787   1.148
 5473SOL    HW117318   2.655   3.806   1.243
 5473SOL    HW217319   2.711   3.752   1.099
 5474SOL     OW17320   0.765   5.485   3.645
 5474SOL    HW117321   0.674   5.458   3.612
 5474SOL    HW217322   0.758   5.571   3.695
 5475SOL     OW17323   6.760   2.429   5.221
 5475SOL    HW117324   6.794   2.396   5.310
 5475SOL    HW217325   6.683   2.372   5.192
 5476SOL     OW17326   2.490   6.775   6.163
 5476SOL    HW117327   2.472   6.853   6.104
 5476SOL    HW217328   2.418   6.768   6.232
 5477SOL     OW17329   2.244   5.001   4.044
 5477SOL    HW117330   2.182   5.020   3.968
 5477SOL    HW217331   2.239   5.075   4.111
 5478SOL     OW17332   5.603   5.143   5.908
 5478SOL    HW117333   5.611   5.191   5.821
 5478SOL    HW217334   5.692   5.104   5.933
 5479SOL     OW17335   3.538   1.828   4.980
 5479SOL    HW117336   3.476   1.878   4.919
 5479SOL    HW217337   3.623   1.807   4.932
 5480SOL     OW17338   6.784   3.584   4.869
 5480SOL    HW117339   6.729   3.515   4.822
 5480SOL    HW217340   6.749   3.675   4.846
 5481SOL     OW17341   4.509   1.334   6.786
 5481SOL    HW117342   4.573   1.318   6.861
 5481SOL    HW217343   4.439   1.263   6.787
 5482SOL     OW17344   4.604   3.155   1.634
 5482SOL    HW117345   4.690   3.205   1.629
 5482SOL    HW217346   4.590   3.121   1.727
 5483SOL     OW17347   6.794   3.616   6.174
 5483SOL    HW117348   6.780   3.656   6.084
 5483SOL    HW217349   6.882   3.568   6.175
 5484SOL     OW17350   6.765   6.396   4.350
 5484SOL    HW117351   6.695   6.366   4.415
 5484SOL    HW217352   6.724   6.411   4.260
 5485SOL     OW17353   3.860   6.726   5.658
 5485SOL    HW117354   3.794   6.796   5.683
 5485SOL    HW217355   3.903   6.689   5.741
 5486SOL     OW17356   1.239   1.018   3.167
 5486SOL    HW117357   1.195   0.942   3.215
 5486SOL    HW217358   1.278   0.985   3.081
 5487SOL     OW17359   6.446   4.821   0.252
 5487SOL    HW117360   6.501   4.792   0.331
 5487SOL    HW217361   6.496   4.799   0.168
 5488SOL     OW17362   5.168   1.897   6.226
 5488SOL    HW117363   5.153   1.932   6.318
 5488SOL    HW217364   5.194   1.973   6.166
 5489SOL     OW17365   1.787   4.324   2.569
 5489SOL    HW117366   1.855   4.355   2.502
 5489SOL    HW217367   1.734   4.248   2.531
 5490SOL     OW17368   2.304   1.379   0.657
 5490SOL    HW117369   2.271   1.285   0.665
 5490SOL    HW217370   2.404   1.378   0.649
 5491SOL     OW17371   1.505   4.912   0.475
 5491SOL    HW117372   1.510   4.813   0.486
 5491SOL    HW217373   1.432   4.948   0.533
 5492SOL     OW17374   0.805   2.274   6.294
 5492SOL    HW117375   0.874   2.201   6.297
 5492SOL    HW217376   0.822   2.340   6.366
 5493SOL     OW17377   3.789   3.243   6.188
 5493SOL    HW117378   3.814   3.149   6.167
 5493SOL    HW217379   3.735   3.246   6.273
 5494SOL     OW17380   6.164   3.647   1.807
 5494SOL    HW117381   6.196   3.617   1.897
 5494SOL    HW217382   6.198   3.740   1.789
 5495SOL     OW17383   4.013   3.479   2.847
 5495SOL    HW117384   3.998   3.398   2.789
 5495SOL    HW217385   4.060   3.452   2.931
 5496SOL     OW17386   3.338   5.770   1.899
 5496SOL    HW117387   3.278   5.838   1.943
 5496SOL    HW217388   3.431   5.805   1.896
 5497SOL     OW17389   0.178   1.305   2.828
 5497SOL    HW117390   0.163   1.293   2.926
 5497SOL    HW217391   0.203   1.217   2.787
 5498SOL     OW17392   4.609   1.821   5.799
 5498SOL    HW117393   4.611   1.742   5.861
 5498SOL    HW217394   4.558   1.896   5.841
 5499SOL     OW17395   6.955   1.973   3.077
 5499SOL    HW117396   6.967   2.036   3.001
 5499SOL    HW217397   0.008   1.906   3.078
 5500SOL     OW17398   1.908   6.213   0.534
 5500SOL    HW117399   1.957   6.133   0.569
 5500SOL    HW217400   1.816   6.185   0.504
 5501SOL     OW17401   2.790   0.262   2.378
 5501SOL    HW117402   2.695   0.241   2.400
 5501SOL    HW217403   2.837   0.178   2.350
 5502SOL     OW17404   6.292   4.206   5.787
 5502SOL    HW117405   6.353   4.212   5.708
 5502SOL    HW217406   6.206   4.253   5.766
 5503SOL     OW17407   1.140   4.471   3.250
 5503SOL    HW117408   1.166   4.376   3.265
 5503SOL    HW217409   1.221   4.529   3.257
 5504SOL     OW17410   3.551   1.867   4.653
 5504SOL    HW117411   3.455   1.854   4.680
 5504SOL    HW217412   3.609   1.808   4.709
 5505SOL     OW17413   3.319   5.572   5.152
 5505SOL    HW117414   3.237   5.556   5.098
 5505SOL    HW217415   3.378   5.637   5.105
 5506SOL     OW17416   6.578   0.653   5.188
 5506SOL    HW117417   6.648   0.673   5.120
 5506SOL    HW217418   6.488   0.677   5.152
 5507SOL     OW17419   2.944   6.766   4.040
 5507SOL    HW117420   2.900   6.813   3.964
 5507SOL    HW217421   2.899   6.791   4.126
 5508SOL     OW17422   2.275   0.264   6.472
 5508SOL    HW117423   2.337   0.342   6.459
 5508SOL    HW217424   2.328   0.180   6.475
 5509SOL     OW17425   5.839   0.035   0.440
 5509SOL    HW117426   5.799   6.991   0.376
 5509SOL    HW217427   5.939   0.034   0.430
 5510SOL     OW17428   4.556   0.491   5.999
 5510SOL    HW117429   4.644   0.521   6.035
 5510SOL    HW217430   4.552   0.391   6.001
 5511SOL     OW17431   0.436   0.561   2.197
 5511SOL    HW117432   0.386   0.511   2.267
 5511SOL    HW217433   0.527   0.523   2.186
 5512SOL     OW17434   1.071   1.330   6.603
 5512SOL    HW117435   1.042   1.257   6.542
 5512SOL    HW217436   1.153   1.374   6.566
 5513SOL     OW17437   4.669   4.263   4.461
 5513SOL    HW117438   4.758   4.231   4.492
 5513SOL    HW217439   4.609   4.279   4.540
 5514SOL     OW17440   5.333   4.871   2.463
 5514SOL    HW117441   5.262   4.882   2.393
 5514SOL    HW217442   5.291   4.879   2.554
 5515SOL     OW17443   6.685   2.238   2.005
 5515SOL    HW117444   6.586   2.224   2.000
 5515SOL    HW217445   6.704   2.323   2.053
 5516SOL     OW17446   1.426   3.507   6.827
 5516SOL    HW117447   1.331   3.503   6.856
 5516SOL    HW217448   1.480   3.553   6.898
 5517SOL     OW17449   3.248   1.879   0.932
 5517SOL    HW117450   3.310   1.956   0.930
 5517SOL    HW217451   3.170   1.900   0.992
 5518SOL     OW17452   6.017   5.144   5.884
 5518SOL    HW117453   6.037   5.236   5.848
 5518SOL    HW217454   5.974   5.089   5.813
 5519SOL     OW17455   5.551   3.352   3.827
 5519SOL    HW117456   5.633   3.408   3.841
 5519SOL    HW217457   5.579   3.261   3.796
 5520SOL     OW17458   1.254   3.876   2.316
 5520SOL    HW117459   1.217   3.837   2.232
 5520SOL    HW217460   1.234   3.815   2.393
 5521SOL     OW17461   5.741   6.253   1.659
 5521SOL    HW117462   5.678   6.239   1.583
 5521SOL    HW217463   5.734   6.347   1.691
 5522SOL     OW17464   2.508   3.296   1.708
 5522SOL    HW117465   2.466   3.367   1.764
 5522SOL    HW217466   2.596   3.329   1.673
 5523SOL     OW17467   2.922   7.015   2.770
 5523SOL    HW117468   2.958   7.008   2.863
 5523SOL    HW217469   2.985   6.971   2.707
 5524SOL     OW17470   1.204   4.841   5.116
 5524SOL    HW117471   1.287   4.894   5.131
 5524SOL    HW217472   1.229   4.747   5.091
 5525SOL     OW17473   6.625   5.174   6.624
 5525SOL    HW117474   6.582   5.225   6.698
 5525SOL    HW217475   6.644   5.236   6.548
 5526SOL     OW17476   6.323   3.428   3.556
 5526SOL    HW117477   6.335   3.332   3.529
 5526SOL    HW217478   6.405   3.458   3.606
 5527SOL     OW17479   1.605   2.864   1.699
 5527SOL    HW117480   1.705   2.863   1.689
 5527SOL    HW217481   1.571   2.770   1.696
 5528SOL     OW17482   0.470   2.554   4.934
 5528SOL    HW117483   0.518   2.520   4.853
 5528SOL    HW217484   0.449   2.477   4.995
 5529SOL     OW17485   2.280   0.821   4.520
 5529SOL    HW117486   2.369   0.780   4.505
 5529SOL    HW217487   2.239   0.783   4.603
 5530SOL     OW17488   0.512   2.021   0.501
 5530SOL    HW117489   0.597   1.976   0.473
 5530SOL    HW217490   0.435   1.979   0.452
 5531SOL     OW17491   4.161   3.277   5.099
 5531SOL    HW117492   4.120   3.239   5.016
 5531SOL    HW217493   4.091   3.287   5.169
 5532SOL     OW17494   1.602   1.417   0.418
 5532SOL    HW117495   1.524   1.385   0.471
 5532SOL    HW217496   1.585   1.402   0.320
 5533SOL     OW17497   3.357   0.572   2.640
 5533SOL    HW117498   3.431   0.627   2.600
 5533SOL    HW217499   3.352   0.591   2.738
 5534SOL     OW17500   1.259   3.609   6.390
 5534SOL    HW117501   1.245   3.675   6.317
 5534SOL    HW217502   1.272   3.656   6.477
 5535SOL     OW17503   6.460   2.917   3.256
 5535SOL    HW117504   6.427   2.890   3.346
 5535SOL    HW217505   6.382   2.938   3.197
 5536SOL     OW17506   2.324   0.614   4.249
 5536SOL    HW117507   2.258   0.685   4.225
 5536SOL    HW217508   2.295   0.568   4.333
 5537SOL     OW17509   3.927   0.539   5.234
 5537SOL    HW117510   4.015   0.549   5.189
 5537SOL    HW217511   3.925   0.453   5.285
 5538SOL     OW17512   3.973   1.277   5.770
 5538SOL    HW117513   3.973   1.329   5.856
 5538SOL    HW217514   4.061   1.231   5.759
 5539SOL     OW17515   1.125   0.758   1.838
 5539SOL    HW117516   1.210   0.798   1.872
 5539SOL    HW217517   1.133   0.738   1.741
 5540SOL     OW17518   5.328   3.129   0.919
 5540SOL    HW117519   5.342   3.042   0.965
 5540SOL    HW217520   5.236   3.163   0.940
 5541SOL     OW17521   5.128   3.535   5.790
 5541SOL    HW117522   5.109   3.564   5.884
 5541SOL    HW217523   5.043   3.528   5.740
 5542SOL     OW17524   5.348   5.076   6.409
 5542SOL    HW117525   5.447   5.063   6.413
 5542SOL    HW217526   5.320   5.086   6.314
 5543SOL     OW17527   1.972   6.159   0.106
 5543SOL    HW117528   2.032   6.123   0.034
 5543SOL    HW217529   2.023   6.165   0.192
 5544SOL     OW17530   4.372   5.058   5.985
 5544SOL    HW117531   4.334   4.999   5.914
 5544SOL    HW217532   4.472   5.051   5.984
 5545SOL     OW17533   4.195   1.293   2.621
 5545SOL    HW117534   4.173   1.377   2.570
 5545SOL    HW217535   4.190   1.215   2.559
 5546SOL     OW17536   1.082   6.071   4.898
 5546SOL    HW117537   1.112   5.976   4.905
 5546SOL    HW217538   1.155   6.131   4.930
 5547SOL     OW17539   4.669   1.962   5.565
 5547SOL    HW117540   4.662   1.921   5.656
 5547SOL    HW217541   4.588   2.019   5.548
 5548SOL     OW17542   6.939   3.703   5.687
 5548SOL    HW117543   6.903   3.759   5.612
 5548SOL    HW217544   7.008   3.755   5.738
 5549SOL     OW17545   4.102   3.394   1.943
 5549SOL    HW117546   4.014   3.437   1.964
 5549SOL    HW217547   4.148   3.445   1.871
 5550SOL     OW17548   2.307   4.141   2.753
 5550SOL    HW117549   2.316   4.050   2.711
 5550SOL    HW217550   2.268   4.131   2.845
 5551SOL     OW17551   1.772   5.211   2.885
 5551SOL    HW117552   1.852   5.197   2.944
 5551SOL    HW217553   1.763   5.133   2.822
 5552SOL     OW17554   6.370   6.897   5.960
 5552SOL    HW117555   6.296   6.854   5.907
 5552SOL    HW217556   6.331   6.948   6.036
 5553SOL     OW17557   4.277   0.240   6.693
 5553SOL    HW117558   4.188   0.201   6.717
 5553SOL    HW217559   4.268   0.338   6.682
 5554SOL     OW17560   5.208   3.126   1.639
 5554SOL    HW117561   5.216   3.225   1.627
 5554SOL    HW217562   5.120   3.105   1.682
 5555SOL     OW17563   0.793   3.717   2.964
 5555SOL    HW117564   0.812   3.620   2.951
 5555SOL    HW217565   0.778   3.735   3.062
 5556SOL     OW17566   6.135   1.343   4.250
 5556SOL    HW117567   6.188   1.404   4.309
 5556SOL    HW217568   6.112   1.259   4.301
 5557SOL     OW17569   2.997   5.894   1.373
 5557SOL    HW117570   2.902   5.914   1.396
 5557SOL    HW217571   3.043   5.856   1.453
 5558SOL     OW17572   3.268   4.091   0.771
 5558SOL    HW117573   3.365   4.069   0.767
 5558SOL    HW217574   3.224   4.038   0.843
 5559SOL     OW17575   1.108   0.440   2.394
 5559SOL    HW117576   1.182   0.498   2.430
 5559SOL    HW217577   1.148   0.358   2.352
 5560SOL     OW17578   6.426   5.757   2.752
 5560SOL    HW117579   6.330   5.783   2.747
 5560SOL    HW217580   6.478   5.826   2.802
 5561SOL     OW17581   2.996   0.579   4.918
 5561SOL    HW117582   2.987   0.635   4.836
 5561SOL    HW217583   2.919   0.595   4.978
 5562SOL     OW17584   4.251   4.464   6.851
 5562SOL    HW117585   4.329   4.462   6.914
 5562SOL    HW217586   4.210   4.555   6.851
 5563SOL     OW17587   3.019   5.074   2.849
 5563SOL    HW117588   2.933   5.054   2.802
 5563SOL    HW217589   3.001   5.136   2.926
 5564SOL     OW17590   4.971   6.785   6.596
 5564SOL    HW117591   4.893   6.799   6.658
 5564SOL    HW217592   5.056   6.801   6.645
 5565SOL     OW17593   4.550   3.105   0.119
 5565SOL    HW117594   4.575   3.032   0.182
 5565SOL    HW217595   4.462   3.144   0.146
 5566SOL     OW17596   1.700   4.248   0.903
 5566SOL    HW117597   1.666   4.222   0.994
 5566SOL    HW217598   1.626   4.243   0.837
 5567SOL     OW17599   0.157   3.579   1.912
 5567SOL    HW117600   0.066   3.562   1.876
 5567SOL    HW217601   0.222   3.583   1.836
 5568SOL     OW17602   4.363   6.952   3.363
 5568SOL    HW117603   4.357   0.015   3.309
 5568SOL    HW217604   4.283   6.946   3.423
 5569SOL     OW17605   2.308   1.813   3.194
 5569SOL    HW117606   2.315   1.821   3.095
 5569SOL    HW217607   2.373   1.876   3.237
 5570SOL     OW17608   6.494   3.527   3.098
 5570SOL    HW117609   6.403   3.488   3.083
 5570SOL    HW217610   6.547   3.466   3.156
 5571SOL     OW17611   6.762   4.985   2.012
 5571SOL    HW117612   6.808   5.057   1.960
 5571SOL    HW217613   6.812   4.899   2.002
 5572SOL     OW17614   1.638   4.185   4.887
 5572SOL    HW117615   1.717   4.245   4.896
 5572SOL    HW217616   1.560   4.226   4.934
 5573SOL     OW17617   1.406   5.354   5.226
 5573SOL    HW117618   1.342   5.278   5.213
 5573SOL    HW217619   1.418   5.403   5.139
 5574SOL     OW17620   0.302   2.825   6.875
 5574SOL    HW117621   0.377   2.808   6.939
 5574SOL    HW217622   0.216   2.833   6.925
 5575SOL     OW17623   6.957   0.082   0.919
 5575SOL    HW117624   0.032   0.105   0.933
 5575SOL    HW217625   6.950   7.010   0.884
 5576SOL     OW17626   1.282   4.035   2.814
 5576SOL    HW117627   1.335   4.114   2.846
 5576SOL    HW217628   1.342   3.973   2.764
 5577SOL     OW17629   1.983   3.310   0.679
 5577SOL    HW117630   2.008   3.216   0.656
 5577SOL    HW217631   2.043   3.373   0.630
 5578SOL     OW17632   3.730   4.103   2.584
 5578SOL    HW117633   3.753   4.114   2.681
 5578SOL    HW217634   3.670   4.023   2.573
 5579SOL     OW17635   0.616   3.480   1.020
 5579SOL    HW117636   0.695   3.491   1.080
 5579SOL    HW217637   0.534   3.465   1.075
 5580SOL     OW17638   4.366   2.162   6.063
 5580SOL    HW117639   4.424   2.107   6.124
 5580SOL    HW217640   4.342   2.248   6.108
 5581SOL     OW17641   1.072   1.267   1.311
 5581SOL    HW117642   1.107   1.352   1.351
 5581SOL    HW217643   1.079   1.194   1.379
 5582SOL     OW17644   2.728   4.027   0.086
 5582SOL    HW117645   2.717   4.082   0.169
 5582SOL    HW217646   2.708   3.931   0.108
 5583SOL     OW17647   3.862   0.893   2.352
 5583SOL    HW117648   3.802   0.856   2.423
 5583SOL    HW217649   3.885   0.988   2.374
 5584SOL     OW17650   6.371   3.784   4.230
 5584SOL    HW117651   6.383   3.866   4.174
 5584SOL    HW217652   6.382   3.702   4.173
 5585SOL     OW17653   5.105   5.205   3.221
 5585SOL    HW117654   5.117   5.112   3.185
 5585SOL    HW217655   5.174   5.223   3.291
 5586SOL     OW17656   6.937   3.445   5.707
 5586SOL    HW117657   6.873   3.416   5.778
 5586SOL    HW217658   6.941   3.545   5.705
 5587SOL     OW17659   4.295   0.141   0.619
 5587SOL    HW117660   4.297   0.178   0.712
 5587SOL    HW217661   4.353   0.196   0.559
 5588SOL     OW17662   2.496   6.537   2.657
 5588SOL    HW117663   2.463   6.617   2.706
 5588SOL    HW217664   2.577   6.500   2.702
 5589SOL     OW17665   6.046   4.642   6.790
 5589SOL    HW117666   6.095   4.624   6.705
 5589SOL    HW217667   6.048   4.560   6.847
 5590SOL     OW17668   6.271   6.260   3.652
 5590SOL    HW117669   6.233   6.183   3.704
 5590SOL    HW217670   6.238   6.257   3.558
 5591SOL     OW17671   0.368   1.639   1.036
 5591SOL    HW117672   0.316   1.712   1.082
 5591SOL    HW217673   0.382   1.664   0.940
 5592SOL     OW17674   1.698   5.411   3.941
 5592SOL    HW117675   1.712   5.336   3.877
 5592SOL    HW217676   1.755   5.489   3.914
 5593SOL     OW17677   0.239   2.704   6.629
 5593SOL    HW117678   0.261   2.735   6.536
 5593SOL    HW217679   0.267   2.773   6.695
 5594SOL     OW17680   4.952   0.881   4.533
 5594SOL    HW117681   4.869   0.851   4.581
 5594SOL    HW217682   5.020   0.808   4.534
 5595SOL     OW17683   1.100   1.255   4.603
 5595SOL    HW117684   1.070   1.282   4.695
 5595SOL    HW217685   1.085   1.331   4.540
 5596SOL     OW17686   4.711   6.428   2.638
 5596SOL    HW117687   4.650   6.358   2.602
 5596SOL    HW217688   4.657   6.500   2.681
 5597SOL     OW17689   5.001   2.267   4.271
 5597SOL    HW117690   5.091   2.257   4.228
 5597SOL    HW217691   5.003   2.346   4.332
 5598SOL     OW17692   5.200   3.422   4.625
 5598SOL    HW117693   5.282   3.479   4.614
 5598SOL    HW217694   5.227   3.332   4.660
 5599SOL     OW17695   0.967   1.093   4.207
 5599SOL    HW117696   1.017   1.158   4.150
 5599SOL    HW217697   0.977   1.001   4.169
 5600SOL     OW17698   0.521   1.360   2.283
 5600SOL    HW117699   0.552   1.302   2.358
 5600SOL    HW217700   0.445   1.316   2.235
 5601SOL     OW17701   2.709   0.131   5.829
 5601SOL    HW117702   2.722   0.142   5.730
 5601SOL    HW217703   2.726   0.218   5.875
 5602SOL     OW17704   0.054   1.441   0.395
 5602SOL    HW117705   0.085   1.348   0.412
 5602SOL    HW217706   0.057   1.493   0.480
 5603SOL     OW17707   5.570   2.608   6.362
 5603SOL    HW117708   5.600   2.546   6.290
 5603SOL    HW217709   5.563   2.701   6.325
 5604SOL     OW17710   6.575   2.247   5.184
 5604SOL    HW117711   6.514   2.189   5.131
 5604SOL    HW217712   6.576   2.216   5.279
 5605SOL     OW17713   0.881   0.578   4.684
 5605SOL    HW117714   0.889   0.515   4.607
 5605SOL    HW217715   0.870   0.671   4.650
 5606SOL     OW17716   5.036   0.040   0.871
 5606SOL    HW117717   5.107   7.014   0.923
 5606SOL    HW217718   4.948   7.016   0.887
 5607SOL     OW17719   5.653   0.438   2.999
 5607SOL    HW117720   5.577   0.489   2.959
 5607SOL    HW217721   5.702   0.390   2.926
 5608SOL     OW17722   4.744   0.041   5.064
 5608SOL    HW117723   4.709   6.972   5.038
 5608SOL    HW217724   4.843   0.036   5.078
 5609SOL     OW17725   2.206   5.018   1.063
 5609SOL    HW117726   2.163   4.933   1.095
 5609SOL    HW217727   2.304   5.015   1.081
 5610SOL     OW17728   4.784   6.888   0.934
 5610SOL    HW117729   4.810   6.861   1.026
 5610SOL    HW217730   4.713   6.958   0.938
 5611SOL     OW17731   1.289   5.282   2.448
 5611SOL    HW117732   1.290   5.194   2.400
 5611SOL    HW217733   1.331   5.352   2.390
 5612SOL     OW17734   4.037   2.328   6.811
 5612SOL    HW117735   4.050   2.333   6.910
 5612SOL    HW217736   4.004   2.237   6.786
 5613SOL     OW17737   5.186   3.881   3.369
 5613SOL    HW117738   5.225   3.813   3.431
 5613SOL    HW217739   5.162   3.838   3.282
 5614SOL     OW17740   4.581   2.414   4.060
 5614SOL    HW117741   4.511   2.382   3.995
 5614SOL    HW217742   4.598   2.511   4.045
 5615SOL     OW17743   0.609   0.982   5.536
 5615SOL    HW117744   0.667   0.961   5.458
 5615SOL    HW217745   0.553   1.062   5.517
 5616SOL     OW17746   2.125   1.226   4.989
 5616SOL    HW117747   2.110   1.161   5.063
 5616SOL    HW217748   2.065   1.203   4.912
 5617SOL     OW17749   2.230   6.668   6.243
 5617SOL    HW117750   2.155   6.734   6.227
 5617SOL    HW217751   2.214   6.620   6.329
 5618SOL     OW17752   6.497   3.617   3.699
 5618SOL    HW117753   6.452   3.684   3.757
 5618SOL    HW217754   6.534   3.543   3.755
 5619SOL     OW17755   3.054   3.910   6.355
 5619SOL    HW117756   3.102   3.990   6.317
 5619SOL    HW217757   2.963   3.937   6.385
 5620SOL     OW17758   3.777   3.456   0.912
 5620SOL    HW117759   3.727   3.415   0.989
 5620SOL    HW217760   3.838   3.388   0.872
 5621SOL     OW17761   1.026   2.393   6.008
 5621SOL    HW117762   0.929   2.376   5.993
 5621SOL    HW217763   1.049   2.486   5.979
 5622SOL     OW17764   4.363   0.187   5.933
 5622SOL    HW117765   4.347   0.265   5.873
 5622SOL    HW217766   4.278   0.162   5.979
 5623SOL     OW17767   2.265   5.972   6.224
 5623SOL    HW117768   2.258   6.069   6.247
 5623SOL    HW217769   2.224   5.955   6.135
 5624SOL     OW17770   0.885   4.440   3.242
 5624SOL    HW117771   0.880   4.472   3.147
 5624SOL    HW217772   0.980   4.442   3.273
 5625SOL     OW17773   6.012   1.875   4.445
 5625SOL    HW117774   5.926   1.926   4.448
 5625SOL    HW217775   6.083   1.932   4.404
 5626SOL     OW17776   2.968   6.928   4.656
 5626SOL    HW117777   2.911   6.901   4.578
 5626SOL    HW217778   3.038   6.858   4.672
 5627SOL     OW17779   0.850   6.058   0.133
 5627SOL    HW117780   0.943   6.050   0.170
 5627SOL    HW217781   0.853   6.055   0.033
 5628SOL     OW17782   1.099   2.903   5.666
 5628SOL    HW117783   1.167   2.973   5.647
 5628SOL    HW217784   1.053   2.923   5.752
 5629SOL     OW17785   3.389   3.779   2.346
 5629SOL    HW117786   3.472   3.732   2.317
 5629SOL    HW217787   3.310   3.720   2.330
 5630SOL     OW17788   1.307   5.086   0.272
 5630SOL    HW117789   1.286   5.145   0.194
 5630SOL    HW217790   1.406   5.079   0.283
 5631SOL     OW17791   4.422   1.775   6.954
 5631SOL    HW117792   4.424   1.840   0.008
 5631SOL    HW217793   4.368   1.812   6.878
 5632SOL     OW17794   4.088   2.545   5.835
 5632SOL    HW117795   4.064   2.607   5.910
 5632SOL    HW217796   4.006   2.502   5.799
 5633SOL     OW17797   5.767   2.698   3.957
 5633SOL    HW117798   5.765   2.797   3.944
 5633SOL    HW217799   5.823   2.675   4.036
 5634SOL     OW17800   2.234   6.233   5.313
 5634SOL    HW117801   2.187   6.223   5.226
 5634SOL    HW217802   2.285   6.150   5.334
 5635SOL     OW17803   2.172   3.846   5.279
 5635SOL    HW117804   2.258   3.796   5.289
 5635SOL    HW217805   2.185   3.941   5.309
 5636SOL     OW17806   3.229   6.219   2.445
 5636SOL    HW117807   3.163   6.159   2.490
 5636SOL    HW217808   3.300   6.164   2.401
 5637SOL     OW17809   4.969   0.084   3.935
 5637SOL    HW117810   5.046   0.069   3.996
 5637SOL    HW217811   4.888   0.038   3.971
 5638SOL     OW17812   5.648   3.640   1.816
 5638SOL    HW117813   5.552   3.665   1.808
 5638SOL    HW217814   5.690   3.639   1.726
 5639SOL     OW17815   0.211   0.738   0.088
 5639SOL    HW117816   0.289   0.696   0.134
 5639SOL    HW217817   0.243   0.809   0.026
 5640SOL     OW17818   2.862   0.620   3.641
 5640SOL    HW117819   2.947   0.570   3.626
 5640SOL    HW217820   2.880   0.718   3.641
 5641SOL     OW17821   0.939   4.808   5.313
 5641SOL    HW117822   1.032   4.828   5.284
 5641SOL    HW217823   0.890   4.764   5.237
 5642SOL     OW17824   2.003   6.580   6.910
 5642SOL    HW117825   2.096   6.587   6.944
 5642SOL    HW217826   1.964   6.491   6.935
 5643SOL     OW17827   4.511   1.382   4.941
 5643SOL    HW117828   4.529   1.444   4.864
 5643SOL    HW217829   4.592   1.379   4.999
 5644SOL     OW17830   2.887   7.010   5.397
 5644SOL    HW117831   2.908   7.002   5.495
 5644SOL    HW217832   2.811   6.948   5.375
 5645SOL     OW17833   6.346   3.792   3.834
 5645SOL    HW117834   6.431   3.823   3.877
 5645SOL    HW217835   6.336   3.837   3.745
 5646SOL     OW17836   2.070   5.328   3.011
 5646SOL    HW117837   2.071   5.229   3.024
 5646SOL    HW217838   2.070   5.373   3.100
 5647SOL     OW17839   5.489   6.452   1.701
 5647SOL    HW117840   5.500   6.465   1.602
 5647SOL    HW217841   5.421   6.380   1.718
 5648SOL     OW17842   2.533   5.685   3.070
 5648SOL    HW117843   2.603   5.744   3.032
 5648SOL    HW217844   2.481   5.735   3.140
 5649SOL     OW17845   0.991   6.504   3.947
 5649SOL    HW117846   0.914   6.563   3.920
 5649SOL    HW217847   1.076   6.542   3.911
 5650SOL     OW17848   0.863   4.812   0.716
 5650SOL    HW117849   0.947   4.806   0.663
 5650SOL    HW217850   0.871   4.754   0.798
 5651SOL     OW17851   1.581   0.654   0.675
 5651SOL    HW117852   1.645   0.625   0.746
 5651SOL    HW217853   1.493   0.678   0.717
 5652SOL     OW17854   0.012   5.602   1.768
 5652SOL    HW117855   0.061   5.544   1.703
 5652SOL    HW217856   0.053   5.593   1.859
 5653SOL     OW17857   0.295   5.835   0.306
 5653SOL    HW117858   0.288   5.763   0.375
 5653SOL    HW217859   0.362   5.808   0.237
 5654SOL     OW17860   1.431   5.701   4.298
 5654SOL    HW117861   1.477   5.675   4.383
 5654SOL    HW217862   1.477   5.657   4.221
 5655SOL     OW17863   6.539   2.823   3.837
 5655SOL    HW117864   6.528   2.749   3.904
 5655SOL    HW217865   6.578   2.786   3.753
 5656SOL     OW17866   6.699   3.861   6.260
 5656SOL    HW117867   6.693   3.808   6.344
 5656SOL    HW217868   6.758   3.813   6.194
 5657SOL     OW17869   4.606   4.330   5.055
 5657SOL    HW117870   4.534   4.324   4.986
 5657SOL    HW217871   4.692   4.297   5.017
 5658SOL     OW17872   3.028   3.121   6.361
 5658SOL    HW117873   3.017   3.027   6.330
 5658SOL    HW217874   3.073   3.175   6.290
 5659SOL     OW17875   3.551   3.800   6.035
 5659SOL    HW117876   3.452   3.801   6.022
 5659SOL    HW217877   3.589   3.720   5.989
 5660SOL     OW17878   4.644   0.348   6.648
 5660SOL    HW117879   4.631   0.411   6.572
 5660SOL    HW217880   4.672   0.259   6.613
 5661SOL     OW17881   1.196   5.187   5.835
 5661SOL    HW117882   1.135   5.181   5.757
 5661SOL    HW217883   1.225   5.095   5.862
 5662SOL     OW17884   2.293   6.901   2.916
 5662SOL    HW117885   2.314   6.882   2.820
 5662SOL    HW217886   2.355   6.972   2.950
 5663SOL     OW17887   1.286   2.432   0.580
 5663SOL    HW117888   1.374   2.462   0.618
 5663SOL    HW217889   1.284   2.333   0.574
 5664SOL     OW17890   5.723   3.924   4.631
 5664SOL    HW117891   5.726   3.867   4.549
 5664SOL    HW217892   5.707   3.866   4.711
 5665SOL     OW17893   1.196   5.954   6.943
 5665SOL    HW117894   1.131   5.878   6.953
 5665SOL    HW217895   1.273   5.924   6.886
 5666SOL     OW17896   6.399   1.074   3.748
 5666SOL    HW117897   6.320   1.134   3.737
 5666SOL    HW217898   6.374   0.998   3.808
 5667SOL     OW17899   1.679   4.678   4.079
 5667SOL    HW117900   1.694   4.635   4.168
 5667SOL    HW217901   1.760   4.731   4.054
 5668SOL     OW17902   6.366   2.616   2.535
 5668SOL    HW117903   6.297   2.648   2.470
 5668SOL    HW217904   6.400   2.694   2.588
 5669SOL     OW17905   6.783   4.603   0.178
 5669SOL    HW117906   6.717   4.642   0.114
 5669SOL    HW217907   6.876   4.630   0.152
 5670SOL     OW17908   1.754   3.031   3.083
 5670SOL    HW117909   1.725   3.033   2.987
 5670SOL    HW217910   1.754   2.937   3.116
 5671SOL     OW17911   6.164   5.768   5.056
 5671SOL    HW117912   6.177   5.862   5.025
 5671SOL    HW217913   6.246   5.714   5.035
 5672SOL     OW17914   4.739   3.979   5.473
 5672SOL    HW117915   4.674   3.924   5.420
 5672SOL    HW217916   4.763   4.061   5.421
 5673SOL     OW17917   0.893   6.663   1.400
 5673SOL    HW117918   0.898   6.662   1.300
 5673SOL    HW217919   0.858   6.752   1.430
 5674SOL     OW17920   2.300   4.677   4.294
 5674SOL    HW117921   2.313   4.596   4.353
 5674SOL    HW217922   2.349   4.755   4.334
 5675SOL     OW17923   4.165   1.568   0.253
 5675SOL    HW117924   4.230   1.540   0.183
 5675SOL    HW217925   4.118   1.487   0.289
 5676SOL     OW17926   2.662   2.183   1.780
 5676SOL    HW117927   2.739   2.228   1.824
 5676SOL    HW217928   2.654   2.214   1.685
 5677SOL     OW17929   6.811   0.975   0.601
 5677SOL    HW117930   6.899   0.940   0.570
 5677SOL    HW217931   6.741   0.956   0.532
 5678SOL     OW17932   3.796   1.242   2.197
 5678SOL    HW117933   3.725   1.308   2.221
 5678SOL    HW217934   3.769   1.192   2.115
 5679SOL     OW17935   5.908   2.111   5.067
 5679SOL    HW117936   5.976   2.172   5.109
 5679SOL    HW217937   5.842   2.165   5.016
 5680SOL     OW17938   1.611   4.736   5.764
 5680SOL    HW117939   1.705   4.772   5.766
 5680SOL    HW217940   1.614   4.639   5.740
 5681SOL     OW17941   0.377   4.180   3.125
 5681SOL    HW117942   0.419   4.270   3.117
 5681SOL    HW217943   0.366   4.140   3.034
 5682SOL     OW17944   2.930   5.664   3.044
 5682SOL    HW117945   2.888   5.661   2.954
 5682SOL    HW217946   3.030   5.662   3.034
 5683SOL     OW17947   4.295   2.684   6.653
 5683SOL    HW117948   4.240   2.680   6.569
 5683SOL    HW217949   4.380   2.733   6.635
 5684SOL     OW17950   2.418   3.915   6.344
 5684SOL    HW117951   2.338   3.972   6.322
 5684SOL    HW217952   2.446   3.865   6.262
 5685SOL     OW17953   2.048   1.960   3.840
 5685SOL    HW117954   1.980   2.032   3.826
 5685SOL    HW217955   2.025   1.908   3.923
 5686SOL     OW17956   3.041   1.077   5.668
 5686SOL    HW117957   2.956   1.052   5.713
 5686SOL    HW217958   3.110   1.007   5.686
 5687SOL     OW17959   0.165   6.152   5.641
 5687SOL    HW117960   0.072   6.120   5.621
 5687SOL    HW217961   0.163   6.251   5.658
 5688SOL     OW17962   2.297   2.741   3.451
 5688SOL    HW117963   2.290   2.746   3.550
 5688SOL    HW217964   2.242   2.665   3.417
 5689SOL     OW17965   2.043   0.637   2.005
 5689SOL    HW117966   2.096   0.703   1.952
 5689SOL    HW217967   2.047   0.662   2.102
 5690SOL     OW17968   0.691   5.229   6.881
 5690SOL    HW117969   0.703   5.300   6.812
 5690SOL    HW217970   0.781   5.194   6.910
 5691SOL     OW17971   3.337   0.886   2.303
 5691SOL    HW117972   3.249   0.863   2.262
 5691SOL    HW217973   3.392   0.803   2.314
 5692SOL     OW17974   4.679   5.135   0.833
 5692SOL    HW117975   4.711   5.064   0.896
 5692SOL    HW217976   4.672   5.222   0.882
 5693SOL     OW17977   4.064   0.755   1.309
 5693SOL    HW117978   4.143   0.701   1.280
 5693SOL    HW217979   3.980   0.704   1.286
 5694SOL     OW17980   0.467   6.994   2.515
 5694SOL    HW117981   0.449   7.006   2.613
 5694SOL    HW217982   0.534   6.921   2.502
 5695SOL     OW17983   1.029   0.751   2.263
 5695SOL    HW117984   0.948   0.698   2.289
 5695SOL    HW217985   1.076   0.706   2.188
 5696SOL     OW17986   1.598   0.779   4.311
 5696SOL    HW117987   1.596   0.754   4.214
 5696SOL    HW217988   1.678   0.737   4.355
 5697SOL     OW17989   6.514   2.045   1.678
 5697SOL    HW117990   6.470   2.135   1.676
 5697SOL    HW217991   6.604   2.051   1.635
 5698SOL     OW17992   1.786   3.568   3.427
 5698SOL    HW117993   1.853   3.501   3.394
 5698SOL    HW217994   1.770   3.554   3.525
 5699SOL     OW17995   2.453   1.915   2.861
 5699SOL    HW117996   2.377   1.980   2.868
 5699SOL    HW217997   2.423   1.833   2.812
 5700SOL     OW17998   6.846   0.157   2.090
 5700SOL    HW117999   6.819   0.064   2.114
 5700SOL    HW218000   6.923   0.154   2.026
 5701SOL     OW18001   6.956   1.581   1.035
 5701SOL    HW118002   6.933   1.583   1.132
 5701SOL    HW218003   6.895   1.517   0.988
 5702SOL     OW18004   2.002   6.404   4.630
 5702SOL    HW118005   1.914   6.366   4.600
 5702SOL    HW218006   1.993   6.502   4.643
 5703SOL     OW18007   0.091   4.246   6.372
 5703SOL    HW118008   0.118   4.337   6.403
 5703SOL    HW218009   0.090   4.244   6.272
 5704SOL     OW18010   5.440   4.663   3.632
 5704SOL    HW118011   5.438   4.713   3.545
 5704SOL    HW218012   5.430   4.565   3.615
 5705SOL     OW18013   6.051   6.070   6.410
 5705SOL    HW118014   5.955   6.067   6.380
 5705SOL    HW218015   6.082   6.165   6.410
 5706SOL     OW18016   5.666   2.692   1.005
 5706SOL    HW118017   5.674   2.785   0.970
 5706SOL    HW218018   5.680   2.692   1.104
 5707SOL     OW18019   5.251   0.192   1.613
 5707SOL    HW118020   5.301   0.260   1.667
 5707SOL    HW218021   5.220   0.233   1.527
 5708SOL     OW18022   5.194   6.063   3.172
 5708SOL    HW118023   5.169   6.029   3.263
 5708SOL    HW218024   5.200   6.162   3.174
 5709SOL     OW18025   0.452   0.948   2.327
 5709SOL    HW118026   0.518   0.925   2.255
 5709SOL    HW218027   0.360   0.949   2.289
 5710SOL     OW18028   3.186   2.721   1.013
 5710SOL    HW118029   3.198   2.795   0.947
 5710SOL    HW218030   3.170   2.635   0.965
 5711SOL     OW18031   5.198   0.482   1.907
 5711SOL    HW118032   5.172   0.512   1.999
 5711SOL    HW218033   5.170   0.551   1.841
 5712SOL     OW18034   6.409   6.185   0.963
 5712SOL    HW118035   6.371   6.276   0.975
 5712SOL    HW218036   6.339   6.123   0.929
 5713SOL     OW18037   2.896   5.406   0.533
 5713SOL    HW118038   2.811   5.410   0.480
 5713SOL    HW218039   2.884   5.453   0.620
 5714SOL     OW18040   6.664   6.547   1.793
 5714SOL    HW118041   6.654   6.461   1.844
 5714SOL    HW218042   6.714   6.613   1.849
 5715SOL     OW18043   0.570   6.502   1.156
 5715SOL    HW118044   0.539   6.476   1.247
 5715SOL    HW218045   0.529   6.442   1.087
 5716SOL     OW18046   1.180   5.095   6.160
 5716SOL    HW118047   1.173   4.999   6.133
 5716SOL    HW218048   1.250   5.140   6.104
 5717SOL     OW18049   2.042   4.893   2.675
 5717SOL    HW118050   2.080   4.894   2.767
 5717SOL    HW218051   2.071   4.975   2.625
 5718SOL     OW18052   0.807   2.897   0.205
 5718SOL    HW118053   0.876   2.832   0.175
 5718SOL    HW218054   0.791   2.965   0.134
 5719SOL     OW18055   2.786   3.114   1.220
 5719SOL    HW118056   2.773   3.204   1.179
 5719SOL    HW218057   2.761   3.043   1.154
 5720SOL     OW18058   2.119   5.869   5.618
 5720SOL    HW118059   2.079   5.793   5.669
 5720SOL    HW218060   2.166   5.931   5.681
 5721SOL     OW18061   5.590   4.363   1.016
 5721SOL    HW118062   5.673   4.326   0.976
 5721SOL    HW218063   5.613   4.432   1.085
 5722SOL     OW18064   0.401   1.370   5.271
 5722SOL    HW118065   0.448   1.451   5.237
 5722SOL    HW218066   0.304   1.374   5.244
 5723SOL     OW18067   3.826   3.376   6.863
 5723SOL    HW118068   3.786   3.338   6.779
 5723SOL    HW218069   3.756   3.382   6.933
 5724SOL     OW18070   6.240   3.138   3.461
 5724SOL    HW118071   6.167   3.145   3.528
 5724SOL    HW218072   6.283   3.048   3.468
 5725SOL     OW18073   5.950   5.290   2.810
 5725SOL    HW118074   6.017   5.363   2.821
 5725SOL    HW218075   5.920   5.258   2.899
 5726SOL     OW18076   5.295   4.116   3.515
 5726SOL    HW118077   5.342   4.058   3.580
 5726SOL    HW218078   5.216   4.067   3.478
 5727SOL     OW18079   0.283   2.665   4.677
 5727SOL    HW118080   0.280   2.617   4.764
 5727SOL    HW218081   0.378   2.683   4.651
 5728SOL     OW18082   4.951   5.773   5.555
 5728SOL    HW118083   4.978   5.766   5.459
 5728SOL    HW218084   5.008   5.712   5.611
 5729SOL     OW18085   2.156   2.168   6.126
 5729SOL    HW118086   2.066   2.210   6.115
 5729SOL    HW218087   2.217   2.233   6.172
 5730SOL     OW18088   0.100   4.257   5.849
 5730SOL    HW118089   0.009   4.284   5.882
 5730SOL    HW218090   0.133   4.178   5.901
 5731SOL     OW18091   6.784   0.033   1.423
 5731SOL    HW118092   6.757   6.987   1.491
 5731SOL    HW218093   6.880   0.018   1.398
 5732SOL     OW18094   1.334   6.271   4.165
 5732SOL    HW118095   1.242   6.272   4.124
 5732SOL    HW218096   1.335   6.330   4.245
 5733SOL     OW18097   4.296   6.712   5.167
 5733SOL    HW118098   4.281   6.618   5.196
 5733SOL    HW218099   4.294   6.718   5.067
 5734SOL     OW18100   1.735   6.127   5.100
 5734SOL    HW118101   1.808   6.127   5.031
 5734SOL    HW218102   1.658   6.073   5.066
 5735SOL     OW18103   3.223   1.886   1.632
 5735SOL    HW118104   3.177   1.944   1.700
 5735SOL    HW218105   3.253   1.801   1.676
 5736SOL     OW18106   0.780   5.093   0.281
 5736SOL    HW118107   0.774   5.018   0.347
 5736SOL    HW218108   0.821   5.059   0.196
 5737SOL     OW18109   5.608   6.128   6.377
 5737SOL    HW118110   5.632   6.033   6.395
 5737SOL    HW218111   5.550   6.163   6.452
 5738SOL     OW18112   2.032   3.469   6.531
 5738SOL    HW118113   2.091   3.516   6.597
 5738SOL    HW218114   1.944   3.450   6.574
 5739SOL     OW18115   1.530   1.047   0.764
 5739SOL    HW118116   1.519   1.065   0.862
 5739SOL    HW218117   1.618   1.001   0.749
 5740SOL     OW18118   4.148   6.146   6.978
 5740SOL    HW118119   4.124   6.180   0.048
 5740SOL    HW218120   4.087   6.070   6.954
 5741SOL     OW18121   6.485   5.648   4.932
 5741SOL    HW118122   6.445   5.709   4.863
 5741SOL    HW218123   6.551   5.587   4.887
 5742SOL     OW18124   6.282   6.494   2.326
 5742SOL    HW118125   6.290   6.401   2.291
 5742SOL    HW218126   6.213   6.498   2.398
 5743SOL     OW18127   2.798   0.050   5.093
 5743SOL    HW118128   2.873   7.018   5.054
 5743SOL    HW218129   2.742   7.012   5.152
 5744SOL     OW18130   5.588   1.538   0.339
 5744SOL    HW118131   5.527   1.502   0.268
 5744SOL    HW218132   5.549   1.520   0.429
 5745SOL     OW18133   1.557   1.600   4.554
 5745SOL    HW118134   1.533   1.512   4.512
 5745SOL    HW218135   1.656   1.615   4.544
 5746SOL     OW18136   5.105   1.934   6.729
 5746SOL    HW118137   5.078   1.859   6.790
 5746SOL    HW218138   5.033   2.003   6.727
 5747SOL     OW18139   0.080   5.493   2.919
 5747SOL    HW118140   0.112   5.474   2.826
 5747SOL    HW218141   0.115   5.424   2.981
 5748SOL     OW18142   2.180   4.842   1.964
 5748SOL    HW118143   2.242   4.764   1.961
 5748SOL    HW218144   2.094   4.818   1.921
 5749SOL     OW18145   2.151   2.107   3.492
 5749SOL    HW118146   2.108   2.017   3.503
 5749SOL    HW218147   2.211   2.126   3.569
 5750SOL     OW18148   6.347   4.905   4.641
 5750SOL    HW118149   6.446   4.911   4.627
 5750SOL    HW218150   6.300   4.915   4.553
 5751SOL     OW18151   2.054   3.339   5.201
 5751SOL    HW118152   2.130   3.394   5.237
 5751SOL    HW218153   2.090   3.255   5.160
 5752SOL     OW18154   6.727   6.494   5.897
 5752SOL    HW118155   6.663   6.535   5.832
 5752SOL    HW218156   6.675   6.442   5.965
 5753SOL     OW18157   3.519   2.977   6.750
 5753SOL    HW118158   3.548   3.063   6.708
 5753SOL    HW218159   3.517   2.987   6.849
 5754SOL     OW18160   5.417   5.595   1.819
 5754SOL    HW118161   5.503   5.544   1.816
 5754SOL    HW218162   5.390   5.620   1.726
 5755SOL     OW18163   3.342   3.713   6.940
 5755SOL    HW118164   3.328   3.622   6.980
 5755SOL    HW218165   3.382   3.704   6.849
 5756SOL     OW18166   6.857   5.246   3.558
 5756SOL    HW118167   6.848   5.189   3.476
 5756SOL    HW218168   6.857   5.188   3.639
 5757SOL     OW18169   6.191   5.514   1.051
 5757SOL    HW118170   6.166   5.434   1.107
 5757SOL    HW218171   6.256   5.571   1.102
 5758SOL     OW18172   2.058   2.153   5.037
 5758SOL    HW118173   2.012   2.241   5.051
 5758SOL    HW218174   2.155   2.162   5.061
 5759SOL     OW18175   5.128   1.341   6.121
 5759SOL    HW118176   5.124   1.361   6.022
 5759SOL    HW218177   5.047   1.380   6.165
 5760SOL     OW18178   1.366   5.016   2.338
 5760SOL    HW118179   1.376   4.943   2.271
 5760SOL    HW218180   1.309   4.985   2.414
 5761SOL     OW18181   4.658   6.475   4.808
 5761SOL    HW118182   4.643   6.517   4.897
 5761SOL    HW218183   4.601   6.393   4.800
 5762SOL     OW18184   5.656   6.525   1.486
 5762SOL    HW118185   5.631   6.620   1.505
 5762SOL    HW218186   5.748   6.507   1.518
 5763SOL     OW18187   1.518   0.389   0.910
 5763SOL    HW118188   1.538   0.395   0.813
 5763SOL    HW218189   1.551   0.302   0.946
 5764SOL     OW18190   5.787   4.364   5.248
 5764SOL    HW118191   5.788   4.391   5.152
 5764SOL    HW218192   5.868   4.310   5.268
 5765SOL     OW18193   6.316   4.501   0.017
 5765SOL    HW118194   6.348   4.439   6.966
 5765SOL    HW218195   6.293   4.448   0.098
 5766SOL     OW18196   3.266   1.770   2.281
 5766SOL    HW118197   3.242   1.810   2.192
 5766SOL    HW218198   3.236   1.830   2.354
 5767SOL     OW18199   0.050   6.580   0.737
 5767SOL    HW118200   0.076   6.537   0.823
 5767SOL    HW218201   6.983   6.543   0.706
 5768SOL     OW18202   6.395   1.055   2.845
 5768SOL    HW118203   6.342   1.140   2.851
 5768SOL    HW218204   6.339   0.984   2.803
 5769SOL     OW18205   2.726   6.318   3.950
 5769SOL    HW118206   2.768   6.399   3.992
 5769SOL    HW218207   2.702   6.338   3.855
 5770SOL     OW18208   6.501   0.233   1.299
 5770SOL    HW118209   6.414   0.228   1.251
 5770SOL    HW218210   6.556   0.152   1.277
 5771SOL     OW18211   1.382   0.437   1.404
 5771SOL    HW118212   1.450   0.413   1.334
 5771SOL    HW218213   1.291   0.438   1.362
 5772SOL     OW18214   6.009   3.108   0.875
 5772SOL    HW118215   5.987   3.101   0.973
 5772SOL    HW218216   6.009   3.017   0.834
 5773SOL     OW18217   5.320   6.410   3.818
 5773SOL    HW118218   5.229   6.368   3.811
 5773SOL    HW218219   5.321   6.475   3.894
 5774SOL     OW18220   2.072   5.106   3.861
 5774SOL    HW118221   2.073   5.184   3.924
 5774SOL    HW218222   2.075   5.140   3.767
 5775SOL     OW18223   6.845   6.860   6.384
 5775SOL    HW118224   6.865   6.828   6.477
 5775SOL    HW218225   6.930   6.866   6.332
 5776SOL     OW18226   4.721   0.139   5.993
 5776SOL    HW118227   4.640   0.108   5.943
 5776SOL    HW218228   4.719   0.238   6.001
 5777SOL     OW18229   6.911   1.314   4.313
 5777SOL    HW118230   6.923   1.318   4.412
 5777SOL    HW218231   6.999   1.289   4.271
 5778SOL     OW18232   1.219   6.653   3.191
 5778SOL    HW118233   1.190   6.712   3.116
 5778SOL    HW218234   1.242   6.708   3.271
 5779SOL     OW18235   4.105   1.247   1.524
 5779SOL    HW118236   4.028   1.211   1.473
 5779SOL    HW218237   4.119   1.343   1.500
 5780SOL     OW18238   0.084   4.413   1.439
 5780SOL    HW118239   7.007   4.394   1.443
 5780SOL    HW218240   0.116   4.406   1.345
 5781SOL     OW18241   2.074   4.998   5.151
 5781SOL    HW118242   2.091   4.917   5.095
 5781SOL    HW218243   2.116   4.985   5.241
 5782SOL     OW18244   2.290   0.969   1.546
 5782SOL    HW118245   2.259   1.009   1.460
 5782SOL    HW218246   2.212   0.931   1.596
 5783SOL     OW18247   1.279   0.187   1.048
 5783SOL    HW118248   1.333   0.173   1.131
 5783SOL    HW218249   1.266   0.285   1.034
 5784SOL     OW18250   0.364   6.083   0.200
 5784SOL    HW118251   0.348   5.990   0.234
 5784SOL    HW218252   0.462   6.101   0.195
 5785SOL     OW18253   2.031   1.659   0.161
 5785SOL    HW118254   1.995   1.568   0.182
 5785SOL    HW218255   2.092   1.654   0.082
 5786SOL     OW18256   1.531   3.336   1.746
 5786SOL    HW118257   1.629   3.317   1.739
 5786SOL    HW218258   1.516   3.410   1.812
 5787SOL     OW18259   5.849   2.503   4.978
 5787SOL    HW118260   5.925   2.502   4.912
 5787SOL    HW218261   5.812   2.410   4.986
 5788SOL     OW18262   2.692   1.181   2.240
 5788SOL    HW118263   2.683   1.212   2.145
 5788SOL    HW218264   2.642   1.242   2.301
 5789SOL     OW18265   4.256   3.989   6.760
 5789SOL    HW118266   4.284   4.085   6.754
 5789SOL    HW218267   4.283   3.941   6.677
 5790SOL     OW18268   5.445   5.774   4.538
 5790SOL    HW118269   5.480   5.722   4.460
 5790SOL    HW218270   5.397   5.855   4.504
 5791SOL     OW18271   3.922   1.096   2.661
 5791SOL    HW118272   3.928   1.137   2.570
 5791SOL    HW218273   3.934   1.167   2.730
 5792SOL     OW18274   4.989   3.700   3.146
 5792SOL    HW118275   5.072   3.676   3.095
 5792SOL    HW218276   4.912   3.711   3.084
 5793SOL     OW18277   4.934   2.176   5.186
 5793SOL    HW118278   4.969   2.270   5.191
 5793SOL    HW218279   4.846   2.176   5.139
 5794SOL     OW18280   3.625   6.642   6.278
 5794SOL    HW118281   3.534   6.654   6.238
 5794SOL    HW218282   3.663   6.732   6.301
 5795SOL     OW18283   1.294   5.697   1.554
 5795SOL    HW118284   1.226   5.730   1.619
 5795SOL    HW218285   1.357   5.635   1.600
 5796SOL     OW18286   4.289   2.153   7.003
 5796SOL    HW118287   4.252   2.072   6.958
 5796SOL    HW218288   4.217   2.222   7.010
 5797SOL     OW18289   5.189   2.396   0.212
 5797SOL    HW118290   5.107   2.428   0.163
 5797SOL    HW218291   5.253   2.357   0.146
 5798SOL     OW18292   1.649   4.040   5.635
 5798SOL    HW118293   1.597   4.089   5.565
 5798SOL    HW218294   1.585   3.997   5.699
 5799SOL     OW18295   1.472   6.597   3.027
 5799SOL    HW118296   1.374   6.594   3.008
 5799SOL    HW218297   1.522   6.549   2.955
 5800SOL     OW18298   0.567   6.358   0.663
 5800SOL    HW118299   0.540   6.283   0.602
 5800SOL    HW218300   0.666   6.362   0.668
 5801SOL     OW18301   2.163   1.953   2.519
 5801SOL    HW118302   2.247   2.007   2.521
 5801SOL    HW218303   2.105   1.978   2.597
 5802SOL     OW18304   0.006   1.392   2.099
 5802SOL    HW118305   6.929   1.383   2.111
 5802SOL    HW218306   0.035   1.343   2.017
 5803SOL     OW18307   0.991   5.087   3.914
 5803SOL    HW118308   0.925   5.160   3.895
 5803SOL    HW218309   1.010   5.037   3.829
 5804SOL     OW18310   6.504   0.863   3.567
 5804SOL    HW118311   6.433   0.886   3.634
 5804SOL    HW218312   6.461   0.841   3.480
 5805SOL     OW18313   2.275   2.832   1.181
 5805SOL    HW118314   2.182   2.830   1.146
 5805SOL    HW218315   2.283   2.900   1.253
 5806SOL     OW18316   0.368   3.443   2.863
 5806SOL    HW118317   0.401   3.528   2.822
 5806SOL    HW218318   0.277   3.422   2.827
 5807SOL     OW18319   0.957   0.033   0.867
 5807SOL    HW118320   0.931   7.017   0.778
 5807SOL    HW218321   0.899   7.014   0.938
 5808SOL     OW18322   5.957   0.626   4.951
 5808SOL    HW118323   5.878   0.678   4.919
 5808SOL    HW218324   5.928   0.534   4.978
 5809SOL     OW18325   0.458   1.984   5.972
 5809SOL    HW118326   0.524   2.009   6.043
 5809SOL    HW218327   0.480   1.893   5.937
 5810SOL     OW18328   4.088   0.161   5.107
 5810SOL    HW118329   4.096   0.216   5.190
 5810SOL    HW218330   4.178   0.150   5.065
 5811SOL     OW18331   3.008   3.751   5.976
 5811SOL    HW118332   3.001   3.702   6.063
 5811SOL    HW218333   3.103   3.774   5.957
 5812SOL     OW18334   5.729   2.462   0.628
 5812SOL    HW118335   5.631   2.481   0.621
 5812SOL    HW218336   5.774   2.493   0.544
 5813SOL     OW18337   4.428   6.390   1.333
 5813SOL    HW118338   4.373   6.449   1.392
 5813SOL    HW218339   4.510   6.439   1.305
 5814SOL     OW18340   5.613   1.886   1.997
 5814SOL    HW118341   5.592   1.984   2.002
 5814SOL    HW218342   5.555   1.836   2.061
 5815SOL     OW18343   6.654   1.831   3.809
 5815SOL    HW118344   6.733   1.774   3.787
 5815SOL    HW218345   6.571   1.787   3.775
 5816SOL     OW18346   6.834   4.044   2.953
 5816SOL    HW118347   6.857   3.962   2.901
 5816SOL    HW218348   6.880   4.042   3.041
 5817SOL     OW18349   5.890   4.336   3.503
 5817SOL    HW118350   5.843   4.312   3.418
 5817SOL    HW218351   5.914   4.252   3.552
 5818SOL     OW18352   2.031   0.346   5.567
 5818SOL    HW118353   2.114   0.297   5.594
 5818SOL    HW218354   1.991   0.391   5.647
 5819SOL     OW18355   4.338   5.129   0.327
 5819SOL    HW118356   4.395   5.047   0.329
 5819SOL    HW218357   4.385   5.200   0.275
 5820SOL     OW18358   5.853   5.155   2.242
 5820SOL    HW118359   5.843   5.062   2.208
 5820SOL    HW218360   5.942   5.191   2.213
 5821SOL     OW18361   6.270   0.758   1.293
 5821SOL    HW118362   6.309   0.761   1.200
 5821SOL    HW218363   6.327   0.812   1.355
 5822SOL     OW18364   1.934   3.064   2.589
 5822SOL    HW118365   1.978   2.998   2.650
 5822SOL    HW218366   1.965   3.050   2.496
 5823SOL     OW18367   2.033   6.584   4.255
 5823SOL    HW118368   2.061   6.633   4.173
 5823SOL    HW218369   2.044   6.486   4.241
 5824SOL     OW18370   0.488   6.860   1.461
 5824SOL    HW118371   0.491   6.796   1.384
 5824SOL    HW218372   0.499   6.953   1.427
 5825SOL     OW18373   6.185   0.626   4.380
 5825SOL    HW118374   6.278   0.591   4.391
 5825SOL    HW218375   6.163   0.687   4.455
 5826SOL     OW18376   0.623   6.790   4.833
 5826SOL    HW118377   0.683   6.793   4.913
 5826SOL    HW218378   0.574   6.877   4.825
 5827SOL     OW18379   2.036   4.648   5.329
 5827SOL    HW118380   1.986   4.734   5.317
 5827SOL    HW218381   1.980   4.572   5.298
 5828SOL     OW18382   4.310   6.792   4.503
 5828SOL    HW118383   4.310   6.888   4.475
 5828SOL    HW218384   4.220   6.752   4.487
 5829SOL     OW18385   2.968   0.952   3.836
 5829SOL    HW118386   3.062   0.920   3.850
 5829SOL    HW218387   2.969   1.041   3.790
 5830SOL     OW18388   3.637   5.530   4.475
 5830SOL    HW118389   3.549   5.486   4.489
 5830SOL    HW218390   3.643   5.563   4.381
 5831SOL     OW18391   1.569   1.661   5.273
 5831SOL    HW118392   1.606   1.695   5.359
 5831SOL    HW218393   1.597   1.722   5.198
 5832SOL     OW18394   2.509   5.346   0.956
 5832SOL    HW118395   2.569   5.422   0.933
 5832SOL    HW218396   2.514   5.276   0.885
 5833SOL     OW18397   4.664   3.469   6.374
 5833SOL    HW118398   4.708   3.549   6.332
 5833SOL    HW218399   4.566   3.472   6.358
 5834SOL     OW18400   5.668   3.926   6.365
 5834SOL    HW118401   5.669   3.833   6.402
 5834SOL    HW218402   5.710   3.989   6.431
 5835SOL     OW18403   5.539   0.986   2.341
 5835SOL    HW118404   5.459   0.933   2.369
 5835SOL    HW218405   5.595   0.932   2.279
 5836SOL     OW18406   3.929   6.989   2.274
 5836SOL    HW118407   4.013   6.936   2.289
 5836SOL    HW218408   3.930   0.049   2.332
 5837SOL     OW18409   3.100   4.406   6.825
 5837SOL    HW118410   3.111   4.323   6.878
 5837SOL    HW218411   3.135   4.391   6.732
 5838SOL     OW18412   3.439   1.804   0.548
 5838SOL    HW118413   3.359   1.848   0.589
 5838SOL    HW218414   3.455   1.842   0.457
 5839SOL     OW18415   1.366   1.797   1.093
 5839SOL    HW118416   1.460   1.778   1.122
 5839SOL    HW218417   1.307   1.721   1.119
 5840SOL     OW18418   1.345   3.318   3.322
 5840SOL    HW118419   1.257   3.366   3.318
 5840SOL    HW218420   1.377   3.300   3.230
 5841SOL     OW18421   5.338   2.254   0.692
 5841SOL    HW118422   5.321   2.200   0.775
 5841SOL    HW218423   5.251   2.291   0.658
 5842SOL     OW18424   2.828   1.882   0.626
 5842SOL    HW118425   2.894   1.956   0.642
 5842SOL    HW218426   2.854   1.832   0.544
 5843SOL     OW18427   1.915   3.305   1.263
 5843SOL    HW118428   1.906   3.361   1.345
 5843SOL    HW218429   2.012   3.291   1.243
 5844SOL     OW18430   0.982   0.452   4.913
 5844SOL    HW118431   0.938   0.525   4.860
 5844SOL    HW218432   0.972   0.365   4.865
 5845SOL     OW18433   1.010   6.202   1.661
 5845SOL    HW118434   0.974   6.294   1.644
 5845SOL    HW218435   1.089   6.186   1.603
 5846SOL     OW18436   6.395   4.184   6.036
 5846SOL    HW118437   6.369   4.170   5.941
 5846SOL    HW218438   6.370   4.103   6.089
 5847SOL     OW18439   2.989   3.363   0.757
 5847SOL    HW118440   2.912   3.404   0.806
 5847SOL    HW218441   2.955   3.288   0.699
 5848SOL     OW18442   2.463   5.314   2.995
 5848SOL    HW118443   2.563   5.317   2.995
 5848SOL    HW218444   2.427   5.403   2.968
 5849SOL     OW18445   2.777   6.335   5.394
 5849SOL    HW118446   2.750   6.380   5.309
 5849SOL    HW218447   2.854   6.384   5.436
 5850SOL     OW18448   0.849   1.689   2.215
 5850SOL    HW118449   0.836   1.754   2.140
 5850SOL    HW218450   0.946   1.682   2.237
 5851SOL     OW18451   6.321   3.488   4.868
 5851SOL    HW118452   6.414   3.495   4.832
 5851SOL    HW218453   6.325   3.454   4.962
 5852SOL     OW18454   4.986   4.950   2.810
 5852SOL    HW118455   4.921   4.933   2.737
 5852SOL    HW218456   5.078   4.923   2.780
 5853SOL     OW18457   3.477   4.526   5.306
 5853SOL    HW118458   3.429   4.610   5.281
 5853SOL    HW218459   3.556   4.549   5.362
 5854SOL     OW18460   3.178   5.153   6.064
 5854SOL    HW118461   3.210   5.188   6.152
 5854SOL    HW218462   3.134   5.065   6.076
 5855SOL     OW18463   2.243   2.936   3.928
 5855SOL    HW118464   2.268   2.897   3.839
 5855SOL    HW218465   2.223   2.862   3.992
 5856SOL     OW18466   1.519   6.810   3.221
 5856SOL    HW118467   1.544   6.767   3.308
 5856SOL    HW218468   1.499   6.738   3.154
 5857SOL     OW18469   6.841   4.137   6.406
 5857SOL    HW118470   6.795   4.127   6.318
 5857SOL    HW218471   6.940   4.127   6.393
 5858SOL     OW18472   2.328   0.625   3.722
 5858SOL    HW118473   2.250   0.687   3.719
 5858SOL    HW218474   2.315   0.557   3.794
 5859SOL     OW18475   5.768   6.923   2.169
 5859SOL    HW118476   5.820   6.981   2.232
 5859SOL    HW218477   5.800   6.939   2.075
 5860SOL     OW18478   0.193   3.026   3.948
 5860SOL    HW118479   0.182   2.927   3.950
 5860SOL    HW218480   0.287   3.049   3.921
 5861SOL     OW18481   4.756   0.762   4.962
 5861SOL    HW118482   4.752   0.862   4.955
 5861SOL    HW218483   4.664   0.725   4.969
 5862SOL     OW18484   6.823   5.121   3.313
 5862SOL    HW118485   6.899   5.129   3.248
 5862SOL    HW218486   6.815   5.026   3.344
 5863SOL     OW18487   3.912   6.991   5.466
 5863SOL    HW118488   3.820   6.953   5.457
 5863SOL    HW218489   3.959   6.985   5.378
 5864SOL     OW18490   2.962   3.724   2.469
 5864SOL    HW118491   2.922   3.675   2.391
 5864SOL    HW218492   2.995   3.813   2.439
 5865SOL     OW18493   6.141   1.040   5.456
 5865SOL    HW118494   6.137   1.123   5.401
 5865SOL    HW218495   6.180   1.061   5.546
 5866SOL     OW18496   3.699   3.222   2.707
 5866SOL    HW118497   3.716   3.189   2.800
 5866SOL    HW218498   3.696   3.144   2.645
 5867SOL     OW18499   3.065   2.165   1.442
 5867SOL    HW118500   3.042   2.184   1.537
 5867SOL    HW218501   3.162   2.185   1.426
 5868SOL     OW18502   0.994   1.108   6.440
 5868SOL    HW118503   0.971   1.010   6.437
 5868SOL    HW218504   1.066   1.127   6.373
 5869SOL     OW18505   1.431   4.813   4.233
 5869SOL    HW118506   1.462   4.908   4.236
 5869SOL    HW218507   1.463   4.770   4.148
 5870SOL     OW18508   4.415   4.585   4.732
 5870SOL    HW118509   4.464   4.507   4.692
 5870SOL    HW218510   4.383   4.561   4.824
 5871SOL     OW18511   3.289   3.203   3.225
 5871SOL    HW118512   3.319   3.298   3.218
 5871SOL    HW218513   3.210   3.197   3.287
 5872SOL     OW18514   3.654   5.853   2.177
 5872SOL    HW118515   3.578   5.821   2.233
 5872SOL    HW218516   3.632   5.843   2.080
 5873SOL     OW18517   4.022   4.912   2.435
 5873SOL    HW118518   4.062   5.001   2.414
 5873SOL    HW218519   3.930   4.906   2.397
 5874SOL     OW18520   3.074   5.012   5.668
 5874SOL    HW118521   3.062   4.928   5.721
 5874SOL    HW218522   3.145   5.068   5.709
 5875SOL     OW18523   2.735   1.117   0.659
 5875SOL    HW118524   2.749   1.150   0.752
 5875SOL    HW218525   2.650   1.063   0.655
 5876SOL     OW18526   3.844   3.496   2.267
 5876SOL    HW118527   3.814   3.401   2.278
 5876SOL    HW218528   3.859   3.515   2.170
 5877SOL     OW18529   5.749   4.565   1.164
 5877SOL    HW118530   5.822   4.528   1.222
 5877SOL    HW218531   5.690   4.624   1.220
 5878SOL     OW18532   2.260   4.662   2.347
 5878SOL    HW118533   2.259   4.761   2.362
 5878SOL    HW218534   2.348   4.625   2.378
 5879SOL     OW18535   0.055   4.061   6.801
 5879SOL    HW118536   7.016   4.127   6.755
 5879SOL    HW218537   0.040   3.970   6.762
 5880SOL     OW18538   2.764   6.129   1.096
 5880SOL    HW118539   2.705   6.067   1.149
 5880SOL    HW218540   2.859   6.115   1.123
 5881SOL     OW18541   0.493   5.092   4.082
 5881SOL    HW118542   0.530   5.156   4.015
 5881SOL    HW218543   0.529   5.000   4.065
 5882SOL     OW18544   4.697   0.745   1.617
 5882SOL    HW118545   4.795   0.749   1.599
 5882SOL    HW218546   4.664   0.835   1.645
 5883SOL     OW18547   0.063   3.076   0.070
 5883SOL    HW118548   0.043   2.997   0.012
 5883SOL    HW218549   0.001   3.151   0.046
 5884SOL     OW18550   0.838   1.441   2.578
 5884SOL    HW118551   0.775   1.472   2.506
 5884SOL    HW218552   0.832   1.503   2.656
 5885SOL     OW18553   5.985   6.277   1.322
 5885SOL    HW118554   5.964   6.324   1.236
 5885SOL    HW218555   6.046   6.334   1.377
 5886SOL     OW18556   0.321   1.960   5.481
 5886SOL    HW118557   0.367   1.935   5.566
 5886SOL    HW218558   0.279   2.050   5.491
 5887SOL     OW18559   3.410   0.888   4.359
 5887SOL    HW118560   3.397   0.969   4.417
 5887SOL    HW218561   3.487   0.904   4.297
 5888SOL     OW18562   2.119   6.355   3.620
 5888SOL    HW118563   2.139   6.453   3.607
 5888SOL    HW218564   2.032   6.345   3.668
 5889SOL     OW18565   2.392   0.102   1.288
 5889SOL    HW118566   2.310   0.156   1.272
 5889SOL    HW218567   2.466   0.136   1.230
 5890SOL     OW18568   2.092   5.381   5.528
 5890SOL    HW118569   2.174   5.433   5.552
 5890SOL    HW218570   2.114   5.284   5.526
 5891SOL     OW18571   3.772   2.925   0.453
 5891SOL    HW118572   3.694   2.965   0.406
 5891SOL    HW218573   3.801   2.841   0.407
 5892SOL     OW18574   0.207   6.231   1.307
 5892SOL    HW118575   0.289   6.259   1.256
 5892SOL    HW218576   0.214   6.264   1.401
 5893SOL     OW18577   1.306   1.699   3.821
 5893SOL    HW118578   1.265   1.786   3.791
 5893SOL    HW218579   1.404   1.700   3.800
 5894SOL     OW18580   1.536   3.667   3.347
 5894SOL    HW118581   1.630   3.646   3.375
 5894SOL    HW218582   1.473   3.638   3.419
 5895SOL     OW18583   5.678   3.218   4.471
 5895SOL    HW118584   5.602   3.168   4.430
 5895SOL    HW218585   5.737   3.254   4.398
 5896SOL     OW18586   4.031   1.985   0.192
 5896SOL    HW118587   4.103   1.928   0.232
 5896SOL    HW218588   3.950   1.981   0.250
 5897SOL     OW18589   3.776   0.753   0.766
 5897SOL    HW118590   3.676   0.755   0.775
 5897SOL    HW218591   3.818   0.792   0.847
 5898SOL     OW18592   1.753   6.996   2.662
 5898SOL    HW118593   1.822   6.942   2.613
 5898SOL    HW218594   1.782   0.071   2.663
 5899SOL     OW18595   5.849   6.492   4.530
 5899SOL    HW118596   5.767   6.499   4.474
 5899SOL    HW218597   5.897   6.407   4.508
 5900SOL     OW18598   4.875   4.790   3.222
 5900SOL    HW118599   4.819   4.872   3.233
 5900SOL    HW218600   4.822   4.710   3.250
 5901SOL     OW18601   2.426   6.601   6.789
 5901SOL    HW118602   2.417   6.684   6.734
 5901SOL    HW218603   2.483   6.535   6.741
 5902SOL     OW18604   7.007   2.569   0.272
 5902SOL    HW118605   7.017   2.474   0.241
 5902SOL    HW218606   6.927   2.575   0.333
 5903SOL     OW18607   5.723   3.885   6.914
 5903SOL    HW118608   5.664   3.866   6.992
 5903SOL    HW218609   5.819   3.878   6.941
 5904SOL     OW18610   0.254   3.615   2.158
 5904SOL    HW118611   0.209   3.690   2.207
 5904SOL    HW218612   0.225   3.616   2.062
 5905SOL     OW18613   6.785   6.541   2.416
 5905SOL    HW118614   6.816   6.491   2.496
 5905SOL    HW218615   6.854   6.535   2.344
 5906SOL     OW18616   6.089   1.172   3.387
 5906SOL    HW118617   6.174   1.122   3.403
 5906SOL    HW218618   6.103   1.269   3.409
 5907SOL     OW18619   0.183   6.345   1.570
 5907SOL    HW118620   0.265   6.370   1.621
 5907SOL    HW218621   0.136   6.270   1.617
 5908SOL     OW18622   0.530   2.754   5.127
 5908SOL    HW118623   0.626   2.780   5.135
 5908SOL    HW218624   0.519   2.690   5.051
 5909SOL     OW18625   0.204   6.153   0.556
 5909SOL    HW118626   0.268   6.196   0.493
 5909SOL    HW218627   0.158   6.076   0.511
 5910SOL     OW18628   1.467   2.224   3.368
 5910SOL    HW118629   1.516   2.243   3.283
 5910SOL    HW218630   1.435   2.129   3.367
 5911SOL     OW18631   6.664   5.537   6.567
 5911SOL    HW118632   6.629   5.621   6.607
 5911SOL    HW218633   6.598   5.499   6.503
 5912SOL     OW18634   6.400   1.768   4.590
 5912SOL    HW118635   6.491   1.797   4.560
 5912SOL    HW218636   6.409   1.703   4.666
 5913SOL     OW18637   5.584   2.799   0.339
 5913SOL    HW118638   5.525   2.870   0.300
 5913SOL    HW218639   5.530   2.716   0.353
 5914SOL     OW18640   0.731   6.291   6.376
 5914SOL    HW118641   0.823   6.253   6.365
 5914SOL    HW218642   0.664   6.230   6.334
 5915SOL     OW18643   3.652   0.104   6.687
 5915SOL    HW118644   3.639   0.161   6.606
 5915SOL    HW218645   3.618   0.153   6.768
 5916SOL     OW18646   1.782   6.736   2.290
 5916SOL    HW118647   1.856   6.680   2.252
 5916SOL    HW218648   1.742   6.792   2.217
 5917SOL     OW18649   3.090   4.195   0.022
 5917SOL    HW118650   3.008   4.140   0.008
 5917SOL    HW218651   3.165   4.157   6.989
 5918SOL     OW18652   2.926   6.498   6.097
 5918SOL    HW118653   2.879   6.586   6.104
 5918SOL    HW218654   2.882   6.441   6.029
 5919SOL     OW18655   3.894   3.053   3.397
 5919SOL    HW118656   3.937   3.099   3.319
 5919SOL    HW218657   3.839   2.977   3.364
 5920SOL     OW18658   6.563   0.241   6.124
 5920SOL    HW118659   6.648   0.190   6.138
 5920SOL    HW218660   6.552   0.260   6.027
 5921SOL     OW18661   3.177   4.599   6.490
 5921SOL    HW118662   3.220   4.522   6.537
 5921SOL    HW218663   3.120   4.651   6.554
 5922SOL     OW18664   6.044   3.574   3.067
 5922SOL    HW118665   6.099   3.635   3.009
 5922SOL    HW218666   6.002   3.627   3.140
 5923SOL     OW18667   6.447   0.992   1.466
 5923SOL    HW118668   6.514   0.926   1.432
 5923SOL    HW218669   6.492   1.060   1.524
 5924SOL     OW18670   6.025   0.156   2.503
 5924SOL    HW118671   5.942   0.206   2.480
 5924SOL    HW218672   6.043   0.164   2.601
 5925SOL     OW18673   4.611   5.586   1.206
 5925SOL    HW118674   4.702   5.618   1.180
 5925SOL    HW218675   4.609   5.567   1.304
 5926SOL     OW18676   3.878   4.875   2.752
 5926SOL    HW118677   3.915   4.843   2.665
 5926SOL    HW218678   3.942   4.854   2.826
 5927SOL     OW18679   1.234   3.885   1.435
 5927SOL    HW118680   1.221   3.921   1.343
 5927SOL    HW218681   1.299   3.810   1.433
 5928SOL     OW18682   4.058   0.429   1.088
 5928SOL    HW118683   4.038   0.493   1.014
 5928SOL    HW218684   3.975   0.411   1.140
 5929SOL     OW18685   6.931   0.701   5.769
 5929SOL    HW118686   6.875   0.690   5.851
 5929SOL    HW218687   6.872   0.715   5.690
 5930SOL     OW18688   1.806   3.542   1.838
 5930SOL    HW118689   1.807   3.452   1.794
 5930SOL    HW218690   1.825   3.612   1.769
 5931SOL     OW18691   5.948   5.992   3.201
 5931SOL    HW118692   5.983   6.034   3.117
 5931SOL    HW218693   5.902   6.062   3.256
 5932SOL     OW18694   2.801   0.570   6.297
 5932SOL    HW118695   2.786   0.480   6.257
 5932SOL    HW218696   2.831   0.559   6.392
 5933SOL     OW18697   6.395   5.230   4.243
 5933SOL    HW118698   6.441   5.185   4.166
 5933SOL    HW218699   6.296   5.219   4.234
 5934SOL     OW18700   3.265   3.680   5.638
 5934SOL    HW118701   3.331   3.617   5.680
 5934SOL    HW218702   3.173   3.659   5.671
 5935SOL     OW18703   0.523   6.072   4.919
 5935SOL    HW118704   0.586   6.130   4.868
 5935SOL    HW218705   0.429   6.096   4.895
 5936SOL     OW18706   3.689   3.306   3.444
 5936SOL    HW118707   3.607   3.289   3.499
 5936SOL    HW218708   3.672   3.276   3.350
 5937SOL     OW18709   6.945   3.233   2.063
 5937SOL    HW118710   6.902   3.246   2.152
 5937SOL    HW218711   0.020   3.210   2.075
 5938SOL     OW18712   6.137   4.931   5.276
 5938SOL    HW118713   6.235   4.952   5.268
 5938SOL    HW218714   6.112   4.863   5.208
 5939SOL     OW18715   3.753   6.919   4.612
 5939SOL    HW118716   3.748   6.899   4.514
 5939SOL    HW218717   3.686   6.989   4.636
 5940SOL     OW18718   5.142   5.591   2.656
 5940SOL    HW118719   5.206   5.574   2.581
 5940SOL    HW218720   5.072   5.656   2.627
 5941SOL     OW18721   6.623   1.948   1.955
 5941SOL    HW118722   6.670   1.887   1.890
 5941SOL    HW218723   6.611   2.038   1.913
 5942SOL     OW18724   6.615   3.707   6.455
 5942SOL    HW118725   6.531   3.744   6.493
 5942SOL    HW218726   6.593   3.633   6.391
 5943SOL     OW18727   3.892   3.799   0.727
 5943SOL    HW118728   3.922   3.768   0.817
 5943SOL    HW218729   3.841   3.725   0.683
 5944SOL     OW18730   0.866   3.378   6.564
 5944SOL    HW118731   0.783   3.348   6.517
 5944SOL    HW218732   0.944   3.325   6.531
 5945SOL     OW18733   0.611   5.603   5.545
 5945SOL    HW118734   0.535   5.542   5.570
 5945SOL    HW218735   0.694   5.572   5.591
 5946SOL     OW18736   3.762   4.664   0.030
 5946SOL    HW118737   3.845   4.640   0.080
 5946SOL    HW218738   3.768   4.760   0.000
 5947SOL     OW18739   3.004   3.184   4.727
 5947SOL    HW118740   3.022   3.190   4.629
 5947SOL    HW218741   3.076   3.130   4.771
 5948SOL     OW18742   5.213   3.622   2.275
 5948SOL    HW118743   5.147   3.550   2.257
 5948SOL    HW218744   5.241   3.664   2.188
 5949SOL     OW18745   6.344   5.955   1.164
 5949SOL    HW118746   6.385   6.042   1.190
 5949SOL    HW218747   6.249   5.970   1.134
 5950SOL     OW18748   5.539   2.566   5.804
 5950SOL    HW118749   5.445   2.597   5.790
 5950SOL    HW218750   5.540   2.490   5.869
 5951SOL     OW18751   0.944   4.262   5.701
 5951SOL    HW118752   1.016   4.325   5.673
 5951SOL    HW218753   0.978   4.168   5.697
 5952SOL     OW18754   3.836   5.038   1.601
 5952SOL    HW118755   3.746   5.015   1.639
 5952SOL    HW218756   3.898   5.061   1.675
 5953SOL     OW18757   5.975   2.435   5.440
 5953SOL    HW118758   6.064   2.429   5.486
 5953SOL    HW218759   5.911   2.371   5.483
 5954SOL     OW18760   0.593   6.091   4.545
 5954SOL    HW118761   0.691   6.084   4.526
 5954SOL    HW218762   0.566   6.188   4.543
 5955SOL     OW18763   5.235   4.409   1.388
 5955SOL    HW118764   5.288   4.440   1.310
 5955SOL    HW218765   5.138   4.405   1.364
 5956SOL     OW18766   4.950   2.490   4.473
 5956SOL    HW118767   4.902   2.490   4.561
 5956SOL    HW218768   4.887   2.518   4.401
 5957SOL     OW18769   0.965   1.217   2.862
 5957SOL    HW118770   0.905   1.142   2.834
 5957SOL    HW218771   1.019   1.246   2.782
 5958SOL     OW18772   4.239   6.943   2.618
 5958SOL    HW118773   4.316   6.951   2.553
 5958SOL    HW218774   4.226   0.008   2.665
 5959SOL     OW18775   4.953   2.321   4.853
 5959SOL    HW118776   4.878   2.282   4.906
 5959SOL    HW218777   5.003   2.387   4.910
 5960SOL     OW18778   3.743   6.466   5.595
 5960SOL    HW118779   3.644   6.459   5.602
 5960SOL    HW218780   3.773   6.558   5.618
 5961SOL     OW18781   3.631   1.830   2.558
 5961SOL    HW118782   3.621   1.925   2.531
 5961SOL    HW218783   3.619   1.822   2.657
 5962SOL     OW18784   5.438   6.463   0.102
 5962SOL    HW118785   5.401   6.517   0.178
 5962SOL    HW218786   5.366   6.450   0.033
 5963SOL     OW18787   3.837   4.771   6.659
 5963SOL    HW118788   3.911   4.774   6.592
 5963SOL    HW218789   3.763   4.831   6.630
 5964SOL     OW18790   1.879   6.355   2.626
 5964SOL    HW118791   1.843   6.368   2.718
 5964SOL    HW218792   1.819   6.293   2.575
 5965SOL     OW18793   1.689   7.020   6.803
 5965SOL    HW118794   1.739   6.936   6.823
 5965SOL    HW218795   1.728   0.075   6.855
 5966SOL     OW18796   2.223   0.384   5.280
 5966SOL    HW118797   2.314   0.422   5.266
 5966SOL    HW218798   2.166   0.452   5.326
 5967SOL     OW18799   2.490   2.026   4.839
 5967SOL    HW118800   2.488   2.082   4.756
 5967SOL    HW218801   2.497   1.929   4.813
 5968SOL     OW18802   5.637   2.334   0.334
 5968SOL    HW118803   5.668   2.313   0.241
 5968SOL    HW218804   5.567   2.406   0.331
 5969SOL     OW18805   5.227   1.118   6.546
 5969SOL    HW118806   5.173   1.051   6.496
 5969SOL    HW218807   5.176   1.203   6.554
 5970SOL     OW18808   0.771   2.909   0.582
 5970SOL    HW118809   0.764   2.876   0.488
 5970SOL    HW218810   0.729   2.843   0.644
 5971SOL     OW18811   6.290   6.997   3.248
 5971SOL    HW118812   6.213   6.947   3.208
 5971SOL    HW218813   6.338   6.937   3.312
 5972SOL     OW18814   5.153   5.051   0.476
 5972SOL    HW118815   5.129   5.106   0.557
 5972SOL    HW218816   5.230   4.992   0.498
 5973SOL     OW18817   1.804   3.325   2.690
 5973SOL    HW118818   1.830   3.240   2.645
 5973SOL    HW218819   1.828   3.402   2.632
 5974SOL     OW18820   3.681   0.784   6.738
 5974SOL    HW118821   3.715   0.782   6.644
 5974SOL    HW218822   3.749   0.744   6.799
 5975SOL     OW18823   5.428   4.172   0.086
 5975SOL    HW118824   5.385   4.088   0.050
 5975SOL    HW218825   5.472   4.152   0.174
 5976SOL     OW18826   3.412   3.500   5.759
 5976SOL    HW118827   3.404   3.403   5.785
 5976SOL    HW218828   3.502   3.534   5.787
 5977SOL     OW18829   0.349   5.064   0.439
 5977SOL    HW118830   0.260   5.104   0.416
 5977SOL    HW218831   0.421   5.131   0.421
 5978SOL     OW18832   3.296   5.349   6.695
 5978SOL    HW118833   3.347   5.403   6.762
 5978SOL    HW218834   3.359   5.290   6.645
 5979SOL     OW18835   6.462   0.566   1.661
 5979SOL    HW118836   6.467   0.570   1.562
 5979SOL    HW218837   6.551   0.538   1.697
 5980SOL     OW18838   3.551   2.698   1.785
 5980SOL    HW118839   3.617   2.772   1.772
 5980SOL    HW218840   3.597   2.610   1.773
 5981SOL     OW18841   4.627   2.893   0.657
 5981SOL    HW118842   4.556   2.900   0.587
 5981SOL    HW218843   4.587   2.863   0.743
 5982SOL     OW18844   6.144   1.928   2.452
 5982SOL    HW118845   6.158   1.850   2.513
 5982SOL    HW218846   6.166   2.012   2.502
 5983SOL     OW18847   6.970   1.050   4.535
 5983SOL    HW118848   0.004   1.010   4.608
 5983SOL    HW218849   6.981   1.150   4.537
 5984SOL     OW18850   6.364   6.716   3.391
 5984SOL    HW118851   6.411   6.665   3.319
 5984SOL    HW218852   6.428   6.732   3.467
 5985SOL     OW18853   6.092   2.049   3.288
 5985SOL    HW118854   6.173   2.031   3.343
 5985SOL    HW218855   6.017   2.079   3.348
 5986SOL     OW18856   4.307   3.854   5.250
 5986SOL    HW118857   4.287   3.941   5.294
 5986SOL    HW218858   4.240   3.786   5.280
 5987SOL     OW18859   6.638   0.536   4.662
 5987SOL    HW118860   6.542   0.514   4.681
 5987SOL    HW218861   6.666   0.615   4.716
 5988SOL     OW18862   2.973   1.613   6.984
 5988SOL    HW118863   2.941   1.600   6.890
 5988SOL    HW218864   2.905   1.666   0.014
 5989SOL     OW18865   0.639   6.125   6.825
 5989SOL    HW118866   0.600   6.136   6.734
 5989SOL    HW218867   0.616   6.204   6.881
 5990SOL     OW18868   3.656   4.372   1.683
 5990SOL    HW118869   3.750   4.401   1.663
 5990SOL    HW218870   3.605   4.449   1.721
 5991SOL     OW18871   4.937   6.030   1.204
 5991SOL    HW118872   4.942   6.024   1.105
 5991SOL    HW218873   4.950   6.125   1.233
 5992SOL     OW18874   3.135   0.002   1.704
 5992SOL    HW118875   3.078   7.003   1.624
 5992SOL    HW218876   3.077   0.035   1.779
 5993SOL     OW18877   6.405   2.844   0.576
 5993SOL    HW118878   6.505   2.849   0.568
 5993SOL    HW218879   6.380   2.807   0.665
 5994SOL     OW18880   0.132   3.039   1.003
 5994SOL    HW118881   0.179   2.950   1.005
 5994SOL    HW218882   0.188   3.107   1.049
 5995SOL     OW18883   4.964   3.503   1.492
 5995SOL    HW118884   4.994   3.544   1.406
 5995SOL    HW218885   4.868   3.525   1.508
 5996SOL     OW18886   2.778   5.628   1.471
 5996SOL    HW118887   2.784   5.728   1.473
 5996SOL    HW218888   2.792   5.596   1.377
 5997SOL     OW18889   6.387   6.626   2.818
 5997SOL    HW118890   6.472   6.662   2.781
 5997SOL    HW218891   6.392   6.526   2.822
 5998SOL     OW18892   6.252   0.788   2.022
 5998SOL    HW118893   6.226   0.691   2.029
 5998SOL    HW218894   6.170   0.845   2.034
 5999SOL     OW18895   3.737   4.192   0.842
 5999SOL    HW118896   3.782   4.203   0.930
 5999SOL    HW218897   3.805   4.167   0.773
 6000SOL     OW18898   0.130   5.489   0.604
 6000SOL    HW118899   0.216   5.531   0.575
 6000SOL    HW218900   0.055   5.524   0.548
 6001SOL     OW18901   5.174   6.151   5.403
 6001SOL    HW118902   5.081   6.175   5.375
 6001SOL    HW218903   5.185   6.170   5.500
 6002SOL     OW18904   6.974   7.009   4.985
 6002SOL    HW118905   0.048   0.016   4.996
 6002SOL    HW218906   6.970   6.910   4.970
 6003SOL     OW18907   6.338   2.983   4.434
 6003SOL    HW118908   6.299   3.051   4.372
 6003SOL    HW218909   6.436   2.997   4.441
 6004SOL     OW18910   4.973   2.419   3.464
 6004SOL    HW118911   4.880   2.417   3.428
 6004SOL    HW218912   5.026   2.343   3.425
 6005SOL     OW18913   4.713   4.383   5.500
 6005SOL    HW118914   4.622   4.357   5.468
 6005SOL    HW218915   4.704   4.443   5.579
 6006SOL     OW18916   3.517   6.873   5.370
 6006SOL    HW118917   3.541   6.968   5.350
 6006SOL    HW218918   3.486   6.828   5.286
 6007SOL     OW18919   0.488   4.283   5.525
 6007SOL    HW118920   0.421   4.274   5.452
 6007SOL    HW218921   0.443   4.321   5.606
 6008SOL     OW18922   2.120   4.284   5.326
 6008SOL    HW118923   2.167   4.298   5.239
 6008SOL    HW218924   2.180   4.231   5.387
 6009SOL     OW18925   4.602   5.479   3.053
 6009SOL    HW118926   4.633   5.568   3.089
 6009SOL    HW218927   4.566   5.424   3.128
 6010SOL     OW18928   0.436   4.049   4.571
 6010SOL    HW118929   0.410   4.095   4.656
 6010SOL    HW218930   0.425   4.112   4.494
 6011SOL     OW18931   5.180   1.795   3.012
 6011SOL    HW118932   5.236   1.864   2.967
 6011SOL    HW218933   5.094   1.836   3.043
 6012SOL     OW18934   5.987   0.684   6.691
 6012SOL    HW118935   5.914   0.734   6.739
 6012SOL    HW218936   6.062   0.746   6.671
 6013SOL     OW18937   5.065   1.021   2.490
 6013SOL    HW118938   5.098   1.057   2.403
 6013SOL    HW218939   4.992   1.079   2.526
 6014SOL     OW18940   3.238   2.955   4.575
 6014SOL    HW118941   3.322   2.977   4.527
 6014SOL    HW218942   3.160   2.972   4.515
 6015SOL     OW18943   6.446   2.416   4.434
 6015SOL    HW118944   6.405   2.390   4.522
 6015SOL    HW218945   6.514   2.488   4.449
 6016SOL     OW18946   4.875   1.724   4.646
 6016SOL    HW118947   4.878   1.820   4.618
 6016SOL    HW218948   4.959   1.702   4.697
 6017SOL     OW18949   6.789   3.482   5.125
 6017SOL    HW118950   6.835   3.561   5.167
 6017SOL    HW218951   6.784   3.495   5.026
 6018SOL     OW18952   3.238   1.025   4.983
 6018SOL    HW118953   3.281   1.115   4.978
 6018SOL    HW218954   3.265   0.979   5.068
 6019SOL     OW18955   0.707   4.166   6.280
 6019SOL    HW118956   0.752   4.208   6.201
 6019SOL    HW218957   0.704   4.066   6.267
 6020SOL     OW18958   1.278   5.127   0.540
 6020SOL    HW118959   1.262   5.084   0.451
 6020SOL    HW218960   1.329   5.212   0.527
 6021SOL     OW18961   4.046   0.550   2.468
 6021SOL    HW118962   4.107   0.474   2.486
 6021SOL    HW218963   3.957   0.515   2.437
 6022SOL     OW18964   6.235   0.886   2.739
 6022SOL    HW118965   6.209   0.826   2.663
 6022SOL    HW218966   6.155   0.905   2.796
 6023SOL     OW18967   4.890   0.735   1.404
 6023SOL    HW118968   4.792   0.752   1.398
 6023SOL    HW218969   4.921   0.687   1.321
 6024SOL     OW18970   0.389   4.767   1.115
 6024SOL    HW118971   0.379   4.866   1.109
 6024SOL    HW218972   0.369   4.726   1.026
 6025SOL     OW18973   2.700   1.257   4.016
 6025SOL    HW118974   2.768   1.185   4.029
 6025SOL    HW218975   2.691   1.310   4.101
 6026SOL     OW18976   6.381   4.009   4.052
 6026SOL    HW118977   6.443   4.019   3.974
 6026SOL    HW218978   6.422   4.053   4.132
 6027SOL     OW18979   5.636   4.017   6.103
 6027SOL    HW118980   5.732   4.033   6.082
 6027SOL    HW218981   5.627   3.992   6.200
 6028SOL     OW18982   5.459   5.035   0.385
 6028SOL    HW118983   5.549   5.031   0.429
 6028SOL    HW218984   5.423   5.128   0.391
 6029SOL     OW18985   2.687   0.440   2.883
 6029SOL    HW118986   2.754   0.514   2.878
 6029SOL    HW218987   2.698   0.380   2.804
 6030SOL     OW18988   4.915   3.821   4.840
 6030SOL    HW118989   4.904   3.821   4.740
 6030SOL    HW218990   4.882   3.735   4.877
 6031SOL     OW18991   0.708   5.982   4.157
 6031SOL    HW118992   0.693   5.907   4.223
 6031SOL    HW218993   0.803   6.013   4.162
 6032SOL     OW18994   3.467   6.681   3.929
 6032SOL    HW118995   3.392   6.638   3.979
 6032SOL    HW218996   3.448   6.676   3.831
 6033SOL     OW18997   2.455   2.551   2.367
 6033SOL    HW118998   2.507   2.541   2.282
 6033SOL    HW218999   2.384   2.481   2.371
 6034SOL     OW19000   1.320   0.282   6.641
 6034SOL    HW119001   1.364   0.226   6.571
 6034SOL    HW219002   1.281   0.224   6.711
 6035SOL     OW19003   0.733   1.195   2.674
 6035SOL    HW119004   0.758   1.291   2.688
 6035SOL    HW219005   0.806   1.149   2.625
 6036SOL     OW19006   6.032   4.471   1.015
 6036SOL    HW119007   6.032   4.458   0.916
 6036SOL    HW219008   6.009   4.385   1.060
 6037SOL     OW19009   4.105   1.590   1.044
 6037SOL    HW119010   4.156   1.514   1.084
 6037SOL    HW219011   4.150   1.677   1.068
 6038SOL     OW19012   1.163   2.253   6.875
 6038SOL    HW119013   1.147   2.198   6.956
 6038SOL    HW219014   1.231   2.324   6.895
 6039SOL     OW19015   3.870   3.924   4.047
 6039SOL    HW119016   3.864   3.865   3.966
 6039SOL    HW219017   3.962   3.918   4.086
 6040SOL     OW19018   1.536   1.568   6.852
 6040SOL    HW119019   1.580   1.508   6.919
 6040SOL    HW219020   1.459   1.520   6.809
 6041SOL     OW19021   2.770   2.502   5.459
 6041SOL    HW119022   2.725   2.525   5.372
 6041SOL    HW219023   2.868   2.523   5.451
 6042SOL     OW19024   3.819   6.523   3.153
 6042SOL    HW119025   3.722   6.501   3.145
 6042SOL    HW219026   3.835   6.617   3.124
 6043SOL     OW19027   1.828   0.805   3.929
 6043SOL    HW119028   1.874   0.726   3.971
 6043SOL    HW219029   1.890   0.883   3.928
 6044SOL     OW19030   1.826   1.702   1.427
 6044SOL    HW119031   1.754   1.769   1.412
 6044SOL    HW219032   1.903   1.746   1.474
 6045SOL     OW19033   5.273   3.237   3.623
 6045SOL    HW119034   5.197   3.224   3.560
 6045SOL    HW219035   5.269   3.330   3.661
 6046SOL     OW19036   3.701   2.482   1.734
 6046SOL    HW119037   3.800   2.497   1.736
 6046SOL    HW219038   3.677   2.409   1.798
 6047SOL     OW19039   5.703   1.975   0.511
 6047SOL    HW119040   5.694   1.968   0.610
 6047SOL    HW219041   5.648   2.051   0.477
 6048SOL     OW19042   5.476   5.138   4.856
 6048SOL    HW119043   5.477   5.172   4.762
 6048SOL    HW219044   5.443   5.210   4.917
 6049SOL     OW19045   5.327   5.054   5.894
 6049SOL    HW119046   5.328   4.961   5.856
 6049SOL    HW219047   5.409   5.103   5.864
 6050SOL     OW19048   3.002   5.546   0.827
 6050SOL    HW119049   3.067   5.470   0.824
 6050SOL    HW219050   3.051   5.629   0.854
 6051SOL     OW19051   0.646   1.672   2.663
 6051SOL    HW119052   0.587   1.592   2.646
 6051SOL    HW219053   0.737   1.641   2.688
 6052SOL     OW19054   5.546   0.115   1.344
 6052SOL    HW119055   5.643   0.092   1.348
 6052SOL    HW219056   5.535   0.215   1.340
 6053SOL     OW19057   4.371   1.317   6.090
 6053SOL    HW119058   4.406   1.224   6.076
 6053SOL    HW219059   4.341   1.355   6.002
 6054SOL     OW19060   3.597   5.298   0.544
 6054SOL    HW119061   3.601   5.297   0.444
 6054SOL    HW219062   3.678   5.253   0.581
 6055SOL     OW19063   3.259   5.235   6.322
 6055SOL    HW119064   3.336   5.280   6.367
 6055SOL    HW219065   3.192   5.207   6.392
 6056SOL     OW19066   5.651   3.409   4.850
 6056SOL    HW119067   5.710   3.329   4.839
 6056SOL    HW219068   5.699   3.478   4.905
 6057SOL     OW19069   4.912   0.368   2.808
 6057SOL    HW119070   4.937   0.371   2.905
 6057SOL    HW219071   4.913   0.273   2.776
 6058SOL     OW19072   6.047   3.161   0.487
 6058SOL    HW119073   6.057   3.064   0.466
 6058SOL    HW219074   6.037   3.213   0.402
 6059SOL     OW19075   5.365   4.198   5.747
 6059SOL    HW119076   5.342   4.295   5.749
 6059SOL    HW219077   5.465   4.188   5.739
 6060SOL     OW19078   3.518   3.044   0.359
 6060SOL    HW119079   3.433   3.084   0.392
 6060SOL    HW219080   3.497   2.973   0.292
 6061SOL     OW19081   3.823   5.052   0.601
 6061SOL    HW119082   3.854   5.101   0.520
 6061SOL    HW219083   3.823   4.953   0.583
 6062SOL     OW19084   2.742   1.975   0.020
 6062SOL    HW119085   2.666   1.909   0.023
 6062SOL    HW219086   2.797   1.967   0.103
 6063SOL     OW19087   4.054   4.149   5.697
 6063SOL    HW119088   4.011   4.101   5.620
 6063SOL    HW219089   4.105   4.227   5.663
 6064SOL     OW19090   6.988   0.631   0.572
 6064SOL    HW119091   0.012   0.542   0.564
 6064SOL    HW219092   6.893   0.618   0.600
 6065SOL     OW19093   1.439   5.175   2.123
 6065SOL    HW119094   1.437   5.114   2.202
 6065SOL    HW219095   1.491   5.132   2.049
 6066SOL     OW19096   5.491   1.327   3.311
 6066SOL    HW119097   5.492   1.401   3.378
 6066SOL    HW219098   5.504   1.239   3.357
 6067SOL     OW19099   5.961   0.111   5.293
 6067SOL    HW119100   6.059   0.099   5.277
 6067SOL    HW219101   5.915   0.022   5.285
 6068SOL     OW19102   5.081   1.402   4.620
 6068SOL    HW119103   4.986   1.430   4.602
 6068SOL    HW219104   5.091   1.304   4.601
 6069SOL     OW19105   0.168   3.011   5.753
 6069SOL    HW119106   0.132   3.102   5.735
 6069SOL    HW219107   0.195   2.968   5.667
 6070SOL     OW19108   3.454   2.157   1.791
 6070SOL    HW119109   3.543   2.195   1.816
 6070SOL    HW219110   3.464   2.061   1.766
 6071SOL     OW19111   6.954   6.221   4.844
 6071SOL    HW119112   6.992   6.287   4.779
 6071SOL    HW219113   6.948   6.131   4.800
 6072SOL     OW19114   0.744   1.559   0.770
 6072SOL    HW119115   0.660   1.525   0.811
 6072SOL    HW219116   0.724   1.597   0.680
 6073SOL     OW19117   4.990   3.096   1.127
 6073SOL    HW119118   5.022   3.179   1.081
 6073SOL    HW219119   4.974   3.116   1.224
 6074SOL     OW19120   1.016   6.492   2.357
 6074SOL    HW119121   1.023   6.587   2.326
 6074SOL    HW219122   1.065   6.483   2.444
 6075SOL     OW19123   4.382   6.624   6.480
 6075SOL    HW119124   4.425   6.560   6.416
 6075SOL    HW219125   4.331   6.572   6.549
 6076SOL     OW19126   2.470   4.818   4.049
 6076SOL    HW119127   2.433   4.748   4.111
 6076SOL    HW219128   2.399   4.885   4.030
 6077SOL     OW19129   5.478   6.501   1.278
 6077SOL    HW119130   5.531   6.491   1.362
 6077SOL    HW219131   5.418   6.580   1.286
 6078SOL     OW19132   4.146   4.463   0.359
 6078SOL    HW119133   4.230   4.502   0.321
 6078SOL    HW219134   4.148   4.472   0.459
 6079SOL     OW19135   4.317   4.709   6.603
 6079SOL    HW119136   4.415   4.688   6.611
 6079SOL    HW219137   4.281   4.732   6.694
 6080SOL     OW19138   1.252   4.618   1.227
 6080SOL    HW119139   1.295   4.541   1.179
 6080SOL    HW219140   1.181   4.584   1.289
 6081SOL     OW19141   0.518   3.803   5.262
 6081SOL    HW119142   0.511   3.727   5.197
 6081SOL    HW219143   0.432   3.854   5.263
 6082SOL     OW19144   4.162   0.327   1.664
 6082SOL    HW119145   4.195   0.233   1.669
 6082SOL    HW219146   4.067   0.331   1.696
 6083SOL     OW19147   5.370   0.005   6.894
 6083SOL    HW119148   5.431   0.084   6.886
 6083SOL    HW219149   5.387   6.980   6.981
 6084SOL     OW19150   0.720   6.402   1.934
 6084SOL    HW119151   0.721   6.316   1.884
 6084SOL    HW219152   0.812   6.439   1.939
 6085SOL     OW19153   5.984   6.530   6.781
 6085SOL    HW119154   5.935   6.470   6.845
 6085SOL    HW219155   6.076   6.494   6.765
 6086SOL     OW19156   4.166   3.356   6.850
 6086SOL    HW119157   4.092   3.311   6.899
 6086SOL    HW219158   4.128   3.402   6.769
 6087SOL     OW19159   4.628   6.496   0.004
 6087SOL    HW119160   4.623   6.594   0.024
 6087SOL    HW219161   4.643   6.445   0.088
 6088SOL     OW19162   5.126   6.347   5.098
 6088SOL    HW119163   5.213   6.385   5.130
 6088SOL    HW219164   5.104   6.386   5.008
 6089SOL     OW19165   6.807   2.009   2.162
 6089SOL    HW119166   6.786   2.040   2.069
 6089SOL    HW219167   6.796   1.910   2.168
 6090SOL     OW19168   2.933   5.308   4.004
 6090SOL    HW119169   2.901   5.377   3.940
 6090SOL    HW219170   2.863   5.289   4.072
 6091SOL     OW19171   2.527   0.785   1.576
 6091SOL    HW119172   2.446   0.807   1.522
 6091SOL    HW219173   2.551   0.862   1.634
 6092SOL     OW19174   4.230   0.305   2.242
 6092SOL    HW119175   4.257   0.391   2.199
 6092SOL    HW219176   4.235   0.314   2.341
 6093SOL     OW19177   1.630   1.866   2.090
 6093SOL    HW119178   1.646   1.965   2.093
 6093SOL    HW219179   1.544   1.845   2.137
 6094SOL     OW19180   0.777   6.748   4.328
 6094SOL    HW119181   0.865   6.794   4.318
 6094SOL    HW219182   0.779   6.689   4.409
 6095SOL     OW19183   4.315   5.589   0.139
 6095SOL    HW119184   4.318   5.617   0.043
 6095SOL    HW219185   4.343   5.664   0.197
 6096SOL     OW19186   5.856   6.334   2.133
 6096SOL    HW119187   5.907   6.323   2.218
 6096SOL    HW219188   5.846   6.431   2.112
 6097SOL     OW19189   1.520   6.171   2.056
 6097SOL    HW119190   1.500   6.165   2.154
 6097SOL    HW219191   1.450   6.121   2.004
 6098SOL     OW19192   6.773   0.762   5.563
 6098SOL    HW119193   6.804   0.812   5.483
 6098SOL    HW219194   6.701   0.698   5.537
 6099SOL     OW19195   5.434   5.982   5.719
 6099SOL    HW119196   5.445   5.989   5.818
 6099SOL    HW219197   5.520   6.006   5.674
 6100SOL     OW19198   0.914   5.641   2.883
 6100SOL    HW119199   1.000   5.694   2.881
 6100SOL    HW219200   0.895   5.605   2.792
 6101SOL     OW19201   6.806   2.127   1.707
 6101SOL    HW119202   6.889   2.112   1.653
 6101SOL    HW219203   6.828   2.119   1.804
 6102SOL     OW19204   4.515   6.271   2.501
 6102SOL    HW119205   4.458   6.314   2.430
 6102SOL    HW219206   4.456   6.238   2.575
 6103SOL     OW19207   6.809   1.575   1.263
 6103SOL    HW119208   6.725   1.534   1.227
 6103SOL    HW219209   6.799   1.674   1.266
 6104SOL     OW19210   6.218   1.478   5.006
 6104SOL    HW119211   6.276   1.406   5.044
 6104SOL    HW219212   6.259   1.567   5.023
 6105SOL     OW19213   3.015   5.288   5.708
 6105SOL    HW119214   3.089   5.227   5.735
 6105SOL    HW219215   2.950   5.238   5.651
 6106SOL     OW19216   0.705   3.704   0.197
 6106SOL    HW119217   0.635   3.736   0.261
 6106SOL    HW219218   0.787   3.761   0.206
 6107SOL     OW19219   5.234   5.409   4.676
 6107SOL    HW119220   5.165   5.339   4.664
 6107SOL    HW219221   5.325   5.368   4.671
 6108SOL     OW19222   1.386   1.605   1.895
 6108SOL    HW119223   1.362   1.679   1.831
 6108SOL    HW219224   1.374   1.638   1.989
 6109SOL     OW19225   5.312   0.451   3.847
 6109SOL    HW119226   5.311   0.360   3.806
 6109SOL    HW219227   5.373   0.452   3.926
 6110SOL     OW19228   0.648   2.160   6.108
 6110SOL    HW119229   0.701   2.208   6.178
 6110SOL    HW219230   0.709   2.128   6.036
 6111SOL     OW19231   1.277   3.510   1.934
 6111SOL    HW119232   1.233   3.573   1.870
 6111SOL    HW219233   1.375   3.508   1.916
 6112SOL     OW19234   3.145   0.712   2.201
 6112SOL    HW119235   3.166   0.614   2.193
 6112SOL    HW219236   3.046   0.725   2.203
 6113SOL     OW19237   2.678   4.499   6.902
 6113SOL    HW119238   2.737   4.505   6.821
 6113SOL    HW219239   2.639   4.407   6.907
 6114SOL     OW19240   5.139   1.754   1.582
 6114SOL    HW119241   5.075   1.804   1.641
 6114SOL    HW219242   5.087   1.693   1.522
 6115SOL     OW19243   0.443   1.191   5.461
 6115SOL    HW119244   0.373   1.123   5.484
 6115SOL    HW219245   0.418   1.235   5.374
 6116SOL     OW19246   3.923   2.157   5.188
 6116SOL    HW119247   3.950   2.092   5.259
 6116SOL    HW219248   3.847   2.120   5.136
 6117SOL     OW19249   1.059   1.679   2.976
 6117SOL    HW119250   1.043   1.629   3.062
 6117SOL    HW219251   1.156   1.699   2.967
 6118SOL     OW19252   6.147   1.260   1.096
 6118SOL    HW119253   6.157   1.323   1.019
 6118SOL    HW219254   6.228   1.202   1.103
 6119SOL     OW19255   0.228   2.696   0.155
 6119SOL    HW119256   0.242   2.626   0.085
 6119SOL    HW219257   0.130   2.703   0.175
 6120SOL     OW19258   2.254   0.039   5.560
 6120SOL    HW119259   2.155   0.051   5.569
 6120SOL    HW219260   2.273   6.967   5.531
 6121SOL     OW19261   0.472   3.753   5.554
 6121SOL    HW119262   0.477   3.790   5.461
 6121SOL    HW219263   0.560   3.765   5.599
 6122SOL     OW19264   5.057   6.005   5.876
 6122SOL    HW119265   5.096   5.949   5.802
 6122SOL    HW219266   4.997   6.074   5.838
 6123SOL     OW19267   5.091   1.327   5.527
 6123SOL    HW119268   5.084   1.259   5.600
 6123SOL    HW219269   5.187   1.350   5.512
 6124SOL     OW19270   2.085   6.980   5.153
 6124SOL    HW119271   2.066   6.962   5.250
 6124SOL    HW219272   2.067   0.055   5.133
 6125SOL     OW19273   2.688   4.164   0.345
 6125SOL    HW119274   2.755   4.205   0.407
 6125SOL    HW219275   2.617   4.119   0.399
 6126SOL     OW19276   0.730   2.338   5.085
 6126SOL    HW119277   0.742   2.424   5.134
 6126SOL    HW219278   0.702   2.267   5.149
 6127SOL     OW19279   4.356   1.103   1.548
 6127SOL    HW119280   4.411   1.175   1.591
 6127SOL    HW219281   4.263   1.138   1.532
 6128SOL     OW19282   5.353   5.880   0.833
 6128SOL    HW119283   5.441   5.881   0.786
 6128SOL    HW219284   5.325   5.974   0.854
 6129SOL     OW19285   2.172   4.425   3.315
 6129SOL    HW119286   2.118   4.413   3.232
 6129SOL    HW219287   2.268   4.402   3.296
 6130SOL     OW19288   5.525   2.573   2.368
 6130SOL    HW119289   5.461   2.625   2.425
 6130SOL    HW219290   5.593   2.528   2.427
 6131SOL     OW19291   0.423   2.279   2.031
 6131SOL    HW119292   0.359   2.339   2.079
 6131SOL    HW219293   0.376   2.235   1.954
 6132SOL     OW19294   3.659   1.827   6.653
 6132SOL    HW119295   3.646   1.890   6.729
 6132SOL    HW219296   3.571   1.805   6.611
 6133SOL     OW19297   1.443   2.327   3.652
 6133SOL    HW119298   1.424   2.423   3.675
 6133SOL    HW219299   1.420   2.310   3.557
 6134SOL     OW19300   5.119   6.482   6.483
 6134SOL    HW119301   5.138   6.578   6.504
 6134SOL    HW219302   5.136   6.466   6.386
 6135SOL     OW19303   6.389   0.048   0.029
 6135SOL    HW119304   6.446   0.057   0.110
 6135SOL    HW219305   6.379   0.137   7.006
 6136SOL     OW19306   1.439   3.121   1.088
 6136SOL    HW119307   1.508   3.188   1.115
 6136SOL    HW219308   1.350   3.148   1.124
 6137SOL     OW19309   0.849   4.181   3.284
 6137SOL    HW119310   0.863   4.278   3.306
 6137SOL    HW219311   0.904   4.157   3.204
 6138SOL     OW19312   3.965   0.238   2.192
 6138SOL    HW119313   3.972   0.149   2.146
 6138SOL    HW219314   4.057   0.268   2.219
 6139SOL     OW19315   0.772   6.465   5.894
 6139SOL    HW119316   0.779   6.368   5.869
 6139SOL    HW219317   0.858   6.511   5.874
 6140SOL     OW19318   1.385   0.244   3.107
 6140SOL    HW119319   1.399   0.226   3.009
 6140SOL    HW219320   1.311   0.310   3.118
 6141SOL     OW19321   0.674   0.231   6.473
 6141SOL    HW119322   0.580   0.247   6.502
 6141SOL    HW219323   0.703   0.305   6.411
 6142SOL     OW19324   0.872   0.882   6.921
 6142SOL    HW119325   0.961   0.837   6.935
 6142SOL    HW219326   0.806   0.845   6.986
 6143SOL     OW19327   6.949   3.929   0.227
 6143SOL    HW119328   6.994   3.956   0.312
 6143SOL    HW219329   6.928   4.011   0.173
 6144SOL     OW19330   4.711   4.633   3.371
 6144SOL    HW119331   4.637   4.580   3.330
 6144SOL    HW219332   4.739   4.590   3.456
 6145SOL     OW19333   5.845   4.383   3.909
 6145SOL    HW119334   5.902   4.301   3.905
 6145SOL    HW219335   5.783   4.377   3.987
 6146SOL     OW19336   3.674   0.030   4.166
 6146SOL    HW119337   3.588   0.011   4.118
 6146SOL    HW219338   3.661   0.108   4.227
 6147SOL     OW19339   1.700   3.201   4.773
 6147SOL    HW119340   1.662   3.287   4.805
 6147SOL    HW219341   1.662   3.125   4.826
 6148SOL     OW19342   3.954   4.925   6.452
 6148SOL    HW119343   3.863   4.903   6.416
 6148SOL    HW219344   3.977   5.019   6.430
 6149SOL     OW19345   2.101   0.044   2.354
 6149SOL    HW119346   2.131   0.124   2.406
 6149SOL    HW219347   2.070   6.994   2.418
 6150SOL     OW19348   6.378   4.310   6.810
 6150SOL    HW119349   6.468   4.269   6.800
 6150SOL    HW219350   6.313   4.242   6.843
 6151SOL     OW19351   5.498   5.305   4.643
 6151SOL    HW119352   5.578   5.263   4.601
 6151SOL    HW219353   5.525   5.389   4.690
 6152SOL     OW19354   1.225   5.650   4.135
 6152SOL    HW119355   1.286   5.679   4.209
 6152SOL    HW219356   1.131   5.678   4.157
 6153SOL     OW19357   4.997   5.796   0.904
 6153SOL    HW119358   5.057   5.750   0.838
 6153SOL    HW219359   5.006   5.895   0.894
 6154SOL     OW19360   4.925   3.483   2.923
 6154SOL    HW119361   4.874   3.401   2.949
 6154SOL    HW219362   5.021   3.471   2.949
 6155SOL     OW19363   2.459   0.905   2.864
 6155SOL    HW119364   2.464   0.875   2.769
 6155SOL    HW219365   2.407   0.990   2.870
 6156SOL     OW19366   5.206   4.047   1.607
 6156SOL    HW119367   5.246   4.073   1.519
 6156SOL    HW219368   5.124   3.993   1.592
 6157SOL     OW19369   0.871   2.385   3.411
 6157SOL    HW119370   0.848   2.447   3.486
 6157SOL    HW219371   0.839   2.424   3.324
 6158SOL     OW19372   3.372   2.417   6.223
 6158SOL    HW119373   3.402   2.460   6.138
 6158SOL    HW219374   3.431   2.446   6.298
 6159SOL     OW19375   5.365   2.924   0.173
 6159SOL    HW119376   5.326   2.904   0.263
 6159SOL    HW219377   5.320   2.865   0.105
 6160SOL     OW19378   7.019   0.389   5.993
 6160SOL    HW119379   6.955   0.444   6.048
 6160SOL    HW219380   0.056   0.335   6.053
 6161SOL     OW19381   5.177   2.656   6.328
 6161SOL    HW119382   5.083   2.622   6.336
 6161SOL    HW219383   5.208   2.689   6.417
 6162SOL     OW19384   5.576   6.823   3.336
 6162SOL    HW119385   5.547   6.822   3.432
 6162SOL    HW219386   5.539   6.743   3.289
 6163SOL     OW19387   5.202   6.175   2.907
 6163SOL    HW119388   5.184   6.077   2.906
 6163SOL    HW219389   5.139   6.220   2.970
 6164SOL     OW19390   4.080   3.830   4.208
 6164SOL    HW119391   4.171   3.862   4.181
 6164SOL    HW219392   4.054   3.873   4.295
 6165SOL     OW19393   4.411   2.450   0.330
 6165SOL    HW119394   4.428   2.532   0.276
 6165SOL    HW219395   4.497   2.416   0.369
 6166SOL     OW19396   6.788   2.340   0.120
 6166SOL    HW119397   6.796   2.310   0.025
 6166SOL    HW219398   6.753   2.433   0.123
 6167SOL     OW19399   1.517   4.746   2.848
 6167SOL    HW119400   1.518   4.821   2.782
 6167SOL    HW219401   1.437   4.755   2.908
 6168SOL     OW19402   6.279   2.404   3.392
 6168SOL    HW119403   6.248   2.411   3.487
 6168SOL    HW219404   6.234   2.326   3.348
 6169SOL     OW19405   1.135   1.032   6.026
 6169SOL    HW119406   1.182   1.051   5.940
 6169SOL    HW219407   1.088   0.944   6.020
 6170SOL     OW19408   3.296   4.372   6.623
 6170SOL    HW119409   3.296   4.285   6.574
 6170SOL    HW219410   3.385   4.417   6.613
 6171SOL     OW19411   1.230   3.777   2.558
 6171SOL    HW119412   1.277   3.704   2.608
 6171SOL    HW219413   1.162   3.819   2.618
 6172SOL     OW19414   0.435   0.753   2.004
 6172SOL    HW119415   0.455   0.701   2.086
 6172SOL    HW219416   0.374   0.700   1.945
 6173SOL     OW19417   0.683   4.984   2.498
 6173SOL    HW119418   0.704   4.918   2.570
 6173SOL    HW219419   0.749   5.059   2.501
 6174SOL     OW19420   5.916   4.687   2.757
 6174SOL    HW119421   5.836   4.695   2.816
 6174SOL    HW219422   5.953   4.778   2.738
 6175SOL     OW19423   5.682   6.520   2.577
 6175SOL    HW119424   5.637   6.465   2.647
 6175SOL    HW219425   5.621   6.529   2.498
 6176SOL     OW19426   6.368   3.600   6.875
 6176SOL    HW119427   6.308   3.532   6.918
 6176SOL    HW219428   6.463   3.567   6.878
 6177SOL     OW19429   5.384   1.031   1.309
 6177SOL    HW119430   5.435   1.112   1.339
 6177SOL    HW219431   5.369   0.970   1.386
 6178SOL     OW19432   4.668   4.976   1.759
 6178SOL    HW119433   4.689   5.066   1.799
 6178SOL    HW219434   4.753   4.932   1.730
 6179SOL     OW19435   0.211   3.521   5.010
 6179SOL    HW119436   0.140   3.480   4.952
 6179SOL    HW219437   0.289   3.458   5.016
 6180SOL     OW19438   3.378   6.820   6.896
 6180SOL    HW119439   3.292   6.870   6.901
 6180SOL    HW219440   3.413   6.803   6.988
 6181SOL     OW19441   4.717   6.782   0.567
 6181SOL    HW119442   4.699   6.826   0.655
 6181SOL    HW219443   4.792   6.716   0.577
 6182SOL     OW19444   5.127   5.382   5.369
 6182SOL    HW119445   5.060   5.319   5.407
 6182SOL    HW219446   5.134   5.463   5.429
 6183SOL     OW19447   2.003   0.315   3.126
 6183SOL    HW119448   2.016   0.405   3.168
 6183SOL    HW219449   1.907   0.288   3.133
 6184SOL     OW19450   1.414   0.077   6.807
 6184SOL    HW119451   1.511   0.100   6.800
 6184SOL    HW219452   1.381   0.103   6.898
 6185SOL     OW19453   1.156   3.506   6.904
 6185SOL    HW119454   1.102   3.439   6.956
 6185SOL    HW219455   1.095   3.558   6.844
 6186SOL     OW19456   5.623   0.029   4.230
 6186SOL    HW119457   5.656   0.059   4.319
 6186SOL    HW219458   5.701   7.018   4.175
 6187SOL     OW19459   5.217   4.997   3.476
 6187SOL    HW119460   5.155   4.920   3.490
 6187SOL    HW219461   5.165   5.083   3.483
 6188SOL     OW19462   2.057   6.162   1.543
 6188SOL    HW119463   2.147   6.163   1.587
 6188SOL    HW219464   2.044   6.075   1.495
 6189SOL     OW19465   5.111   4.934   3.076
 6189SOL    HW119466   5.079   4.950   2.983
 6189SOL    HW219467   5.038   4.891   3.129
 6190SOL     OW19468   5.406   4.117   6.013
 6190SOL    HW119469   5.489   4.068   6.039
 6190SOL    HW219470   5.408   4.137   5.915
 6191SOL     OW19471   5.575   2.239   0.974
 6191SOL    HW119472   5.619   2.328   0.986
 6191SOL    HW219473   5.602   2.199   0.886
 6192SOL     OW19474   3.103   3.619   0.704
 6192SOL    HW119475   3.076   3.531   0.743
 6192SOL    HW219476   3.181   3.655   0.754
 6193SOL     OW19477   4.325   0.521   2.095
 6193SOL    HW119478   4.310   0.568   2.008
 6193SOL    HW219479   4.376   0.581   2.156
 6194SOL     OW19480   2.009   7.012   0.804
 6194SOL    HW119481   2.028   6.917   0.825
 6194SOL    HW219482   1.988   7.021   0.706
 6195SOL     OW19483   4.221   5.079   5.700
 6195SOL    HW119484   4.172   5.010   5.646
 6195SOL    HW219485   4.180   5.169   5.682
 6196SOL     OW19486   0.090   2.674   6.261
 6196SOL    HW119487   0.014   2.704   6.203
 6196SOL    HW219488   0.123   2.585   6.228
 6197SOL     OW19489   3.521   4.348   0.800
 6197SOL    HW119490   3.603   4.291   0.802
 6197SOL    HW219491   3.505   4.381   0.707
 6198SOL     OW19492   3.847   5.871   2.814
 6198SOL    HW119493   3.866   5.774   2.830
 6198SOL    HW219494   3.931   5.924   2.821
 6199SOL     OW19495   6.931   0.184   0.657
 6199SOL    HW119496   6.922   0.127   0.738
 6199SOL    HW219497   7.002   0.253   0.673
 6200SOL     OW19498   2.642   1.449   6.567
 6200SOL    HW119499   2.723   1.490   6.609
 6200SOL    HW219500   2.566   1.514   6.573
 6201SOL     OW19501   2.558   5.201   5.753
 6201SOL    HW119502   2.604   5.119   5.721
 6201SOL    HW219503   2.622   5.278   5.752
 6202SOL     OW19504   3.947   1.735   1.607
 6202SOL    HW119505   3.871   1.704   1.551
 6202SOL    HW219506   3.920   1.817   1.658
 6203SOL     OW19507   4.955   0.153   3.662
 6203SOL    HW119508   4.934   0.177   3.757
 6203SOL    HW219509   5.028   0.085   3.661
 6204SOL     OW19510   0.520   4.658   5.486
 6204SOL    HW119511   0.571   4.743   5.483
 6204SOL    HW219512   0.578   4.583   5.455
 6205SOL     OW19513   5.282   5.383   6.684
 6205SOL    HW119514   5.255   5.466   6.732
 6205SOL    HW219515   5.366   5.401   6.631
 6206SOL     OW19516   6.766   0.150   2.482
 6206SOL    HW119517   6.749   0.109   2.392
 6206SOL    HW219518   6.854   0.198   2.481
 6207SOL     OW19519   1.550   3.580   4.619
 6207SOL    HW119520   1.453   3.586   4.594
 6207SOL    HW219521   1.562   3.615   4.712
 6208SOL     OW19522   6.070   0.581   5.637
 6208SOL    HW119523   6.119   0.503   5.675
 6208SOL    HW219524   6.136   0.644   5.595
 6209SOL     OW19525   3.818   6.296   0.161
 6209SOL    HW119526   3.830   6.365   0.090
 6209SOL    HW219527   3.774   6.337   0.241
 6210SOL     OW19528   5.541   4.558   3.297
 6210SOL    HW119529   5.517   4.540   3.202
 6210SOL    HW219530   5.622   4.616   3.301
 6211SOL     OW19531   2.766   0.298   6.323
 6211SOL    HW119532   2.760   0.204   6.289
 6211SOL    HW219533   2.825   0.300   6.404
 6212SOL     OW19534   0.212   5.613   3.166
 6212SOL    HW119535   0.255   5.681   3.226
 6212SOL    HW219536   0.201   5.652   3.074
 6213SOL     OW19537   5.618   6.937   6.261
 6213SOL    HW119538   5.691   6.888   6.213
 6213SOL    HW219539   5.618   6.909   6.358
 6214SOL     OW19540   6.063   4.938   2.990
 6214SOL    HW119541   6.020   4.955   2.901
 6214SOL    HW219542   6.004   4.880   3.045
 6215SOL     OW19543   3.673   1.952   6.906
 6215SOL    HW119544   3.726   2.033   6.934
 6215SOL    HW219545   3.720   1.870   6.936
 6216SOL     OW19546   6.411   1.774   1.619
 6216SOL    HW119547   6.462   1.734   1.543
 6216SOL    HW219548   6.446   1.866   1.637
 6217SOL     OW19549   5.300   2.719   1.807
 6217SOL    HW119550   5.265   2.784   1.875
 6217SOL    HW219551   5.263   2.629   1.826
 6218SOL     OW19552   3.622   4.944   3.690
 6218SOL    HW119553   3.664   5.011   3.751
 6218SOL    HW219554   3.693   4.887   3.648
 6219SOL     OW19555   1.095   1.584   4.878
 6219SOL    HW119556   1.056   1.603   4.787
 6219SOL    HW219557   1.036   1.624   4.948
 6220SOL     OW19558   1.889   4.598   5.568
 6220SOL    HW119559   1.909   4.604   5.470
 6220SOL    HW219560   1.873   4.502   5.593
 6221SOL     OW19561   5.172   5.074   5.176
 6221SOL    HW119562   5.072   5.070   5.182
 6221SOL    HW219563   5.199   5.099   5.083
 6222SOL     OW19564   0.773   6.672   1.073
 6222SOL    HW119565   0.864   6.641   1.101
 6222SOL    HW219566   0.704   6.620   1.123
 6223SOL     OW19567   6.159   3.265   4.552
 6223SOL    HW119568   6.230   3.205   4.590
 6223SOL    HW219569   6.175   3.278   4.454
 6224SOL     OW19570   1.597   1.854   6.171
 6224SOL    HW119571   1.498   1.865   6.179
 6224SOL    HW219572   1.622   1.758   6.186
 6225SOL     OW19573   3.347   3.649   1.636
 6225SOL    HW119574   3.434   3.697   1.625
 6225SOL    HW219575   3.348   3.564   1.584
 6226SOL     OW19576   5.847   1.842   3.685
 6226SOL    HW119577   5.930   1.860   3.737
 6226SOL    HW219578   5.768   1.874   3.736
 6227SOL     OW19579   3.210   4.724   6.242
 6227SOL    HW119580   3.181   4.653   6.305
 6227SOL    HW219581   3.238   4.805   6.293
 6228SOL     OW19582   0.142   2.366   2.952
 6228SOL    HW119583   0.235   2.385   2.921
 6228SOL    HW219584   0.095   2.309   2.884
 6229SOL     OW19585   1.915   2.242   3.307
 6229SOL    HW119586   2.006   2.208   3.281
 6229SOL    HW219587   1.878   2.185   3.380
 6230SOL     OW19588   0.992   1.328   4.855
 6230SOL    HW119589   1.018   1.423   4.869
 6230SOL    HW219590   1.020   1.273   4.934
 6231SOL     OW19591   6.947   5.215   1.540
 6231SOL    HW119592   6.911   5.299   1.500
 6231SOL    HW219593   0.025   5.216   1.537
 6232SOL     OW19594   6.736   1.614   6.716
 6232SOL    HW119595   6.799   1.560   6.772
 6232SOL    HW219596   6.788   1.680   6.662
 6233SOL     OW19597   5.697   1.819   6.806
 6233SOL    HW119598   5.642   1.795   6.886
 6233SOL    HW219599   5.712   1.918   6.805
 6234SOL     OW19600   0.645   1.215   5.242
 6234SOL    HW119601   0.691   1.277   5.178
 6234SOL    HW219602   0.553   1.251   5.263
 6235SOL     OW19603   1.506   7.016   3.068
 6235SOL    HW119604   1.492   6.933   3.122
 6235SOL    HW219605   1.444   0.066   3.100
 6236SOL     OW19606   0.670   5.163   0.983
 6236SOL    HW119607   0.745   5.134   0.923
 6236SOL    HW219608   0.708   5.208   1.064
 6237SOL     OW19609   4.741   6.071   0.615
 6237SOL    HW119610   4.806   6.143   0.636
 6237SOL    HW219611   4.650   6.097   0.647
 6238SOL     OW19612   4.517   5.054   2.928
 6238SOL    HW119613   4.617   5.056   2.925
 6238SOL    HW219614   4.485   5.100   3.011
 6239SOL     OW19615   2.769   6.417   2.025
 6239SOL    HW119616   2.670   6.401   2.014
 6239SOL    HW219617   2.784   6.500   2.078
 6240SOL     OW19618   2.951   2.050   0.796
 6240SOL    HW119619   3.017   2.124   0.810
 6240SOL    HW219620   2.899   2.036   0.880
 6241SOL     OW19621   1.989   1.135   2.673
 6241SOL    HW119622   1.986   1.066   2.601
 6241SOL    HW219623   2.012   1.224   2.634
 6242SOL     OW19624   5.820   1.405   3.434
 6242SOL    HW119625   5.833   1.332   3.368
 6242SOL    HW219626   5.739   1.459   3.410
 6243SOL     OW19627   5.831   6.873   3.269
 6243SOL    HW119628   5.903   6.824   3.318
 6243SOL    HW219629   5.741   6.839   3.297
 6244SOL     OW19630   1.583   2.327   1.918
 6244SOL    HW119631   1.539   2.327   1.828
 6244SOL    HW219632   1.528   2.380   1.982
 6245SOL     OW19633   3.069   4.355   1.694
 6245SOL    HW119634   3.162   4.388   1.682
 6245SOL    HW219635   3.015   4.425   1.741
 6246SOL     OW19636   2.941   2.668   6.818
 6246SOL    HW119637   2.962   2.579   6.777
 6246SOL    HW219638   2.855   2.662   6.868
 6247SOL     OW19639   0.211   6.463   3.789
 6247SOL    HW119640   0.296   6.420   3.817
 6247SOL    HW219641   0.134   6.403   3.809
 6248SOL     OW19642   0.695   3.661   1.414
 6248SOL    HW119643   0.681   3.566   1.443
 6248SOL    HW219644   0.766   3.664   1.344
 6249SOL     OW19645   0.474   4.618   0.539
 6249SOL    HW119646   0.410   4.594   0.466
 6249SOL    HW219647   0.485   4.541   0.601
 6250SOL     OW19648   6.219   5.966   0.270
 6250SOL    HW119649   6.285   6.026   0.315
 6250SOL    HW219650   6.180   5.903   0.337
 6251SOL     OW19651   3.862   6.700   1.048
 6251SOL    HW119652   3.804   6.740   0.976
 6251SOL    HW219653   3.804   6.649   1.112
 6252SOL     OW19654   1.927   6.157   4.901
 6252SOL    HW119655   1.891   6.244   4.867
 6252SOL    HW219656   1.951   6.099   4.823
 6253SOL     OW19657   2.358   4.353   2.568
 6253SOL    HW119658   2.383   4.274   2.624
 6253SOL    HW219659   2.277   4.397   2.607
 6254SOL     OW19660   5.138   1.230   6.824
 6254SOL    HW119661   5.125   1.286   6.742
 6254SOL    HW219662   5.232   1.197   6.827
 6255SOL     OW19663   1.276   1.176   1.504
 6255SOL    HW119664   1.315   1.268   1.507
 6255SOL    HW219665   1.348   1.109   1.483
 6256SOL     OW19666   4.255   5.023   2.835
 6256SOL    HW119667   4.340   5.041   2.884
 6256SOL    HW219668   4.238   4.925   2.831
 6257SOL     OW19669   5.692   2.497   1.298
 6257SOL    HW119670   5.710   2.399   1.300
 6257SOL    HW219671   5.611   2.517   1.353
 6258SOL     OW19672   4.547   0.972   3.180
 6258SOL    HW119673   4.515   0.895   3.236
 6258SOL    HW219674   4.580   0.937   3.092
 6259SOL     OW19675   3.037   1.439   1.321
 6259SOL    HW119676   3.095   1.444   1.240
 6259SOL    HW219677   3.088   1.472   1.401
 6260SOL     OW19678   3.328   4.265   0.205
 6260SOL    HW119679   3.250   4.210   0.175
 6260SOL    HW219680   3.372   4.307   0.126
 6261SOL     OW19681   3.353   6.970   6.423
 6261SOL    HW119682   3.388   6.932   6.508
 6261SOL    HW219683   3.253   6.963   6.423
 6262SOL     OW19684   2.266   4.167   0.628
 6262SOL    HW119685   2.250   4.241   0.693
 6262SOL    HW219686   2.188   4.104   0.630
 6263SOL     OW19687   0.138   6.567   6.261
 6263SOL    HW119688   0.197   6.572   6.181
 6263SOL    HW219689   0.100   6.475   6.269
 6264SOL     OW19690   1.802   0.248   1.134
 6264SOL    HW119691   1.876   0.307   1.101
 6264SOL    HW219692   1.841   0.162   1.166
 6265SOL     OW19693   2.962   4.063   1.256
 6265SOL    HW119694   3.046   4.056   1.202
 6265SOL    HW219695   2.893   4.112   1.203
 6266SOL     OW19696   4.312   0.733   4.442
 6266SOL    HW119697   4.230   0.678   4.459
 6266SOL    HW219698   4.292   0.804   4.375
 6267SOL     OW19699   3.128   6.937   6.911
 6267SOL    HW119700   3.052   6.894   6.960
 6267SOL    HW219701   3.096   7.019   6.865
 6268SOL     OW19702   2.541   6.148   3.179
 6268SOL    HW119703   2.567   6.100   3.264
 6268SOL    HW219704   2.508   6.081   3.113
 6269SOL     OW19705   6.808   6.119   2.237
 6269SOL    HW119706   6.866   6.155   2.164
 6269SOL    HW219707   6.715   6.107   2.204
 6270SOL     OW19708   1.640   0.222   5.984
 6270SOL    HW119709   1.620   0.159   6.059
 6270SOL    HW219710   1.738   0.240   5.980
 6271SOL     OW19711   6.650   2.826   5.921
 6271SOL    HW119712   6.598   2.842   5.837
 6271SOL    HW219713   6.715   2.901   5.935
 6272SOL     OW19714   0.803   3.161   4.755
 6272SOL    HW119715   0.871   3.229   4.727
 6272SOL    HW219716   0.804   3.152   4.854
 6273SOL     OW19717   1.371   0.401   2.128
 6273SOL    HW119718   1.298   0.470   2.130
 6273SOL    HW219719   1.443   0.431   2.066
 6274SOL     OW19720   2.340   5.560   5.507
 6274SOL    HW119721   2.429   5.591   5.475
 6274SOL    HW219722   2.335   5.571   5.607
 6275SOL     OW19723   2.894   6.665   5.420
 6275SOL    HW119724   2.964   6.652   5.351
 6275SOL    HW219725   2.805   6.675   5.375
 6276SOL     OW19726   1.684   4.774   3.326
 6276SOL    HW119727   1.646   4.761   3.418
 6276SOL    HW219728   1.639   4.711   3.263
 6277SOL     OW19729   4.577   2.373   2.828
 6277SOL    HW119730   4.599   2.470   2.818
 6277SOL    HW219731   4.576   2.330   2.738
 6278SOL     OW19732   4.980   0.528   4.805
 6278SOL    HW119733   5.011   0.433   4.812
 6278SOL    HW219734   4.962   0.563   4.897
 6279SOL     OW19735   3.989   1.348   0.333
 6279SOL    HW119736   4.023   1.285   0.263
 6279SOL    HW219737   3.895   1.324   0.356
 6280SOL     OW19738   0.276   2.951   5.519
 6280SOL    HW119739   0.370   2.945   5.554
 6280SOL    HW219740   0.279   2.976   5.422
 6281SOL     OW19741   2.403   6.446   5.508
 6281SOL    HW119742   2.422   6.542   5.530
 6281SOL    HW219743   2.400   6.434   5.409
 6282SOL     OW19744   1.407   7.007   4.512
 6282SOL    HW119745   1.425   0.073   4.558
 6282SOL    HW219746   1.471   6.938   4.546
 6283SOL     OW19747   6.349   2.405   4.916
 6283SOL    HW119748   6.272   2.406   4.979
 6283SOL    HW219749   6.416   2.474   4.943
 6284SOL     OW19750   1.973   5.570   5.243
 6284SOL    HW119751   2.033   5.642   5.278
 6284SOL    HW219752   2.017   5.481   5.254
 6285SOL     OW19753   1.236   2.843   3.841
 6285SOL    HW119754   1.253   2.838   3.742
 6285SOL    HW219755   1.229   2.750   3.878
 6286SOL     OW19756   6.493   1.562   3.956
 6286SOL    HW119757   6.487   1.462   3.950
 6286SOL    HW219758   6.546   1.596   3.878
 6287SOL     OW19759   5.134   4.465   2.344
 6287SOL    HW119760   5.137   4.434   2.249
 6287SOL    HW219761   5.042   4.454   2.380
 6288SOL     OW19762   5.393   3.976   1.850
 6288SOL    HW119763   5.427   3.993   1.943
 6288SOL    HW219764   5.320   4.041   1.829
 6289SOL     OW19765   1.517   2.643   3.156
 6289SOL    HW119766   1.530   2.613   3.250
 6289SOL    HW219767   1.584   2.714   3.134
 6290SOL     OW19768   5.601   3.641   4.245
 6290SOL    HW119769   5.653   3.655   4.329
 6290SOL    HW219770   5.505   3.663   4.261
 6291SOL     OW19771   3.912   3.399   4.237
 6291SOL    HW119772   3.833   3.414   4.178
 6291SOL    HW219773   3.898   3.316   4.291
 6292SOL     OW19774   0.401   3.204   3.268
 6292SOL    HW119775   0.424   3.149   3.349
 6292SOL    HW219776   0.362   3.291   3.298
 6293SOL     OW19777   4.205   6.781   0.025
 6293SOL    HW119778   4.274   6.820   6.984
 6293SOL    HW219779   4.124   6.839   0.026
 6294SOL     OW19780   3.425   5.087   3.418
 6294SOL    HW119781   3.432   5.079   3.518
 6294SOL    HW219782   3.377   5.007   3.381
 6295SOL     OW19783   5.121   5.535   5.613
 6295SOL    HW119784   5.213   5.495   5.609
 6295SOL    HW219785   5.070   5.494   5.689
 6296SOL     OW19786   6.913   0.422   3.982
 6296SOL    HW119787   6.916   0.334   4.030
 6296SOL    HW219788   6.960   0.491   4.037
 6297SOL     OW19789   5.116   0.189   5.316
 6297SOL    HW119790   5.077   0.136   5.240
 6297SOL    HW219791   5.177   0.130   5.368
 6298SOL     OW19792   1.912   4.080   6.466
 6298SOL    HW119793   1.938   4.010   6.533
 6298SOL    HW219794   1.838   4.045   6.408
 6299SOL     OW19795   5.914   2.560   6.333
 6299SOL    HW119796   5.904   2.634   6.398
 6299SOL    HW219797   5.991   2.502   6.359
 6300SOL     OW19798   5.726   0.768   4.860
 6300SOL    HW119799   5.634   0.791   4.825
 6300SOL    HW219800   5.769   0.850   4.895
 6301SOL     OW19801   2.722   0.249   1.331
 6301SOL    HW119802   2.663   0.281   1.257
 6301SOL    HW219803   2.816   0.243   1.299
 6302SOL     OW19804   1.070   1.270   4.024
 6302SOL    HW119805   1.092   1.355   3.976
 6302SOL    HW219806   1.081   1.193   3.962
 6303SOL     OW19807   2.452   0.750   4.982
 6303SOL    HW119808   2.437   0.847   4.961
 6303SOL    HW219809   2.548   0.737   5.008
 6304SOL     OW19810   2.564   0.966   1.278
 6304SOL    HW119811   2.464   0.973   1.283
 6304SOL    HW219812   2.591   0.935   1.187
 6305SOL     OW19813   5.947   6.449   1.102
 6305SOL    HW119814   5.849   6.471   1.104
 6305SOL    HW219815   5.983   6.466   1.010
 6306SOL     OW19816   0.112   3.572   4.474
 6306SOL    HW119817   0.159   3.629   4.542
 6306SOL    HW219818   0.111   3.619   4.386
 6307SOL     OW19819   3.560   4.764   5.613
 6307SOL    HW119820   3.464   4.791   5.616
 6307SOL    HW219821   3.610   4.808   5.688
 6308SOL     OW19822   1.327   1.715   5.175
 6308SOL    HW119823   1.272   1.765   5.242
 6308SOL    HW219824   1.411   1.683   5.219
 6309SOL     OW19825   4.932   3.821   4.324
 6309SOL    HW119826   5.028   3.839   4.302
 6309SOL    HW219827   4.878   3.903   4.304
 6310SOL     OW19828   2.238   4.595   4.029
 6310SOL    HW119829   2.229   4.680   4.080
 6310SOL    HW219830   2.167   4.592   3.958
 6311SOL     OW19831   6.266   0.812   5.251
 6311SOL    HW119832   6.284   0.903   5.214
 6311SOL    HW219833   6.221   0.756   5.181
 6312SOL     OW19834   4.538   5.102   5.716
 6312SOL    HW119835   4.474   5.105   5.639
 6312SOL    HW219836   4.487   5.115   5.801
 6313SOL     OW19837   1.429   6.049   3.475
 6313SOL    HW119838   1.430   5.984   3.398
 6313SOL    HW219839   1.344   6.102   3.472
 6314SOL     OW19840   3.610   6.503   1.722
 6314SOL    HW119841   3.516   6.475   1.701
 6314SOL    HW219842   3.610   6.562   1.802
 6315SOL     OW19843   4.502   2.360   0.034
 6315SOL    HW119844   4.461   2.269   0.040
 6315SOL    HW219845   4.479   2.401   6.967
 6316SOL     OW19846   4.615   2.536   6.264
 6316SOL    HW119847   4.539   2.602   6.262
 6316SOL    HW219848   4.617   2.492   6.354
 6317SOL     OW19849   5.503   6.550   3.253
 6317SOL    HW119850   5.515   6.559   3.154
 6317SOL    HW219851   5.429   6.486   3.271
 6318SOL     OW19852   2.693   2.431   5.197
 6318SOL    HW119853   2.709   2.345   5.245
 6318SOL    HW219854   2.753   2.436   5.117
 6319SOL     OW19855   0.428   2.811   3.545
 6319SOL    HW119856   0.415   2.910   3.552
 6319SOL    HW219857   0.375   2.776   3.469
 6320SOL     OW19858   5.935   4.619   3.561
 6320SOL    HW119859   5.922   4.520   3.566
 6320SOL    HW219860   6.009   4.646   3.623
 6321SOL     OW19861   3.034   5.111   1.143
 6321SOL    HW119862   3.125   5.149   1.132
 6321SOL    HW219863   2.979   5.129   1.062
 6322SOL     OW19864   1.450   2.276   6.264
 6322SOL    HW119865   1.419   2.182   6.277
 6322SOL    HW219866   1.536   2.290   6.312
 6323SOL     OW19867   3.565   2.447   1.503
 6323SOL    HW119868   3.608   2.443   1.593
 6323SOL    HW219869   3.466   2.451   1.514
 6324SOL     OW19870   4.361   0.905   6.077
 6324SOL    HW119871   4.433   0.974   6.065
 6324SOL    HW219872   4.365   0.839   6.002
 6325SOL     OW19873   1.341   2.394   1.729
 6325SOL    HW119874   1.245   2.422   1.725
 6325SOL    HW219875   1.345   2.295   1.746
 6326SOL     OW19876   5.357   5.433   1.072
 6326SOL    HW119877   5.309   5.368   1.132
 6326SOL    HW219878   5.446   5.454   1.110
 6327SOL     OW19879   6.903   0.125   5.220
 6327SOL    HW119880   6.880   0.221   5.209
 6327SOL    HW219881   6.946   0.091   5.136
 6328SOL     OW19882   2.464   3.714   7.012
 6328SOL    HW119883   2.368   3.713   6.982
 6328SOL    HW219884   2.523   3.686   6.936
 6329SOL     OW19885   1.177   1.488   3.849
 6329SOL    HW119886   1.080   1.506   3.838
 6329SOL    HW219887   1.227   1.575   3.853
 6330SOL     OW19888   4.781   0.735   0.918
 6330SOL    HW119889   4.729   0.664   0.965
 6330SOL    HW219890   4.736   0.757   0.832
 6331SOL     OW19891   6.629   2.859   0.829
 6331SOL    HW119892   6.686   2.783   0.859
 6331SOL    HW219893   6.534   2.829   0.824
 6332SOL     OW19894   6.027   5.092   1.839
 6332SOL    HW119895   5.935   5.081   1.876
 6332SOL    HW219896   6.087   5.022   1.877
 6333SOL     OW19897   3.933   5.111   3.592
 6333SOL    HW119898   4.029   5.139   3.585
 6333SOL    HW219899   3.893   5.150   3.675
 6334SOL     OW19900   1.933   6.890   3.011
 6334SOL    HW119901   1.851   6.880   2.954
 6334SOL    HW219902   2.012   6.852   2.963
 6335SOL     OW19903   5.661   1.796   0.274
 6335SOL    HW119904   5.687   1.853   0.353
 6335SOL    HW219905   5.637   1.704   0.306
 6336SOL     OW19906   0.160   2.365   5.043
 6336SOL    HW119907   0.205   2.333   4.960
 6336SOL    HW219908   0.097   2.439   5.021
 6337SOL     OW19909   4.783   3.513   6.022
 6337SOL    HW119910   4.759   3.560   5.937
 6337SOL    HW219911   4.737   3.559   6.099
 6338SOL     OW19912   2.641   2.293   2.453
 6338SOL    HW119913   2.674   2.276   2.360
 6338SOL    HW219914   2.553   2.340   2.450
 6339SOL     OW19915   0.520   2.574   3.880
 6339SOL    HW119916   0.575   2.632   3.820
 6339SOL    HW219917   0.580   2.519   3.938
 6340SOL     OW19918   2.345   5.433   3.445
 6340SOL    HW119919   2.326   5.527   3.473
 6340SOL    HW219920   2.443   5.416   3.448
 6341SOL     OW19921   6.826   4.778   3.993
 6341SOL    HW119922   6.877   4.786   3.908
 6341SOL    HW219923   6.730   4.801   3.977
 6342SOL     OW19924   2.431   1.976   1.625
 6342SOL    HW119925   2.496   2.035   1.578
 6342SOL    HW219926   2.478   1.926   1.698
 6343SOL     OW19927   5.037   2.686   7.007
 6343SOL    HW119928   4.967   2.739   6.960
 6343SOL    HW219929   5.050   2.599   6.960
 6344SOL     OW19930   6.740   3.365   5.860
 6344SOL    HW119931   6.643   3.376   5.838
 6344SOL    HW219932   6.753   3.379   5.958
 6345SOL     OW19933   4.222   1.218   2.354
 6345SOL    HW119934   4.253   1.183   2.266
 6345SOL    HW219935   4.282   1.291   2.384
 6346SOL     OW19936   6.606   3.595   3.416
 6346SOL    HW119937   6.555   3.611   3.500
 6346SOL    HW219938   6.590   3.670   3.352
 6347SOL     OW19939   3.154   0.804   1.733
 6347SOL    HW119940   3.175   0.792   1.830
 6347SOL    HW219941   3.084   0.739   1.705
 6348SOL     OW19942   0.762   3.920   4.857
 6348SOL    HW119943   0.664   3.902   4.866
 6348SOL    HW219944   0.784   3.936   4.761
 6349SOL     OW19945   2.723   0.786   1.855
 6349SOL    HW119946   2.774   0.808   1.939
 6349SOL    HW219947   2.759   0.840   1.779
 6350SOL     OW19948   1.625   5.021   3.541
 6350SOL    HW119949   1.680   4.979   3.613
 6350SOL    HW219950   1.664   5.110   3.517
 6351SOL     OW19951   6.675   2.371   1.686
 6351SOL    HW119952   6.708   2.284   1.723
 6351SOL    HW219953   6.575   2.371   1.685
 6352SOL     OW19954   1.493   5.300   4.114
 6352SOL    HW119955   1.410   5.345   4.082
 6352SOL    HW219956   1.573   5.341   4.070
 6353SOL     OW19957   6.319   0.428   6.464
 6353SOL    HW119958   6.303   0.498   6.533
 6353SOL    HW219959   6.417   0.409   6.458
 6354SOL     OW19960   0.867   6.762   2.678
 6354SOL    HW119961   0.881   6.849   2.725
 6354SOL    HW219962   0.783   6.766   2.624
 6355SOL     OW19963   0.546   4.349   4.924
 6355SOL    HW119964   0.600   4.276   4.964
 6355SOL    HW219965   0.602   4.399   4.857
 6356SOL     OW19966   5.201   4.933   1.801
 6356SOL    HW119967   5.218   4.835   1.790
 6356SOL    HW219968   5.117   4.946   1.854
 6357SOL     OW19969   4.518   2.808   0.904
 6357SOL    HW119970   4.530   2.841   0.997
 6357SOL    HW219971   4.483   2.714   0.906
 6358SOL     OW19972   0.311   2.292   4.824
 6358SOL    HW119973   0.386   2.228   4.841
 6358SOL    HW219974   0.288   2.291   4.727
 6359SOL     OW19975   6.577   0.583   5.454
 6359SOL    HW119976   6.630   0.501   5.475
 6359SOL    HW219977   6.569   0.592   5.355
 6360SOL     OW19978   2.296   4.313   3.643
 6360SOL    HW119979   2.210   4.285   3.602
 6360SOL    HW219980   2.328   4.241   3.705
 6361SOL     OW19981   5.233   6.712   6.980
 6361SOL    HW119982   5.288   6.767   0.021
 6361SOL    HW219983   5.196   6.771   6.908
 6362SOL     OW19984   6.088   4.957   0.166
 6362SOL    HW119985   6.100   5.047   0.123
 6362SOL    HW219986   6.092   4.886   0.096
 6363SOL     OW19987   2.045   5.531   3.739
 6363SOL    HW119988   1.989   5.558   3.818
 6363SOL    HW219989   2.140   5.520   3.768
 6364SOL     OW19990   3.219   1.683   5.858
 6364SOL    HW119991   3.247   1.779   5.846
 6364SOL    HW219992   3.145   1.662   5.794
 6365SOL     OW19993   4.819   6.693   4.354
 6365SOL    HW119994   4.772   6.704   4.266
 6365SOL    HW219995   4.820   6.781   4.402
 6366SOL     OW19996   1.031   5.589   5.437
 6366SOL    HW119997   1.067   5.520   5.500
 6366SOL    HW219998   1.059   5.680   5.468
 6367SOL     OW19999   4.693   0.484   3.803
 6367SOL    HW120000   4.612   0.443   3.760
 6367SOL    HW220001   4.666   0.565   3.855
 6368SOL     OW20002   3.187   0.290   4.211
 6368SOL    HW120003   3.219   0.222   4.144
 6368SOL    HW220004   3.173   0.245   4.299
 6369SOL     OW20005   3.487   4.924   3.980
 6369SOL    HW120006   3.516   4.890   3.891
 6369SOL    HW220007   3.388   4.932   3.982
 6370SOL     OW20008   1.006   2.765   2.491
 6370SOL    HW120009   0.998   2.762   2.591
 6370SOL    HW220010   1.094   2.726   2.464
 6371SOL     OW20011   4.853   3.075   3.688
 6371SOL    HW120012   4.924   3.064   3.759
 6371SOL    HW220013   4.778   3.012   3.706
 6372SOL     OW20014   3.295   6.624   1.640
 6372SOL    HW120015   3.277   6.684   1.718
 6372SOL    HW220016   3.225   6.637   1.570
 6373SOL     OW20017   6.430   4.151   4.652
 6373SOL    HW120018   6.467   4.119   4.739
 6373SOL    HW220019   6.503   4.196   4.600
 6374SOL     OW20020   2.999   3.583   3.914
 6374SOL    HW120021   2.968   3.676   3.933
 6374SOL    HW220022   3.027   3.538   3.998
 6375SOL     OW20023   1.136   1.278   3.170
 6375SOL    HW120024   1.176   1.186   3.170
 6375SOL    HW220025   1.053   1.278   3.227
 6376SOL     OW20026   6.634   1.537   5.223
 6376SOL    HW120027   6.668   1.470   5.157
 6376SOL    HW220028   6.559   1.496   5.276
 6377SOL     OW20029   6.654   0.914   6.141
 6377SOL    HW120030   6.640   0.831   6.196
 6377SOL    HW220031   6.565   0.948   6.108
 6378SOL     OW20032   5.210   4.688   3.189
 6378SOL    HW120033   5.140   4.622   3.214
 6378SOL    HW220034   5.167   4.776   3.170
 6379SOL     OW20035   2.099   4.900   4.546
 6379SOL    HW120036   2.018   4.845   4.525
 6379SOL    HW220037   2.165   4.845   4.597
 6380SOL     OW20038   1.105   1.587   5.493
 6380SOL    HW120039   1.188   1.537   5.467
 6380SOL    HW220040   1.092   1.664   5.430
 6381SOL     OW20041   3.302   2.934   2.447
 6381SOL    HW120042   3.215   2.977   2.424
 6381SOL    HW220043   3.305   2.915   2.545
 6382SOL     OW20044   1.580   2.696   6.737
 6382SOL    HW120045   1.637   2.769   6.776
 6382SOL    HW220046   1.630   2.650   6.664
 6383SOL     OW20047   2.285   2.057   3.729
 6383SOL    HW120048   2.334   2.005   3.659
 6383SOL    HW220049   2.199   2.010   3.751
 6384SOL     OW20050   6.239   4.578   1.537
 6384SOL    HW120051   6.282   4.667   1.551
 6384SOL    HW220052   6.259   4.519   1.615
 6385SOL     OW20053   6.223   4.656   4.435
 6385SOL    HW120054   6.272   4.570   4.424
 6385SOL    HW220055   6.277   4.731   4.397
 6386SOL     OW20056   2.217   4.780   0.599
 6386SOL    HW120057   2.277   4.799   0.677
 6386SOL    HW220058   2.264   4.719   0.536
 6387SOL     OW20059   0.942   1.989   6.272
 6387SOL    HW120060   0.882   1.921   6.230
 6387SOL    HW220061   1.009   2.020   6.204
 6388SOL     OW20062   4.107   4.442   1.185
 6388SOL    HW120063   4.067   4.512   1.245
 6388SOL    HW220064   4.182   4.397   1.233
 6389SOL     OW20065   0.625   6.255   2.139
 6389SOL    HW120066   0.693   6.191   2.175
 6389SOL    HW220067   0.669   6.317   2.074
 6390SOL     OW20068   0.079   2.546   3.464
 6390SOL    HW120069   0.128   2.562   3.379
 6390SOL    HW220070   0.109   2.459   3.504
 6391SOL     OW20071   3.019   0.889   0.383
 6391SOL    HW120072   3.035   0.861   0.288
 6391SOL    HW220073   3.103   0.878   0.436
 6392SOL     OW20074   2.318   6.709   4.252
 6392SOL    HW120075   2.290   6.803   4.272
 6392SOL    HW220076   2.244   6.646   4.274
 6393SOL     OW20077   5.894   6.476   1.581
 6393SOL    HW120078   5.991   6.454   1.596
 6393SOL    HW220079   5.886   6.570   1.550
 6394SOL     OW20080   2.473   5.032   1.073
 6394SOL    HW120081   2.522   5.110   1.034
 6394SOL    HW220082   2.537   4.957   1.090
 6395SOL     OW20083   5.987   1.849   1.333
 6395SOL    HW120084   5.902   1.803   1.310
 6395SOL    HW220085   6.042   1.791   1.393
 6396SOL     OW20086   5.770   2.865   6.180
 6396SOL    HW120087   5.792   2.958   6.209
 6396SOL    HW220088   5.675   2.845   6.201
 6397SOL     OW20089   6.435   2.008   0.164
 6397SOL    HW120090   6.405   1.934   0.225
 6397SOL    HW220091   6.407   2.096   0.202
 6398SOL     OW20092   3.311   1.168   1.216
 6398SOL    HW120093   3.230   1.134   1.265
 6398SOL    HW220094   3.387   1.105   1.230
 6399SOL     OW20095   1.742   5.258   6.212
 6399SOL    HW120096   1.774   5.336   6.266
 6399SOL    HW220097   1.688   5.197   6.270
 6400SOL     OW20098   2.296   5.644   3.225
 6400SOL    HW120099   2.215   5.677   3.272
 6400SOL    HW220100   2.303   5.545   3.236
 6401SOL     OW20101   6.988   4.831   3.768
 6401SOL    HW120102   6.947   4.775   3.696
 6401SOL    HW220103   0.064   4.811   3.776
 6402SOL     OW20104   2.871   0.628   2.970
 6402SOL    HW120105   2.798   0.681   2.927
 6402SOL    HW220106   2.954   0.633   2.914
 6403SOL     OW20107   0.780   5.580   6.536
 6403SOL    HW120108   0.746   5.641   6.465
 6403SOL    HW220109   0.880   5.590   6.544
 6404SOL     OW20110   3.898   1.360   3.423
 6404SOL    HW120111   3.801   1.380   3.407
 6404SOL    HW220112   3.940   1.438   3.470
 6405SOL     OW20113   1.814   1.970   3.145
 6405SOL    HW120114   1.883   2.007   3.083
 6405SOL    HW220115   1.836   1.999   3.239
 6406SOL     OW20116   1.164   1.557   3.578
 6406SOL    HW120117   1.189   1.548   3.675
 6406SOL    HW220118   1.248   1.567   3.524
 6407SOL     OW20119   3.229   6.584   4.088
 6407SOL    HW120120   3.203   6.497   4.130
 6407SOL    HW220121   3.146   6.637   4.068
 6408SOL     OW20122   6.162   2.541   6.931
 6408SOL    HW120123   6.237   2.599   6.961
 6408SOL    HW220124   6.075   2.585   6.955
 6409SOL     OW20125   6.527   4.317   2.871
 6409SOL    HW120126   6.612   4.368   2.857
 6409SOL    HW220127   6.548   4.219   2.874
 6410SOL     OW20128   1.597   1.669   0.532
 6410SOL    HW120129   1.621   1.586   0.481
 6410SOL    HW220130   1.664   1.741   0.512
 6411SOL     OW20131   0.485   2.408   3.242
 6411SOL    HW120132   0.478   2.402   3.142
 6411SOL    HW220133   0.514   2.319   3.278
 6412SOL     OW20134   0.017   3.211   5.302
 6412SOL    HW120135   0.107   3.239   5.269
 6412SOL    HW220136   6.998   3.285   5.356
 6413SOL     OW20137   5.936   4.650   2.014
 6413SOL    HW120138   6.012   4.647   1.950
 6413SOL    HW220139   5.970   4.630   2.106
 6414SOL     OW20140   5.877   0.605   1.655
 6414SOL    HW120141   5.954   0.667   1.638
 6414SOL    HW220142   5.859   0.601   1.753
 6415SOL     OW20143   2.988   2.213   2.767
 6415SOL    HW120144   3.063   2.150   2.786
 6415SOL    HW220145   2.954   2.197   2.674
 6416SOL     OW20146   0.871   0.912   6.130
 6416SOL    HW120147   0.896   0.873   6.219
 6416SOL    HW220148   0.788   0.866   6.096
 6417SOL     OW20149   0.755   5.810   3.083
 6417SOL    HW120150   0.790   5.736   3.025
 6417SOL    HW220151   0.663   5.836   3.053
 6418SOL     OW20152   6.805   5.099   2.270
 6418SOL    HW120153   6.768   5.052   2.190
 6418SOL    HW220154   6.849   5.032   2.331
 6419SOL     OW20155   3.267   5.530   1.795
 6419SOL    HW120156   3.189   5.533   1.732
 6419SOL    HW220157   3.292   5.623   1.822
 6420SOL     OW20158   3.391   3.362   6.559
 6420SOL    HW120159   3.326   3.288   6.542
 6420SOL    HW220160   3.356   3.447   6.519
 6421SOL     OW20161   6.213   1.654   1.172
 6421SOL    HW120162   6.168   1.697   1.250
 6421SOL    HW220163   6.310   1.677   1.173
 6422SOL     OW20164   6.878   6.966   3.712
 6422SOL    HW120165   6.810   7.014   3.657
 6422SOL    HW220166   6.961   6.952   3.658
 6423SOL     OW20167   4.993   4.378   1.282
 6423SOL    HW120168   4.992   4.299   1.222
 6423SOL    HW220169   4.911   4.378   1.339
 6424SOL     OW20170   6.702   4.374   6.116
 6424SOL    HW120171   6.673   4.278   6.123
 6424SOL    HW220172   6.634   4.432   6.160
 6425SOL     OW20173   6.833   5.051   3.752
 6425SOL    HW120174   6.745   5.017   3.720
 6425SOL    HW220175   6.895   4.973   3.765
 6426SOL     OW20176   0.698   3.277   3.950
 6426SOL    HW120177   0.729   3.348   4.013
 6426SOL    HW220178   0.777   3.236   3.904
 6427SOL     OW20179   1.866   3.721   6.881
 6427SOL    HW120180   1.899   3.758   6.968
 6427SOL    HW220181   1.872   3.622   6.882
 6428SOL     OW20182   6.541   3.637   1.600
 6428SOL    HW120183   6.579   3.599   1.516
 6428SOL    HW220184   6.533   3.737   1.591
 6429SOL     OW20185   1.325   1.009   5.087
 6429SOL    HW120186   1.320   0.994   5.185
 6429SOL    HW220187   1.309   0.924   5.038
 6430SOL     OW20188   4.567   1.107   1.848
 6430SOL    HW120189   4.586   1.112   1.946
 6430SOL    HW220190   4.533   1.016   1.826
 6431SOL     OW20191   5.786   6.881   3.781
 6431SOL    HW120192   5.874   6.837   3.793
 6431SOL    HW220193   5.734   6.836   3.709
 6432SOL     OW20194   4.377   4.544   0.263
 6432SOL    HW120195   4.417   4.478   0.326
 6432SOL    HW220196   4.412   4.529   0.171
 6433SOL     OW20197   2.854   4.708   0.957
 6433SOL    HW120198   2.906   4.629   0.989
 6433SOL    HW220199   2.917   4.778   0.922
 6434SOL     OW20200   0.964   3.737   1.256
 6434SOL    HW120201   1.027   3.792   1.200
 6434SOL    HW220202   0.921   3.668   1.199
 6435SOL     OW20203   3.712   5.092   6.778
 6435SOL    HW120204   3.767   5.173   6.757
 6435SOL    HW220205   3.740   5.054   6.866
 6436SOL     OW20206   2.148   3.067   3.696
 6436SOL    HW120207   2.168   3.163   3.716
 6436SOL    HW220208   2.157   3.013   3.779
 6437SOL     OW20209   1.542   1.410   0.141
 6437SOL    HW120210   1.618   1.405   0.077
 6437SOL    HW220211   1.530   1.504   0.172
 6438SOL     OW20212   0.122   4.430   5.289
 6438SOL    HW120213   0.183   4.356   5.319
 6438SOL    HW220214   0.087   4.478   5.370
 6439SOL     OW20215   0.608   6.636   0.731
 6439SOL    HW120216   0.550   6.704   0.687
 6439SOL    HW220217   0.556   6.552   0.746
 6440SOL     OW20218   2.199   1.813   2.065
 6440SOL    HW120219   2.106   1.838   2.037
 6440SOL    HW220220   2.195   1.745   2.138
 6441SOL     OW20221   0.843   0.582   2.394
 6441SOL    HW120222   0.819   0.582   2.491
 6441SOL    HW220223   0.922   0.522   2.380
 6442SOL     OW20224   2.657   1.883   3.901
 6442SOL    HW120225   2.561   1.856   3.892
 6442SOL    HW220226   2.665   1.956   3.970
 6443SOL     OW20227   3.598   2.704   0.751
 6443SOL    HW120228   3.571   2.665   0.839
 6443SOL    HW220229   3.696   2.724   0.752
 6444SOL     OW20230   0.445   2.463   3.524
 6444SOL    HW120231   0.519   2.511   3.572
 6444SOL    HW220232   0.416   2.516   3.445
 6445SOL     OW20233   4.567   2.469   5.236
 6445SOL    HW120234   4.533   2.497   5.146
 6445SOL    HW220235   4.515   2.518   5.307
 6446SOL     OW20236   0.084   1.458   6.075
 6446SOL    HW120237   0.112   1.372   6.118
 6446SOL    HW220238   7.006   1.467   6.081
 6447SOL     OW20239   0.638   5.722   2.514
 6447SOL    HW120240   0.573   5.654   2.482
 6447SOL    HW220241   0.721   5.718   2.457
 6448SOL     OW20242   6.324   3.844   2.532
 6448SOL    HW120243   6.230   3.871   2.550
 6448SOL    HW220244   6.383   3.924   2.533
 6449SOL     OW20245   3.872   4.060   1.769
 6449SOL    HW120246   3.810   4.093   1.840
 6449SOL    HW220247   3.936   3.994   1.809
 6450SOL     OW20248   6.865   2.807   1.604
 6450SOL    HW120249   6.957   2.834   1.630
 6450SOL    HW220250   6.800   2.843   1.671
 6451SOL     OW20251   3.110   6.294   5.584
 6451SOL    HW120252   3.050   6.373   5.592
 6451SOL    HW220253   3.117   6.266   5.488
 6452SOL     OW20254   3.827   6.744   5.133
 6452SOL    HW120255   3.748   6.711   5.081
 6452SOL    HW220256   3.821   6.843   5.143
 6453SOL     OW20257   1.820   6.760   6.832
 6453SOL    HW120258   1.900   6.700   6.834
 6453SOL    HW220259   1.744   6.712   6.789
 6454SOL     OW20260   2.727   1.258   3.699
 6454SOL    HW120261   2.674   1.342   3.693
 6454SOL    HW220262   2.797   1.267   3.770
 6455SOL     OW20263   1.022   2.428   4.688
 6455SOL    HW120264   1.031   2.414   4.786
 6455SOL    HW220265   0.953   2.499   4.671
 6456SOL     OW20266   1.592   0.679   3.245
 6456SOL    HW120267   1.683   0.714   3.224
 6456SOL    HW220268   1.596   0.580   3.258
 6457SOL     OW20269   5.584   1.292   0.996
 6457SOL    HW120270   5.528   1.373   1.014
 6457SOL    HW220271   5.680   1.315   1.007
 6458SOL     OW20272   0.763   5.974   2.558
 6458SOL    HW120273   0.703   5.896   2.575
 6458SOL    HW220274   0.741   6.047   2.624
 6459SOL     OW20275   5.516   5.749   0.486
 6459SOL    HW120276   5.541   5.839   0.521
 6459SOL    HW220277   5.533   5.745   0.388
 6460SOL     OW20278   4.028   4.916   6.125
 6460SOL    HW120279   4.075   4.977   6.189
 6460SOL    HW220280   4.084   4.835   6.110
 6461SOL     OW20281   3.334   5.514   4.807
 6461SOL    HW120282   3.254   5.455   4.809
 6461SOL    HW220283   3.417   5.458   4.811
 6462SOL     OW20284   2.126   3.093   5.089
 6462SOL    HW120285   2.094   3.096   4.994
 6462SOL    HW220286   2.213   3.045   5.094
 6463SOL     OW20287   2.553   4.694   6.471
 6463SOL    HW120288   2.646   4.684   6.434
 6463SOL    HW220289   2.492   4.727   6.399
 6464SOL     OW20290   0.840   4.750   4.004
 6464SOL    HW120291   0.874   4.687   3.934
 6464SOL    HW220292   0.917   4.799   4.045
 6465SOL     OW20293   5.730   2.485   3.537
 6465SOL    HW120294   5.708   2.528   3.449
 6465SOL    HW220295   5.791   2.407   3.522
 6466SOL     OW20296   6.913   2.856   4.766
 6466SOL    HW120297   6.922   2.891   4.859
 6466SOL    HW220298   6.819   2.827   4.750
 6467SOL     OW20299   2.318   1.112   6.699
 6467SOL    HW120300   2.287   1.200   6.736
 6467SOL    HW220301   2.277   1.099   6.609
 6468SOL     OW20302   3.811   5.901   1.150
 6468SOL    HW120303   3.742   5.831   1.167
 6468SOL    HW220304   3.895   5.858   1.117
 6469SOL     OW20305   5.732   1.114   5.512
 6469SOL    HW120306   5.700   1.025   5.544
 6469SOL    HW220307   5.678   1.142   5.432
 6470SOL     OW20308   6.507   5.263   6.278
 6470SOL    HW120309   6.466   5.274   6.187
 6470SOL    HW220310   6.548   5.172   6.285
 6471SOL     OW20311   6.786   5.503   6.195
 6471SOL    HW120312   6.687   5.500   6.181
 6471SOL    HW220313   6.827   5.418   6.162
 6472SOL     OW20314   0.865   5.487   0.962
 6472SOL    HW120315   0.765   5.484   0.975
 6472SOL    HW220316   0.907   5.416   1.018
 6473SOL     OW20317   2.317   1.469   5.699
 6473SOL    HW120318   2.328   1.564   5.728
 6473SOL    HW220319   2.366   1.409   5.761
 6474SOL     OW20320   1.704   4.069   6.054
 6474SOL    HW120321   1.623   4.127   6.053
 6474SOL    HW220322   1.766   4.096   5.979
 6475SOL     OW20323   6.070   6.082   4.075
 6475SOL    HW120324   6.147   6.019   4.082
 6475SOL    HW220325   5.985   6.032   4.093
 6476SOL     OW20326   4.863   3.953   2.177
 6476SOL    HW120327   4.848   3.857   2.153
 6476SOL    HW220328   4.840   4.011   2.099
 6477SOL     OW20329   6.695   4.953   0.826
 6477SOL    HW120330   6.684   4.921   0.732
 6477SOL    HW220331   6.750   4.887   0.878
 6478SOL     OW20332   3.237   5.565   2.264
 6478SOL    HW120333   3.169   5.566   2.338
 6478SOL    HW220334   3.302   5.491   2.280
 6479SOL     OW20335   4.139   5.230   2.399
 6479SOL    HW120336   4.185   5.178   2.471
 6479SOL    HW220337   4.046   5.252   2.428
 6480SOL     OW20338   4.121   2.915   5.790
 6480SOL    HW120339   4.215   2.884   5.773
 6480SOL    HW220340   4.113   2.951   5.882
 6481SOL     OW20341   3.187   2.129   1.855
 6481SOL    HW120342   3.130   2.209   1.841
 6481SOL    HW220343   3.282   2.151   1.831
 6482SOL     OW20344   6.784   0.623   6.916
 6482SOL    HW120345   6.781   0.711   6.869
 6482SOL    HW220346   6.880   0.597   6.932
 6483SOL     OW20347   2.493   6.277   2.302
 6483SOL    HW120348   2.466   6.239   2.214
 6483SOL    HW220349   2.420   6.260   2.369
 6484SOL     OW20350   3.956   0.130   2.475
 6484SOL    HW120351   4.033   0.117   2.537
 6484SOL    HW220352   3.874   0.153   2.528
 6485SOL     OW20353   1.838   3.079   3.419
 6485SOL    HW120354   1.819   3.163   3.369
 6485SOL    HW220355   1.835   3.096   3.517
 6486SOL     OW20356   1.224   4.245   3.519
 6486SOL    HW120357   1.218   4.234   3.420
 6486SOL    HW220358   1.296   4.186   3.556
 6487SOL     OW20359   6.255   6.012   4.930
 6487SOL    HW120360   6.282   6.101   4.968
 6487SOL    HW220361   6.326   5.980   4.868
 6488SOL     OW20362   3.092   6.159   5.290
 6488SOL    HW120363   3.047   6.072   5.273
 6488SOL    HW220364   3.062   6.226   5.222
 6489SOL     OW20365   1.844   3.008   6.565
 6489SOL    HW120366   1.942   3.020   6.547
 6489SOL    HW220367   1.818   2.915   6.539
 6490SOL     OW20368   4.118   2.486   0.268
 6490SOL    HW120369   4.213   2.473   0.297
 6490SOL    HW220370   4.057   2.472   0.346
 6491SOL     OW20371   4.040   1.090   6.886
 6491SOL    HW120372   4.032   1.025   6.810
 6491SOL    HW220373   4.018   1.182   6.854
 6492SOL     OW20374   5.919   6.805   6.872
 6492SOL    HW120375   6.007   6.759   6.858
 6492SOL    HW220376   5.917   6.889   6.818
 6493SOL     OW20377   1.548   6.519   5.391
 6493SOL    HW120378   1.458   6.476   5.398
 6493SOL    HW220379   1.619   6.453   5.417
 6494SOL     OW20380   0.735   0.510   3.144
 6494SOL    HW120381   0.778   0.420   3.153
 6494SOL    HW220382   0.676   0.527   3.222
 6495SOL     OW20383   5.178   6.218   4.296
 6495SOL    HW120384   5.115   6.282   4.340
 6495SOL    HW220385   5.192   6.138   4.354
 6496SOL     OW20386   6.984   6.231   2.083
 6496SOL    HW120387   0.021   6.149   2.088
 6496SOL    HW220388   0.007   6.299   2.024
 6497SOL     OW20389   2.544   3.114   0.970
 6497SOL    HW120390   2.461   3.106   0.914
 6497SOL    HW220391   2.591   3.025   0.971
 6498SOL     OW20392   2.392   4.964   3.639
 6498SOL    HW120393   2.352   4.980   3.548
 6498SOL    HW220394   2.488   4.991   3.639
 6499SOL     OW20395   4.959   0.881   5.255
 6499SOL    HW120396   4.986   0.892   5.159
 6499SOL    HW220397   5.013   0.807   5.296
 6500SOL     OW20398   6.356   4.001   3.365
 6500SOL    HW120399   6.455   3.994   3.348
 6500SOL    HW220400   6.319   4.078   3.314
 6501SOL     OW20401   6.277   3.264   1.032
 6501SOL    HW120402   6.257   3.166   1.034
 6501SOL    HW220403   6.192   3.315   1.031
 6502SOL     OW20404   0.161   3.984   3.732
 6502SOL    HW120405   0.241   3.929   3.709
 6502SOL    HW220406   0.141   3.973   3.830
 6503SOL     OW20407   6.047   6.759   3.833
 6503SOL    HW120408   6.090   6.764   3.743
 6503SOL    HW220409   6.117   6.746   3.903
 6504SOL     OW20410   3.837   6.825   6.468
 6504SOL    HW120411   3.883   6.744   6.433
 6504SOL    HW220412   3.785   6.868   6.395
 6505SOL     OW20413   6.285   4.833   0.815
 6505SOL    HW120414   6.308   4.748   0.768
 6505SOL    HW220415   6.199   4.868   0.779
 6506SOL     OW20416   0.788   2.853   0.950
 6506SOL    HW120417   0.837   2.768   0.972
 6506SOL    HW220418   0.720   2.834   0.879
 6507SOL     OW20419   1.400   5.782   0.227
 6507SOL    HW120420   1.382   5.785   0.325
 6507SOL    HW220421   1.361   5.864   0.184
 6508SOL     OW20422   2.595   1.613   3.462
 6508SOL    HW120423   2.634   1.704   3.476
 6508SOL    HW220424   2.496   1.622   3.447
 6509SOL     OW20425   1.661   2.466   4.983
 6509SOL    HW120426   1.596   2.481   5.057
 6509SOL    HW220427   1.639   2.380   4.936
 6510SOL     OW20428   0.257   5.384   6.546
 6510SOL    HW120429   0.351   5.354   6.531
 6510SOL    HW220430   0.199   5.304   6.561
 6511SOL     OW20431   6.002   0.371   4.553
 6511SOL    HW120432   6.009   0.382   4.454
 6511SOL    HW220433   6.028   0.457   4.597
 6512SOL     OW20434   4.461   0.019   3.073
 6512SOL    HW120435   4.559   0.034   3.082
 6512SOL    HW220436   4.444   6.971   3.003
 6513SOL     OW20437   3.821   6.203   3.945
 6513SOL    HW120438   3.840   6.110   3.912
 6513SOL    HW220439   3.723   6.219   3.945
 6514SOL     OW20440   5.185   0.046   4.115
 6514SOL    HW120441   5.213   0.000   4.200
 6514SOL    HW220442   5.260   0.103   4.081
 6515SOL     OW20443   0.037   4.781   4.178
 6515SOL    HW120444   0.117   4.781   4.118
 6515SOL    HW220445   6.975   4.788   4.123
 6516SOL     OW20446   0.114   1.820   6.528
 6516SOL    HW120447   0.165   1.765   6.462
 6516SOL    HW220448   0.165   1.826   6.614
 6517SOL     OW20449   6.627   1.986   0.469
 6517SOL    HW120450   6.640   1.896   0.428
 6517SOL    HW220451   6.660   2.057   0.406
 6518SOL     OW20452   0.892   6.398   0.138
 6518SOL    HW120453   0.845   6.311   0.122
 6518SOL    HW220454   0.991   6.385   0.127
 6519SOL     OW20455   2.750   1.639   3.891
 6519SOL    HW120456   2.718   1.728   3.923
 6519SOL    HW220457   2.850   1.634   3.902
 6520SOL     OW20458   6.128   5.439   3.313
 6520SOL    HW120459   6.148   5.529   3.352
 6520SOL    HW220460   6.208   5.406   3.263
 6521SOL     OW20461   0.947   1.071   4.466
 6521SOL    HW120462   0.972   1.082   4.370
 6521SOL    HW220463   1.012   1.122   4.523
 6522SOL     OW20464   2.688   5.442   6.922
 6522SOL    HW120465   2.669   5.345   6.910
 6522SOL    HW220466   2.738   5.476   6.843
 6523SOL     OW20467   2.836   1.585   6.737
 6523SOL    HW120468   2.805   1.680   6.736
 6523SOL    HW220469   2.928   1.580   6.699
 6524SOL     OW20470   3.562   3.163   3.857
 6524SOL    HW120471   3.514   3.192   3.940
 6524SOL    HW220472   3.660   3.154   3.877
 6525SOL     OW20473   1.707   2.916   2.618
 6525SOL    HW120474   1.753   3.005   2.614
 6525SOL    HW220475   1.756   2.855   2.680
 6526SOL     OW20476   0.686   6.567   5.086
 6526SOL    HW120477   0.719   6.558   5.180
 6526SOL    HW220478   0.599   6.616   5.086
 6527SOL     OW20479   1.113   1.203   5.093
 6527SOL    HW120480   1.197   1.148   5.093
 6527SOL    HW220481   1.135   1.297   5.118
 6528SOL     OW20482   0.242   1.068   4.023
 6528SOL    HW120483   0.193   1.019   3.951
 6528SOL    HW220484   0.317   1.012   4.057
 6529SOL     OW20485   6.209   1.909   2.858
 6529SOL    HW120486   6.219   2.008   2.869
 6529SOL    HW220487   6.128   1.890   2.803
 6530SOL     OW20488   6.518   3.172   0.643
 6530SOL    HW120489   6.616   3.175   0.625
 6530SOL    HW220490   6.502   3.155   0.740
 6531SOL     OW20491   5.522   2.862   3.946
 6531SOL    HW120492   5.522   2.764   3.923
 6531SOL    HW220493   5.441   2.883   4.001
 6532SOL     OW20494   6.204   1.887   0.469
 6532SOL    HW120495   6.217   1.986   0.470
 6532SOL    HW220496   6.279   1.843   0.520
 6533SOL     OW20497   5.505   6.137   1.232
 6533SOL    HW120498   5.428   6.191   1.265
 6533SOL    HW220499   5.582   6.147   1.294
 6534SOL     OW20500   2.643   3.511   1.266
 6534SOL    HW120501   2.719   3.549   1.319
 6534SOL    HW220502   2.679   3.445   1.200
 6535SOL     OW20503   0.389   2.985   5.287
 6535SOL    HW120504   0.314   2.967   5.224
 6535SOL    HW220505   0.469   2.933   5.259
 6536SOL     OW20506   6.601   2.893   6.707
 6536SOL    HW120507   6.653   2.821   6.753
 6536SOL    HW220508   6.613   2.884   6.608
 6537SOL     OW20509   6.645   6.527   6.689
 6537SOL    HW120510   6.666   6.457   6.621
 6537SOL    HW220511   6.707   6.605   6.677
 6538SOL     OW20512   4.028   4.301   0.172
 6538SOL    HW120513   4.075   4.367   0.230
 6538SOL    HW220514   4.092   4.266   0.102
 6539SOL     OW20515   2.257   2.100   6.528
 6539SOL    HW120516   2.261   2.070   6.433
 6539SOL    HW220517   2.204   2.185   6.533
 6540SOL     OW20518   3.946   1.883   4.159
 6540SOL    HW120519   3.975   1.937   4.080
 6540SOL    HW220520   3.893   1.804   4.128
 6541SOL     OW20521   3.007   2.121   5.180
 6541SOL    HW120522   2.991   2.060   5.103
 6541SOL    HW220523   3.063   2.198   5.152
 6542SOL     OW20524   6.369   5.069   2.999
 6542SOL    HW120525   6.289   5.108   2.953
 6542SOL    HW220526   6.451   5.118   2.970
 6543SOL     OW20527   6.520   5.313   0.120
 6543SOL    HW120528   6.447   5.250   0.145
 6543SOL    HW220529   6.606   5.285   0.162
 6544SOL     OW20530   6.980   5.908   4.243
 6544SOL    HW120531   6.884   5.881   4.249
 6544SOL    HW220532   6.987   5.998   4.199
 6545SOL     OW20533   4.889   1.485   6.117
 6545SOL    HW120534   4.910   1.571   6.162
 6545SOL    HW220535   4.840   1.503   6.032
 6546SOL     OW20536   4.698   4.015   6.576
 6546SOL    HW120537   4.688   3.918   6.552
 6546SOL    HW220538   4.767   4.025   6.647
 6547SOL     OW20539   4.042   1.950   6.020
 6547SOL    HW120540   4.102   1.886   6.068
 6547SOL    HW220541   4.098   2.020   5.975
 6548SOL     OW20542   0.726   4.427   6.597
 6548SOL    HW120543   0.669   4.371   6.536
 6548SOL    HW220544   0.667   4.472   6.665
 6549SOL     OW20545   3.729   1.848   1.019
 6549SOL    HW120546   3.821   1.868   0.986
 6549SOL    HW220547   3.722   1.873   1.116
 6550SOL     OW20548   0.482   6.279   3.646
 6550SOL    HW120549   0.504   6.332   3.728
 6550SOL    HW220550   0.550   6.296   3.575
 6551SOL     OW20551   2.014   4.185   2.042
 6551SOL    HW120552   2.113   4.176   2.045
 6551SOL    HW220553   1.978   4.135   1.963
 6552SOL     OW20554   2.289   5.612   5.113
 6552SOL    HW120555   2.253   5.701   5.143
 6552SOL    HW220556   2.223   5.570   5.051
 6553SOL     OW20557   0.254   3.135   1.269
 6553SOL    HW120558   0.185   3.080   1.315
 6553SOL    HW220559   0.338   3.082   1.259
 6554SOL     OW20560   5.852   1.549   5.817
 6554SOL    HW120561   5.811   1.476   5.871
 6554SOL    HW220562   5.780   1.609   5.781
 6555SOL     OW20563   1.732   0.832   2.214
 6555SOL    HW120564   1.813   0.887   2.194
 6555SOL    HW220565   1.650   0.887   2.196
 6556SOL     OW20566   4.705   4.638   4.973
 6556SOL    HW120567   4.787   4.696   4.966
 6556SOL    HW220568   4.665   4.626   4.883
 6557SOL     OW20569   5.613   5.927   0.764
 6557SOL    HW120570   5.687   5.901   0.701
 6557SOL    HW220571   5.652   5.951   0.853
 6558SOL     OW20572   6.380   5.406   0.864
 6558SOL    HW120573   6.341   5.429   0.953
 6558SOL    HW220574   6.334   5.325   0.827
 6559SOL     OW20575   5.284   3.475   1.061
 6559SOL    HW120576   5.314   3.453   1.154
 6559SOL    HW220577   5.300   3.572   1.042
 6560SOL     OW20578   3.712   2.882   1.498
 6560SOL    HW120579   3.714   2.892   1.597
 6560SOL    HW220580   3.764   2.957   1.456
 6561SOL     OW20581   3.881   3.857   2.740
 6561SOL    HW120582   3.874   3.937   2.680
 6561SOL    HW220583   3.797   3.847   2.793
 6562SOL     OW20584   6.424   4.693   6.293
 6562SOL    HW120585   6.401   4.697   6.196
 6562SOL    HW220586   6.428   4.597   6.323
 6563SOL     OW20587   0.516   5.790   0.159
 6563SOL    HW120588   0.589   5.749   0.214
 6563SOL    HW220589   0.526   5.761   0.064
 6564SOL     OW20590   1.017   3.558   2.082
 6564SOL    HW120591   1.075   3.592   2.008
 6564SOL    HW220592   1.003   3.631   2.149
 6565SOL     OW20593   6.144   2.550   5.123
 6565SOL    HW120594   6.131   2.615   5.049
 6565SOL    HW220595   6.209   2.587   5.189
 6566SOL     OW20596   3.467   0.374   1.704
 6566SOL    HW120597   3.457   0.453   1.644
 6566SOL    HW220598   3.439   0.397   1.797
 6567SOL     OW20599   4.726   2.977   1.093
 6567SOL    HW120600   4.813   3.021   1.116
 6567SOL    HW220601   4.665   2.978   1.172
 6568SOL     OW20602   4.644   4.795   2.186
 6568SOL    HW120603   4.550   4.815   2.214
 6568SOL    HW220604   4.689   4.879   2.158
 6569SOL     OW20605   2.535   5.165   0.759
 6569SOL    HW120606   2.473   5.232   0.719
 6569SOL    HW220607   2.626   5.176   0.719
 6570SOL     OW20608   4.467   0.054   1.866
 6570SOL    HW120609   4.549   0.073   1.811
 6570SOL    HW220610   4.484   6.996   1.924
 6571SOL     OW20611   2.403   6.033   2.984
 6571SOL    HW120612   2.407   6.083   2.898
 6571SOL    HW220613   2.311   5.996   2.997
 6572SOL     OW20614   6.174   4.335   5.152
 6572SOL    HW120615   6.215   4.247   5.175
 6572SOL    HW220616   6.203   4.404   5.218
 6573SOL     OW20617   3.507   0.702   2.997
 6573SOL    HW120618   3.432   0.730   2.938
 6573SOL    HW220619   3.563   0.782   3.020
 6574SOL     OW20620   2.255   6.236   1.836
 6574SOL    HW120621   2.225   6.141   1.827
 6574SOL    HW220622   2.288   6.269   1.748
 6575SOL     OW20623   0.867   1.477   1.853
 6575SOL    HW120624   0.786   1.438   1.897
 6575SOL    HW220625   0.943   1.411   1.860
 6576SOL     OW20626   0.972   6.099   6.544
 6576SOL    HW120627   0.979   6.152   6.460
 6576SOL    HW220628   1.038   6.024   6.541
 6577SOL     OW20629   0.366   1.759   3.443
 6577SOL    HW120630   0.316   1.790   3.525
 6577SOL    HW220631   0.451   1.811   3.436
 6578SOL     OW20632   6.732   5.503   3.505
 6578SOL    HW120633   6.793   5.528   3.429
 6578SOL    HW220634   6.772   5.428   3.557
 6579SOL     OW20635   6.851   4.003   3.880
 6579SOL    HW120636   6.947   4.001   3.910
 6579SOL    HW220637   6.826   3.914   3.843
 6580SOL     OW20638   6.070   1.016   0.988
 6580SOL    HW120639   6.004   0.996   1.061
 6580SOL    HW220640   6.099   1.111   0.994
 6581SOL     OW20641   3.612   1.049   5.365
 6581SOL    HW120642   3.526   1.099   5.374
 6581SOL    HW220643   3.647   1.027   5.456
 6582SOL     OW20644   1.345   6.829   2.258
 6582SOL    HW120645   1.440   6.834   2.228
 6582SOL    HW220646   1.307   6.739   2.233
 6583SOL     OW20647   4.750   1.555   5.891
 6583SOL    HW120648   4.821   1.568   5.822
 6583SOL    HW220649   4.680   1.494   5.856
 6584SOL     OW20650   5.883   2.181   6.403
 6584SOL    HW120651   5.965   2.174   6.459
 6584SOL    HW220652   5.824   2.254   6.438
 6585SOL     OW20653   0.086   1.663   0.228
 6585SOL    HW120654   0.066   1.570   0.257
 6585SOL    HW220655   0.053   1.727   0.298
 6586SOL     OW20656   6.496   2.383   5.884
 6586SOL    HW120657   6.567   2.313   5.893
 6586SOL    HW220658   6.523   2.465   5.935
 6587SOL     OW20659   2.603   5.560   4.366
 6587SOL    HW120660   2.635   5.492   4.432
 6587SOL    HW220661   2.645   5.649   4.386
 6588SOL     OW20662   1.514   3.978   1.205
 6588SOL    HW120663   1.600   3.926   1.198
 6588SOL    HW220664   1.496   3.999   1.302
 6589SOL     OW20665   4.913   0.484   6.791
 6589SOL    HW120666   4.855   0.437   6.724
 6589SOL    HW220667   4.985   0.534   6.743
 6590SOL     OW20668   0.009   1.765   4.754
 6590SOL    HW120669   0.047   1.842   4.806
 6590SOL    HW220670   0.074   1.738   4.683
 6591SOL     OW20671   5.731   6.874   2.705
 6591SOL    HW120672   5.738   6.837   2.798
 6591SOL    HW220673   5.703   6.970   2.710
 6592SOL     OW20674   4.544   6.861   4.213
 6592SOL    HW120675   4.514   6.908   4.296
 6592SOL    HW220676   4.507   6.769   4.211
 6593SOL     OW20677   2.655   2.085   3.691
 6593SOL    HW120678   2.676   2.177   3.723
 6593SOL    HW220679   2.725   2.021   3.724
 6594SOL     OW20680   4.465   0.970   0.050
 6594SOL    HW120681   4.424   1.040   7.013
 6594SOL    HW220682   4.408   0.956   0.131
 6595SOL     OW20683   0.768   3.925   1.527
 6595SOL    HW120684   0.767   3.839   1.475
 6595SOL    HW220685   0.692   3.983   1.496
 6596SOL     OW20686   3.839   0.452   6.221
 6596SOL    HW120687   3.884   0.486   6.138
 6596SOL    HW220688   3.851   0.353   6.227
 6597SOL     OW20689   0.987   6.441   4.563
 6597SOL    HW120690   1.029   6.397   4.483
 6597SOL    HW220691   1.049   6.432   4.642
 6598SOL     OW20692   1.638   5.233   5.293
 6598SOL    HW120693   1.548   5.273   5.276
 6598SOL    HW220694   1.705   5.274   5.232
 6599SOL     OW20695   4.194   4.740   5.806
 6599SOL    HW120696   4.129   4.691   5.748
 6599SOL    HW220697   4.145   4.806   5.863
 6600SOL     OW20698   5.514   5.004   5.133
 6600SOL    HW120699   5.487   5.038   5.042
 6600SOL    HW220700   5.480   5.067   5.203
 6601SOL     OW20701   0.457   0.403   6.899
 6601SOL    HW120702   0.361   0.383   6.881
 6601SOL    HW220703   0.484   0.486   6.850
 6602SOL     OW20704   0.147   2.603   0.871
 6602SOL    HW120705   0.212   2.527   0.870
 6602SOL    HW220706   0.113   2.616   0.965
 6603SOL     OW20707   1.840   3.063   4.051
 6603SOL    HW120708   1.901   2.987   4.072
 6603SOL    HW220709   1.894   3.147   4.043
 6604SOL     OW20710   2.576   5.968   1.749
 6604SOL    HW120711   2.480   5.994   1.758
 6604SOL    HW220712   2.628   6.006   1.825
 6605SOL     OW20713   4.882   4.879   0.409
 6605SOL    HW120714   4.963   4.938   0.408
 6605SOL    HW220715   4.840   4.880   0.500
 6606SOL     OW20716   4.717   0.317   2.603
 6606SOL    HW120717   4.753   0.225   2.588
 6606SOL    HW220718   4.792   0.381   2.619
 6607SOL     OW20719   1.641   1.484   2.173
 6607SOL    HW120720   1.659   1.546   2.097
 6607SOL    HW220721   1.629   1.537   2.257
 6608SOL     OW20722   5.362   3.408   2.699
 6608SOL    HW120723   5.375   3.412   2.599
 6608SOL    HW220724   5.318   3.492   2.730
 6609SOL     OW20725   5.114   0.960   6.787
 6609SOL    HW120726   5.092   0.929   6.879
 6609SOL    HW220727   5.108   1.059   6.782
 6610SOL     OW20728   1.847   0.238   0.214
 6610SOL    HW120729   1.915   0.278   0.275
 6610SOL    HW220730   1.840   0.140   0.231
 6611SOL     OW20731   6.604   2.679   3.224
 6611SOL    HW120732   6.586   2.772   3.256
 6611SOL    HW220733   6.692   2.648   3.260
 6612SOL     OW20734   1.649   4.759   6.569
 6612SOL    HW120735   1.687   4.677   6.610
 6612SOL    HW220736   1.712   4.795   6.500
 6613SOL     OW20737   5.664   6.053   3.702
 6613SOL    HW120738   5.623   6.092   3.620
 6613SOL    HW220739   5.714   6.125   3.751
 6614SOL     OW20740   4.791   6.434   6.539
 6614SOL    HW120741   4.715   6.450   6.476
 6614SOL    HW220742   4.873   6.482   6.507
 6615SOL     OW20743   0.474   3.947   4.856
 6615SOL    HW120744   0.437   3.860   4.890
 6615SOL    HW220745   0.401   4.014   4.848
 6616SOL     OW20746   3.950   1.690   5.893
 6616SOL    HW120747   3.948   1.777   5.942
 6616SOL    HW220748   3.871   1.683   5.833
 6617SOL     OW20749   3.607   6.804   3.451
 6617SOL    HW120750   3.575   6.815   3.357
 6617SOL    HW220751   3.565   6.874   3.509
 6618SOL     OW20752   1.191   3.078   2.258
 6618SOL    HW120753   1.196   3.166   2.211
 6618SOL    HW220754   1.209   3.090   2.356
 6619SOL     OW20755   4.345   6.504   4.056
 6619SOL    HW120756   4.388   6.559   4.128
 6619SOL    HW220757   4.398   6.419   4.044
 6620SOL     OW20758   1.362   2.977   5.847
 6620SOL    HW120759   1.328   2.994   5.939
 6620SOL    HW220760   1.318   3.040   5.783
 6621SOL     OW20761   3.142   3.970   0.960
 6621SOL    HW120762   3.076   3.946   0.889
 6621SOL    HW220763   3.138   3.902   1.034
 6622SOL     OW20764   6.016   5.660   1.290
 6622SOL    HW120765   6.016   5.566   1.324
 6622SOL    HW220766   6.110   5.687   1.266
 6623SOL     OW20767   3.597   3.029   2.020
 6623SOL    HW120768   3.655   3.040   2.100
 6623SOL    HW220769   3.511   3.078   2.034
 6624SOL     OW20770   2.717   6.010   4.656
 6624SOL    HW120771   2.816   6.022   4.666
 6624SOL    HW220772   2.671   6.098   4.661
 6625SOL     OW20773   5.928   1.416   6.818
 6625SOL    HW120774   6.025   1.401   6.801
 6625SOL    HW220775   5.876   1.384   6.738
 6626SOL     OW20776   3.291   5.319   3.344
 6626SOL    HW120777   3.196   5.292   3.325
 6626SOL    HW220778   3.341   5.240   3.379
 6627SOL     OW20779   2.051   0.870   5.864
 6627SOL    HW120780   2.068   0.851   5.961
 6627SOL    HW220781   1.954   0.889   5.850
 6628SOL     OW20782   4.908   4.793   2.574
 6628SOL    HW120783   4.932   4.768   2.481
 6628SOL    HW220784   4.826   4.743   2.602
 6629SOL     OW20785   3.332   6.079   0.835
 6629SOL    HW120786   3.296   6.118   0.750
 6629SOL    HW220787   3.424   6.115   0.851
 6630SOL     OW20788   3.676   1.605   0.129
 6630SOL    HW120789   3.664   1.593   0.227
 6630SOL    HW220790   3.762   1.652   0.111
 6631SOL     OW20791   4.737   0.033   2.378
 6631SOL    HW120792   4.780   7.018   2.295
 6631SOL    HW220793   4.696   0.122   2.358
 6632SOL     OW20794   0.355   1.515   1.437
 6632SOL    HW120795   0.400   1.475   1.516
 6632SOL    HW220796   0.300   1.593   1.466
 6633SOL     OW20797   1.466   5.488   6.059
 6633SOL    HW120798   1.552   5.537   6.076
 6633SOL    HW220799   1.485   5.391   6.044
 6634SOL     OW20800   6.570   3.489   6.270
 6634SOL    HW120801   6.668   3.498   6.254
 6634SOL    HW220802   6.543   3.393   6.266
 6635SOL     OW20803   4.269   4.954   3.528
 6635SOL    HW120804   4.303   5.047   3.546
 6635SOL    HW220805   4.346   4.891   3.524
 6636SOL     OW20806   1.620   3.516   5.198
 6636SOL    HW120807   1.539   3.458   5.200
 6636SOL    HW220808   1.676   3.497   5.279
 6637SOL     OW20809   0.852   0.352   0.054
 6637SOL    HW120810   0.752   0.348   0.056
 6637SOL    HW220811   0.889   0.259   0.055
 6638SOL     OW20812   3.375   5.040   4.625
 6638SOL    HW120813   3.377   5.132   4.666
 6638SOL    HW220814   3.466   5.015   4.594
 6639SOL     OW20815   5.614   5.512   6.254
 6639SOL    HW120816   5.629   5.580   6.181
 6639SOL    HW220817   5.606   5.421   6.214
 6640SOL     OW20818   0.153   1.686   4.519
 6640SOL    HW120819   0.097   1.651   4.444
 6640SOL    HW220820   0.200   1.769   4.489
 6641SOL     OW20821   3.082   3.715   6.675
 6641SOL    HW120822   3.133   3.786   6.627
 6641SOL    HW220823   3.099   3.722   6.773
 6642SOL     OW20824   2.379   5.259   6.927
 6642SOL    HW120825   2.364   5.272   6.829
 6642SOL    HW220826   2.379   5.162   6.949
 6643SOL     OW20827   6.141   4.752   7.010
 6643SOL    HW120828   6.077   4.732   6.937
 6643SOL    HW220829   6.167   4.667   0.035
 6644SOL     OW20830   3.112   4.672   1.758
 6644SOL    HW120831   3.013   4.673   1.773
 6644SOL    HW220832   3.152   4.593   1.804
 6645SOL     OW20833   6.970   4.940   0.627
 6645SOL    HW120834   6.877   4.920   0.657
 6645SOL    HW220835   6.988   5.038   0.635
 6646SOL     OW20836   4.484   5.401   4.540
 6646SOL    HW120837   4.444   5.445   4.459
 6646SOL    HW220838   4.422   5.329   4.572
 6647SOL     OW20839   3.264   0.797   2.902
 6647SOL    HW120840   3.216   0.710   2.891
 6647SOL    HW220841   3.237   0.840   2.988
 6648SOL     OW20842   3.776   5.573   2.821
 6648SOL    HW120843   3.760   5.542   2.727
 6648SOL    HW220844   3.871   5.556   2.845
 6649SOL     OW20845   5.508   2.374   5.999
 6649SOL    HW120846   5.529   2.276   6.001
 6649SOL    HW220847   5.571   2.423   6.060
 6650SOL     OW20848   4.006   1.251   3.177
 6650SOL    HW120849   4.024   1.153   3.181
 6650SOL    HW220850   3.954   1.279   3.258
 6651SOL     OW20851   1.614   2.232   0.877
 6651SOL    HW120852   1.538   2.174   0.907
 6651SOL    HW220853   1.667   2.184   0.807
 6652SOL     OW20854   6.693   3.849   0.851
 6652SOL    HW120855   6.785   3.880   0.827
 6652SOL    HW220856   6.632   3.860   0.772
 6653SOL     OW20857   3.887   3.714   2.987
 6653SOL    HW120858   3.842   3.803   2.994
 6653SOL    HW220859   3.927   3.704   2.897
 6654SOL     OW20860   1.989   2.845   1.099
 6654SOL    HW120861   1.971   2.873   1.005
 6654SOL    HW220862   1.958   2.751   1.113
 6655SOL     OW20863   2.408   7.012   2.037
 6655SOL    HW120864   2.311   0.007   2.052
 6655SOL    HW220865   2.446   6.963   2.116
 6656SOL     OW20866   6.959   0.921   2.678
 6656SOL    HW120867   6.887   0.980   2.642
 6656SOL    HW220868   6.971   0.939   2.775
 6657SOL     OW20869   3.999   6.635   6.359
 6657SOL    HW120870   4.065   6.710   6.373
 6657SOL    HW220871   4.042   6.548   6.383
 6658SOL     OW20872   5.927   0.959   5.869
 6658SOL    HW120873   5.946   1.042   5.816
 6658SOL    HW220874   6.010   0.903   5.875
 6659SOL     OW20875   2.667   2.346   0.284
 6659SOL    HW120876   2.702   2.329   0.376
 6659SOL    HW220877   2.600   2.275   0.260
 6660SOL     OW20878   6.825   6.595   1.429
 6660SOL    HW120879   6.819   6.514   1.371
 6660SOL    HW220880   6.882   6.575   1.508
 6661SOL     OW20881   0.049   5.385   3.649
 6661SOL    HW120882   6.995   5.329   3.616
 6661SOL    HW220883   0.051   5.471   3.599
 6662SOL     OW20884   1.531   1.115   0.318
 6662SOL    HW120885   1.533   1.019   0.349
 6662SOL    HW220886   1.469   1.123   0.240
 6663SOL     OW20887   0.095   5.666   3.625
 6663SOL    HW120888   0.043   5.697   3.546
 6663SOL    HW220889   0.192   5.663   3.602
 6664SOL     OW20890   1.357   0.185   1.597
 6664SOL    HW120891   1.386   0.194   1.502
 6664SOL    HW220892   1.378   0.093   1.629
 6665SOL     OW20893   1.153   0.161   3.753
 6665SOL    HW120894   1.127   0.154   3.657
 6665SOL    HW220895   1.196   0.076   3.783
 6666SOL     OW20896   6.303   1.719   5.075
 6666SOL    HW120897   6.245   1.800   5.070
 6666SOL    HW220898   6.393   1.745   5.109
 6667SOL     OW20899   6.197   5.038   4.833
 6667SOL    HW120900   6.254   5.022   4.753
 6667SOL    HW220901   6.233   4.987   4.911
 6668SOL     OW20902   0.141   5.291   1.944
 6668SOL    HW120903   0.066   5.284   2.008
 6668SOL    HW220904   0.228   5.276   1.992
 6669SOL     OW20905   2.167   4.590   3.534
 6669SOL    HW120906   2.236   4.586   3.605
 6669SOL    HW220907   2.181   4.516   3.469
 6670SOL     OW20908   3.445   4.716   6.470
 6670SOL    HW120909   3.345   4.705   6.474
 6670SOL    HW220910   3.469   4.810   6.496
 6671SOL     OW20911   5.361   4.370   6.924
 6671SOL    HW120912   5.375   4.305   6.998
 6671SOL    HW220913   5.400   4.458   6.950
 6672SOL     OW20914   0.979   0.711   5.337
 6672SOL    HW120915   0.927   0.794   5.317
 6672SOL    HW220916   0.916   0.638   5.365
 6673SOL     OW20917   5.357   5.705   2.878
 6673SOL    HW120918   5.421   5.629   2.868
 6673SOL    HW220919   5.315   5.726   2.790
 6674SOL     OW20920   0.791   5.888   6.124
 6674SOL    HW120921   0.744   5.895   6.212
 6674SOL    HW220922   0.840   5.801   6.119
 6675SOL     OW20923   5.410   4.039   0.995
 6675SOL    HW120924   5.457   4.071   1.077
 6675SOL    HW220925   5.316   4.071   0.995
 6676SOL     OW20926   0.559   3.241   5.589
 6676SOL    HW120927   0.555   3.169   5.659
 6676SOL    HW220928   0.529   3.327   5.629
 6677SOL     OW20929   0.306   3.312   0.101
 6677SOL    HW120930   0.251   3.239   0.062
 6677SOL    HW220931   0.296   3.394   0.046
 6678SOL     OW20932   1.206   2.947   6.405
 6678SOL    HW120933   1.291   2.901   6.432
 6678SOL    HW220934   1.150   2.884   6.351
 6679SOL     OW20935   1.342   1.899   4.982
 6679SOL    HW120936   1.331   1.827   5.050
 6679SOL    HW220937   1.364   1.858   4.893
 6680SOL     OW20938   3.859   5.807   5.470
 6680SOL    HW120939   3.804   5.739   5.420
 6680SOL    HW220940   3.819   5.821   5.561
 6681SOL     OW20941   5.446   5.934   6.703
 6681SOL    HW120942   5.436   6.031   6.680
 6681SOL    HW220943   5.452   5.881   6.619
 6682SOL     OW20944   0.845   4.408   2.675
 6682SOL    HW120945   0.828   4.329   2.616
 6682SOL    HW220946   0.772   4.475   2.663
 6683SOL     OW20947   4.912   1.883   5.183
 6683SOL    HW120948   4.952   1.974   5.172
 6683SOL    HW220949   4.977   1.824   5.232
 6684SOL     OW20950   1.915   6.846   2.505
 6684SOL    HW120951   1.859   6.794   2.441
 6684SOL    HW220952   1.964   6.783   2.566
 6685SOL     OW20953   5.383   1.732   6.136
 6685SOL    HW120954   5.359   1.635   6.128
 6685SOL    HW220955   5.304   1.782   6.171
 6686SOL     OW20956   6.336   4.134   4.382
 6686SOL    HW120957   6.342   4.089   4.471
 6686SOL    HW220958   6.272   4.084   4.324
 6687SOL     OW20959   1.436   1.449   1.025
 6687SOL    HW120960   1.512   1.487   0.973
 6687SOL    HW220961   1.362   1.422   0.963
 6688SOL     OW20962   0.102   4.511   2.269
 6688SOL    HW120963   0.127   4.445   2.340
 6688SOL    HW220964   0.030   4.473   2.212
 6689SOL     OW20965   4.793   3.359   1.198
 6689SOL    HW120966   4.752   3.436   1.247
 6689SOL    HW220967   4.768   3.364   1.101
 6690SOL     OW20968   2.070   1.795   1.600
 6690SOL    HW120969   2.127   1.862   1.552
 6690SOL    HW220970   2.128   1.738   1.658
 6691SOL     OW20971   2.606   6.014   1.280
 6691SOL    HW120972   2.661   5.986   1.359
 6691SOL    HW220973   2.543   5.940   1.256
 6692SOL     OW20974   2.836   4.511   5.389
 6692SOL    HW120975   2.748   4.470   5.363
 6692SOL    HW220976   2.886   4.536   5.306
 6693SOL     OW20977   4.499   3.540   6.051
 6693SOL    HW120978   4.514   3.446   6.018
 6693SOL    HW220979   4.472   3.598   5.974
 6694SOL     OW20980   4.109   5.867   0.182
 6694SOL    HW120981   4.045   5.819   0.121
 6694SOL    HW220982   4.202   5.832   0.166
 6695SOL     OW20983   0.396   2.050   6.481
 6695SOL    HW120984   0.466   1.996   6.435
 6695SOL    HW220985   0.335   2.092   6.413
 6696SOL     OW20986   2.065   2.805   1.417
 6696SOL    HW120987   2.127   2.883   1.408
 6696SOL    HW220988   1.977   2.827   1.377
 6697SOL     OW20989   4.463   1.705   2.585
 6697SOL    HW120990   4.430   1.762   2.660
 6697SOL    HW220991   4.389   1.644   2.554
 6698SOL     OW20992   3.679   2.570   0.507
 6698SOL    HW120993   3.661   2.472   0.516
 6698SOL    HW220994   3.638   2.618   0.584
 6699SOL     OW20995   3.550   4.482   6.589
 6699SOL    HW120996   3.598   4.510   6.672
 6699SOL    HW220997   3.519   4.562   6.540
 6700SOL     OW20998   0.349   5.818   0.830
 6700SOL    HW120999   0.271   5.852   0.883
 6700SOL    HW221000   0.351   5.718   0.834
 6701SOL     OW21001   6.233   2.424   1.176
 6701SOL    HW121002   6.210   2.339   1.224
 6701SOL    HW221003   6.213   2.414   1.078
 6702SOL     OW21004   2.884   1.954   0.293
 6702SOL    HW121005   2.922   2.046   0.282
 6702SOL    HW221006   2.951   1.896   0.338
 6703SOL     OW21007   6.391   2.198   6.944
 6703SOL    HW121008   6.327   2.131   6.905
 6703SOL    HW221009   6.436   2.158   0.002
 6704SOL     OW21010   4.314   2.337   2.257
 6704SOL    HW121011   4.311   2.356   2.159
 6704SOL    HW221012   4.228   2.294   2.286
 6705SOL     OW21013   0.247   2.603   1.877
 6705SOL    HW121014   0.182   2.588   1.802
 6705SOL    HW221015   0.200   2.647   1.953
 6706SOL     OW21016   0.775   3.753   0.552
 6706SOL    HW121017   0.844   3.681   0.543
 6706SOL    HW221018   0.685   3.712   0.561
 6707SOL     OW21019   6.328   6.064   4.594
 6707SOL    HW121020   6.275   6.009   4.529
 6707SOL    HW221021   6.375   6.003   4.658
 6708SOL     OW21022   1.605   5.619   2.754
 6708SOL    HW121023   1.656   5.655   2.676
 6708SOL    HW221024   1.513   5.593   2.724
 6709SOL     OW21025   3.538   6.663   1.524
 6709SOL    HW121026   3.594   6.608   1.586
 6709SOL    HW221027   3.445   6.669   1.560
 6710SOL     OW21028   2.371   2.511   5.924
 6710SOL    HW121029   2.440   2.557   5.867
 6710SOL    HW221030   2.384   2.412   5.917
 6711SOL     OW21031   5.326   4.220   6.443
 6711SOL    HW121032   5.264   4.229   6.520
 6711SOL    HW221033   5.274   4.221   6.358
 6712SOL     OW21034   3.786   5.742   0.119
 6712SOL    HW121035   3.863   5.711   0.064
 6712SOL    HW221036   3.813   5.750   0.215
 6713SOL     OW21037   2.611   2.119   1.494
 6713SOL    HW121038   2.649   2.201   1.451
 6713SOL    HW221039   2.600   2.048   1.424
 6714SOL     OW21040   5.030   6.732   5.356
 6714SOL    HW121041   4.950   6.783   5.388
 6714SOL    HW221042   5.104   6.741   5.424
 6715SOL     OW21043   0.726   1.202   0.188
 6715SOL    HW121044   0.749   1.130   0.122
 6715SOL    HW221045   0.754   1.290   0.151
 6716SOL     OW21046   1.771   6.220   1.097
 6716SOL    HW121047   1.692   6.165   1.071
 6716SOL    HW221048   1.820   6.250   1.015
 6717SOL     OW21049   3.798   3.548   0.606
 6717SOL    HW121050   3.734   3.482   0.646
 6717SOL    HW221051   3.799   3.536   0.507
 6718SOL     OW21052   3.547   5.777   6.152
 6718SOL    HW121053   3.556   5.678   6.166
 6718SOL    HW221054   3.582   5.825   6.233
 6719SOL     OW21055   0.252   6.902   5.847
 6719SOL    HW121056   0.197   6.833   5.895
 6719SOL    HW221057   0.279   6.867   5.757
 6720SOL     OW21058   2.309   6.037   1.641
 6720SOL    HW121059   2.320   5.961   1.576
 6720SOL    HW221060   2.275   6.001   1.728
 6721SOL     OW21061   5.206   6.326   4.764
 6721SOL    HW121062   5.258   6.410   4.780
 6721SOL    HW221063   5.109   6.343   4.784
 6722SOL     OW21064   4.975   3.277   0.691
 6722SOL    HW121065   5.054   3.263   0.631
 6722SOL    HW221066   4.900   3.218   0.661
 6723SOL     OW21067   2.081   6.396   3.003
 6723SOL    HW121068   2.010   6.440   3.057
 6723SOL    HW221069   2.147   6.352   3.064
 6724SOL     OW21070   2.305   4.559   6.147
 6724SOL    HW121071   2.269   4.557   6.241
 6724SOL    HW221072   2.405   4.557   6.150
 6725SOL     OW21073   1.101   4.546   2.663
 6725SOL    HW121074   1.009   4.507   2.651
 6725SOL    HW221075   1.164   4.506   2.597
 6726SOL     OW21076   1.794   2.935   4.491
 6726SOL    HW121077   1.808   3.034   4.488
 6726SOL    HW221078   1.719   2.910   4.430
 6727SOL     OW21079   5.126   3.619   6.346
 6727SOL    HW121080   5.048   3.677   6.370
 6727SOL    HW221081   5.184   3.607   6.427
 6728SOL     OW21082   4.078   2.205   4.469
 6728SOL    HW121083   4.165   2.194   4.420
 6728SOL    HW221084   4.004   2.167   4.413
 6729SOL     OW21085   0.170   0.884   2.265
 6729SOL    HW121086   0.135   0.911   2.355
 6729SOL    HW221087   0.095   0.853   2.208
 6730SOL     OW21088   2.674   0.157   7.003
 6730SOL    HW121089   2.709   0.125   0.070
 6730SOL    HW221090   2.733   0.122   6.930
 6731SOL     OW21091   2.631   4.429   1.267
 6731SOL    HW121092   2.597   4.375   1.344
 6731SOL    HW221093   2.729   4.446   1.278
 6732SOL     OW21094   2.100   6.138   0.343
 6732SOL    HW121095   2.050   6.206   0.397
 6732SOL    HW221096   2.198   6.146   0.360
 6733SOL     OW21097   4.584   5.559   5.816
 6733SOL    HW121098   4.550   5.484   5.759
 6733SOL    HW221099   4.654   5.610   5.766
 6734SOL     OW21100   1.159   3.563   5.629
 6734SOL    HW121101   1.229   3.522   5.571
 6734SOL    HW221102   1.199   3.589   5.717
 6735SOL     OW21103   0.321   4.820   5.328
 6735SOL    HW121104   0.411   4.789   5.357
 6735SOL    HW221105   0.296   4.903   5.377
 6736SOL     OW21106   2.556   3.138   1.456
 6736SOL    HW121107   2.549   3.195   1.538
 6736SOL    HW221108   2.631   3.171   1.398
 6737SOL     OW21109   1.685   1.664   2.385
 6737SOL    HW121110   1.772   1.688   2.341
 6737SOL    HW221111   1.697   1.665   2.485
 6738SOL     OW21112   2.232   1.415   2.293
 6738SOL    HW121113   2.212   1.321   2.320
 6738SOL    HW221114   2.300   1.415   2.221
 6739SOL     OW21115   4.146   5.974   4.833
 6739SOL    HW121116   4.080   5.984   4.907
 6739SOL    HW221117   4.142   6.054   4.774
 6740SOL     OW21118   1.306   1.104   4.436
 6740SOL    HW121119   1.251   1.152   4.504
 6740SOL    HW221120   1.347   1.170   4.373
 6741SOL     OW21121   5.614   1.182   6.143
 6741SOL    HW121122   5.638   1.255   6.080
 6741SOL    HW221123   5.519   1.154   6.127
 6742SOL     OW21124   6.665   5.470   5.186
 6742SOL    HW121125   6.725   5.429   5.117
 6742SOL    HW221126   6.721   5.512   5.258
 6743SOL     OW21127   4.004   3.279   0.835
 6743SOL    HW121128   4.058   3.333   0.772
 6743SOL    HW221129   4.052   3.271   0.923
 6744SOL     OW21130   4.162   4.374   5.599
 6744SOL    HW121131   4.125   4.462   5.629
 6744SOL    HW221132   4.161   4.370   5.499
 6745SOL     OW21133   1.088   4.946   3.183
 6745SOL    HW121134   1.102   4.913   3.276
 6745SOL    HW221135   1.056   5.040   3.185
 6746SOL     OW21136   0.867   1.542   1.311
 6746SOL    HW121137   0.823   1.454   1.329
 6746SOL    HW221138   0.894   1.547   1.215
 6747SOL     OW21139   5.378   6.456   4.505
 6747SOL    HW121140   5.283   6.447   4.478
 6747SOL    HW221141   5.391   6.542   4.555
 6748SOL     OW21142   0.976   0.354   1.974
 6748SOL    HW121143   0.968   0.294   2.054
 6748SOL    HW221144   0.931   0.311   1.895
 6749SOL     OW21145   3.808   0.611   6.992
 6749SOL    HW121146   3.844   0.548   0.039
 6749SOL    HW221147   3.843   0.703   7.010
 6750SOL     OW21148   2.759   2.301   4.625
 6750SOL    HW121149   2.845   2.271   4.583
 6750SOL    HW221150   2.776   2.331   4.718
 6751SOL     OW21151   2.576   2.498   4.389
 6751SOL    HW121152   2.645   2.453   4.332
 6751SOL    HW221153   2.577   2.460   4.481
 6752SOL     OW21154   5.750   3.475   1.157
 6752SOL    HW121155   5.694   3.555   1.181
 6752SOL    HW221156   5.774   3.425   1.239
 6753SOL     OW21157   4.382   1.726   6.430
 6753SOL    HW121158   4.327   1.645   6.410
 6753SOL    HW221159   4.471   1.698   6.466
 6754SOL     OW21160   5.963   1.782   6.359
 6754SOL    HW121161   6.021   1.733   6.294
 6754SOL    HW221162   5.969   1.739   6.449
 6755SOL     OW21163   5.197   2.190   3.465
 6755SOL    HW121164   5.221   2.139   3.383
 6755SOL    HW221165   5.260   2.267   3.476
 6756SOL     OW21166   5.035   4.808   4.064
 6756SOL    HW121167   5.006   4.803   4.160
 6756SOL    HW221168   5.030   4.903   4.033
 6757SOL     OW21169   5.241   6.224   1.309
 6757SOL    HW121170   5.242   6.124   1.313
 6757SOL    HW221171   5.152   6.258   1.341
 6758SOL     OW21172   5.129   3.297   2.428
 6758SOL    HW121173   5.063   3.261   2.363
 6758SOL    HW221174   5.085   3.312   2.517
 6759SOL     OW21175   1.290   4.866   2.986
 6759SOL    HW121176   1.364   4.933   2.993
 6759SOL    HW221177   1.234   4.869   3.069
 6760SOL     OW21178   0.144   4.291   4.085
 6760SOL    HW121179   0.215   4.242   4.033
 6760SOL    HW221180   0.084   4.224   4.129
 6761SOL     OW21181   5.177   2.786   5.706
 6761SOL    HW121182   5.101   2.847   5.730
 6761SOL    HW221183   5.150   2.729   5.629
 6762SOL     OW21184   6.594   4.917   3.681
 6762SOL    HW121185   6.529   4.867   3.624
 6762SOL    HW221186   6.578   4.895   3.778
 6763SOL     OW21187   6.202   6.858   5.561
 6763SOL    HW121188   6.108   6.877   5.533
 6763SOL    HW221189   6.257   6.941   5.554
 6764SOL     OW21190   3.074   3.792   6.933
 6764SOL    HW121191   3.036   3.885   6.928
 6764SOL    HW221192   3.169   3.797   6.963
 6765SOL     OW21193   6.554   4.057   2.808
 6765SOL    HW121194   6.636   4.044   2.864
 6765SOL    HW221195   6.496   3.975   2.815
 6766SOL     OW21196   1.884   0.529   5.387
 6766SOL    HW121197   1.965   0.587   5.377
 6766SOL    HW221198   1.904   0.455   5.451
 6767SOL     OW21199   0.768   2.494   6.480
 6767SOL    HW121200   0.769   2.591   6.456
 6767SOL    HW221201   0.812   2.481   6.569
 6768SOL     OW21202   0.816   0.017   4.203
 6768SOL    HW121203   0.745   6.970   4.191
 6768SOL    HW221204   0.786   0.104   4.165
 6769SOL     OW21205   2.188   2.736   5.441
 6769SOL    HW121206   2.221   2.757   5.349
 6769SOL    HW221207   2.264   2.706   5.498
 6770SOL     OW21208   0.161   1.834   3.137
 6770SOL    HW121209   0.211   1.905   3.187
 6770SOL    HW221210   0.140   1.759   3.200
 6771SOL     OW21211   3.702   1.878   3.954
 6771SOL    HW121212   3.791   1.908   3.921
 6771SOL    HW221213   3.632   1.944   3.927
 6772SOL     OW21214   6.322   1.393   2.938
 6772SOL    HW121215   6.269   1.474   2.959
 6772SOL    HW221216   6.283   1.346   2.859
 6773SOL     OW21217   0.028   5.985   1.902
 6773SOL    HW121218   0.050   6.056   1.835
 6773SOL    HW221219   0.063   6.011   1.992
 6774SOL     OW21220   2.273   2.347   5.637
 6774SOL    HW121221   2.322   2.262   5.655
 6774SOL    HW221222   2.332   2.425   5.659
 6775SOL     OW21223   0.707   2.019   4.983
 6775SOL    HW121224   0.643   2.067   4.924
 6775SOL    HW221225   0.678   2.028   5.078
 6776SOL     OW21226   3.589   4.110   2.145
 6776SOL    HW121227   3.601   4.136   2.049
 6776SOL    HW221228   3.492   4.109   2.167
 6777SOL     OW21229   5.238   5.122   1.031
 6777SOL    HW121230   5.166   5.148   0.967
 6777SOL    HW221231   5.196   5.087   1.115
 6778SOL     OW21232   0.630   4.565   2.602
 6778SOL    HW121233   0.629   4.665   2.594
 6778SOL    HW221234   0.607   4.525   2.513
 6779SOL     OW21235   5.924   4.062   5.617
 6779SOL    HW121236   5.888   4.076   5.525
 6779SOL    HW221237   5.851   4.028   5.677
 6780SOL     OW21238   2.905   2.200   2.515
 6780SOL    HW121239   2.952   2.206   2.426
 6780SOL    HW221240   2.812   2.233   2.505
 6781SOL     OW21241   6.690   1.317   4.144
 6781SOL    HW121242   6.769   1.312   4.205
 6781SOL    HW221243   6.719   1.301   4.050
 6782SOL     OW21244   6.718   2.103   3.141
 6782SOL    HW121245   6.662   2.087   3.060
 6782SOL    HW221246   6.804   2.053   3.132
 6783SOL     OW21247   1.664   4.525   5.365
 6783SOL    HW121248   1.612   4.581   5.301
 6783SOL    HW221249   1.732   4.471   5.314
 6784SOL     OW21250   1.912   3.847   1.365
 6784SOL    HW121251   1.921   3.776   1.435
 6784SOL    HW221252   1.996   3.900   1.361
 6785SOL     OW21253   5.264   4.884   4.364
 6785SOL    HW121254   5.342   4.943   4.347
 6785SOL    HW221255   5.180   4.939   4.364
 6786SOL     OW21256   6.553   2.603   6.844
 6786SOL    HW121257   6.470   2.600   6.787
 6786SOL    HW221258   6.632   2.623   6.786
 6787SOL     OW21259   3.824   2.199   6.470
 6787SOL    HW121260   3.842   2.164   6.378
 6787SOL    HW221261   3.736   2.247   6.471
 6788SOL     OW21262   6.863   4.064   3.433
 6788SOL    HW121263   6.926   4.103   3.366
 6788SOL    HW221264   6.817   4.138   3.482
 6789SOL     OW21265   6.060   3.903   4.029
 6789SOL    HW121266   6.159   3.898   4.015
 6789SOL    HW221267   6.030   3.825   4.084
 6790SOL     OW21268   0.673   4.883   5.426
 6790SOL    HW121269   0.768   4.878   5.394
 6790SOL    HW221270   0.638   4.976   5.416
 6791SOL     OW21271   3.451   0.524   3.622
 6791SOL    HW121272   3.548   0.536   3.600
 6791SOL    HW221273   3.414   0.450   3.565
 6792SOL     OW21274   4.139   0.215   5.364
 6792SOL    HW121275   4.236   0.193   5.359
 6792SOL    HW221276   4.121   0.266   5.449
 6793SOL     OW21277   1.735   3.397   0.569
 6793SOL    HW121278   1.816   3.360   0.614
 6793SOL    HW221279   1.709   3.338   0.492
 6794SOL     OW21280   5.283   1.770   5.247
 6794SOL    HW121281   5.205   1.812   5.293
 6794SOL    HW221282   5.253   1.685   5.203
 6795SOL     OW21283   0.893   1.131   1.159
 6795SOL    HW121284   0.887   1.172   1.068
 6795SOL    HW221285   0.953   1.187   1.217
 6796SOL     OW21286   6.956   0.653   2.611
 6796SOL    HW121287   6.992   0.650   2.518
 6796SOL    HW221288   6.970   0.744   2.650
 6797SOL     OW21289   0.674   2.470   1.098
 6797SOL    HW121290   0.609   2.395   1.089
 6797SOL    HW221291   0.766   2.433   1.113
 6798SOL     OW21292   5.415   0.378   1.743
 6798SOL    HW121293   5.352   0.426   1.805
 6798SOL    HW221294   5.441   0.440   1.669
 6799SOL     OW21295   5.532   1.071   3.366
 6799SOL    HW121296   5.541   1.041   3.461
 6799SOL    HW221297   5.478   1.004   3.315
 6800SOL     OW21298   0.521   1.516   1.207
 6800SOL    HW121299   0.463   1.501   1.288
 6800SOL    HW221300   0.468   1.562   1.136
 6801SOL     OW21301   0.668   5.859   5.848
 6801SOL    HW121302   0.751   5.890   5.802
 6801SOL    HW221303   0.692   5.812   5.934
 6802SOL     OW21304   2.772   4.975   1.743
 6802SOL    HW121305   2.703   4.922   1.694
 6802SOL    HW221306   2.807   5.048   1.684
 6803SOL     OW21307   4.976   4.757   5.923
 6803SOL    HW121308   4.909   4.804   5.866
 6803SOL    HW221309   5.067   4.792   5.904
 6804SOL     OW21310   3.209   5.111   3.124
 6804SOL    HW121311   3.272   5.175   3.081
 6804SOL    HW221312   3.258   5.028   3.151
 6805SOL     OW21313   6.843   4.266   5.483
 6805SOL    HW121314   6.758   4.281   5.533
 6805SOL    HW221315   6.920   4.293   5.541
 6806SOL     OW21316   6.933   1.565   2.359
 6806SOL    HW121317   6.980   1.578   2.272
 6806SOL    HW221318   6.984   1.499   2.415
 6807SOL     OW21319   3.346   3.931   1.901
 6807SOL    HW121320   3.412   3.949   1.829
 6807SOL    HW221321   3.393   3.895   1.982
 6808SOL     OW21322   3.466   0.947   4.656
 6808SOL    HW121323   3.503   0.856   4.636
 6808SOL    HW221324   3.476   0.966   4.754
 6809SOL     OW21325   5.177   3.182   2.003
 6809SOL    HW121326   5.255   3.235   1.970
 6809SOL    HW221327   5.210   3.106   2.059
 6810SOL     OW21328   2.665   0.493   3.751
 6810SOL    HW121329   2.648   0.551   3.831
 6810SOL    HW221330   2.744   0.528   3.701
 6811SOL     OW21331   6.589   1.479   1.093
 6811SOL    HW121332   6.577   1.402   1.156
 6811SOL    HW221333   6.607   1.445   1.001
 6812SOL     OW21334   3.369   4.079   5.292
 6812SOL    HW121335   3.341   4.023   5.371
 6812SOL    HW221336   3.291   4.134   5.262
 6813SOL     OW21337   6.230   3.940   1.797
 6813SOL    HW121338   6.238   3.958   1.895
 6813SOL    HW221339   6.183   4.018   1.753
 6814SOL     OW21340   5.133   1.358   6.582
 6814SOL    HW121341   5.065   1.382   6.512
 6814SOL    HW221342   5.173   1.441   6.621
 6815SOL     OW21343   1.765   4.704   6.018
 6815SOL    HW121344   1.730   4.618   5.981
 6815SOL    HW221345   1.833   4.742   5.955
 6816SOL     OW21346   0.792   1.215   3.069
 6816SOL    HW121347   0.864   1.229   3.002
 6816SOL    HW221348   0.728   1.291   3.066
 6817SOL     OW21349   3.849   1.998   2.223
 6817SOL    HW121350   3.774   2.060   2.201
 6817SOL    HW221351   3.816   1.904   2.225
 6818SOL     OW21352   1.874   6.776   5.449
 6818SOL    HW121353   1.806   6.706   5.473
 6818SOL    HW221354   1.853   6.813   5.358
 6819SOL     OW21355   4.695   4.640   1.903
 6819SOL    HW121356   4.783   4.686   1.889
 6819SOL    HW221357   4.684   4.618   2.000
 6820SOL     OW21358   2.721   5.940   1.514
 6820SOL    HW121359   2.653   5.925   1.585
 6820SOL    HW221360   2.799   5.990   1.552
 6821SOL     OW21361   3.980   2.654   5.382
 6821SOL    HW121362   4.053   2.616   5.325
 6821SOL    HW221363   4.008   2.743   5.417
 6822SOL     OW21364   6.906   2.954   6.766
 6822SOL    HW121365   6.833   3.009   6.806
 6822SOL    HW221366   6.910   2.971   6.667
 6823SOL     OW21367   6.296   3.447   6.501
 6823SOL    HW121368   6.262   3.363   6.544
 6823SOL    HW221369   6.349   3.499   6.567
 6824SOL     OW21370   0.131   1.755   5.532
 6824SOL    HW121371   0.162   1.771   5.626
 6824SOL    HW221372   0.202   1.784   5.468
 6825SOL     OW21373   5.656   4.812   1.369
 6825SOL    HW121374   5.683   4.794   1.464
 6825SOL    HW221375   5.666   4.910   1.350
 6826SOL     OW21376   0.052   3.625   2.996
 6826SOL    HW121377   0.067   3.531   3.029
 6826SOL    HW221378   0.012   3.622   2.904
 6827SOL     OW21379   4.517   5.691   4.670
 6827SOL    HW121380   4.426   5.721   4.698
 6827SOL    HW221381   4.509   5.607   4.615
 6828SOL     OW21382   2.948   1.684   2.277
 6828SOL    HW121383   2.868   1.712   2.331
 6828SOL    HW221384   3.017   1.756   2.282
 6829SOL     OW21385   4.451   6.612   4.329
 6829SOL    HW121386   4.470   6.517   4.354
 6829SOL    HW221387   4.423   6.663   4.410
 6830SOL     OW21388   5.172   0.205   3.014
 6830SOL    HW121389   5.091   0.250   3.053
 6830SOL    HW221390   5.149   0.112   2.988
 6831SOL     OW21391   1.416   1.769   6.438
 6831SOL    HW121392   1.383   1.740   6.348
 6831SOL    HW221393   1.462   1.692   6.483
 6832SOL     OW21394   3.080   2.754   0.277
 6832SOL    HW121395   3.155   2.799   0.228
 6832SOL    HW221396   2.995   2.763   0.225
 6833SOL     OW21397   3.065   4.919   6.096
 6833SOL    HW121398   2.968   4.896   6.093
 6833SOL    HW221399   3.113   4.855   6.156
 6834SOL     OW21400   5.304   0.156   0.899
 6834SOL    HW121401   5.277   0.077   0.954
 6834SOL    HW221402   5.252   0.236   0.928
 6835SOL     OW21403   2.518   1.782   4.761
 6835SOL    HW121404   2.613   1.753   4.758
 6835SOL    HW221405   2.461   1.707   4.796
 6836SOL     OW21406   1.907   4.349   6.045
 6836SOL    HW121407   1.840   4.369   5.973
 6836SOL    HW221408   1.909   4.423   6.111
 6837SOL     OW21409   0.472   0.089   1.342
 6837SOL    HW121410   0.456   0.187   1.350
 6837SOL    HW221411   0.398   0.047   1.288
 6838SOL     OW21412   2.873   4.187   5.324
 6838SOL    HW121413   2.950   4.144   5.277
 6838SOL    HW221414   2.896   4.281   5.348
 6839SOL     OW21415   5.609   2.577   3.741
 6839SOL    HW121416   5.656   2.523   3.671
 6839SOL    HW221417   5.676   2.608   3.809
 6840SOL     OW21418   2.557   0.007   5.575
 6840SOL    HW121419   2.582   6.932   5.567
 6840SOL    HW221420   2.461   0.014   5.600
 6841SOL     OW21421   4.128   5.477   1.464
 6841SOL    HW121422   4.187   5.454   1.386
 6841SOL    HW221423   4.054   5.537   1.433
 6842SOL     OW21424   0.313   4.085   6.434
 6842SOL    HW121425   0.227   4.135   6.432
 6842SOL    HW221426   0.390   4.149   6.432
 6843SOL     OW21427   3.406   2.045   2.501
 6843SOL    HW121428   3.419   2.042   2.402
 6843SOL    HW221429   3.310   2.029   2.522
 6844SOL     OW21430   4.937   4.809   4.365
 6844SOL    HW121431   4.845   4.783   4.334
 6844SOL    HW221432   4.988   4.727   4.391
 6845SOL     OW21433   5.212   4.681   1.950
 6845SOL    HW121434   5.131   4.624   1.963
 6845SOL    HW221435   5.292   4.632   1.984
 6846SOL     OW21436   3.594   2.993   2.563
 6846SOL    HW121437   3.521   2.961   2.503
 6846SOL    HW221438   3.678   2.943   2.545
 6847SOL     OW21439   6.443   3.185   1.842
 6847SOL    HW121440   6.539   3.209   1.861
 6847SOL    HW221441   6.393   3.267   1.813
 6848SOL     OW21442   1.128   6.158   3.628
 6848SOL    HW121443   1.079   6.179   3.713
 6848SOL    HW221444   1.227   6.165   3.644
 6849SOL     OW21445   3.893   5.966   3.794
 6849SOL    HW121446   3.821   5.899   3.811
 6849SOL    HW221447   3.923   5.959   3.699
 6850SOL     OW21448   5.228   2.964   3.130
 6850SOL    HW121449   5.211   2.866   3.145
 6850SOL    HW221450   5.326   2.979   3.117
 6851SOL     OW21451   1.544   5.164   5.618
 6851SOL    HW121452   1.535   5.098   5.692
 6851SOL    HW221453   1.641   5.182   5.601
 6852SOL     OW21454   1.022   4.228   1.606
 6852SOL    HW121455   0.982   4.313   1.572
 6852SOL    HW221456   1.018   4.227   1.706
 6853SOL     OW21457   0.361   4.252   5.277
 6853SOL    HW121458   0.450   4.238   5.233
 6853SOL    HW221459   0.289   4.214   5.220
 6854SOL     OW21460   6.754   3.172   6.842
 6854SOL    HW121461   6.795   3.214   6.923
 6854SOL    HW221462   6.657   3.154   6.860
 6855SOL     OW21463   3.090   6.985   2.258
 6855SOL    HW121464   3.152   0.017   2.317
 6855SOL    HW221465   3.144   6.930   2.194
 6856SOL     OW21466   5.809   3.934   5.056
 6856SOL    HW121467   5.862   4.016   5.035
 6856SOL    HW221468   5.862   3.875   5.118
 6857SOL     OW21469   3.234   2.160   6.207
 6857SOL    HW121470   3.307   2.097   6.178
 6857SOL    HW221471   3.273   2.250   6.223
 6858SOL     OW21472   3.889   2.920   5.252
 6858SOL    HW121473   3.828   2.901   5.328
 6858SOL    HW221474   3.958   2.848   5.245
 6859SOL     OW21475   3.307   0.248   0.387
 6859SOL    HW121476   3.344   0.252   0.480
 6859SOL    HW221477   3.208   0.262   0.389
 6860SOL     OW21478   5.553   4.100   0.773
 6860SOL    HW121479   5.514   4.084   0.864
 6860SOL    HW221480   5.577   4.012   0.732
 6861SOL     OW21481   5.845   4.981   0.394
 6861SOL    HW121482   5.797   4.924   0.461
 6861SOL    HW221483   5.816   4.957   0.302
 6862SOL     OW21484   3.040   5.380   4.462
 6862SOL    HW121485   3.055   5.382   4.363
 6862SOL    HW221486   3.051   5.287   4.495
 6863SOL     OW21487   5.674   2.234   4.240
 6863SOL    HW121488   5.745   2.274   4.298
 6863SOL    HW221489   5.630   2.306   4.187
 6864SOL     OW21490   3.111   6.377   4.171
 6864SOL    HW121491   3.071   6.341   4.087
 6864SOL    HW221492   3.127   6.301   4.235
 6865SOL     OW21493   6.673   3.994   4.160
 6865SOL    HW121494   6.647   4.085   4.128
 6865SOL    HW221495   6.682   3.995   4.259
 6866SOL     OW21496   6.724   3.470   2.028
 6866SOL    HW121497   6.704   3.503   2.121
 6866SOL    HW221498   6.640   3.470   1.974
 6867SOL     OW21499   2.269   4.091   2.085
 6867SOL    HW121500   2.245   4.006   2.131
 6867SOL    HW221501   2.304   4.157   2.152
 6868SOL     OW21502   1.907   5.808   4.397
 6868SOL    HW121503   1.889   5.719   4.439
 6868SOL    HW221504   1.960   5.865   4.460
 6869SOL     OW21505   5.292   2.182   5.379
 6869SOL    HW121506   5.203   2.208   5.341
 6869SOL    HW221507   5.312   2.238   5.459
 6870SOL     OW21508   5.905   3.840   2.784
 6870SOL    HW121509   5.905   3.885   2.873
 6870SOL    HW221510   5.848   3.758   2.787
 6871SOL     OW21511   5.513   5.371   1.323
 6871SOL    HW121512   5.553   5.280   1.335
 6871SOL    HW221513   5.414   5.366   1.340
 6872SOL     OW21514   2.430   3.214   0.176
 6872SOL    HW121515   2.340   3.257   0.180
 6872SOL    HW221516   2.496   3.278   0.136
 6873SOL     OW21517   6.386   3.764   6.618
 6873SOL    HW121518   6.394   3.748   6.717
 6873SOL    HW221519   6.291   3.754   6.591
 6874SOL     OW21520   0.524   2.825   4.577
 6874SOL    HW121521   0.500   2.884   4.499
 6874SOL    HW221522   0.617   2.845   4.607
 6875SOL     OW21523   2.024   1.015   2.931
 6875SOL    HW121524   2.044   1.072   2.851
 6875SOL    HW221525   1.926   0.993   2.933
 6876SOL     OW21526   3.694   6.022   0.161
 6876SOL    HW121527   3.608   6.031   0.111
 6876SOL    HW221528   3.702   5.929   0.198
 6877SOL     OW21529   2.487   3.867   0.240
 6877SOL    HW121530   2.502   3.779   0.196
 6877SOL    HW221531   2.495   3.940   0.172
 6878SOL     OW21532   1.989   1.651   5.670
 6878SOL    HW121533   1.929   1.620   5.597
 6878SOL    HW221534   2.062   1.708   5.632
 6879SOL     OW21535   0.887   2.443   6.728
 6879SOL    HW121536   0.829   2.363   6.712
 6879SOL    HW221537   0.905   2.452   6.826
 6880SOL     OW21538   2.255   4.148   4.771
 6880SOL    HW121539   2.300   4.100   4.845
 6880SOL    HW221540   2.156   4.130   4.775
 6881SOL     OW21541   0.408   4.026   1.663
 6881SOL    HW121542   0.440   4.025   1.568
 6881SOL    HW221543   0.469   3.972   1.720
 6882SOL     OW21544   2.180   0.714   5.053
 6882SOL    HW121545   2.151   0.680   4.963
 6882SOL    HW221546   2.277   0.697   5.065
 6883SOL     OW21547   4.026   0.819   1.601
 6883SOL    HW121548   3.939   0.776   1.624
 6883SOL    HW221549   4.049   0.800   1.506
 6884SOL     OW21550   1.860   5.188   4.384
 6884SOL    HW121551   1.921   5.118   4.349
 6884SOL    HW221552   1.845   5.258   4.314
 6885SOL     OW21553   2.902   5.977   4.304
 6885SOL    HW121554   2.930   5.977   4.208
 6885SOL    HW221555   2.882   5.884   4.334
 6886SOL     OW21556   5.511   1.086   2.631
 6886SOL    HW121557   5.549   1.056   2.544
 6886SOL    HW221558   5.581   1.134   2.684
 6887SOL     OW21559   5.830   0.874   4.620
 6887SOL    HW121560   5.860   0.918   4.704
 6887SOL    HW221561   5.743   0.828   4.635
 6888SOL     OW21562   6.008   0.649   4.684
 6888SOL    HW121563   5.995   0.745   4.661
 6888SOL    HW221564   6.028   0.641   4.782
 6889SOL     OW21565   1.393   4.476   6.178
 6889SOL    HW121566   1.408   4.554   6.116
 6889SOL    HW221567   1.297   4.474   6.207
 6890SOL     OW21568   2.201   6.657   1.236
 6890SOL    HW121569   2.291   6.648   1.279
 6890SOL    HW221570   2.164   6.748   1.254
 6891SOL     OW21571   2.086   3.866   3.472
 6891SOL    HW121572   2.147   3.942   3.446
 6891SOL    HW221573   1.992   3.899   3.479
 6892SOL     OW21574   3.538   0.573   4.272
 6892SOL    HW121575   3.462   0.570   4.336
 6892SOL    HW221576   3.582   0.663   4.277
 6893SOL     OW21577   4.945   5.903   2.827
 6893SOL    HW121578   4.982   5.878   2.916
 6893SOL    HW221579   4.893   5.988   2.835
 6894SOL     OW21580   5.949   5.173   6.915
 6894SOL    HW121581   5.913   5.259   6.879
 6894SOL    HW221582   5.875   5.106   6.921
 6895SOL     OW21583   2.558   4.679   0.256
 6895SOL    HW121584   2.490   4.610   0.233
 6895SOL    HW221585   2.638   4.634   0.297
 6896SOL     OW21586   3.724   0.357   3.094
 6896SOL    HW121587   3.772   0.444   3.103
 6896SOL    HW221588   3.662   0.361   3.016
 6897SOL     OW21589   3.689   4.070   0.527
 6897SOL    HW121590   3.777   4.022   0.534
 6897SOL    HW221591   3.627   4.036   0.597
 6898SOL     OW21592   4.220   1.622   2.230
 6898SOL    HW121593   4.164   1.554   2.183
 6898SOL    HW221594   4.190   1.714   2.204
 6899SOL     OW21595   4.819   6.356   6.841
 6899SOL    HW121596   4.813   6.383   6.745
 6899SOL    HW221597   4.730   6.367   6.885
 6900SOL     OW21598   5.198   0.254   6.027
 6900SOL    HW121599   5.252   0.214   5.954
 6900SOL    HW221600   5.143   0.183   6.071
 6901SOL     OW21601   1.815   0.305   6.421
 6901SOL    HW121602   1.830   0.313   6.519
 6901SOL    HW221603   1.767   0.386   6.388
 6902SOL     OW21604   0.238   6.036   6.989
 6902SOL    HW121605   0.282   6.069   0.051
 6902SOL    HW221606   0.268   6.090   6.911
 6903SOL     OW21607   4.116   4.867   0.641
 6903SOL    HW121608   4.077   4.790   0.592
 6903SOL    HW221609   4.127   4.945   0.579
 6904SOL     OW21610   6.318   1.463   3.619
 6904SOL    HW121611   6.376   1.408   3.559
 6904SOL    HW221612   6.270   1.403   3.683
 6905SOL     OW21613   6.011   6.689   1.224
 6905SOL    HW121614   5.951   6.691   1.304
 6905SOL    HW221615   5.998   6.603   1.175
 6906SOL     OW21616   3.863   0.623   3.122
 6906SOL    HW121617   3.790   0.691   3.112
 6906SOL    HW221618   3.939   0.645   3.061
 6907SOL     OW21619   3.611   1.268   1.568
 6907SOL    HW121620   3.534   1.313   1.524
 6907SOL    HW221621   3.577   1.210   1.643
 6908SOL     OW21622   1.068   6.436   5.268
 6908SOL    HW121623   1.112   6.410   5.182
 6908SOL    HW221624   1.035   6.353   5.315
 6909SOL     OW21625   4.520   4.333   0.392
 6909SOL    HW121626   4.601   4.368   0.439
 6909SOL    HW221627   4.456   4.297   0.460
 6910SOL     OW21628   6.085   1.564   1.706
 6910SOL    HW121629   6.011   1.498   1.724
 6910SOL    HW221630   6.083   1.635   1.776
 6911SOL     OW21631   4.061   0.921   4.718
 6911SOL    HW121632   4.130   0.993   4.719
 6911SOL    HW221633   4.013   0.921   4.630
 6912SOL     OW21634   5.028   4.860   0.774
 6912SOL    HW121635   5.106   4.833   0.719
 6912SOL    HW221636   5.031   4.959   0.790
 6913SOL     OW21637   5.256   4.903   4.908
 6913SOL    HW121638   5.318   4.978   4.887
 6913SOL    HW221639   5.169   4.917   4.859
 6914SOL     OW21640   5.983   5.426   0.562
 6914SOL    HW121641   6.065   5.382   0.598
 6914SOL    HW221642   5.903   5.391   0.610
 6915SOL     OW21643   0.629   4.785   3.114
 6915SOL    HW121644   0.624   4.824   3.022
 6915SOL    HW221645   0.718   4.807   3.155
 6916SOL     OW21646   6.216   3.338   6.902
 6916SOL    HW121647   6.181   3.327   6.809
 6916SOL    HW221648   6.150   3.300   6.967
 6917SOL     OW21649   4.766   6.528   5.977
 6917SOL    HW121650   4.849   6.536   5.922
 6917SOL    HW221651   4.686   6.546   5.920
 6918SOL     OW21652   6.884   3.710   3.841
 6918SOL    HW121653   6.795   3.684   3.877
 6918SOL    HW221654   6.900   3.664   3.753
 6919SOL     OW21655   1.802   6.139   2.468
 6919SOL    HW121656   1.742   6.067   2.433
 6919SOL    HW221657   1.897   6.109   2.462
 6920SOL     OW21658   5.103   5.843   4.851
 6920SOL    HW121659   5.119   5.820   4.947
 6920SOL    HW221660   5.128   5.765   4.794
 6921SOL     OW21661   6.825   0.236   3.281
 6921SOL    HW121662   6.775   0.295   3.345
 6921SOL    HW221663   6.786   0.144   3.284
 6922SOL     OW21664   2.613   6.162   0.770
 6922SOL    HW121665   2.707   6.167   0.804
 6922SOL    HW221666   2.570   6.079   0.805
 6923SOL     OW21667   4.514   0.341   4.082
 6923SOL    HW121668   4.547   0.247   4.084
 6923SOL    HW221669   4.565   0.393   4.014
 6924SOL     OW21670   0.209   5.338   1.683
 6924SOL    HW121671   0.185   5.307   1.776
 6924SOL    HW221672   0.255   5.264   1.634
 6925SOL     OW21673   4.592   6.412   2.928
 6925SOL    HW121674   4.510   6.370   2.967
 6925SOL    HW221675   4.566   6.466   2.848
 6926SOL     OW21676   3.075   3.777   4.130
 6926SOL    HW121677   3.067   3.801   4.227
 6926SOL    HW221678   3.066   3.678   4.119
 6927SOL     OW21679   4.948   3.906   6.189
 6927SOL    HW121680   5.003   3.936   6.267
 6927SOL    HW221681   4.908   3.986   6.144
 6928SOL     OW21682   4.721   0.922   6.560
 6928SOL    HW121683   4.672   0.970   6.487
 6928SOL    HW221684   4.680   0.832   6.573
 6929SOL     OW21685   4.359   6.314   0.217
 6929SOL    HW121686   4.436   6.376   0.205
 6929SOL    HW221687   4.339   6.304   0.314
 6930SOL     OW21688   0.933   0.153   2.225
 6930SOL    HW121689   1.000   0.082   2.246
 6930SOL    HW221690   0.855   0.113   2.178
 6931SOL     OW21691   1.642   0.431   1.535
 6931SOL    HW121692   1.555   0.443   1.489
 6931SOL    HW221693   1.626   0.412   1.632
 6932SOL     OW21694   2.736   1.639   0.147
 6932SOL    HW121695   2.725   1.657   0.245
 6932SOL    HW221696   2.686   1.555   0.123
 6933SOL     OW21697   4.123   5.332   5.614
 6933SOL    HW121698   4.075   5.303   5.531
 6933SOL    HW221699   4.056   5.353   5.685
 6934SOL     OW21700   4.993   3.079   0.227
 6934SOL    HW121701   4.944   3.039   0.150
 6934SOL    HW221702   5.090   3.054   0.221
 6935SOL     OW21703   4.191   6.477   3.305
 6935SOL    HW121704   4.099   6.439   3.316
 6935SOL    HW221705   4.258   6.403   3.306
 6936SOL     OW21706   1.044   2.636   0.881
 6936SOL    HW121707   1.029   2.558   0.820
 6936SOL    HW221708   1.046   2.720   0.827
 6937SOL     OW21709   4.870   6.657   6.191
 6937SOL    HW121710   4.843   6.599   6.115
 6937SOL    HW221711   4.851   6.753   6.170
 6938SOL     OW21712   4.896   3.280   5.328
 6938SOL    HW121713   4.955   3.348   5.283
 6938SOL    HW221714   4.848   3.324   5.404
 6939SOL     OW21715   0.253   4.350   2.490
 6939SOL    HW121716   0.307   4.433   2.501
 6939SOL    HW221717   0.292   4.294   2.417
 6940SOL     OW21718   4.819   0.813   5.837
 6940SOL    HW121719   4.904   0.852   5.872
 6940SOL    HW221720   4.836   0.720   5.804
 6941SOL     OW21721   4.091   3.291   4.040
 6941SOL    HW121722   4.158   3.261   4.107
 6941SOL    HW221723   4.027   3.355   4.083
 6942SOL     OW21724   6.804   3.012   0.689
 6942SOL    HW121725   6.873   2.943   0.710
 6942SOL    HW221726   6.719   2.990   0.737
 6943SOL     OW21727   5.278   6.198   6.043
 6943SOL    HW121728   5.271   6.165   6.137
 6943SOL    HW221729   5.347   6.144   5.994
 6944SOL     OW21730   1.136   5.319   6.365
 6944SOL    HW121731   1.212   5.308   6.428
 6944SOL    HW221732   1.142   5.251   6.292
 6945SOL     OW21733   6.146   2.929   6.409
 6945SOL    HW121734   6.227   2.988   6.410
 6945SOL    HW221735   6.157   2.860   6.338
 6946SOL     OW21736   5.918   4.333   2.767
 6946SOL    HW121737   5.951   4.413   2.819
 6946SOL    HW221738   5.961   4.250   2.803
 6947SOL     OW21739   3.345   6.798   2.797
 6947SOL    HW121740   3.248   6.822   2.800
 6947SOL    HW221741   3.386   6.837   2.714
 6948SOL     OW21742   4.795   1.080   6.759
 6948SOL    HW121743   4.788   1.042   6.850
 6948SOL    HW221744   4.775   1.010   6.691
 6949SOL     OW21745   5.299   6.577   3.531
 6949SOL    HW121746   5.359   6.649   3.564
 6949SOL    HW221747   5.352   6.493   3.518
 6950SOL     OW21748   2.311   1.353   3.052
 6950SOL    HW121749   2.340   1.409   3.129
 6950SOL    HW221750   2.229   1.301   3.077
 6951SOL     OW21751   6.199   5.799   5.735
 6951SOL    HW121752   6.150   5.758   5.658
 6951SOL    HW221753   6.147   5.783   5.819
 6952SOL     OW21754   0.396   5.047   4.406
 6952SOL    HW121755   0.325   5.095   4.356
 6952SOL    HW221756   0.411   4.957   4.365
 6953SOL     OW21757   4.545   1.126   6.001
 6953SOL    HW121758   4.567   1.111   5.905
 6953SOL    HW221759   4.623   1.166   6.048
 6954SOL     OW21760   6.518   3.408   4.283
 6954SOL    HW121761   6.590   3.389   4.350
 6954SOL    HW221762   6.522   3.505   4.258
 6955SOL     OW21763   6.940   6.302   1.712
 6955SOL    HW121764   6.948   6.399   1.689
 6955SOL    HW221765   6.946   6.248   1.628
 6956SOL     OW21766   4.676   5.253   1.812
 6956SOL    HW121767   4.711   5.312   1.885
 6956SOL    HW221768   4.601   5.299   1.765
 6957SOL     OW21769   0.155   4.863   1.991
 6957SOL    HW121770   0.153   4.931   1.917
 6957SOL    HW221771   0.236   4.878   2.047
 6958SOL     OW21772   2.506   2.899   6.145
 6958SOL    HW121773   2.439   2.915   6.218
 6958SOL    HW221774   2.503   2.804   6.116
 6959SOL     OW21775   3.723   1.715   4.809
 6959SOL    HW121776   3.811   1.732   4.766
 6959SOL    HW221777   3.713   1.617   4.828
 6960SOL     OW21778   6.861   4.866   0.081
 6960SOL    HW121779   6.777   4.895   0.036
 6960SOL    HW221780   6.938   4.921   0.048
 6961SOL     OW21781   1.398   1.527   3.372
 6961SOL    HW121782   1.348   1.592   3.316
 6961SOL    HW221783   1.493   1.559   3.384
 6962SOL     OW21784   4.943   4.783   1.853
 6962SOL    HW121785   4.967   4.709   1.916
 6962SOL    HW221786   4.992   4.866   1.881
 6963SOL     OW21787   0.734   4.812   2.053
 6963SOL    HW121788   0.670   4.753   2.003
 6963SOL    HW221789   0.684   4.869   2.117
 6964SOL     OW21790   4.599   5.226   5.286
 6964SOL    HW121791   4.657   5.160   5.239
 6964SOL    HW221792   4.609   5.316   5.243
 6965SOL     OW21793   6.589   3.065   6.376
 6965SOL    HW121794   6.504   3.060   6.428
 6965SOL    HW221795   6.574   3.123   6.295
 6966SOL     OW21796   4.856   2.371   2.654
 6966SOL    HW121797   4.805   2.285   2.648
 6966SOL    HW221798   4.896   2.393   2.565
 6967SOL     OW21799   1.242   1.960   5.867
 6967SOL    HW121800   1.219   2.057   5.857
 6967SOL    HW221801   1.242   1.916   5.777
 6968SOL     OW21802   4.050   5.872   1.422
 6968SOL    HW121803   3.998   5.791   1.396
 6968SOL    HW221804   4.117   5.893   1.351
 6969SOL     OW21805   3.606   1.640   0.412
 6969SOL    HW121806   3.660   1.630   0.496
 6969SOL    HW221807   3.525   1.696   0.431
 6970SOL     OW21808   3.963   4.641   0.524
 6970SOL    HW121809   3.936   4.571   0.589
 6970SOL    HW221810   4.012   4.599   0.447
 6971SOL     OW21811   6.430   2.511   1.519
 6971SOL    HW121812   6.525   2.543   1.518
 6971SOL    HW221813   6.375   2.570   1.460
 6972SOL     OW21814   5.361   4.351   4.514
 6972SOL    HW121815   5.392   4.358   4.419
 6972SOL    HW221816   5.436   4.320   4.572
 6973SOL     OW21817   2.104   5.318   4.025
 6973SOL    HW121818   2.166   5.278   4.092
 6973SOL    HW221819   2.117   5.417   4.020
 6974SOL     OW21820   3.275   4.057   3.788
 6974SOL    HW121821   3.283   4.154   3.811
 6974SOL    HW221822   3.227   4.010   3.862
 6975SOL     OW21823   3.629   0.747   6.025
 6975SOL    HW121824   3.629   0.847   6.027
 6975SOL    HW221825   3.594   0.715   5.938
 6976SOL     OW21826   2.472   5.088   6.573
 6976SOL    HW121827   2.415   5.155   6.620
 6976SOL    HW221828   2.476   5.004   6.627
 6977SOL     OW21829   3.436   1.320   2.475
 6977SOL    HW121830   3.507   1.354   2.413
 6977SOL    HW221831   3.347   1.327   2.431
 6978SOL     OW21832   0.266   0.572   1.857
 6978SOL    HW121833   0.190   0.535   1.803
 6978SOL    HW221834   0.244   0.565   1.954
 6979SOL     OW21835   0.640   4.188   2.320
 6979SOL    HW121836   0.669   4.192   2.416
 6979SOL    HW221837   0.600   4.098   2.302
 6980SOL     OW21838   2.535   1.070   3.767
 6980SOL    HW121839   2.598   1.147   3.779
 6980SOL    HW221840   2.587   0.987   3.747
 6981SOL     OW21841   1.964   4.684   0.542
 6981SOL    HW121842   1.894   4.747   0.508
 6981SOL    HW221843   2.046   4.735   0.567
 6982SOL     OW21844   1.573   0.445   4.407
 6982SOL    HW121845   1.593   0.347   4.417
 6982SOL    HW221846   1.477   0.461   4.429
 6983SOL     OW21847   6.900   0.121   4.769
 6983SOL    HW121848   6.921   0.081   4.858
 6983SOL    HW221849   6.974   0.101   4.705
 6984SOL     OW21850   2.001   2.248   5.827
 6984SOL    HW121851   2.060   2.171   5.804
 6984SOL    HW221852   2.002   2.315   5.752
 6985SOL     OW21853   4.222   5.753   2.422
 6985SOL    HW121854   4.126   5.740   2.445
 6985SOL    HW221855   4.264   5.664   2.402
 6986SOL     OW21856   1.880   5.974   5.622
 6986SOL    HW121857   1.841   5.982   5.530
 6986SOL    HW221858   1.969   5.928   5.617
 6987SOL     OW21859   0.273   2.843   6.400
 6987SOL    HW121860   0.227   2.774   6.344
 6987SOL    HW221861   0.210   2.918   6.421
 6988SOL     OW21862   5.092   1.553   3.782
 6988SOL    HW121863   5.091   1.508   3.692
 6988SOL    HW221864   5.021   1.513   3.840
 6989SOL     OW21865   1.580   1.678   3.720
 6989SOL    HW121866   1.610   1.652   3.628
 6989SOL    HW221867   1.602   1.605   3.784
 6990SOL     OW21868   4.505   3.138   6.860
 6990SOL    HW121869   4.519   3.147   6.959
 6990SOL    HW221870   4.409   3.115   6.843
 6991SOL     OW21871   2.410   4.832   5.564
 6991SOL    HW121872   2.494   4.781   5.543
 6991SOL    HW221873   2.409   4.855   5.661
 6992SOL     OW21874   6.046   6.476   4.305
 6992SOL    HW121875   6.055   6.384   4.344
 6992SOL    HW221876   6.081   6.477   4.211
 6993SOL     OW21877   0.052   0.244   3.234
 6993SOL    HW121878   0.077   0.173   3.168
 6993SOL    HW221879   6.977   0.235   3.258
 6994SOL     OW21880   1.707   3.355   6.102
 6994SOL    HW121881   1.657   3.389   6.182
 6994SOL    HW221882   1.783   3.297   6.133
 6995SOL     OW21883   5.719   5.678   4.412
 6995SOL    HW121884   5.774   5.597   4.393
 6995SOL    HW221885   5.632   5.671   4.365
 6996SOL     OW21886   2.417   0.568   5.244
 6996SOL    HW121887   2.399   0.636   5.315
 6996SOL    HW221888   2.513   0.574   5.216
 6997SOL     OW21889   4.747   5.859   4.548
 6997SOL    HW121890   4.660   5.820   4.577
 6997SOL    HW221891   4.815   5.785   4.541
 6998SOL     OW21892   1.862   3.211   2.097
 6998SOL    HW121893   1.958   3.198   2.072
 6998SOL    HW221894   1.821   3.123   2.120
 6999SOL     OW21895   2.393   2.128   5.942
 6999SOL    HW121896   2.444   2.060   5.994
 6999SOL    HW221897   2.336   2.182   6.005
 7000SOL     OW21898   0.379   6.098   2.810
 7000SOL    HW121899   0.370   6.067   2.904
 7000SOL    HW221900   0.404   6.021   2.751
 7001SOL     OW21901   2.290   3.156   5.848
 7001SOL    HW121902   2.195   3.144   5.877
 7001SOL    HW221903   2.333   3.226   5.905
 7002SOL     OW21904   1.312   4.925   3.805
 7002SOL    HW121905   1.228   4.891   3.762
 7002SOL    HW221906   1.326   5.021   3.780
 7003SOL     OW21907   3.139   6.977   0.530
 7003SOL    HW121908   3.232   6.973   0.566
 7003SOL    HW221909   3.096   0.041   0.559
 7004SOL     OW21910   1.662   4.300   1.189
 7004SOL    HW121911   1.719   4.239   1.244
 7004SOL    HW221912   1.566   4.276   1.202
 7005SOL     OW21913   5.764   6.638   6.661
 7005SOL    HW121914   5.747   6.567   6.592
 7005SOL    HW221915   5.850   6.619   6.708
 7006SOL     OW21916   4.858   4.291   4.897
 7006SOL    HW121917   4.894   4.205   4.934
 7006SOL    HW221918   4.896   4.368   4.949
 7007SOL     OW21919   4.817   6.576   3.033
 7007SOL    HW121920   4.741   6.520   2.998
 7007SOL    HW221921   4.903   6.527   3.018
 7008SOL     OW21922   2.424   5.369   4.812
 7008SOL    HW121923   2.362   5.445   4.790
 7008SOL    HW221924   2.392   5.286   4.765
 7009SOL     OW21925   6.369   5.580   2.282
 7009SOL    HW121926   6.430   5.609   2.356
 7009SOL    HW221927   6.305   5.512   2.317
 7010SOL     OW21928   3.437   4.729   5.920
 7010SOL    HW121929   3.418   4.665   5.846
 7010SOL    HW221930   3.453   4.677   6.005
 7011SOL     OW21931   2.115   6.618   5.484
 7011SOL    HW121932   2.098   6.539   5.425
 7011SOL    HW221933   2.051   6.691   5.461
 7012SOL     OW21934   1.070   0.200   1.637
 7012SOL    HW121935   1.048   0.297   1.647
 7012SOL    HW221936   1.169   0.189   1.629
 7013SOL     OW21937   1.141   6.936   1.254
 7013SOL    HW121938   1.060   6.896   1.211
 7013SOL    HW221939   1.222   6.915   1.199
 7014SOL     OW21940   3.331   4.327   1.353
 7014SOL    HW121941   3.268   4.330   1.276
 7014SOL    HW221942   3.423   4.349   1.322
 7015SOL     OW21943   4.773   2.779   2.562
 7015SOL    HW121944   4.847   2.775   2.495
 7015SOL    HW221945   4.699   2.718   2.533
 7016SOL     OW21946   4.409   4.846   1.495
 7016SOL    HW121947   4.346   4.918   1.466
 7016SOL    HW221948   4.359   4.775   1.546
 7017SOL     OW21949   3.056   1.592   3.225
 7017SOL    HW121950   3.008   1.654   3.287
 7017SOL    HW221951   2.989   1.545   3.167
 7018SOL     OW21952   6.994   3.953   4.460
 7018SOL    HW121953   6.937   3.870   4.463
 7018SOL    HW221954   0.018   3.965   4.548
 7019SOL     OW21955   2.821   5.072   6.710
 7019SOL    HW121956   2.790   5.014   6.784
 7019SOL    HW221957   2.894   5.132   6.743
 7020SOL     OW21958   5.676   0.566   6.811
 7020SOL    HW121959   5.752   0.538   6.870
 7020SOL    HW221960   5.633   0.648   6.848
 7021SOL     OW21961   2.495   1.121   5.153
 7021SOL    HW121962   2.449   1.099   5.240
 7021SOL    HW221963   2.445   1.195   5.107
 7022SOL     OW21964   5.265   3.412   0.794
 7022SOL    HW121965   5.350   3.367   0.767
 7022SOL    HW221966   5.281   3.466   0.876
 7023SOL     OW21967   6.052   2.247   2.187
 7023SOL    HW121968   6.056   2.292   2.098
 7023SOL    HW221969   6.016   2.310   2.255
 7024SOL     OW21970   1.882   6.092   6.515
 7024SOL    HW121971   1.803   6.081   6.575
 7024SOL    HW221972   1.851   6.110   6.421
 7025SOL     OW21973   3.272   2.109   6.681
 7025SOL    HW121974   3.319   2.194   6.661
 7025SOL    HW221975   3.233   2.072   6.596
 7026SOL     OW21976   3.451   1.877   1.452
 7026SOL    HW121977   3.534   1.858   1.504
 7026SOL    HW221978   3.371   1.861   1.510
 7027SOL     OW21979   4.102   5.507   3.828
 7027SOL    HW121980   4.102   5.557   3.742
 7027SOL    HW221981   4.189   5.521   3.875
 7028SOL     OW21982   4.827   6.620   3.318
 7028SOL    HW121983   4.923   6.627   3.347
 7028SOL    HW221984   4.822   6.623   3.219
 7029SOL     OW21985   3.611   6.617   0.070
 7029SOL    HW121986   3.673   6.568   0.131
 7029SOL    HW221987   3.517   6.590   0.090
 7030SOL     OW21988   0.108   3.250   5.668
 7030SOL    HW121989   0.030   3.309   5.689
 7030SOL    HW221990   0.158   3.287   5.590
 7031SOL     OW21991   2.231   5.524   4.694
 7031SOL    HW121992   2.196   5.615   4.674
 7031SOL    HW221993   2.201   5.461   4.622
 7032SOL     OW21994   5.270   6.841   2.633
 7032SOL    HW121995   5.220   6.805   2.555
 7032SOL    HW221996   5.320   6.923   2.605
 7033SOL     OW21997   0.065   1.457   4.002
 7033SOL    HW121998   0.045   1.452   3.904
 7033SOL    HW221999   0.050   1.368   4.043
 7034SOL     OW22000   5.088   6.972   2.844
 7034SOL    HW122001   5.106   6.901   2.776
 7034SOL    HW222002   5.028   0.020   2.804
 7035SOL     OW22003   0.297   6.433   3.011
 7035SOL    HW122004   0.299   6.448   2.913
 7035SOL    HW222005   0.347   6.349   3.033
 7036SOL     OW22006   6.806   5.866   1.960
 7036SOL    HW122007   6.816   5.861   2.059
 7036SOL    HW222008   6.896   5.879   1.918
 7037SOL     OW22009   0.859   5.937   5.461
 7037SOL    HW122010   0.867   5.948   5.362
 7037SOL    HW222011   0.794   5.864   5.481
 7038SOL     OW22012   1.234   4.220   3.254
 7038SOL    HW122013   1.176   4.148   3.214
 7038SOL    HW222014   1.323   4.220   3.208
 7039SOL     OW22015   3.548   0.426   6.627
 7039SOL    HW122016   3.484   0.491   6.668
 7039SOL    HW222017   3.631   0.421   6.684
 7040SOL     OW22018   4.318   2.868   6.393
 7040SOL    HW122019   4.358   2.881   6.484
 7040SOL    HW222020   4.305   2.958   6.350
 7041SOL     OW22021   1.222   1.426   2.959
 7041SOL    HW122022   1.307   1.464   2.997
 7041SOL    HW222023   1.161   1.400   3.034
 7042SOL     OW22024   4.241   5.307   6.338
 7042SOL    HW122025   4.292   5.383   6.379
 7042SOL    HW222026   4.258   5.305   6.240
 7043SOL     OW22027   1.425   1.933   3.404
 7043SOL    HW122028   1.334   1.898   3.382
 7043SOL    HW222029   1.432   1.946   3.503
 7044SOL     OW22030   4.748   4.579   2.740
 7044SOL    HW122031   4.789   4.583   2.830
 7044SOL    HW222032   4.736   4.483   2.712
 7045SOL     OW22033   4.928   6.546   1.348
 7045SOL    HW122034   4.974   6.565   1.261
 7045SOL    HW222035   4.952   6.617   1.415
 7046SOL     OW22036   4.248   0.530   4.799
 7046SOL    HW122037   4.150   0.547   4.797
 7046SOL    HW222038   4.268   0.445   4.750
 7047SOL     OW22039   0.669   1.369   3.749
 7047SOL    HW122040   0.668   1.338   3.654
 7047SOL    HW222041   0.585   1.421   3.767
 7048SOL     OW22042   6.871   5.882   0.894
 7048SOL    HW122043   6.837   5.965   0.851
 7048SOL    HW222044   6.873   5.893   0.993
 7049SOL     OW22045   2.053   0.848   0.642
 7049SOL    HW122046   2.143   0.857   0.684
 7049SOL    HW222047   2.063   0.809   0.550
 7050SOL     OW22048   3.451   4.007   4.794
 7050SOL    HW122049   3.494   3.918   4.778
 7050SOL    HW222050   3.523   4.075   4.811
 7051SOL     OW22051   6.723   0.206   1.027
 7051SOL    HW122052   6.653   0.243   0.965
 7051SOL    HW222053   6.795   0.161   0.972
 7052SOL     OW22054   0.256   2.059   4.304
 7052SOL    HW122055   0.187   1.999   4.345
 7052SOL    HW222056   0.245   2.059   4.205
 7053SOL     OW22057   0.457   3.913   6.613
 7053SOL    HW122058   0.452   3.998   6.560
 7053SOL    HW222059   0.535   3.916   6.675
 7054SOL     OW22060   6.215   6.872   1.571
 7054SOL    HW122061   6.296   6.855   1.515
 7054SOL    HW222062   6.195   6.970   1.572
 7055SOL     OW22063   4.550   0.317   5.621
 7055SOL    HW122064   4.620   0.247   5.605
 7055SOL    HW222065   4.566   0.394   5.559
 7056SOL     OW22066   5.665   4.738   2.875
 7056SOL    HW122067   5.731   4.748   2.950
 7056SOL    HW222068   5.579   4.781   2.900
 7057SOL     OW22069   0.158   4.274   3.693
 7057SOL    HW122070   0.151   4.174   3.697
 7057SOL    HW222071   0.245   4.299   3.650
 7058SOL     OW22072   0.473   5.317   5.035
 7058SOL    HW122073   0.458   5.364   4.948
 7058SOL    HW222074   0.410   5.352   5.103
 7059SOL     OW22075   0.476   0.096   1.918
 7059SOL    HW122076   0.535   0.145   1.854
 7059SOL    HW222077   0.407   0.158   1.954
 7060SOL     OW22078   3.350   6.848   1.301
 7060SOL    HW122079   3.315   6.905   1.227
 7060SOL    HW222080   3.449   6.860   1.308
 7061SOL     OW22081   0.553   1.798   2.900
 7061SOL    HW122082   0.573   1.713   2.851
 7061SOL    HW222083   0.466   1.835   2.867
 7062SOL     OW22084   5.907   1.695   5.325
 7062SOL    HW122085   5.857   1.774   5.360
 7062SOL    HW222086   5.973   1.724   5.256
 7063SOL     OW22087   1.945   6.426   1.516
 7063SOL    HW122088   2.005   6.350   1.542
 7063SOL    HW222089   1.986   6.512   1.547
 7064SOL     OW22090   4.372   2.391   1.992
 7064SOL    HW122091   4.430   2.473   1.988
 7064SOL    HW222092   4.429   2.309   1.991
 7065SOL     OW22093   4.534   4.281   1.179
 7065SOL    HW122094   4.549   4.327   1.266
 7065SOL    HW222095   4.465   4.331   1.126
 7066SOL     OW22096   3.760   0.178   0.534
 7066SOL    HW122097   3.758   0.240   0.613
 7066SOL    HW222098   3.855   0.160   0.509
 7067SOL     OW22099   0.827   3.900   5.642
 7067SOL    HW122100   0.791   3.978   5.592
 7067SOL    HW222101   0.878   3.841   5.579
 7068SOL     OW22102   0.944   2.462   3.031
 7068SOL    HW122103   0.905   2.375   3.001
 7068SOL    HW222104   0.884   2.503   3.100
 7069SOL     OW22105   6.597   3.764   5.550
 7069SOL    HW122106   6.640   3.712   5.476
 7069SOL    HW222107   6.502   3.736   5.560
 7070SOL     OW22108   6.397   4.681   5.236
 7070SOL    HW122109   6.324   4.634   5.284
 7070SOL    HW222110   6.358   4.748   5.172
 7071SOL     OW22111   1.156   5.703   5.195
 7071SOL    HW122112   1.113   5.693   5.284
 7071SOL    HW222113   1.193   5.615   5.165
 7072SOL     OW22114   6.526   6.241   5.822
 7072SOL    HW122115   6.538   6.325   5.769
 7072SOL    HW222116   6.448   6.190   5.786
 7073SOL     OW22117   0.150   0.649   5.531
 7073SOL    HW122118   0.132   0.624   5.436
 7073SOL    HW222119   0.105   0.584   5.592
 7074SOL     OW22120   3.336   2.544   1.744
 7074SOL    HW122121   3.412   2.605   1.765
 7074SOL    HW222122   3.250   2.595   1.743
 7075SOL     OW22123   1.659   5.916   4.371
 7075SOL    HW122124   1.571   5.869   4.370
 7075SOL    HW222125   1.733   5.849   4.384
 7076SOL     OW22126   3.568   2.262   6.768
 7076SOL    HW122127   3.588   2.179   6.820
 7076SOL    HW222128   3.634   2.333   6.792
 7077SOL     OW22129   2.161   5.729   5.376
 7077SOL    HW122130   2.233   5.676   5.422
 7077SOL    HW222131   2.112   5.783   5.444
 7078SOL     OW22132   6.123   6.700   2.938
 7078SOL    HW122133   6.213   6.672   2.904
 7078SOL    HW222134   6.053   6.641   2.898
 7079SOL     OW22135   6.431   5.896   5.781
 7079SOL    HW122136   6.422   5.921   5.878
 7079SOL    HW222137   6.347   5.850   5.751
 7080SOL     OW22138   4.158   2.304   3.727
 7080SOL    HW122139   4.067   2.272   3.752
 7080SOL    HW222140   4.152   2.398   3.692
 7081SOL     OW22141   2.962   1.108   4.999
 7081SOL    HW122142   3.058   1.079   4.996
 7081SOL    HW222143   2.956   1.205   4.973
 7082SOL     OW22144   5.673   1.480   6.952
 7082SOL    HW122145   5.697   1.426   0.012
 7082SOL    HW222146   5.752   1.489   6.893
 7083SOL     OW22147   2.980   1.341   6.305
 7083SOL    HW122148   3.000   1.296   6.218
 7083SOL    HW222149   3.065   1.353   6.357
 7084SOL     OW22150   6.734   6.797   5.463
 7084SOL    HW122151   6.762   6.809   5.558
 7084SOL    HW222152   6.649   6.744   5.459
 7085SOL     OW22153   2.460   2.234   3.548
 7085SOL    HW122154   2.446   2.327   3.580
 7085SOL    HW222155   2.533   2.191   3.602
 7086SOL     OW22156   5.005   0.909   6.524
 7086SOL    HW122157   5.044   0.920   6.615
 7086SOL    HW222158   4.909   0.883   6.533
 7087SOL     OW22159   1.091   3.664   4.421
 7087SOL    HW122160   1.098   3.578   4.369
 7087SOL    HW222161   1.027   3.725   4.376
 7088SOL     OW22162   5.204   3.040   4.445
 7088SOL    HW122163   5.229   2.945   4.425
 7088SOL    HW222164   5.247   3.100   4.378
 7089SOL     OW22165   3.439   2.492   5.967
 7089SOL    HW122166   3.452   2.403   5.923
 7089SOL    HW222167   3.453   2.565   5.900
 7090SOL     OW22168   1.542   1.775   5.793
 7090SOL    HW122169   1.544   1.846   5.863
 7090SOL    HW222170   1.547   1.685   5.836
 7091SOL     OW22171   0.574   0.937   0.137
 7091SOL    HW122172   0.523   1.023   0.130
 7091SOL    HW222173   0.589   0.915   0.233
 7092SOL     OW22174   3.927   4.034   0.224
 7092SOL    HW122175   3.856   4.037   0.153
 7092SOL    HW222176   3.979   4.119   0.222
 7093SOL     OW22177   3.475   4.198   4.598
 7093SOL    HW122178   3.423   4.134   4.653
 7093SOL    HW222179   3.480   4.287   4.645
 7094SOL     OW22180   0.455   6.276   5.885
 7094SOL    HW122181   0.474   6.178   5.883
 7094SOL    HW222182   0.537   6.326   5.855
 7095SOL     OW22183   2.048   3.199   6.603
 7095SOL    HW122184   1.982   3.186   6.677
 7095SOL    HW222185   2.040   3.291   6.566
 7096SOL     OW22186   5.289   2.114   3.732
 7096SOL    HW122187   5.264   2.152   3.643
 7096SOL    HW222188   5.208   2.114   3.791
 7097SOL     OW22189   6.969   0.556   1.954
 7097SOL    HW122190   7.016   0.537   1.867
 7097SOL    HW222191   0.015   0.586   2.022
 7098SOL     OW22192   1.129   5.825   5.514
 7098SOL    HW122193   1.192   5.873   5.576
 7098SOL    HW222194   1.066   5.891   5.473
 7099SOL     OW22195   1.209   1.441   5.215
 7099SOL    HW122196   1.248   1.414   5.303
 7099SOL    HW222197   1.241   1.532   5.190
 7100SOL     OW22198   4.742   3.891   0.895
 7100SOL    HW122199   4.696   3.860   0.811
 7100SOL    HW222200   4.692   3.968   0.934
 7101SOL     OW22201   2.879   0.262   4.457
 7101SOL    HW122202   2.873   0.345   4.512
 7101SOL    HW222203   2.961   0.210   4.483
 7102SOL     OW22204   4.103   1.016   1.199
 7102SOL    HW122205   4.104   0.926   1.241
 7102SOL    HW222206   4.010   1.052   1.197
 7103SOL     OW22207   3.487   5.955   6.635
 7103SOL    HW122208   3.564   5.916   6.684
 7103SOL    HW222209   3.426   6.002   6.699
 7104SOL     OW22210   1.577   2.893   3.367
 7104SOL    HW122211   1.661   2.946   3.373
 7104SOL    HW222212   1.598   2.796   3.381
 7105SOL     OW22213   3.270   3.434   4.999
 7105SOL    HW122214   3.271   3.361   5.067
 7105SOL    HW222215   3.348   3.424   4.937
 7106SOL     OW22216   3.505   3.049   4.783
 7106SOL    HW122217   3.497   3.005   4.872
 7106SOL    HW222218   3.496   2.980   4.711
 7107SOL     OW22219   2.916   1.148   0.426
 7107SOL    HW122220   2.981   1.074   0.411
 7107SOL    HW222221   2.852   1.123   0.498
 7108SOL     OW22222   4.538   6.122   1.413
 7108SOL    HW122223   4.484   6.203   1.392
 7108SOL    HW222224   4.500   6.077   1.494
 7109SOL     OW22225   3.289   0.060   6.057
 7109SOL    HW122226   3.242   0.119   6.123
 7109SOL    HW222227   3.340   0.117   5.993
 7110SOL     OW22228   5.241   5.248   3.915
 7110SOL    HW122229   5.305   5.172   3.920
 7110SOL    HW222230   5.283   5.330   3.954
 7111SOL     OW22231   1.654   3.448   3.945
 7111SOL    HW122232   1.665   3.462   3.847
 7111SOL    HW222233   1.744   3.440   3.988
 7112SOL     OW22234   1.589   5.936   4.076
 7112SOL    HW122235   1.610   6.013   4.137
 7112SOL    HW222236   1.522   5.876   4.120
 7113SOL     OW22237   4.012   3.827   4.856
 7113SOL    HW122238   3.984   3.745   4.905
 7113SOL    HW222239   4.057   3.802   4.771
 7114SOL     OW22240   3.741   0.858   1.650
 7114SOL    HW122241   3.668   0.875   1.584
 7114SOL    HW222242   3.704   0.863   1.743
 7115SOL     OW22243   5.347   2.221   1.383
 7115SOL    HW122244   5.281   2.274   1.330
 7115SOL    HW222245   5.304   2.191   1.468
 7116SOL     OW22246   5.632   4.418   3.751
 7116SOL    HW122247   5.638   4.421   3.652
 7116SOL    HW222248   5.723   4.401   3.789
 7117SOL     OW22249   6.879   6.135   3.475
 7117SOL    HW122250   6.837   6.093   3.556
 7117SOL    HW222251   6.968   6.093   3.458
 7118SOL     OW22252   5.337   3.723   1.446
 7118SOL    HW122253   5.321   3.637   1.397
 7118SOL    HW222254   5.250   3.772   1.456
 7119SOL     OW22255   5.845   1.228   2.944
 7119SOL    HW122256   5.806   1.310   2.986
 7119SOL    HW222257   5.846   1.239   2.844
 7120SOL     OW22258   4.876   1.302   3.184
 7120SOL    HW122259   4.916   1.369   3.245
 7120SOL    HW222260   4.808   1.248   3.234
 7121SOL     OW22261   2.389   6.770   3.564
 7121SOL    HW122262   2.291   6.750   3.559
 7121SOL    HW222263   2.428   6.766   3.472
 7122SOL     OW22264   6.661   1.240   0.254
 7122SOL    HW122265   6.625   1.146   0.253
 7122SOL    HW222266   6.747   1.242   0.304
 7123SOL     OW22267   2.665   5.638   1.834
 7123SOL    HW122268   2.632   5.714   1.779
 7123SOL    HW222269   2.592   5.606   1.895
 7124SOL     OW22270   0.560   4.879   0.836
 7124SOL    HW122271   0.648   4.927   0.834
 7124SOL    HW222272   0.564   4.807   0.905
 7125SOL     OW22273   6.201   6.580   1.610
 7125SOL    HW122274   6.171   6.560   1.703
 7125SOL    HW222275   6.264   6.658   1.610
 7126SOL     OW22276   2.631   3.795   0.460
 7126SOL    HW122277   2.584   3.843   0.386
 7126SOL    HW222278   2.721   3.764   0.428
 7127SOL     OW22279   3.292   5.271   3.928
 7127SOL    HW122280   3.313   5.303   4.020
 7127SOL    HW222281   3.215   5.207   3.932
 7128SOL     OW22282   3.134   4.618   0.971
 7128SOL    HW122283   3.224   4.628   1.014
 7128SOL    HW222284   3.144   4.624   0.871
 7129SOL     OW22285   3.183   0.582   1.403
 7129SOL    HW122286   3.084   0.583   1.418
 7129SOL    HW222287   3.204   0.633   1.319
 7130SOL     OW22288   3.208   4.976   4.020
 7130SOL    HW122289   3.155   4.927   3.951
 7130SOL    HW222290   3.168   4.962   4.110
 7131SOL     OW22291   3.031   1.435   1.795
 7131SOL    HW122292   2.951   1.423   1.737
 7131SOL    HW222293   3.101   1.487   1.746
 7132SOL     OW22294   4.119   3.518   3.148
 7132SOL    HW122295   4.062   3.587   3.103
 7132SOL    HW222296   4.163   3.558   3.228
 7133SOL     OW22297   4.837   5.404   2.912
 7133SOL    HW122298   4.928   5.442   2.929
 7133SOL    HW222299   4.772   5.445   2.977
 7134SOL     OW22300   6.539   5.992   3.986
 7134SOL    HW122301   6.622   5.939   3.973
 7134SOL    HW222302   6.553   6.060   4.058
 7135SOL     OW22303   1.316   0.472   4.445
 7135SOL    HW122304   1.280   0.405   4.510
 7135SOL    HW222305   1.309   0.563   4.484
 7136SOL     OW22306   1.967   1.502   0.791
 7136SOL    HW122307   2.055   1.466   0.823
 7136SOL    HW222308   1.902   1.427   0.784
 7137SOL     OW22309   4.289   1.039   4.663
 7137SOL    HW122310   4.348   0.959   4.654
 7137SOL    HW222311   4.276   1.081   4.573
 7138SOL     OW22312   3.423   2.677   1.148
 7138SOL    HW122313   3.329   2.669   1.115
 7138SOL    HW222314   3.422   2.713   1.242
 7139SOL     OW22315   4.944   3.177   1.890
 7139SOL    HW122316   4.881   3.120   1.944
 7139SOL    HW222317   5.038   3.153   1.914
 7140SOL     OW22318   5.915   3.480   5.179
 7140SOL    HW122319   6.006   3.453   5.209
 7140SOL    HW222320   5.919   3.505   5.082
 7141SOL     OW22321   3.402   0.354   1.073
 7141SOL    HW122322   3.441   0.372   1.163
 7141SOL    HW222323   3.304   0.335   1.082
 7142SOL     OW22324   4.479   6.824   3.762
 7142SOL    HW122325   4.491   6.856   3.668
 7142SOL    HW222326   4.382   6.823   3.785
 7143SOL     OW22327   2.154   3.940   6.432
 7143SOL    HW122328   2.156   3.863   6.367
 7143SOL    HW222329   2.084   4.006   6.403
 7144SOL     OW22330   0.518   1.403   2.671
 7144SOL    HW122331   0.518   1.390   2.770
 7144SOL    HW222332   0.510   1.314   2.626
 7145SOL     OW22333   4.242   6.589   6.714
 7145SOL    HW122334   4.160   6.635   6.748
 7145SOL    HW222335   4.321   6.619   6.766
 7146SOL     OW22336   3.190   6.603   1.061
 7146SOL    HW122337   3.115   6.666   1.082
 7146SOL    HW222338   3.229   6.568   1.146
 7147SOL     OW22339   6.838   6.815   3.440
 7147SOL    HW122340   6.916   6.821   3.378
 7147SOL    HW222341   6.868   6.777   3.528
 7148SOL     OW22342   0.885   6.434   1.540
 7148SOL    HW122343   0.797   6.387   1.529
 7148SOL    HW222344   0.884   6.519   1.488
 7149SOL     OW22345   6.696   1.026   3.702
 7149SOL    HW122346   6.614   0.975   3.675
 7149SOL    HW222347   6.703   1.110   3.648
 7150SOL     OW22348   4.998   2.936   1.455
 7150SOL    HW122349   4.970   3.032   1.446
 7150SOL    HW222350   5.056   2.912   1.377
 7151SOL     OW22351   1.524   6.099   1.006
 7151SOL    HW122352   1.554   6.004   1.016
 7151SOL    HW222353   1.486   6.112   0.915
 7152SOL     OW22354   0.933   3.687   4.766
 7152SOL    HW122355   0.951   3.592   4.792
 7152SOL    HW222356   0.998   3.747   4.812
 7153SOL     OW22357   4.099   6.919   5.247
 7153SOL    HW122358   4.163   6.849   5.217
 7153SOL    HW222359   4.110   7.001   5.190
 7154SOL     OW22360   3.933   5.668   4.198
 7154SOL    HW122361   3.963   5.697   4.107
 7154SOL    HW222362   3.987   5.589   4.227
 7155SOL     OW22363   1.007   6.312   1.957
 7155SOL    HW122364   1.037   6.238   1.897
 7155SOL    HW222365   1.016   6.399   1.909
 7156SOL     OW22366   6.720   4.915   5.386
 7156SOL    HW122367   6.817   4.926   5.368
 7156SOL    HW222368   6.672   5.001   5.368
 7157SOL     OW22369   6.240   5.407   0.162
 7157SOL    HW122370   6.238   5.375   0.257
 7157SOL    HW222371   6.312   5.476   0.151
 7158SOL     OW22372   6.778   6.698   3.147
 7158SOL    HW122373   6.846   6.670   3.214
 7158SOL    HW222374   6.691   6.716   3.194
 7159SOL     OW22375   0.192   4.939   1.348
 7159SOL    HW122376   0.265   4.916   1.284
 7159SOL    HW222377   0.155   4.854   1.386
 7160SOL     OW22378   6.658   0.118   1.749
 7160SOL    HW122379   6.590   0.085   1.684
 7160SOL    HW222380   6.657   0.060   1.831
 7161SOL     OW22381   3.248   3.365   3.506
 7161SOL    HW122382   3.257   3.375   3.407
 7161SOL    HW222383   3.247   3.456   3.549
 7162SOL     OW22384   3.787   5.156   4.556
 7162SOL    HW122385   3.727   5.086   4.518
 7162SOL    HW222386   3.848   5.190   4.485
 7163SOL     OW22387   3.850   0.081   3.439
 7163SOL    HW122388   3.941   0.119   3.450
 7163SOL    HW222389   3.853   7.003   3.449
 7164SOL     OW22390   1.952   1.416   3.107
 7164SOL    HW122391   1.924   1.404   3.012
 7164SOL    HW222392   1.977   1.327   3.146
 7165SOL     OW22393   6.260   1.291   0.295
 7165SOL    HW122394   6.281   1.198   0.324
 7165SOL    HW222395   6.305   1.310   0.208
 7166SOL     OW22396   4.832   4.296   1.485
 7166SOL    HW122397   4.891   4.327   1.560
 7166SOL    HW222398   4.737   4.315   1.508
 7167SOL     OW22399   4.875   3.845   5.133
 7167SOL    HW122400   4.846   3.755   5.099
 7167SOL    HW222401   4.834   3.917   5.077
 7168SOL     OW22402   1.483   1.573   4.101
 7168SOL    HW122403   1.453   1.512   4.027
 7168SOL    HW222404   1.409   1.584   4.167
 7169SOL     OW22405   1.636   3.352   5.829
 7169SOL    HW122406   1.555   3.308   5.867
 7169SOL    HW222407   1.702   3.368   5.903
 7170SOL     OW22408   4.789   5.130   2.975
 7170SOL    HW122409   4.855   5.070   2.929
 7170SOL    HW222410   4.794   5.222   2.935
 7171SOL     OW22411   4.390   3.156   5.629
 7171SOL    HW122412   4.370   3.117   5.540
 7171SOL    HW222413   4.489   3.166   5.640
 7172SOL     OW22414   1.274   6.537   0.412
 7172SOL    HW122415   1.247   6.538   0.315
 7172SOL    HW222416   1.300   6.630   0.439
 7173SOL     OW22417   6.432   4.861   4.282
 7173SOL    HW122418   6.392   4.942   4.324
 7173SOL    HW222419   6.383   4.840   4.197
 7174SOL     OW22420   1.926   5.257   6.831
 7174SOL    HW122421   1.942   5.354   6.851
 7174SOL    HW222422   1.861   5.248   6.756
 7175SOL     OW22423   5.340   3.739   1.010
 7175SOL    HW122424   5.330   3.773   0.916
 7175SOL    HW222425   5.337   3.817   1.073
 7176SOL     OW22426   6.825   4.548   2.140
 7176SOL    HW122427   6.808   4.457   2.101
 7176SOL    HW222428   6.860   4.608   2.069
 7177SOL     OW22429   1.677   5.905   3.833
 7177SOL    HW122430   1.649   5.912   3.928
 7177SOL    HW222431   1.773   5.931   3.824
 7178SOL     OW22432   1.634   2.832   5.935
 7178SOL    HW122433   1.712   2.895   5.932
 7178SOL    HW222434   1.557   2.871   5.884
 7179SOL     OW22435   2.736   3.530   5.794
 7179SOL    HW122436   2.725   3.437   5.829
 7179SOL    HW222437   2.692   3.537   5.704
 7180SOL     OW22438   0.869   5.135   6.493
 7180SOL    HW122439   0.846   5.038   6.487
 7180SOL    HW222440   0.952   5.147   6.546
 7181SOL     OW22441   4.140   0.577   0.781
 7181SOL    HW122442   4.046   0.583   0.815
 7181SOL    HW222443   4.176   0.669   0.767
 7182SOL     OW22444   1.866   4.102   5.445
 7182SOL    HW122445   1.771   4.109   5.477
 7182SOL    HW222446   1.913   4.188   5.462
 7183SOL     OW22447   2.077   5.155   2.539
 7183SOL    HW122448   2.071   5.202   2.627
 7183SOL    HW222449   1.989   5.165   2.491
 7184SOL     OW22450   1.256   6.675   4.322
 7184SOL    HW122451   1.303   6.641   4.240
 7184SOL    HW222452   1.162   6.701   4.299
 7185SOL     OW22453   5.306   2.967   6.748
 7185SOL    HW122454   5.290   2.902   6.822
 7185SOL    HW222455   5.405   2.978   6.735
 7186SOL     OW22456   6.848   6.858   5.718
 7186SOL    HW122457   6.902   6.932   5.680
 7186SOL    HW222458   6.847   6.865   5.818
 7187SOL     OW22459   1.566   4.604   1.505
 7187SOL    HW122460   1.508   4.525   1.523
 7187SOL    HW222461   1.508   4.683   1.483
 7188SOL     OW22462   5.442   0.174   2.099
 7188SOL    HW122463   5.446   0.089   2.045
 7188SOL    HW222464   5.490   0.247   2.050
 7189SOL     OW22465   6.427   1.008   6.413
 7189SOL    HW122466   6.405   0.914   6.384
 7189SOL    HW222467   6.365   1.036   6.486
 7190SOL     OW22468   5.300   4.438   3.462
 7190SOL    HW122469   5.339   4.473   3.377
 7190SOL    HW222470   5.307   4.339   3.465
 7191SOL     OW22471   1.112   3.818   2.819
 7191SOL    HW122472   1.143   3.741   2.874
 7191SOL    HW222473   1.168   3.899   2.841
 7192SOL     OW22474   2.295   5.544   5.770
 7192SOL    HW122475   2.202   5.581   5.778
 7192SOL    HW222476   2.293   5.446   5.789
 7193SOL     OW22477   3.130   2.212   4.694
 7193SOL    HW122478   3.167   2.302   4.720
 7193SOL    HW222479   3.203   2.156   4.656
 7194SOL     OW22480   2.058   1.551   1.140
 7194SOL    HW122481   2.145   1.503   1.148
 7194SOL    HW222482   2.072   1.649   1.152
 7195SOL     OW22483   0.115   5.019   0.872
 7195SOL    HW122484   0.063   5.074   0.807
 7195SOL    HW222485   0.196   4.983   0.827
 7196SOL     OW22486   2.906   3.357   3.297
 7196SOL    HW122487   2.905   3.455   3.276
 7196SOL    HW222488   2.878   3.343   3.392
 7197SOL     OW22489   6.831   1.848   5.031
 7197SOL    HW122490   6.876   1.761   5.009
 7197SOL    HW222491   6.739   1.831   5.065
 7198SOL     OW22492   1.547   6.864   5.830
 7198SOL    HW122493   1.645   6.847   5.820
 7198SOL    HW222494   1.499   6.777   5.841
 7199SOL     OW22495   0.170   0.457   2.828
 7199SOL    HW122496   0.154   0.466   2.926
 7199SOL    HW222497   0.148   0.544   2.783
 7200SOL     OW22498   2.282   0.906   0.409
 7200SOL    HW122499   2.237   0.833   0.359
 7200SOL    HW222500   2.365   0.934   0.360
 7201SOL     OW22501   1.777   4.661   2.830
 7201SOL    HW122502   1.833   4.675   2.911
 7201SOL    HW222503   1.685   4.697   2.846
 7202SOL     OW22504   3.819   0.179   6.408
 7202SOL    HW122505   3.874   0.181   6.324
 7202SOL    HW222506   3.725   0.155   6.386
 7203SOL     OW22507   6.444   0.413   0.638
 7203SOL    HW122508   6.348   0.403   0.665
 7203SOL    HW222509   6.467   0.510   0.634
 7204SOL     OW22510   6.432   0.379   3.945
 7204SOL    HW122511   6.334   0.394   3.955
 7204SOL    HW222512   6.480   0.414   4.026
 7205SOL     OW22513   1.558   5.327   3.305
 7205SOL    HW122514   1.578   5.231   3.285
 7205SOL    HW222515   1.635   5.367   3.354
 7206SOL     OW22516   0.337   1.238   1.097
 7206SOL    HW122517   0.312   1.263   1.003
 7206SOL    HW222518   0.418   1.179   1.095
 7207SOL     OW22519   3.586   6.666   1.112
 7207SOL    HW122520   3.487   6.658   1.128
 7207SOL    HW222521   3.635   6.651   1.198
 7208SOL     OW22522   3.845   6.672   4.684
 7208SOL    HW122523   3.828   6.770   4.676
 7208SOL    HW222524   3.903   6.654   4.764
 7209SOL     OW22525   3.946   3.039   4.140
 7209SOL    HW122526   4.042   3.027   4.114
 7209SOL    HW222527   3.925   2.978   4.216
 7210SOL     OW22528   4.690   1.113   3.575
 7210SOL    HW122529   4.648   1.023   3.586
 7210SOL    HW222530   4.680   1.142   3.480
 7211SOL     OW22531   1.085   6.299   4.343
 7211SOL    HW122532   1.114   6.204   4.348
 7211SOL    HW222533   1.010   6.308   4.277
 7212SOL     OW22534   7.017   5.984   4.737
 7212SOL    HW122535   6.985   5.890   4.753
 7212SOL    HW222536   0.031   5.992   4.643
 7213SOL     OW22537   5.472   0.251   5.505
 7213SOL    HW122538   5.491   0.318   5.577
 7213SOL    HW222539   5.532   0.172   5.517
 7214SOL     OW22540   2.116   5.400   4.486
 7214SOL    HW122541   2.038   5.461   4.468
 7214SOL    HW222542   2.099   5.311   4.444
 7215SOL     OW22543   1.438   3.136   4.381
 7215SOL    HW122544   1.489   3.185   4.310
 7215SOL    HW222545   1.471   3.042   4.387
 7216SOL     OW22546   2.614   5.817   6.997
 7216SOL    HW122547   2.558   5.739   0.002
 7216SOL    HW222548   2.619   5.883   0.051
 7217SOL     OW22549   1.776   4.616   2.334
 7217SOL    HW122550   1.780   4.607   2.434
 7217SOL    HW222551   1.843   4.684   2.304
 7218SOL     OW22552   4.873   2.082   5.455
 7218SOL    HW122553   4.871   2.132   5.368
 7218SOL    HW222554   4.786   2.036   5.469
 7219SOL     OW22555   4.671   6.821   3.455
 7219SOL    HW122556   4.715   6.747   3.404
 7219SOL    HW222557   4.579   6.836   3.420
 7220SOL     OW22558   6.510   0.778   2.941
 7220SOL    HW122559   6.519   0.718   3.021
 7220SOL    HW222560   6.538   0.871   2.966
 7221SOL     OW22561   5.930   4.603   5.274
 7221SOL    HW122562   5.919   4.654   5.189
 7221SOL    HW222563   5.857   4.536   5.282
 7222SOL     OW22564   6.032   6.437   0.839
 7222SOL    HW122565   6.062   6.451   0.745
 7222SOL    HW222566   5.942   6.395   0.840
 7223SOL     OW22567   3.181   1.823   0.035
 7223SOL    HW122568   3.194   1.741   0.090
 7223SOL    HW222569   3.092   1.819   7.011
 7224SOL     OW22570   5.903   0.981   4.883
 7224SOL    HW122571   5.922   1.001   4.979
 7224SOL    HW222572   5.985   0.940   4.841
 7225SOL     OW22573   1.614   5.697   0.478
 7225SOL    HW122574   1.636   5.784   0.434
 7225SOL    HW222575   1.681   5.628   0.449
 7226SOL     OW22576   0.301   6.801   0.182
 7226SOL    HW122577   0.357   6.736   0.131
 7226SOL    HW222578   0.240   6.751   0.244
 7227SOL     OW22579   0.576   1.701   0.068
 7227SOL    HW122580   0.649   1.698   7.021
 7227SOL    HW222581   0.496   1.652   0.032
 7228SOL     OW22582   6.858   6.749   1.827
 7228SOL    HW122583   6.831   6.845   1.838
 7228SOL    HW222584   6.897   6.716   1.913
 7229SOL     OW22585   1.141   0.219   4.519
 7229SOL    HW122586   1.064   0.173   4.476
 7229SOL    HW222587   1.163   0.173   4.606
 7230SOL     OW22588   4.679   5.570   3.849
 7230SOL    HW122589   4.615   5.544   3.922
 7230SOL    HW222590   4.630   5.616   3.776
 7231SOL     OW22591   5.752   1.933   6.357
 7231SOL    HW122592   5.795   2.017   6.389
 7231SOL    HW222593   5.822   1.862   6.346
 7232SOL     OW22594   4.200   4.755   2.593
 7232SOL    HW122595   4.291   4.751   2.552
 7232SOL    HW222596   4.149   4.830   2.551
 7233SOL     OW22597   0.126   2.738   5.138
 7233SOL    HW122598   0.201   2.712   5.198
 7233SOL    HW222599   0.145   2.827   5.096
 7234SOL     OW22600   6.131   1.930   1.601
 7234SOL    HW122601   6.141   1.985   1.518
 7234SOL    HW222602   6.208   1.866   1.608
 7235SOL     OW22603   5.197   4.018   4.765
 7235SOL    HW122604   5.164   3.940   4.711
 7235SOL    HW222605   5.297   4.016   4.769
 7236SOL     OW22606   3.908   1.451   2.672
 7236SOL    HW122607   3.824   1.475   2.722
 7236SOL    HW222608   3.967   1.532   2.666
 7237SOL     OW22609   6.476   6.317   5.527
 7237SOL    HW122610   6.389   6.339   5.484
 7237SOL    HW222611   6.541   6.285   5.458
 7238SOL     OW22612   2.477   1.627   2.259
 7238SOL    HW122613   2.447   1.549   2.205
 7238SOL    HW222614   2.402   1.693   2.267
 7239SOL     OW22615   1.676   1.355   2.620
 7239SOL    HW122616   1.624   1.440   2.608
 7239SOL    HW222617   1.710   1.324   2.532
 7240SOL     OW22618   2.892   3.711   1.013
 7240SOL    HW122619   2.931   3.776   0.947
 7240SOL    HW222620   2.946   3.713   1.097
 7241SOL     OW22621   3.740   0.400   5.825
 7241SOL    HW122622   3.787   0.316   5.796
 7241SOL    HW222623   3.797   0.450   5.890
 7242SOL     OW22624   5.822   4.050   6.707
 7242SOL    HW122625   5.759   4.075   6.780
 7242SOL    HW222626   5.881   3.975   6.738
 7243SOL     OW22627   1.123   4.946   6.868
 7243SOL    HW122628   1.098   4.863   6.817
 7243SOL    HW222629   1.222   4.953   6.873
 7244SOL     OW22630   5.735   1.719   1.335
 7244SOL    HW122631   5.645   1.727   1.294
 7244SOL    HW222632   5.796   1.669   1.273
 7245SOL     OW22633   0.203   1.966   4.835
 7245SOL    HW122634   0.179   2.000   4.926
 7245SOL    HW222635   0.175   2.033   4.766
 7246SOL     OW22636   6.077   6.878   4.718
 7246SOL    HW122637   6.109   6.888   4.812
 7246SOL    HW222638   6.098   6.960   4.666
 7247SOL     OW22639   2.874   6.318   1.783
 7247SOL    HW122640   2.832   6.360   1.864
 7247SOL    HW222641   2.901   6.224   1.805
 7248SOL     OW22642   4.019   0.990   4.022
 7248SOL    HW122643   3.972   0.908   4.057
 7248SOL    HW222644   4.111   0.965   3.993
 7249SOL     OW22645   5.490   4.406   0.728
 7249SOL    HW122646   5.494   4.448   0.819
 7249SOL    HW222647   5.531   4.315   0.731
 7250SOL     OW22648   2.594   5.054   6.015
 7250SOL    HW122649   2.583   5.152   6.031
 7250SOL    HW222650   2.522   5.022   5.953
 7251SOL     OW22651   6.920   6.739   4.874
 7251SOL    HW122652   6.889   6.675   4.804
 7251SOL    HW222653   7.020   6.741   4.876
 7252SOL     OW22654   2.943   3.431   4.828
 7252SOL    HW122655   2.846   3.409   4.826
 7252SOL    HW222656   2.995   3.356   4.787
 7253SOL     OW22657   3.097   6.212   0.908
 7253SOL    HW122658   3.074   6.209   1.005
 7253SOL    HW222659   3.187   6.169   0.895
 7254SOL     OW22660   3.891   5.325   3.847
 7254SOL    HW122661   3.959   5.397   3.863
 7254SOL    HW222662   3.799   5.363   3.855
 7255SOL     OW22663   2.819   3.575   2.308
 7255SOL    HW122664   2.841   3.500   2.246
 7255SOL    HW222665   2.754   3.638   2.263
 7256SOL     OW22666   4.271   4.935   4.174
 7256SOL    HW122667   4.352   4.905   4.225
 7256SOL    HW222668   4.297   5.002   4.106
 7257SOL     OW22669   5.439   2.409   3.107
 7257SOL    HW122670   5.448   2.324   3.055
 7257SOL    HW222671   5.493   2.481   3.063
 7258SOL     OW22672   3.722   0.331   4.921
 7258SOL    HW122673   3.628   0.297   4.912
 7258SOL    HW222674   3.779   0.259   4.961
 7259SOL     OW22675   2.427   4.114   0.137
 7259SOL    HW122676   2.474   4.173   0.202
 7259SOL    HW222677   2.328   4.122   0.150
 7260SOL     OW22678   3.176   2.005   2.827
 7260SOL    HW122679   3.129   1.925   2.788
 7260SOL    HW222680   3.268   2.011   2.788
 7261SOL     OW22681   2.102   3.208   1.911
 7261SOL    HW122682   2.152   3.202   1.825
 7261SOL    HW222683   2.125   3.293   1.958
 7262SOL     OW22684   5.486   1.973   4.957
 7262SOL    HW122685   5.447   2.026   5.033
 7262SOL    HW222686   5.473   2.022   4.871
 7263SOL     OW22687   1.283   6.162   1.227
 7263SOL    HW122688   1.227   6.189   1.148
 7263SOL    HW222689   1.379   6.160   1.200
 7264SOL     OW22690   6.551   0.660   6.607
 7264SOL    HW122691   6.465   0.628   6.648
 7264SOL    HW222692   6.608   0.701   6.677
 7265SOL     OW22693   5.107   5.026   5.516
 7265SOL    HW122694   5.108   4.941   5.464
 7265SOL    HW222695   5.071   5.100   5.459
 7266SOL     OW22696   4.877   0.626   1.993
 7266SOL    HW122697   4.798   0.688   1.996
 7266SOL    HW222698   4.847   0.533   2.015
 7267SOL     OW22699   0.488   3.754   4.585
 7267SOL    HW122700   0.413   3.716   4.638
 7267SOL    HW222701   0.492   3.853   4.598
 7268SOL     OW22702   3.717   6.309   1.372
 7268SOL    HW122703   3.688   6.229   1.424
 7268SOL    HW222704   3.760   6.279   1.287
 7269SOL     OW22705   0.693   5.918   1.848
 7269SOL    HW122706   0.782   5.914   1.894
 7269SOL    HW222707   0.658   5.825   1.836
 7270SOL     OW22708   2.449   1.494   2.582
 7270SOL    HW122709   2.441   1.572   2.644
 7270SOL    HW222710   2.397   1.512   2.499
 7271SOL     OW22711   6.998   3.992   3.168
 7271SOL    HW122712   0.071   4.012   3.194
 7271SOL    HW222713   6.969   3.907   3.211
 7272SOL     OW22714   4.628   2.655   2.802
 7272SOL    HW122715   4.587   2.708   2.877
 7272SOL    HW222716   4.719   2.691   2.783
 7273SOL     OW22717   5.455   4.488   1.233
 7273SOL    HW122718   5.526   4.453   1.295
 7273SOL    HW222719   5.410   4.567   1.276
 7274SOL     OW22720   6.999   4.921   5.739
 7274SOL    HW122721   6.927   4.962   5.683
 7274SOL    HW222722   6.958   4.858   5.805
 7275SOL     OW22723   6.754   0.412   0.413
 7275SOL    HW122724   6.800   0.457   0.336
 7275SOL    HW222725   6.818   0.350   0.458
 7276SOL     OW22726   2.363   2.186   4.148
 7276SOL    HW122727   2.405   2.156   4.062
 7276SOL    HW222728   2.263   2.187   4.138
 7277SOL     OW22729   4.688   1.570   4.485
 7277SOL    HW122730   4.755   1.642   4.504
 7277SOL    HW222731   4.735   1.492   4.443
 7278SOL     OW22732   3.326   1.354   3.556
 7278SOL    HW122733   3.270   1.327   3.477
 7278SOL    HW222734   3.278   1.424   3.608
 7279SOL     OW22735   4.729   4.763   0.173
 7279SOL    HW122736   4.689   4.851   0.198
 7279SOL    HW222737   4.749   4.711   0.256
 7280SOL     OW22738   5.447   2.181   5.158
 7280SOL    HW122739   5.416   2.252   5.095
 7280SOL    HW222740   5.384   2.176   5.236
 7281SOL     OW22741   3.624   6.682   1.941
 7281SOL    HW122742   3.591   6.770   1.907
 7281SOL    HW222743   3.595   6.671   2.036
 7282SOL     OW22744   6.877   5.382   1.974
 7282SOL    HW122745   6.880   5.372   2.073
 7282SOL    HW222746   6.883   5.478   1.949
 7283SOL     OW22747   4.064   5.417   2.630
 7283SOL    HW122748   3.989   5.385   2.573
 7283SOL    HW222749   4.085   5.349   2.700
 7284SOL     OW22750   6.881   1.663   3.757
 7284SOL    HW122751   6.937   1.724   3.701
 7284SOL    HW222752   6.846   1.588   3.700
 7285SOL     OW22753   4.804   2.848   2.247
 7285SOL    HW122754   4.706   2.840   2.266
 7285SOL    HW222755   4.817   2.908   2.168
 7286SOL     OW22756   0.354   0.709   0.562
 7286SOL    HW122757   0.365   0.729   0.465
 7286SOL    HW222758   0.395   0.783   0.616
 7287SOL     OW22759   1.569   2.567   4.218
 7287SOL    HW122760   1.621   2.620   4.151
 7287SOL    HW222761   1.497   2.624   4.256
 7288SOL     OW22762   3.037   2.079   3.363
 7288SOL    HW122763   2.940   2.105   3.365
 7288SOL    HW222764   3.071   2.083   3.270
 7289SOL     OW22765   6.279   2.659   1.340
 7289SOL    HW122766   6.318   2.750   1.327
 7289SOL    HW222767   6.272   2.612   1.252
 7290SOL     OW22768   3.660   1.331   4.876
 7290SOL    HW122769   3.659   1.356   4.779
 7290SOL    HW222770   3.566   1.313   4.906
 7291SOL     OW22771   4.098   1.166   0.120
 7291SOL    HW122772   4.081   1.139   0.025
 7291SOL    HW222773   4.192   1.197   0.131
 7292SOL     OW22774   2.060   6.832   3.328
 7292SOL    HW122775   2.047   6.931   3.339
 7292SOL    HW222776   2.120   6.815   3.250
 7293SOL     OW22777   1.558   0.738   5.138
 7293SOL    HW122778   1.575   0.834   5.117
 7293SOL    HW222779   1.554   0.727   5.238
 7294SOL     OW22780   2.321   5.411   1.344
 7294SOL    HW122781   2.355   5.485   1.401
 7294SOL    HW222782   2.395   5.347   1.323
 7295SOL     OW22783   6.491   5.059   2.367
 7295SOL    HW122784   6.483   5.000   2.287
 7295SOL    HW222785   6.401   5.069   2.411
 7296SOL     OW22786   4.239   4.997   1.977
 7296SOL    HW122787   4.251   5.059   2.054
 7296SOL    HW222788   4.325   4.950   1.958
 7297SOL     OW22789   3.895   6.199   1.191
 7297SOL    HW122790   3.953   6.236   1.118
 7297SOL    HW222791   3.881   6.101   1.176
 7298SOL     OW22792   4.644   5.931   6.412
 7298SOL    HW122793   4.712   5.914   6.340
 7298SOL    HW222794   4.633   6.029   6.425
 7299SOL     OW22795   1.382   2.887   0.074
 7299SOL    HW122796   1.288   2.906   0.045
 7299SOL    HW222797   1.382   2.859   0.171
 7300SOL     OW22798   1.031   5.066   1.856
 7300SOL    HW122799   1.045   5.084   1.759
 7300SOL    HW222800   0.939   5.095   1.882
 7301SOL     OW22801   5.487   6.811   5.612
 7301SOL    HW122802   5.401   6.761   5.606
 7301SOL    HW222803   5.518   6.813   5.707
 7302SOL     OW22804   4.981   2.595   6.000
 7302SOL    HW122805   4.991   2.591   6.099
 7302SOL    HW222806   5.061   2.639   5.960
 7303SOL     OW22807   2.678   0.898   1.051
 7303SOL    HW122808   2.664   0.941   0.961
 7303SOL    HW222809   2.775   0.906   1.077
 7304SOL     OW22810   2.540   5.491   2.073
 7304SOL    HW122811   2.594   5.558   2.124
 7304SOL    HW222812   2.547   5.402   2.118
 7305SOL     OW22813   5.943   2.311   0.713
 7305SOL    HW122814   5.876   2.363   0.661
 7305SOL    HW222815   5.953   2.352   0.804
 7306SOL     OW22816   1.995   1.817   1.158
 7306SOL    HW122817   1.899   1.840   1.174
 7306SOL    HW222818   2.052   1.893   1.190
 7307SOL     OW22819   1.590   6.593   1.404
 7307SOL    HW122820   1.669   6.549   1.361
 7307SOL    HW222821   1.506   6.562   1.360
 7308SOL     OW22822   4.835   1.176   2.550
 7308SOL    HW122823   4.760   1.117   2.521
 7308SOL    HW222824   4.825   1.198   2.647
 7309SOL     OW22825   2.132   5.289   3.344
 7309SOL    HW122826   2.081   5.369   3.313
 7309SOL    HW222827   2.222   5.318   3.379
 7310SOL     OW22828   1.962   3.155   0.146
 7310SOL    HW122829   1.872   3.184   0.177
 7310SOL    HW222830   1.988   3.070   0.192
 7311SOL     OW22831   6.870   6.491   6.345
 7311SOL    HW122832   6.946   6.517   6.404
 7311SOL    HW222833   6.886   6.526   6.253
 7312SOL     OW22834   0.008   2.557   4.965
 7312SOL    HW122835   0.000   2.597   4.874
 7312SOL    HW222836   0.044   2.626   5.029
 7313SOL     OW22837   2.740   0.933   2.343
 7313SOL    HW122838   2.793   0.916   2.426
 7313SOL    HW222839   2.743   1.030   2.321
 7314SOL     OW22840   0.397   4.553   0.209
 7314SOL    HW122841   0.497   4.560   0.214
 7314SOL    HW222842   0.366   4.481   0.271
 7315SOL     OW22843   1.181   4.939   2.535
 7315SOL    HW122844   1.116   4.875   2.495
 7315SOL    HW222845   1.208   4.906   2.626
 7316SOL     OW22846   3.867   2.292   0.399
 7316SOL    HW122847   3.858   2.193   0.402
 7316SOL    HW222848   3.889   2.326   0.491
 7317SOL     OW22849   3.449   1.808   1.956
 7317SOL    HW122850   3.539   1.851   1.947
 7317SOL    HW222851   3.460   1.711   1.975
 7318SOL     OW22852   3.881   6.939   0.751
 7318SOL    HW122853   3.904   6.995   0.830
 7318SOL    HW222854   3.782   6.929   0.746
 7319SOL     OW22855   6.910   4.959   0.335
 7319SOL    HW122856   6.864   4.937   0.421
 7319SOL    HW222857   6.902   4.882   0.272
 7320SOL     OW22858   6.880   3.060   0.972
 7320SOL    HW122859   6.979   3.059   0.971
 7320SOL    HW222860   6.845   2.973   0.937
 7321SOL     OW22861   1.753   6.612   0.172
 7321SOL    HW122862   1.778   6.594   0.267
 7321SOL    HW222863   1.814   6.682   0.134
 7322SOL     OW22864   0.390   2.789   2.315
 7322SOL    HW122865   0.450   2.729   2.261
 7322SOL    HW222866   0.345   2.854   2.254
 7323SOL     OW22867   1.142   1.690   1.630
 7323SOL    HW122868   1.055   1.695   1.680
 7323SOL    HW222869   1.215   1.728   1.688
 7324SOL     OW22870   5.883   4.734   3.075
 7324SOL    HW122871   5.851   4.709   3.167
 7324SOL    HW222872   5.942   4.661   3.040
 7325SOL     OW22873   4.307   0.931   6.475
 7325SOL    HW122874   4.308   0.848   6.419
 7325SOL    HW222875   4.338   1.009   6.420
 7326SOL     OW22876   2.316   0.481   0.394
 7326SOL    HW122877   2.414   0.489   0.410
 7326SOL    HW222878   2.298   0.401   0.336
 7327SOL     OW22879   6.631   3.723   2.669
 7327SOL    HW122880   6.609   3.657   2.742
 7327SOL    HW222881   6.625   3.677   2.580
 7328SOL     OW22882   4.274   4.759   5.070
 7328SOL    HW122883   4.315   4.669   5.052
 7328SOL    HW222884   4.259   4.769   5.168
 7329SOL     OW22885   2.778   3.259   0.610
 7329SOL    HW122886   2.743   3.290   0.699
 7329SOL    HW222887   2.708   3.274   0.540
 7330SOL     OW22888   3.690   2.772   1.168
 7330SOL    HW122889   3.593   2.763   1.144
 7330SOL    HW222890   3.721   2.689   1.215
 7331SOL     OW22891   4.724   0.839   2.386
 7331SOL    HW122892   4.725   0.898   2.306
 7331SOL    HW222893   4.680   0.887   2.462
 7332SOL     OW22894   2.915   3.996   6.910
 7332SOL    HW122895   2.871   3.988   6.821
 7332SOL    HW222896   2.846   4.001   6.982
 7333SOL     OW22897   6.762   2.102   1.371
 7333SOL    HW122898   6.755   2.177   1.437
 7333SOL    HW222899   6.670   2.075   1.342
 7334SOL     OW22900   3.032   0.368   5.536
 7334SOL    HW122901   2.947   0.335   5.496
 7334SOL    HW222902   3.094   0.291   5.552
 7335SOL     OW22903   6.855   2.757   2.565
 7335SOL    HW122904   6.819   2.669   2.596
 7335SOL    HW222905   6.803   2.788   2.486
 7336SOL     OW22906   1.268   6.279   0.940
 7336SOL    HW122907   1.363   6.253   0.924
 7336SOL    HW222908   1.209   6.227   0.877
 7337SOL     OW22909   2.106   1.962   2.849
 7337SOL    HW122910   2.066   2.039   2.899
 7337SOL    HW222911   2.068   1.876   2.884
 7338SOL     OW22912   5.691   2.970   2.128
 7338SOL    HW122913   5.678   2.934   2.221
 7338SOL    HW222914   5.672   3.068   2.128
 7339SOL     OW22915   6.510   5.227   4.772
 7339SOL    HW122916   6.521   5.138   4.728
 7339SOL    HW222917   6.419   5.233   4.814
 7340SOL     OW22918   3.081   0.058   0.287
 7340SOL    HW122919   3.147   0.044   0.213
 7340SOL    HW222920   3.118   0.021   0.372
 7341SOL     OW22921   6.588   4.892   3.982
 7341SOL    HW122922   6.509   4.840   4.014
 7341SOL    HW222923   6.606   4.967   4.046
 7342SOL     OW22924   7.002   0.123   0.397
 7342SOL    HW122925   6.998   0.023   0.389
 7342SOL    HW222926   6.986   0.149   0.493
 7343SOL     OW22927   6.499   4.443   2.384
 7343SOL    HW122928   6.556   4.522   2.362
 7343SOL    HW222929   6.479   4.443   2.482
 7344SOL     OW22930   1.757   6.297   7.020
 7344SOL    HW122931   1.819   6.254   0.065
 7344SOL    HW222932   1.810   6.326   6.940
 7345SOL     OW22933   4.219   5.262   6.036
 7345SOL    HW122934   4.134   5.235   5.991
 7345SOL    HW222935   4.289   5.192   6.020
 7346SOL     OW22936   3.754   4.751   1.580
 7346SOL    HW122937   3.825   4.701   1.630
 7346SOL    HW222938   3.784   4.765   1.485
 7347SOL     OW22939   6.138   1.732   1.910
 7347SOL    HW122940   6.065   1.791   1.945
 7347SOL    HW222941   6.144   1.649   1.967
 7348SOL     OW22942   1.623   1.915   3.884
 7348SOL    HW122943   1.602   1.832   3.833
 7348SOL    HW222944   1.573   1.914   3.971
 7349SOL     OW22945   4.112   1.546   0.650
 7349SOL    HW122946   4.086   1.450   0.643
 7349SOL    HW222947   4.042   1.603   0.608
 7350SOL     OW22948   1.217   2.397   3.136
 7350SOL    HW122949   1.274   2.454   3.076
 7350SOL    HW222950   1.129   2.380   3.093
 7351SOL     OW22951   4.373   5.065   6.998
 7351SOL    HW122952   4.392   5.017   6.913
 7351SOL    HW222953   4.296   5.127   6.985
 7352SOL     OW22954   0.670   1.948   2.226
 7352SOL    HW122955   0.615   1.933   2.145
 7352SOL    HW222956   0.644   1.881   2.296
 7353SOL     OW22957   5.720   1.687   4.747
 7353SOL    HW122958   5.810   1.692   4.704
 7353SOL    HW222959   5.722   1.737   4.834
 7354SOL     OW22960   6.286   6.116   5.647
 7354SOL    HW122961   6.317   6.039   5.703
 7354SOL    HW222962   6.327   6.110   5.556
 7355SOL     OW22963   1.082   5.669   2.007
 7355SOL    HW122964   1.174   5.656   1.971
 7355SOL    HW222965   1.072   5.621   2.094
 7356SOL     OW22966   6.383   1.919   6.284
 7356SOL    HW122967   6.357   1.822   6.294
 7356SOL    HW222968   6.478   1.925   6.253
 7357SOL     OW22969   5.709   2.412   6.859
 7357SOL    HW122970   5.646   2.382   6.787
 7357SOL    HW222971   5.801   2.421   6.821
 7358SOL     OW22972   3.242   1.608   4.310
 7358SOL    HW122973   3.179   1.538   4.276
 7358SOL    HW222974   3.242   1.606   4.410
 7359SOL     OW22975   4.005   3.261   3.227
 7359SOL    HW122976   4.083   3.320   3.207
 7359SOL    HW222977   3.975   3.276   3.321
 7360SOL     OW22978   1.175   2.592   5.345
 7360SOL    HW122979   1.188   2.633   5.435
 7360SOL    HW222980   1.127   2.505   5.355
 7361SOL     OW22981   5.277   5.898   1.897
 7361SOL    HW122982   5.241   5.991   1.894
 7361SOL    HW222983   5.365   5.895   1.850
 7362SOL     OW22984   2.032   5.604   5.716
 7362SOL    HW122985   1.973   5.590   5.795
 7362SOL    HW222986   2.014   5.533   5.648
 7363SOL     OW22987   4.800   3.008   0.016
 7363SOL    HW122988   4.791   2.909   0.010
 7363SOL    HW222989   4.711   3.048   0.036
 7364SOL     OW22990   4.142   6.134   1.379
 7364SOL    HW122991   4.189   6.216   1.412
 7364SOL    HW222992   4.051   6.160   1.343
 7365SOL     OW22993   2.492   0.114   2.412
 7365SOL    HW122994   2.466   0.179   2.341
 7365SOL    HW222995   2.461   0.023   2.387
 7366SOL     OW22996   0.023   5.104   6.790
 7366SOL    HW122997   6.973   5.155   6.838
 7366SOL    HW222998   0.014   5.007   6.810
 7367SOL     OW22999   4.957   3.672   1.787
 7367SOL    HW123000   5.007   3.718   1.861
 7367SOL    HW223001   4.953   3.574   1.805
 7368SOL     OW23002   2.910   3.717   4.771
 7368SOL    HW123003   2.853   3.646   4.813
 7368SOL    HW223004   2.902   3.802   4.825
 7369SOL     OW23005   4.967   3.948   0.748
 7369SOL    HW123006   4.976   3.885   0.672
 7369SOL    HW223007   4.881   3.932   0.795
 7370SOL     OW23008   2.408   6.784   0.974
 7370SOL    HW123009   2.472   6.804   1.048
 7370SOL    HW223010   2.459   6.767   0.890
 7371SOL     OW23011   2.750   4.873   4.084
 7371SOL    HW123012   2.808   4.931   4.026
 7371SOL    HW223013   2.654   4.888   4.059
 7372SOL     OW23014   3.284   0.229   5.625
 7372SOL    HW123015   3.372   0.188   5.603
 7372SOL    HW223016   3.296   0.327   5.642
 7373SOL     OW23017   3.525   0.453   2.884
 7373SOL    HW123018   3.529   0.532   2.946
 7373SOL    HW223019   3.595   0.462   2.814
 7374SOL     OW23020   1.469   3.202   6.327
 7374SOL    HW123021   1.428   3.231   6.414
 7374SOL    HW223022   1.482   3.282   6.269
 7375SOL     OW23023   1.315   0.856   4.291
 7375SOL    HW123024   1.310   0.942   4.341
 7375SOL    HW223025   1.410   0.830   4.278
 7376SOL     OW23026   2.690   2.692   6.965
 7376SOL    HW123027   2.618   2.760   6.977
 7376SOL    HW223028   2.650   2.601   6.955
 7377SOL     OW23029   4.978   4.558   2.032
 7377SOL    HW123030   5.029   4.473   2.047
 7377SOL    HW223031   4.885   4.547   2.066
 7378SOL     OW23032   0.465   1.347   4.848
 7378SOL    HW123033   0.495   1.442   4.844
 7378SOL    HW223034   0.385   1.340   4.908
 7379SOL     OW23035   3.624   1.417   2.280
 7379SOL    HW123036   3.575   1.497   2.245
 7379SOL    HW223037   3.684   1.444   2.355
 7380SOL     OW23038   0.131   3.091   6.194
 7380SOL    HW123039   0.214   3.044   6.164
 7380SOL    HW223040   0.102   3.155   6.122
 7381SOL     OW23041   4.633   2.006   2.209
 7381SOL    HW123042   4.718   1.974   2.251
 7381SOL    HW223043   4.556   1.979   2.266
 7382SOL     OW23044   0.035   4.863   4.436
 7382SOL    HW123045   0.039   4.857   4.336
 7382SOL    HW223046   0.052   4.772   4.475
 7383SOL     OW23047   0.101   6.367   3.270
 7383SOL    HW123048   0.127   6.275   3.299
 7383SOL    HW223049   0.163   6.434   3.311
 7384SOL     OW23050   5.198   6.625   2.193
 7384SOL    HW123051   5.228   6.540   2.150
 7384SOL    HW223052   5.278   6.675   2.227
 7385SOL     OW23053   4.647   5.964   1.899
 7385SOL    HW123054   4.742   5.994   1.903
 7385SOL    HW223055   4.642   5.873   1.857
 7386SOL     OW23056   0.771   2.494   5.616
 7386SOL    HW123057   0.861   2.528   5.589
 7386SOL    HW223058   0.780   2.443   5.702
 7387SOL     OW23059   4.557   4.987   3.992
 7387SOL    HW123060   4.570   4.887   3.995
 7387SOL    HW223061   4.474   5.007   3.940
 7388SOL     OW23062   6.600   4.503   4.335
 7388SOL    HW123063   6.629   4.458   4.251
 7388SOL    HW223064   6.639   4.595   4.339
 7389SOL     OW23065   1.640   4.504   0.013
 7389SOL    HW123066   1.598   4.532   0.099
 7389SOL    HW223067   1.690   4.582   6.995
 7390SOL     OW23068   0.455   1.165   5.869
 7390SOL    HW123069   0.520   1.089   5.857
 7390SOL    HW223070   0.430   1.201   5.779
 7391SOL     OW23071   6.048   3.680   6.105
 7391SOL    HW123072   6.142   3.687   6.139
 7391SOL    HW223073   6.042   3.606   6.037
 7392SOL     OW23074   1.372   4.971   4.704
 7392SOL    HW123075   1.438   4.911   4.749
 7392SOL    HW223076   1.353   5.050   4.762
 7393SOL     OW23077   6.617   5.381   2.267
 7393SOL    HW123078   6.641   5.478   2.274
 7393SOL    HW223079   6.531   5.370   2.218
 7394SOL     OW23080   4.077   3.532   6.607
 7394SOL    HW123081   4.050   3.495   6.518
 7394SOL    HW223082   4.175   3.517   6.621
 7395SOL     OW23083   0.597   0.164   6.806
 7395SOL    HW123084   0.687   0.172   6.763
 7395SOL    HW223085   0.580   0.245   6.862
 7396SOL     OW23086   1.037   0.329   6.291
 7396SOL    HW123087   1.041   0.380   6.205
 7396SOL    HW223088   1.071   0.387   6.365
 7397SOL     OW23089   6.912   4.366   4.986
 7397SOL    HW123090   6.906   4.398   5.080
 7397SOL    HW223091   6.823   4.376   4.941
 7398SOL     OW23092   4.685   4.674   4.334
 7398SOL    HW123093   4.614   4.648   4.400
 7398SOL    HW223094   4.703   4.598   4.272
 7399SOL     OW23095   5.705   3.934   5.790
 7399SOL    HW123096   5.763   3.913   5.869
 7399SOL    HW223097   5.682   3.849   5.743
 7400SOL     OW23098   3.045   4.858   6.858
 7400SOL    HW123099   2.975   4.810   6.910
 7400SOL    HW223100   3.051   4.953   6.889
 7401SOL     OW23101   0.242   1.839   3.892
 7401SOL    HW123102   0.296   1.761   3.923
 7401SOL    HW223103   0.251   1.849   3.793
 7402SOL     OW23104   2.451   7.006   3.676
 7402SOL    HW123105   2.433   6.922   3.625
 7402SOL    HW223106   2.507   6.985   3.756
 7403SOL     OW23107   2.175   3.522   3.124
 7403SOL    HW123108   2.272   3.501   3.112
 7403SOL    HW223109   2.158   3.546   3.220
 7404SOL     OW23110   1.015   0.410   1.113
 7404SOL    HW123111   0.959   0.382   1.036
 7404SOL    HW223112   1.106   0.436   1.081
 7405SOL     OW23113   2.769   5.387   5.404
 7405SOL    HW123114   2.743   5.302   5.448
 7405SOL    HW223115   2.862   5.380   5.367
 7406SOL     OW23116   1.471   3.919   2.154
 7406SOL    HW123117   1.432   3.954   2.239
 7406SOL    HW223118   1.521   3.834   2.173
 7407SOL     OW23119   1.000   6.195   5.375
 7407SOL    HW123120   1.007   6.128   5.301
 7407SOL    HW223121   0.905   6.199   5.406
 7408SOL     OW23122   1.595   4.483   5.642
 7408SOL    HW123123   1.632   4.502   5.551
 7408SOL    HW223124   1.496   4.476   5.637
 7409SOL     OW23125   1.332   0.753   4.976
 7409SOL    HW123126   1.243   0.724   5.011
 7409SOL    HW223127   1.398   0.755   5.051
 7410SOL     OW23128   0.131   5.308   1.086
 7410SOL    HW123129   0.185   5.224   1.087
 7410SOL    HW223130   0.071   5.308   1.006
 7411SOL     OW23131   2.853   6.266   4.869
 7411SOL    HW123132   2.854   6.325   4.789
 7411SOL    HW223133   2.927   6.199   4.864
 7412SOL     OW23134   2.209   0.718   1.112
 7412SOL    HW123135   2.301   0.679   1.122
 7412SOL    HW223136   2.194   0.746   1.018
 7413SOL     OW23137   6.045   3.707   4.573
 7413SOL    HW123138   6.046   3.622   4.626
 7413SOL    HW223139   6.122   3.764   4.601
 7414SOL     OW23140   6.615   6.661   2.091
 7414SOL    HW123141   6.571   6.576   2.064
 7414SOL    HW223142   6.552   6.737   2.075
 7415SOL     OW23143   1.887   3.305   2.941
 7415SOL    HW123144   1.823   3.234   2.973
 7415SOL    HW223145   1.867   3.327   2.846
 7416SOL     OW23146   3.746   1.192   4.368
 7416SOL    HW123147   3.764   1.182   4.466
 7416SOL    HW223148   3.746   1.101   4.324
 7417SOL     OW23149   1.183   0.017   6.721
 7417SOL    HW123150   1.157   0.003   6.625
 7417SOL    HW223151   1.280   0.042   6.726
 7418SOL     OW23152   2.611   4.020   1.396
 7418SOL    HW123153   2.636   4.060   1.484
 7418SOL    HW223154   2.645   3.926   1.392
 7419SOL     OW23155   5.461   1.690   4.945
 7419SOL    HW123156   5.547   1.641   4.965
 7419SOL    HW223157   5.473   1.787   4.967
 7420SOL     OW23158   6.378   6.380   1.797
 7420SOL    HW123159   6.421   6.455   1.747
 7420SOL    HW223160   6.443   6.304   1.805
 7421SOL     OW23161   3.913   3.867   1.541
 7421SOL    HW123162   3.916   3.956   1.588
 7421SOL    HW223163   3.819   3.849   1.510
 7422SOL     OW23164   0.367   3.292   0.536
 7422SOL    HW123165   0.338   3.340   0.619
 7422SOL    HW223166   0.305   3.312   0.461
 7423SOL     OW23167   2.105   4.810   5.991
 7423SOL    HW123168   2.130   4.879   6.060
 7423SOL    HW223169   2.124   4.719   6.028
 7424SOL     OW23170   5.565   1.041   4.508
 7424SOL    HW123171   5.639   1.100   4.475
 7424SOL    HW223172   5.477   1.086   4.492
 7425SOL     OW23173   3.795   4.366   6.205
 7425SOL    HW123174   3.794   4.313   6.121
 7425SOL    HW223175   3.719   4.339   6.264
 7426SOL     OW23176   0.737   1.566   5.772
 7426SOL    HW123177   0.785   1.575   5.685
 7426SOL    HW223178   0.672   1.490   5.767
 7427SOL     OW23179   3.087   5.905   4.919
 7427SOL    HW123180   3.174   5.857   4.908
 7427SOL    HW223181   3.057   5.898   5.014
 7428SOL     OW23182   3.774   2.501   6.075
 7428SOL    HW123183   3.693   2.488   6.019
 7428SOL    HW223184   3.802   2.413   6.113
 7429SOL     OW23185   0.347   0.398   2.405
 7429SOL    HW123186   0.298   0.463   2.463
 7429SOL    HW223187   0.295   0.312   2.402
 7430SOL     OW23188   6.575   3.731   5.223
 7430SOL    HW123189   6.544   3.737   5.128
 7430SOL    HW223190   6.502   3.694   5.280
 7431SOL     OW23191   0.767   3.449   2.008
 7431SOL    HW123192   0.852   3.492   2.038
 7431SOL    HW223193   0.690   3.507   2.034
 7432SOL     OW23194   0.387   6.626   4.020
 7432SOL    HW123195   0.436   6.563   3.960
 7432SOL    HW223196   0.303   6.582   4.052
 7433SOL     OW23197   5.752   5.398   0.703
 7433SOL    HW123198   5.718   5.392   0.797
 7433SOL    HW223199   5.679   5.431   0.643
 7434SOL     OW23200   2.762   1.852   6.730
 7434SOL    HW123201   2.710   1.910   6.793
 7434SOL    HW223202   2.859   1.857   6.753
 7435SOL     OW23203   3.191   6.351   6.180
 7435SOL    HW123204   3.189   6.398   6.091
 7435SOL    HW223205   3.260   6.279   6.178
 7436SOL     OW23206   5.407   3.352   6.935
 7436SOL    HW123207   5.425   3.449   6.953
 7436SOL    HW223208   5.313   3.330   6.959
 7437SOL     OW23209   0.207   5.267   6.180
 7437SOL    HW123210   0.304   5.277   6.205
 7437SOL    HW223211   0.183   5.170   6.179
 7438SOL     OW23212   0.586   4.350   2.043
 7438SOL    HW123213   0.574   4.254   2.017
 7438SOL    HW223214   0.677   4.363   2.083
 7439SOL     OW23215   2.101   6.764   3.878
 7439SOL    HW123216   2.173   6.715   3.830
 7439SOL    HW223217   2.012   6.725   3.855
 7440SOL     OW23218   1.443   2.817   4.556
 7440SOL    HW123219   1.452   2.732   4.609
 7440SOL    HW223220   1.450   2.895   4.617
 7441SOL     OW23221   5.595   0.892   4.299
 7441SOL    HW123222   5.587   0.952   4.378
 7441SOL    HW223223   5.527   0.917   4.230
 7442SOL     OW23224   0.908   1.732   6.528
 7442SOL    HW123225   0.974   1.806   6.536
 7442SOL    HW223226   0.930   1.661   6.595
 7443SOL     OW23227   0.729   1.377   6.291
 7443SOL    HW123228   0.709   1.314   6.216
 7443SOL    HW223229   0.696   1.339   6.377
 7444SOL     OW23230   0.065   3.267   5.984
 7444SOL    HW123231   0.137   3.331   6.009
 7444SOL    HW223232   0.091   3.218   5.902
 7445SOL     OW23233   5.394   1.412   1.298
 7445SOL    HW123234   5.471   1.361   1.334
 7445SOL    HW223235   5.417   1.448   1.207
 7446SOL     OW23236   6.539   3.671   1.107
 7446SOL    HW123237   6.546   3.769   1.125
 7446SOL    HW223238   6.600   3.646   1.032
 7447SOL     OW23239   1.582   4.256   0.627
 7447SOL    HW123240   1.526   4.233   0.547
 7447SOL    HW223241   1.634   4.340   0.608
 7448SOL     OW23242   5.358   0.316   5.257
 7448SOL    HW123243   5.416   0.284   5.331
 7448SOL    HW223244   5.265   0.284   5.271
 7449SOL     OW23245   4.857   1.935   2.364
 7449SOL    HW123246   4.878   1.927   2.462
 7449SOL    HW223247   4.882   1.850   2.318
 7450SOL     OW23248   4.352   2.396   3.013
 7450SOL    HW123249   4.410   2.400   2.932
 7450SOL    HW223250   4.261   2.362   2.988
 7451SOL     OW23251   1.384   1.220   4.923
 7451SOL    HW123252   1.460   1.213   4.859
 7451SOL    HW223253   1.383   1.140   4.983
 7452SOL     OW23254   2.451   0.138   4.815
 7452SOL    HW123255   2.531   0.117   4.870
 7452SOL    HW223256   2.449   0.079   4.734
 7453SOL     OW23257   5.864   6.876   5.104
 7453SOL    HW123258   5.836   6.779   5.105
 7453SOL    HW223259   5.828   6.920   5.022
 7454SOL     OW23260   1.104   3.888   2.044
 7454SOL    HW123261   1.028   3.846   1.994
 7454SOL    HW223262   1.188   3.880   1.990
 7455SOL     OW23263   5.124   2.454   1.065
 7455SOL    HW123264   5.072   2.539   1.067
 7455SOL    HW223265   5.221   2.475   1.047
 7456SOL     OW23266   1.383   3.313   4.667
 7456SOL    HW123267   1.345   3.404   4.651
 7456SOL    HW223268   1.386   3.262   4.582
 7457SOL     OW23269   5.540   1.158   5.317
 7457SOL    HW123270   5.535   1.241   5.261
 7457SOL    HW223271   5.566   1.080   5.259
 7458SOL     OW23272   2.910   0.380   0.204
 7458SOL    HW123273   2.985   0.333   0.159
 7458SOL    HW223274   2.863   0.439   0.138
 7459SOL     OW23275   5.084   6.802   6.031
 7459SOL    HW123276   5.058   6.893   6.065
 7459SOL    HW223277   5.128   6.751   6.105
 7460SOL     OW23278   1.311   4.526   0.705
 7460SOL    HW123279   1.346   4.453   0.763
 7460SOL    HW223280   1.211   4.523   0.706
 7461SOL     OW23281   5.408   0.901   5.617
 7461SOL    HW123282   5.403   0.998   5.593
 7461SOL    HW223283   5.498   0.880   5.654
 7462SOL     OW23284   2.220   2.092   2.076
 7462SOL    HW123285   2.250   1.998   2.063
 7462SOL    HW223286   2.175   2.102   2.164
 7463SOL     OW23287   4.211   3.422   1.589
 7463SOL    HW123288   4.123   3.382   1.565
 7463SOL    HW223289   4.198   3.485   1.666
 7464SOL     OW23290   4.322   6.116   0.957
 7464SOL    HW123291   4.285   6.024   0.968
 7464SOL    HW223292   4.375   6.121   0.873
 7465SOL     OW23293   2.209   0.265   1.777
 7465SOL    HW123294   2.306   0.289   1.773
 7465SOL    HW223295   2.166   0.313   1.854
 7466SOL     OW23296   0.013   0.413   6.676
 7466SOL    HW123297   0.010   0.510   6.652
 7466SOL    HW223298   7.007   0.358   6.597
 7467SOL     OW23299   6.879   2.004   1.046
 7467SOL    HW123300   6.838   2.081   0.995
 7467SOL    HW223301   6.890   1.926   0.985
 7468SOL     OW23302   5.623   1.741   3.040
 7468SOL    HW123303   5.683   1.734   3.120
 7468SOL    HW223304   5.601   1.649   3.007
 7469SOL     OW23305   0.951   0.437   6.769
 7469SOL    HW123306   0.917   0.427   6.862
 7469SOL    HW223307   0.946   0.348   6.722
 7470SOL     OW23308   0.095   2.029   2.365
 7470SOL    HW123309   0.191   2.027   2.336
 7470SOL    HW223310   0.056   2.119   2.344
 7471SOL     OW23311   6.480   6.566   5.239
 7471SOL    HW123312   6.480   6.468   5.220
 7471SOL    HW223313   6.442   6.615   5.161
 7472SOL     OW23314   3.964   0.008   4.462
 7472SOL    HW123315   4.018   6.962   4.413
 7472SOL    HW223316   3.894   6.984   4.517
 7473SOL     OW23317   6.723   3.594   4.149
 7473SOL    HW123318   6.767   3.513   4.187
 7473SOL    HW223319   6.737   3.671   4.210
 7474SOL     OW23320   3.632   0.950   4.236
 7474SOL    HW123321   3.624   1.005   4.153
 7474SOL    HW223322   3.701   0.879   4.222
 7475SOL     OW23323   3.895   0.316   1.734
 7475SOL    HW123324   3.827   0.370   1.785
 7475SOL    HW223325   3.909   0.229   1.781
 7476SOL     OW23326   4.312   5.536   4.389
 7476SOL    HW123327   4.341   5.530   4.293
 7476SOL    HW223328   4.214   5.558   4.393
 7477SOL     OW23329   4.249   0.924   3.872
 7477SOL    HW123330   4.285   0.832   3.855
 7477SOL    HW223331   4.305   0.990   3.823
 7478SOL     OW23332   2.807   3.703   6.655
 7478SOL    HW123333   2.789   3.800   6.667
 7478SOL    HW223334   2.905   3.688   6.641
 7479SOL     OW23335   4.488   0.647   0.467
 7479SOL    HW123336   4.516   0.555   0.442
 7479SOL    HW223337   4.434   0.644   0.551
 7480SOL     OW23338   5.616   5.703   1.396
 7480SOL    HW123339   5.659   5.651   1.470
 7480SOL    HW223340   5.669   5.691   1.312
 7481SOL     OW23341   5.820   4.758   0.598
 7481SOL    HW123342   5.864   4.676   0.562
 7481SOL    HW223343   5.721   4.751   0.587
 7482SOL     OW23344   4.566   1.068   2.539
 7482SOL    HW123345   4.492   1.005   2.562
 7482SOL    HW223346   4.544   1.160   2.572
 7483SOL     OW23347   3.673   2.085   4.538
 7483SOL    HW123348   3.735   2.057   4.465
 7483SOL    HW223349   3.618   2.007   4.568
 7484SOL     OW23350   1.956   6.876   1.369
 7484SOL    HW123351   1.962   6.785   1.411
 7484SOL    HW223352   2.045   6.921   1.375
 7485SOL     OW23353   3.160   5.989   5.603
 7485SOL    HW123354   3.073   6.033   5.627
 7485SOL    HW223355   3.222   6.058   5.566
 7486SOL     OW23356   3.287   6.374   5.085
 7486SOL    HW123357   3.229   6.295   5.106
 7486SOL    HW223358   3.310   6.422   5.170
 7487SOL     OW23359   2.941   6.411   3.505
 7487SOL    HW123360   2.997   6.491   3.525
 7487SOL    HW223361   2.998   6.338   3.468
 7488SOL     OW23362   2.999   7.000   5.633
 7488SOL    HW123363   2.985   7.014   5.732
 7488SOL    HW223364   3.090   6.962   5.617
 7489SOL     OW23365   4.602   1.808   4.009
 7489SOL    HW123366   4.563   1.766   3.927
 7489SOL    HW223367   4.661   1.885   3.982
 7490SOL     OW23368   0.197   0.987   0.661
 7490SOL    HW123369   0.196   0.920   0.735
 7490SOL    HW223370   0.157   0.946   0.579
 7491SOL     OW23371   6.892   5.659   6.405
 7491SOL    HW123372   6.936   5.580   6.448
 7491SOL    HW223373   6.837   5.629   6.327
 7492SOL     OW23374   1.679   2.779   5.416
 7492SOL    HW123375   1.641   2.860   5.459
 7492SOL    HW223376   1.670   2.786   5.316
 7493SOL     OW23377   5.948   4.233   6.285
 7493SOL    HW123378   5.852   4.251   6.306
 7493SOL    HW223379   5.957   4.141   6.247
 7494SOL     OW23380   5.815   0.614   1.941
 7494SOL    HW123381   5.814   0.691   2.005
 7494SOL    HW223382   5.753   0.543   1.974
 7495SOL     OW23383   2.377   1.711   0.205
 7495SOL    HW123384   2.285   1.748   0.200
 7495SOL    HW223385   2.408   1.711   0.300
 7496SOL     OW23386   0.895   5.122   5.976
 7496SOL    HW123387   0.883   5.136   5.878
 7496SOL    HW223388   0.992   5.132   5.999
 7497SOL     OW23389   2.638   5.022   2.375
 7497SOL    HW123390   2.718   5.065   2.417
 7497SOL    HW223391   2.667   4.971   2.294
 7498SOL     OW23392   2.805   1.183   4.687
 7498SOL    HW123393   2.724   1.131   4.715
 7498SOL    HW223394   2.871   1.121   4.644
 7499SOL     OW23395   5.086   6.619   4.698
 7499SOL    HW123396   5.158   6.669   4.748
 7499SOL    HW223397   5.038   6.559   4.762
 7500SOL     OW23398   4.610   5.912   2.410
 7500SOL    HW123399   4.519   5.948   2.389
 7500SOL    HW223400   4.628   5.923   2.508
 7501SOL     OW23401   1.360   3.348   3.812
 7501SOL    HW123402   1.319   3.261   3.784
 7501SOL    HW223403   1.399   3.338   3.903
 7502SOL     OW23404   1.990   0.928   5.066
 7502SOL    HW123405   2.052   0.851   5.080
 7502SOL    HW223406   2.007   0.998   5.136
 7503SOL     OW23407   2.709   0.441   6.694
 7503SOL    HW123408   2.789   0.439   6.754
 7503SOL    HW223409   2.667   0.531   6.698
 7504SOL     OW23410   3.916   6.460   3.423
 7504SOL    HW123411   3.887   6.498   3.335
 7504SOL    HW223412   3.888   6.521   3.497
 7505SOL     OW23413   2.040   1.090   5.283
 7505SOL    HW123414   2.077   1.085   5.376
 7505SOL    HW223415   1.948   1.130   5.285
 7506SOL     OW23416   3.535   0.761   2.556
 7506SOL    HW123417   3.497   0.853   2.567
 7506SOL    HW223418   3.631   0.761   2.584
 7507SOL     OW23419   0.128   5.970   6.000
 7507SOL    HW123420   0.167   6.060   6.019
 7507SOL    HW223421   0.161   5.937   5.912
 7508SOL     OW23422   5.724   6.508   3.548
 7508SOL    HW123423   5.671   6.530   3.630
 7508SOL    HW223424   5.664   6.515   3.467
 7509SOL     OW23425   5.395   4.003   6.630
 7509SOL    HW123426   5.384   3.984   6.532
 7509SOL    HW223427   5.485   4.042   6.646
 7510SOL     OW23428   3.294   4.046   5.010
 7510SOL    HW123429   3.338   4.042   4.921
 7510SOL    HW223430   3.330   3.975   5.069
 7511SOL     OW23431   1.498   0.330   2.595
 7511SOL    HW123432   1.595   0.347   2.580
 7511SOL    HW223433   1.448   0.416   2.590
 7512SOL     OW23434   2.556   2.838   1.482
 7512SOL    HW123435   2.530   2.935   1.487
 7512SOL    HW223436   2.632   2.820   1.544
 7513SOL     OW23437   0.877   2.656   5.897
 7513SOL    HW123438   0.890   2.624   5.803
 7513SOL    HW223439   0.921   2.745   5.909
 7514SOL     OW23440   2.885   6.044   1.891
 7514SOL    HW123441   2.797   6.044   1.937
 7514SOL    HW223442   2.954   6.001   1.950
 7515SOL     OW23443   0.644   6.977   2.856
 7515SOL    HW123444   0.711   0.027   2.834
 7515SOL    HW223445   0.553   7.006   2.825
 7516SOL     OW23446   6.969   0.178   4.129
 7516SOL    HW123447   6.928   0.192   4.219
 7516SOL    HW223448   6.908   0.122   4.073
 7517SOL     OW23449   0.199   3.855   1.312
 7517SOL    HW123450   0.278   3.795   1.324
 7517SOL    HW223451   0.226   3.935   1.258
 7518SOL     OW23452   4.247   5.594   3.317
 7518SOL    HW123453   4.294   5.548   3.393
 7518SOL    HW223454   4.149   5.599   3.337
 7519SOL     OW23455   1.443   6.966   4.909
 7519SOL    HW123456   1.435   6.890   4.973
 7519SOL    HW223457   1.445   0.031   4.958
 7520SOL     OW23458   1.759   6.637   2.907
 7520SOL    HW123459   1.707   6.722   2.912
 7520SOL    HW223460   1.855   6.658   2.889
 7521SOL     OW23461   4.463   4.455   5.373
 7521SOL    HW123462   4.459   4.449   5.473
 7521SOL    HW223463   4.372   4.442   5.335
 7522SOL     OW23464   2.193   1.224   0.010
 7522SOL    HW123465   2.273   1.209   0.068
 7522SOL    HW223466   2.216   1.286   6.957
 7523SOL     OW23467   5.630   0.378   5.769
 7523SOL    HW123468   5.568   0.394   5.846
 7523SOL    HW223469   5.725   0.385   5.801
 7524SOL     OW23470   0.208   1.577   5.850
 7524SOL    HW123471   0.146   1.553   5.925
 7524SOL    HW223472   0.190   1.670   5.821
 7525SOL     OW23473   2.006   0.360   0.377
 7525SOL    HW123474   2.076   0.293   0.400
 7525SOL    HW223475   1.976   0.407   0.461
 7526SOL     OW23476   3.465   3.311   4.767
 7526SOL    HW123477   3.403   3.317   4.689
 7526SOL    HW223478   3.479   3.214   4.790
 7527SOL     OW23479   5.180   4.299   2.733
 7527SOL    HW123480   5.237   4.298   2.651
 7527SOL    HW223481   5.153   4.393   2.754
 7528SOL     OW23482   4.533   3.153   0.912
 7528SOL    HW123483   4.438   3.160   0.941
 7528SOL    HW223484   4.574   3.070   0.951
 7529SOL     OW23485   4.434   1.106   3.822
 7529SOL    HW123486   4.481   1.176   3.769
 7529SOL    HW223487   4.487   1.084   3.903
 7530SOL     OW23488   6.912   3.715   2.277
 7530SOL    HW123489   6.929   3.778   2.201
 7530SOL    HW223490   6.960   3.748   2.358
 7531SOL     OW23491   4.069   1.811   3.661
 7531SOL    HW123492   4.106   1.845   3.574
 7531SOL    HW223493   4.142   1.805   3.728
 7532SOL     OW23494   5.522   6.004   2.307
 7532SOL    HW123495   5.519   5.904   2.307
 7532SOL    HW223496   5.531   6.037   2.401
 7533SOL     OW23497   3.169   1.383   4.024
 7533SOL    HW123498   3.177   1.403   3.926
 7533SOL    HW223499   3.218   1.299   4.045
 7534SOL     OW23500   4.131   6.251   5.711
 7534SOL    HW123501   4.103   6.252   5.615
 7534SOL    HW223502   4.080   6.180   5.759
 7535SOL     OW23503   2.604   2.119   5.534
 7535SOL    HW123504   2.676   2.081   5.590
 7535SOL    HW223505   2.644   2.163   5.453
 7536SOL     OW23506   4.574   5.243   4.843
 7536SOL    HW123507   4.645   5.176   4.867
 7536SOL    HW223508   4.540   5.223   4.751
 7537SOL     OW23509   1.995   4.415   4.447
 7537SOL    HW123510   1.933   4.379   4.378
 7537SOL    HW223511   2.089   4.404   4.416
 7538SOL     OW23512   3.377   3.118   2.953
 7538SOL    HW123513   3.436   3.043   2.983
 7538SOL    HW223514   3.337   3.162   3.034
 7539SOL     OW23515   1.801   3.269   5.211
 7539SOL    HW123516   1.802   3.247   5.309
 7539SOL    HW223517   1.892   3.297   5.183
 7540SOL     OW23518   2.608   0.845   7.013
 7540SOL    HW123519   2.677   0.905   0.034
 7540SOL    HW223520   2.545   0.900   6.959
 7541SOL     OW23521   6.190   2.415   5.594
 7541SOL    HW123522   6.157   2.476   5.666
 7541SOL    HW223523   6.249   2.345   5.634
 7542SOL     OW23524   1.349   6.957   5.988
 7542SOL    HW123525   1.427   6.927   5.932
 7542SOL    HW223526   1.323   0.028   5.962
 7543SOL     OW23527   4.151   2.971   0.715
 7543SOL    HW123528   4.054   2.992   0.704
 7543SOL    HW223529   4.162   2.874   0.736
 7544SOL     OW23530   1.246   2.041   2.787
 7544SOL    HW123531   1.211   2.092   2.708
 7544SOL    HW223532   1.172   2.031   2.854
 7545SOL     OW23533   4.653   6.970   2.708
 7545SOL    HW123534   4.650   6.904   2.632
 7545SOL    HW223535   4.686   6.924   2.790
 7546SOL     OW23536   5.238   0.861   0.395
 7546SOL    HW123537   5.154   0.841   0.344
 7546SOL    HW223538   5.246   0.960   0.409
 7547SOL     OW23539   3.934   0.478   0.194
 7547SOL    HW123540   3.855   0.436   0.238
 7547SOL    HW223541   4.006   0.493   0.262
 7548SOL     OW23542   2.244   1.901   1.236
 7548SOL    HW123543   2.319   1.952   1.194
 7548SOL    HW223544   2.226   1.937   1.327
 7549SOL     OW23545   5.371   1.530   2.532
 7549SOL    HW123546   5.389   1.541   2.435
 7549SOL    HW223547   5.310   1.602   2.564
 7550SOL     OW23548   1.828   5.442   2.380
 7550SOL    HW123549   1.734   5.467   2.401
 7550SOL    HW223550   1.855   5.363   2.435
 7551SOL     OW23551   4.814   3.624   6.964
 7551SOL    HW123552   4.827   3.525   6.962
 7551SOL    HW223553   4.831   3.658   0.035
 7552SOL     OW23554   2.235   5.907   4.322
 7552SOL    HW123555   2.266   5.812   4.317
 7552SOL    HW223556   2.279   5.961   4.250
 7553SOL     OW23557   4.003   4.571   5.654
 7553SOL    HW123558   3.967   4.528   5.571
 7553SOL    HW223559   3.928   4.587   5.718
 7554SOL     OW23560   5.122   1.418   0.885
 7554SOL    HW123561   5.026   1.446   0.879
 7554SOL    HW223562   5.151   1.420   0.980
 7555SOL     OW23563   0.503   5.330   5.530
 7555SOL    HW123564   0.493   5.288   5.439
 7555SOL    HW223565   0.415   5.329   5.577
 7556SOL     OW23566   1.083   3.420   4.781
 7556SOL    HW123567   1.046   3.390   4.693
 7556SOL    HW223568   1.088   3.342   4.843
 7557SOL     OW23569   4.867   4.177   6.121
 7557SOL    HW123570   4.834   4.232   6.198
 7557SOL    HW223571   4.949   4.219   6.082
 7558SOL     OW23572   2.075   2.495   4.358
 7558SOL    HW123573   2.094   2.539   4.446
 7558SOL    HW223574   2.161   2.480   4.310
 7559SOL     OW23575   6.212   5.189   0.887
 7559SOL    HW123576   6.132   5.236   0.923
 7559SOL    HW223577   6.274   5.165   0.962
 7560SOL     OW23578   4.854   6.847   1.184
 7560SOL    HW123579   4.891   6.932   1.221
 7560SOL    HW223580   4.765   6.829   1.225
 7561SOL     OW23581   0.623   3.294   0.755
 7561SOL    HW123582   0.666   3.222   0.810
 7561SOL    HW223583   0.580   3.360   0.815
 7562SOL     OW23584   5.738   6.583   5.118
 7562SOL    HW123585   5.670   6.624   5.180
 7562SOL    HW223586   5.695   6.562   5.030
 7563SOL     OW23587   2.811   0.527   2.033
 7563SOL    HW123588   2.764   0.479   2.108
 7563SOL    HW223589   2.790   0.481   1.947
 7564SOL     OW23590   5.147   6.637   2.880
 7564SOL    HW123591   5.100   6.692   2.949
 7564SOL    HW223592   5.234   6.680   2.857
 7565SOL     OW23593   5.102   5.150   6.438
 7565SOL    HW123594   5.100   5.249   6.422
 7565SOL    HW223595   5.197   5.118   6.436
 7566SOL     OW23596   0.017   5.331   4.153
 7566SOL    HW123597   0.091   5.329   4.087
 7566SOL    HW223598   6.975   5.255   4.136
 7567SOL     OW23599   2.218   4.227   5.608
 7567SOL    HW123600   2.247   4.321   5.623
 7567SOL    HW223601   2.238   4.172   5.689
 7568SOL     OW23602   5.512   5.824   3.759
 7568SOL    HW123603   5.454   5.788   3.686
 7568SOL    HW223604   5.564   5.903   3.725
 7569SOL     OW23605   4.109   5.900   6.522
 7569SOL    HW123606   4.075   5.839   6.595
 7569SOL    HW223607   4.063   5.989   6.529
 7570SOL     OW23608   5.801   4.404   4.519
 7570SOL    HW123609   5.767   4.379   4.429
 7570SOL    HW223610   5.829   4.500   4.519
 7571SOL     OW23611   5.649   3.793   2.177
 7571SOL    HW123612   5.576   3.862   2.175
 7571SOL    HW223613   5.669   3.769   2.272
 7572SOL     OW23614   4.865   0.871   4.179
 7572SOL    HW123615   4.874   0.963   4.216
 7572SOL    HW223616   4.846   0.806   4.253
 7573SOL     OW23617   6.902   5.725   4.790
 7573SOL    HW123618   6.985   5.672   4.808
 7573SOL    HW223619   6.879   5.720   4.693
 7574SOL     OW23620   6.365   1.079   3.443
 7574SOL    HW123621   6.365   1.067   3.542
 7574SOL    HW223622   6.418   1.006   3.401
 7575SOL     OW23623   4.265   1.429   5.863
 7575SOL    HW123624   4.204   1.350   5.859
 7575SOL    HW223625   4.216   1.510   5.831
 7576SOL     OW23626   5.928   4.701   0.236
 7576SOL    HW123627   5.920   4.797   0.264
 7576SOL    HW223628   5.950   4.645   0.316
 7577SOL     OW23629   6.253   0.956   4.497
 7577SOL    HW123630   6.294   0.877   4.541
 7577SOL    HW223631   6.324   1.014   4.456
 7578SOL     OW23632   2.172   6.269   4.501
 7578SOL    HW123633   2.144   6.277   4.405
 7578SOL    HW223634   2.127   6.340   4.555
 7579SOL     OW23635   3.995   1.985   2.476
 7579SOL    HW123636   3.974   1.999   2.573
 7579SOL    HW223637   3.927   2.033   2.420
 7580SOL     OW23638   1.486   3.574   3.103
 7580SOL    HW123639   1.483   3.593   3.201
 7580SOL    HW223640   1.581   3.560   3.075
 7581SOL     OW23641   5.334   1.577   0.796
 7581SOL    HW123642   5.317   1.669   0.831
 7581SOL    HW223643   5.247   1.536   0.768
 7582SOL     OW23644   3.907   1.699   0.316
 7582SOL    HW123645   3.992   1.647   0.326
 7582SOL    HW223646   3.834   1.637   0.289
 7583SOL     OW23647   5.836   4.071   2.020
 7583SOL    HW123648   5.855   4.086   2.117
 7583SOL    HW223649   5.787   3.984   2.009
 7584SOL     OW23650   2.937   6.631   1.157
 7584SOL    HW123651   2.865   6.699   1.144
 7584SOL    HW223652   2.926   6.586   1.245
 7585SOL     OW23653   1.907   4.249   6.734
 7585SOL    HW123654   1.867   4.240   6.643
 7585SOL    HW223655   1.834   4.240   6.803
 7586SOL     OW23656   2.808   0.251   2.739
 7586SOL    HW123657   2.847   0.160   2.754
 7586SOL    HW223658   2.737   0.245   2.669
 7587SOL     OW23659   1.897   1.885   0.056
 7587SOL    HW123660   1.944   1.826   0.122
 7587SOL    HW223661   1.918   1.854   6.984
 7588SOL     OW23662   0.586   5.125   2.142
 7588SOL    HW123663   0.653   5.132   2.068
 7588SOL    HW223664   0.612   5.051   2.204
 7589SOL     OW23665   5.938   5.940   0.149
 7589SOL    HW123666   5.860   6.002   0.139
 7589SOL    HW223667   6.020   5.992   0.171
 7590SOL     OW23668   2.661   1.835   5.292
 7590SOL    HW123669   2.567   1.832   5.325
 7590SOL    HW223670   2.662   1.856   5.194
 7591SOL     OW23671   0.222   4.755   0.372
 7591SOL    HW123672   0.283   4.727   0.297
 7591SOL    HW223673   0.265   4.829   0.424
 7592SOL     OW23674   6.342   4.926   6.902
 7592SOL    HW123675   6.279   4.852   6.927
 7592SOL    HW223676   6.306   5.013   6.935
 7593SOL     OW23677   5.685   2.704   0.078
 7593SOL    HW123678   5.666   2.711   0.176
 7593SOL    HW223679   5.604   2.670   0.031
 7594SOL     OW23680   0.814   5.304   3.261
 7594SOL    HW123681   0.878   5.337   3.331
 7594SOL    HW223682   0.725   5.348   3.274
 7595SOL     OW23683   0.184   3.854   6.354
 7595SOL    HW123684   0.217   3.946   6.375
 7595SOL    HW223685   0.261   3.793   6.340
 7596SOL     OW23686   5.247   4.855   2.748
 7596SOL    HW123687   5.232   4.759   2.723
 7596SOL    HW223688   5.306   4.860   2.829
 7597SOL     OW23689   3.168   5.344   1.996
 7597SOL    HW123690   3.205   5.395   1.918
 7597SOL    HW223691   3.081   5.385   2.024
 7598SOL     OW23692   6.890   0.371   2.684
 7598SOL    HW123693   6.793   0.346   2.690
 7598SOL    HW223694   6.898   0.470   2.673
 7599SOL     OW23695   5.800   1.490   3.065
 7599SOL    HW123696   5.857   1.494   3.147
 7599SOL    HW223697   5.849   1.532   2.988
 7600SOL     OW23698   1.530   0.065   2.492
 7600SOL    HW123699   1.530   0.165   2.501
 7600SOL    HW223700   1.619   0.029   2.521
 7601SOL     OW23701   2.063   5.906   3.424
 7601SOL    HW123702   2.142   5.965   3.409
 7601SOL    HW223703   1.983   5.961   3.446
 7602SOL     OW23704   2.304   4.421   4.749
 7602SOL    HW123705   2.286   4.324   4.766
 7602SOL    HW223706   2.350   4.461   4.828
 7603SOL     OW23707   1.172   6.197   6.802
 7603SOL    HW123708   1.197   6.120   6.861
 7603SOL    HW223709   1.073   6.200   6.792
 7604SOL     OW23710   3.584   5.848   4.054
 7604SOL    HW123711   3.640   5.830   3.973
 7604SOL    HW223712   3.498   5.890   4.027
 7605SOL     OW23713   1.638   5.206   0.008
 7605SOL    HW123714   1.680   5.133   0.062
 7605SOL    HW223715   1.545   5.178   7.002
 7606SOL     OW23716   0.286   2.929   2.102
 7606SOL    HW123717   0.363   2.952   2.043
 7606SOL    HW223718   0.236   3.012   2.127
 7607SOL     OW23719   4.865   6.959   0.417
 7607SOL    HW123720   4.795   6.901   0.457
 7607SOL    HW223721   4.890   0.010   0.482
 7608SOL     OW23722   2.987   3.860   2.951
 7608SOL    HW123723   3.054   3.926   2.985
 7608SOL    HW223724   3.018   3.823   2.863
 7609SOL     OW23725   0.019   3.621   3.413
 7609SOL    HW123726   0.059   3.709   3.440
 7609SOL    HW223727   0.091   3.562   3.376
 7610SOL     OW23728   6.054   0.517   1.175
 7610SOL    HW123729   6.032   0.501   1.079
 7610SOL    HW223730   6.062   0.616   1.191
 7611SOL     OW23731   1.373   1.795   6.857
 7611SOL    HW123732   1.411   1.888   6.854
 7611SOL    HW223733   1.448   1.729   6.860
 7612SOL     OW23734   3.835   1.298   4.105
 7612SOL    HW123735   3.773   1.302   4.183
 7612SOL    HW223736   3.782   1.305   4.020
 7613SOL     OW23737   4.817   1.377   1.277
 7613SOL    HW123738   4.803   1.338   1.187
 7613SOL    HW223739   4.740   1.354   1.337
 7614SOL     OW23740   3.955   2.157   1.941
 7614SOL    HW123741   4.040   2.203   1.916
 7614SOL    HW223742   3.877   2.215   1.914
 7615SOL     OW23743   4.382   5.084   6.580
 7615SOL    HW123744   4.464   5.138   6.601
 7615SOL    HW223745   4.370   5.080   6.481
 7616SOL     OW23746   0.688   3.979   4.448
 7616SOL    HW123747   0.645   3.968   4.358
 7616SOL    HW223748   0.618   4.007   4.515
 7617SOL     OW23749   2.817   6.103   3.614
 7617SOL    HW123750   2.815   6.202   3.603
 7617SOL    HW223751   2.911   6.070   3.608
 7618SOL     OW23752   1.198   2.193   6.578
 7618SOL    HW123753   1.248   2.268   6.534
 7618SOL    HW223754   1.185   2.215   6.675
 7619SOL     OW23755   5.558   2.896   5.399
 7619SOL    HW123756   5.469   2.915   5.440
 7619SOL    HW223757   5.616   2.850   5.465
 7620SOL     OW23758   3.799   0.284   0.795
 7620SOL    HW123759   3.707   0.262   0.826
 7620SOL    HW223760   3.865   0.222   0.839
 7621SOL     OW23761   1.121   0.592   0.480
 7621SOL    HW123762   1.075   0.512   0.443
 7621SOL    HW223763   1.135   0.660   0.408
 7622SOL     OW23764   4.983   2.564   1.824
 7622SOL    HW123765   4.912   2.616   1.869
 7622SOL    HW223766   4.981   2.583   1.725
 7623SOL     OW23767   4.344   5.920   6.365
 7623SOL    HW123768   4.431   5.902   6.412
 7623SOL    HW223769   4.268   5.895   6.425
 7624SOL     OW23770   0.203   2.280   3.515
 7624SOL    HW123771   0.285   2.315   3.560
 7624SOL    HW223772   0.217   2.279   3.416
 7625SOL     OW23773   5.593   1.258   0.709
 7625SOL    HW123774   5.671   1.200   0.687
 7625SOL    HW223775   5.590   1.275   0.807
 7626SOL     OW23776   0.152   6.606   5.136
 7626SOL    HW123777   0.070   6.634   5.086
 7626SOL    HW223778   0.164   6.507   5.129
 7627SOL     OW23779   6.499   3.174   0.933
 7627SOL    HW123780   6.421   3.226   0.969
 7627SOL    HW223781   6.494   3.080   0.967
 7628SOL     OW23782   2.655   0.547   1.517
 7628SOL    HW123783   2.573   0.490   1.510
 7628SOL    HW223784   2.629   0.638   1.548
 7629SOL     OW23785   6.382   6.234   2.242
 7629SOL    HW123786   6.449   6.165   2.215
 7629SOL    HW223787   6.295   6.189   2.265
 7630SOL     OW23788   6.478   6.694   2.365
 7630SOL    HW123789   6.391   6.647   2.348
 7630SOL    HW223790   6.543   6.672   2.293
 7631SOL     OW23791   1.052   1.940   5.140
 7631SOL    HW123792   1.105   1.916   5.059
 7631SOL    HW223793   1.029   2.037   5.138
 7632SOL     OW23794   4.309   2.207   1.128
 7632SOL    HW123795   4.269   2.217   1.219
 7632SOL    HW223796   4.316   2.110   1.105
 7633SOL     OW23797   5.272   3.186   0.215
 7633SOL    HW123798   5.316   3.101   0.188
 7633SOL    HW223799   5.341   3.257   0.229
 7634SOL     OW23800   1.182   1.124   2.469
 7634SOL    HW123801   1.120   1.109   2.392
 7634SOL    HW223802   1.143   1.194   2.529
 7635SOL     OW23803   2.597   5.638   5.436
 7635SOL    HW123804   2.665   5.608   5.369
 7635SOL    HW223805   2.635   5.634   5.528
 7636SOL     OW23806   1.380   1.338   3.985
 7636SOL    HW123807   1.302   1.357   3.926
 7636SOL    HW223808   1.409   1.243   3.972
 7637SOL     OW23809   1.628   6.676   4.114
 7637SOL    HW123810   1.598   6.730   4.193
 7637SOL    HW223811   1.649   6.738   4.038
 7638SOL     OW23812   5.869   5.777   1.678
 7638SOL    HW123813   5.965   5.801   1.692
 7638SOL    HW223814   5.816   5.802   1.759
 7639SOL     OW23815   0.628   1.760   6.527
 7639SOL    HW123816   0.727   1.752   6.523
 7639SOL    HW223817   0.596   1.820   6.453
 7640SOL     OW23818   2.473   2.489   0.668
 7640SOL    HW123819   2.498   2.392   0.662
 7640SOL    HW223820   2.504   2.525   0.755
 7641SOL     OW23821   0.494   4.711   1.877
 7641SOL    HW123822   0.452   4.651   1.946
 7641SOL    HW223823   0.424   4.770   1.838
 7642SOL     OW23824   2.636   1.876   2.629
 7642SOL    HW123825   2.674   1.913   2.715
 7642SOL    HW223826   2.538   1.892   2.627
 7643SOL     OW23827   4.468   2.466   3.525
 7643SOL    HW123828   4.468   2.509   3.615
 7643SOL    HW223829   4.413   2.382   3.527
 7644SOL     OW23830   6.570   2.446   2.453
 7644SOL    HW123831   6.506   2.514   2.488
 7644SOL    HW223832   6.520   2.362   2.432
 7645SOL     OW23833   4.612   5.213   6.588
 7645SOL    HW123834   4.703   5.182   6.561
 7645SOL    HW223835   4.621   5.286   6.656
 7646SOL     OW23836   1.844   2.429   2.366
 7646SOL    HW123837   1.891   2.461   2.285
 7646SOL    HW223838   1.841   2.502   2.435
 7647SOL     OW23839   1.391   3.254   1.519
 7647SOL    HW123840   1.370   3.331   1.458
 7647SOL    HW223841   1.444   3.287   1.597
 7648SOL     OW23842   4.226   1.454   3.383
 7648SOL    HW123843   4.206   1.383   3.316
 7648SOL    HW223844   4.144   1.471   3.439
 7649SOL     OW23845   0.743   0.620   2.152
 7649SOL    HW123846   0.756   0.615   2.252
 7649SOL    HW223847   0.721   0.529   2.117
 7650SOL     OW23848   6.400   3.142   2.142
 7650SOL    HW123849   6.387   3.155   2.044
 7650SOL    HW223850   6.424   3.229   2.185
 7651SOL     OW23851   2.457   0.284   0.214
 7651SOL    HW123852   2.499   0.200   0.250
 7651SOL    HW223853   2.511   0.318   0.138
 7652SOL     OW23854   5.871   3.619   4.167
 7652SOL    HW123855   5.783   3.638   4.210
 7652SOL    HW223856   5.942   3.674   4.210
 7653SOL     OW23857   2.375   1.170   1.046
 7653SOL    HW123858   2.303   1.177   0.978
 7653SOL    HW223859   2.421   1.258   1.055
 7654SOL     OW23860   4.748   2.333   3.325
 7654SOL    HW123861   4.676   2.337   3.394
 7654SOL    HW223862   4.708   2.310   3.236
 7655SOL     OW23863   4.088   6.795   4.224
 7655SOL    HW123864   4.070   6.773   4.129
 7655SOL    HW223865   4.174   6.846   4.231
 7656SOL     OW23866   0.399   5.620   5.884
 7656SOL    HW123867   0.479   5.570   5.916
 7656SOL    HW223868   0.326   5.614   5.952
 7657SOL     OW23869   3.112   2.106   3.089
 7657SOL    HW123870   3.091   2.203   3.080
 7657SOL    HW223871   3.138   2.069   3.000
 7658SOL     OW23872   4.427   0.596   6.497
 7658SOL    HW123873   4.476   0.515   6.465
 7658SOL    HW223874   4.386   0.643   6.418
 7659SOL     OW23875   5.890   6.937   0.809
 7659SOL    HW123876   5.826   6.996   0.760
 7659SOL    HW223877   5.948   6.993   0.868
 7660SOL     OW23878   5.399   6.083   3.967
 7660SOL    HW123879   5.364   6.051   3.879
 7660SOL    HW223880   5.451   6.167   3.954
 7661SOL     OW23881   5.987   2.216   4.664
 7661SOL    HW123882   5.998   2.284   4.737
 7661SOL    HW223883   6.042   2.135   4.685
 7662SOL     OW23884   1.521   2.698   1.920
 7662SOL    HW123885   1.610   2.652   1.917
 7662SOL    HW223886   1.464   2.663   1.846
 7663SOL     OW23887   6.920   5.411   6.525
 7663SOL    HW123888   6.826   5.421   6.557
 7663SOL    HW223889   6.982   5.410   6.604
 7664SOL     OW23890   3.042   5.999   2.502
 7664SOL    HW123891   2.958   6.047   2.525
 7664SOL    HW223892   3.021   5.905   2.476
 7665SOL     OW23893   3.268   0.230   3.823
 7665SOL    HW123894   3.252   0.211   3.727
 7665SOL    HW223895   3.247   0.149   3.878
 7666SOL     OW23896   0.176   6.690   1.300
 7666SOL    HW123897   0.189   6.667   1.396
 7666SOL    HW223898   0.257   6.738   1.266
 7667SOL     OW23899   4.688   6.096   6.917
 7667SOL    HW123900   4.711   5.999   6.907
 7667SOL    HW223901   4.749   6.150   6.859
 7668SOL     OW23902   3.487   4.004   1.681
 7668SOL    HW123903   3.407   4.014   1.622
 7668SOL    HW223904   3.535   3.920   1.658
 7669SOL     OW23905   5.484   0.827   4.674
 7669SOL    HW123906   5.433   0.749   4.638
 7669SOL    HW223907   5.519   0.882   4.598
 7670SOL     OW23908   1.435   5.547   6.511
 7670SOL    HW123909   1.535   5.548   6.516
 7670SOL    HW223910   1.405   5.592   6.427
 7671SOL     OW23911   4.556   1.246   4.380
 7671SOL    HW123912   4.558   1.316   4.309
 7671SOL    HW223913   4.630   1.261   4.445
 7672SOL     OW23914   6.110   0.132   3.816
 7672SOL    HW123915   6.096   0.200   3.744
 7672SOL    HW223916   6.121   0.042   3.775
 7673SOL     OW23917   1.381   4.771   0.834
 7673SOL    HW123918   1.480   4.785   0.824
 7673SOL    HW223919   1.356   4.682   0.795
 7674SOL     OW23920   6.598   1.956   4.702
 7674SOL    HW123921   6.667   1.991   4.764
 7674SOL    HW223922   6.640   1.934   4.614
 7675SOL     OW23923   5.117   0.521   2.201
 7675SOL    HW123924   5.140   0.457   2.274
 7675SOL    HW223925   5.033   0.569   2.224
 7676SOL     OW23926   0.578   1.456   6.576
 7676SOL    HW123927   0.580   1.555   6.557
 7676SOL    HW223928   0.525   1.410   6.505
 7677SOL     OW23929   1.515   3.201   2.012
 7677SOL    HW123930   1.515   3.249   1.924
 7677SOL    HW223931   1.495   3.105   1.997
 7678SOL     OW23932   1.260   0.810   6.325
 7678SOL    HW123933   1.299   0.718   6.327
 7678SOL    HW223934   1.306   0.864   6.254
 7679SOL     OW23935   1.048   5.335   4.935
 7679SOL    HW123936   1.092   5.368   5.018
 7679SOL    HW223937   1.038   5.236   4.939
 7680SOL     OW23938   3.013   3.325   6.834
 7680SOL    HW123939   3.006   3.387   6.912
 7680SOL    HW223940   3.101   3.277   6.837
 7681SOL     OW23941   2.980   0.616   0.646
 7681SOL    HW123942   2.926   0.695   0.676
 7681SOL    HW223943   2.934   0.571   0.570
 7682SOL     OW23944   2.478   6.419   1.908
 7682SOL    HW123945   2.432   6.363   1.839
 7682SOL    HW223946   2.529   6.492   1.862
 7683SOL     OW23947   6.502   2.749   2.969
 7683SOL    HW123948   6.545   2.711   3.051
 7683SOL    HW223949   6.404   2.761   2.986
 7684SOL     OW23950   5.593   2.697   6.616
 7684SOL    HW123951   5.539   2.631   6.565
 7684SOL    HW223952   5.659   2.741   6.555
 7685SOL     OW23953   3.954   2.750   0.262
 7685SOL    HW123954   4.030   2.812   0.240
 7685SOL    HW223955   3.906   2.726   0.178
 7686SOL     OW23956   4.388   0.125   2.805
 7686SOL    HW123957   4.410   0.103   2.900
 7686SOL    HW223958   4.465   0.101   2.746
 7687SOL     OW23959   5.298   5.669   5.884
 7687SOL    HW123960   5.274   5.677   5.981
 7687SOL    HW223961   5.343   5.581   5.868
 7688SOL     OW23962   6.885   6.644   6.108
 7688SOL    HW123963   6.966   6.645   6.050
 7688SOL    HW223964   6.809   6.603   6.059
 7689SOL     OW23965   4.823   6.040   4.306
 7689SOL    HW123966   4.863   5.963   4.256
 7689SOL    HW223967   4.771   6.006   4.384
 7690SOL     OW23968   5.555   5.221   3.136
 7690SOL    HW123969   5.460   5.191   3.140
 7690SOL    HW223970   5.563   5.311   3.178
 7691SOL     OW23971   4.821   2.970   4.006
 7691SOL    HW123972   4.896   3.035   3.994
 7691SOL    HW223973   4.775   2.955   3.918
 7692SOL     OW23974   1.296   6.571   0.934
 7692SOL    HW123975   1.263   6.477   0.932
 7692SOL    HW223976   1.361   6.582   1.009
 7693SOL     OW23977   4.054   0.930   6.584
 7693SOL    HW123978   4.049   0.853   6.647
 7693SOL    HW223979   4.147   0.940   6.550
 7694SOL     OW23980   0.564   4.561   3.711
 7694SOL    HW123981   0.532   4.526   3.799
 7694SOL    HW223982   0.635   4.501   3.675
 7695SOL     OW23983   4.168   0.901   0.854
 7695SOL    HW123984   4.101   0.942   0.915
 7695SOL    HW223985   4.133   0.901   0.760
 7696SOL     OW23986   0.019   2.271   4.226
 7696SOL    HW123987   0.092   2.236   4.167
 7696SOL    HW223988   0.029   2.370   4.236
 7697SOL     OW23989   2.082   1.620   3.271
 7697SOL    HW123990   2.021   1.558   3.220
 7697SOL    HW223991   2.126   1.683   3.207
 7698SOL     OW23992   6.850   3.129   4.630
 7698SOL    HW123993   6.935   3.181   4.634
 7698SOL    HW223994   6.846   3.066   4.708
 7699SOL     OW23995   2.193   5.826   6.844
 7699SOL    HW123996   2.130   5.750   6.861
 7699SOL    HW223997   2.279   5.811   6.893
 7700SOL     OW23998   4.687   6.961   5.462
 7700SOL    HW123999   4.712   0.007   5.392
 7700SOL    HW224000   4.770   6.925   5.505
 7701SOL     OW24001   6.372   0.996   6.052
 7701SOL    HW124002   6.374   1.079   5.996
 7701SOL    HW224003   6.284   0.990   6.100
 7702SOL     OW24004   3.544   6.401   5.987
 7702SOL    HW124005   3.507   6.333   6.051
 7702SOL    HW224006   3.501   6.490   6.004
 7703SOL     OW24007   6.408   1.477   5.357
 7703SOL    HW124008   6.325   1.494   5.304
 7703SOL    HW224009   6.394   1.400   5.418
 7704SOL     OW24010   4.231   4.870   6.404
 7704SOL    HW124011   4.139   4.838   6.379
 7704SOL    HW224012   4.270   4.810   6.474
 7705SOL     OW24013   3.565   4.959   5.043
 7705SOL    HW124014   3.476   4.962   4.997
 7705SOL    HW224015   3.635   4.997   4.982
 7706SOL     OW24016   5.867   0.497   5.481
 7706SOL    HW124017   5.941   0.523   5.543
 7706SOL    HW224018   5.903   0.490   5.387
 7707SOL     OW24019   0.197   5.522   6.301
 7707SOL    HW124020   0.188   5.435   6.253
 7707SOL    HW224021   0.198   5.506   6.400
 7708SOL     OW24022   5.175   6.084   5.061
 7708SOL    HW124023   5.159   6.180   5.086
 7708SOL    HW224024   5.087   6.037   5.053
 7709SOL     OW24025   4.635   2.378   2.211
 7709SOL    HW124026   4.543   2.340   2.221
 7709SOL    HW224027   4.702   2.304   2.217
 7710SOL     OW24028   2.588   6.809   0.782
 7710SOL    HW124029   2.570   6.771   0.692
 7710SOL    HW224030   2.685   6.798   0.805
 7711SOL     OW24031   6.027   6.253   5.602
 7711SOL    HW124032   6.068   6.343   5.615
 7711SOL    HW224033   6.099   6.187   5.582
 7712SOL     OW24034   6.383   5.192   1.583
 7712SOL    HW124035   6.444   5.238   1.518
 7712SOL    HW224036   6.309   5.147   1.533
 7713SOL     OW24037   1.954   4.203   0.499
 7713SOL    HW124038   1.944   4.254   0.585
 7713SOL    HW224039   1.918   4.111   0.511
 7714SOL     OW24040   6.400   4.440   4.062
 7714SOL    HW124041   6.455   4.508   4.015
 7714SOL    HW224042   6.305   4.472   4.069
 7715SOL     OW24043   4.815   0.912   1.106
 7715SOL    HW124044   4.893   0.920   1.168
 7715SOL    HW224045   4.833   0.840   1.039
 7716SOL     OW24046   4.656   2.544   2.416
 7716SOL    HW124047   4.641   2.527   2.319
 7716SOL    HW224048   4.582   2.504   2.469
 7717SOL     OW24049   2.904   1.429   4.734
 7717SOL    HW124050   2.849   1.346   4.727
 7717SOL    HW224051   2.865   1.490   4.802
 7718SOL     OW24052   1.966   1.746   3.007
 7718SOL    HW124053   1.940   1.813   3.076
 7718SOL    HW224054   1.884   1.702   2.970
 7719SOL     OW24055   0.148   3.137   4.417
 7719SOL    HW124056   0.151   3.059   4.479
 7719SOL    HW224057   0.100   3.112   4.333
 7720SOL     OW24058   6.155   6.412   0.592
 7720SOL    HW124059   6.186   6.341   0.656
 7720SOL    HW224060   6.110   6.368   0.514
 7721SOL     OW24061   1.919   4.101   2.804
 7721SOL    HW124062   1.891   4.159   2.728
 7721SOL    HW224063   1.988   4.035   2.772
 7722SOL     OW24064   6.653   5.429   3.146
 7722SOL    HW124065   6.565   5.474   3.130
 7722SOL    HW224066   6.637   5.341   3.190
 7723SOL     OW24067   0.004   3.219   0.472
 7723SOL    HW124068   6.967   3.299   0.485
 7723SOL    HW224069   0.050   3.196   0.558
 7724SOL     OW24070   1.688   4.357   1.673
 7724SOL    HW124071   1.780   4.397   1.673
 7724SOL    HW224072   1.691   4.267   1.628
 7725SOL     OW24073   5.266   2.582   3.163
 7725SOL    HW124074   5.203   2.570   3.087
 7725SOL    HW224075   5.333   2.508   3.163
 7726SOL     OW24076   0.230   4.739   3.422
 7726SOL    HW124077   0.223   4.646   3.388
 7726SOL    HW224078   0.318   4.751   3.469
 7727SOL     OW24079   5.972   2.262   3.822
 7727SOL    HW124080   6.023   2.330   3.875
 7727SOL    HW224081   6.006   2.171   3.845
 7728SOL     OW24082   1.615   3.077   2.831
 7728SOL    HW124083   1.591   3.056   2.736
 7728SOL    HW224084   1.602   3.175   2.847
 7729SOL     OW24085   5.781   2.158   1.140
 7729SOL    HW124086   5.712   2.191   1.076
 7729SOL    HW224087   5.736   2.119   1.220
 7730SOL     OW24088   5.469   6.274   2.912
 7730SOL    HW124089   5.378   6.234   2.913
 7730SOL    HW224090   5.531   6.217   2.966
 7731SOL     OW24091   6.466   1.022   0.251
 7731SOL    HW124092   6.409   1.051   0.327
 7731SOL    HW224093   6.409   1.003   0.171
 7732SOL     OW24094   5.123   5.942   0.618
 7732SOL    HW124095   5.157   6.014   0.679
 7732SOL    HW224096   5.062   5.982   0.550
 7733SOL     OW24097   3.841   6.972   1.272
 7733SOL    HW124098   3.857   6.951   1.175
 7733SOL    HW224099   3.861   0.047   1.289
 7734SOL     OW24100   1.775   3.258   3.251
 7734SOL    HW124101   1.761   3.178   3.192
 7734SOL    HW224102   1.764   3.341   3.198
 7735SOL     OW24103   4.583   4.680   6.655
 7735SOL    HW124104   4.600   4.636   6.743
 7735SOL    HW224105   4.671   4.707   6.614
 7736SOL     OW24106   5.342   4.529   0.533
 7736SOL    HW124107   5.389   4.492   0.613
 7736SOL    HW224108   5.315   4.454   0.472
 7737SOL     OW24109   4.855   2.135   1.169
 7737SOL    HW124110   4.775   2.119   1.112
 7737SOL    HW224111   4.877   2.233   1.169
 7738SOL     OW24112   2.279   6.238   0.869
 7738SOL    HW124113   2.243   6.268   0.781
 7738SOL    HW224114   2.337   6.310   0.907
 7739SOL     OW24115   0.922   2.637   0.520
 7739SOL    HW124116   0.896   2.547   0.556
 7739SOL    HW224117   0.859   2.664   0.448
 7740SOL     OW24118   0.119   6.834   2.351
 7740SOL    HW124119   0.210   6.793   2.339
 7740SOL    HW224120   0.109   6.866   2.445
 7741SOL     OW24121   1.826   5.313   4.152
 7741SOL    HW124122   1.769   5.357   4.082
 7741SOL    HW224123   1.921   5.339   4.139
 7742SOL     OW24124   6.233   2.186   2.920
 7742SOL    HW124125   6.302   2.259   2.923
 7742SOL    HW224126   6.159   2.208   2.983
 7743SOL     OW24127   4.322   3.437   5.661
 7743SOL    HW124128   4.324   3.414   5.564
 7743SOL    HW224129   4.270   3.368   5.711
 7744SOL     OW24130   6.679   6.418   4.085
 7744SOL    HW124131   6.615   6.377   4.019
 7744SOL    HW224132   6.735   6.487   4.039
 7745SOL     OW24133   4.063   2.657   6.158
 7745SOL    HW124134   4.064   2.752   6.128
 7745SOL    HW224135   3.977   2.614   6.128
 7746SOL     OW24136   1.785   0.225   0.689
 7746SOL    HW124137   1.790   0.130   0.658
 7746SOL    HW224138   1.757   0.283   0.613
 7747SOL     OW24139   5.073   6.660   1.140
 7747SOL    HW124140   5.068   6.607   1.055
 7747SOL    HW224141   5.035   6.751   1.125
 7748SOL     OW24142   3.020   3.661   6.254
 7748SOL    HW124143   2.934   3.638   6.300
 7748SOL    HW224144   3.057   3.745   6.293
 7749SOL     OW24145   4.674   3.133   5.705
 7749SOL    HW124146   4.708   3.079   5.782
 7749SOL    HW224147   4.664   3.074   5.625
 7750SOL     OW24148   0.469   6.401   1.375
 7750SOL    HW124149   0.544   6.348   1.416
 7750SOL    HW224150   0.408   6.433   1.448
 7751SOL     OW24151   0.896   1.918   2.061
 7751SOL    HW124152   0.845   1.943   2.143
 7751SOL    HW224153   0.957   1.993   2.036
 7752SOL     OW24154   5.165   0.602   4.217
 7752SOL    HW124155   5.170   0.688   4.166
 7752SOL    HW224156   5.070   0.572   4.223
 7753SOL     OW24157   1.831   1.376   4.717
 7753SOL    HW124158   1.811   1.441   4.791
 7753SOL    HW224159   1.889   1.302   4.753
 7754SOL     OW24160   3.914   6.036   1.603
 7754SOL    HW124161   3.957   6.019   1.514
 7754SOL    HW224162   3.879   6.129   1.606
 7755SOL     OW24163   2.316   4.302   6.465
 7755SOL    HW124164   2.398   4.245   6.461
 7755SOL    HW224165   2.298   4.330   6.559
 7756SOL     OW24166   2.373   5.759   1.486
 7756SOL    HW124167   2.375   5.775   1.388
 7756SOL    HW224168   2.457   5.713   1.514
 7757SOL     OW24169   0.020   4.692   2.632
 7757SOL    HW124170   0.070   4.773   2.662
 7757SOL    HW224171   0.013   4.626   2.707
 7758SOL     OW24172   1.383   0.875   5.738
 7758SOL    HW124173   1.465   0.883   5.681
 7758SOL    HW224174   1.311   0.829   5.686
 7759SOL     OW24175   2.946   2.326   6.367
 7759SOL    HW124176   2.963   2.275   6.283
 7759SOL    HW224177   2.977   2.420   6.356
 7760SOL     OW24178   4.704   2.255   1.487
 7760SOL    HW124179   4.722   2.223   1.394
 7760SOL    HW224180   4.605   2.267   1.500
 7761SOL     OW24181   4.921   5.679   4.606
 7761SOL    HW124182   5.016   5.666   4.578
 7761SOL    HW224183   4.900   5.617   4.681
 7762SOL     OW24184   0.140   0.600   3.913
 7762SOL    HW124185   0.084   0.554   3.845
 7762SOL    HW224186   0.081   0.651   3.976
 7763SOL     OW24187   2.809   0.375   4.770
 7763SOL    HW124188   2.719   0.411   4.746
 7763SOL    HW224189   2.879   0.442   4.746
 7764SOL     OW24190   3.306   3.906   5.499
 7764SOL    HW124191   3.334   3.965   5.575
 7764SOL    HW224192   3.304   3.811   5.531
 7765SOL     OW24193   6.696   3.324   4.476
 7765SOL    HW124194   6.758   3.353   4.404
 7765SOL    HW224195   6.727   3.237   4.514
 7766SOL     OW24196   0.685   4.792   0.495
 7766SOL    HW124197   0.741   4.813   0.576
 7766SOL    HW224198   0.607   4.735   0.523
 7767SOL     OW24199   3.001   0.706   3.197
 7767SOL    HW124200   3.052   0.791   3.206
 7767SOL    HW224201   2.961   0.700   3.105
 7768SOL     OW24202   4.198   4.757   2.859
 7768SOL    HW124203   4.188   4.728   2.764
 7768SOL    HW224204   4.269   4.704   2.904
 7769SOL     OW24205   3.285   2.397   5.475
 7769SOL    HW124206   3.258   2.402   5.379
 7769SOL    HW224207   3.384   2.411   5.482
 7770SOL     OW24208   1.262   3.559   4.590
 7770SOL    HW124209   1.203   3.528   4.665
 7770SOL    HW224210   1.208   3.612   4.525
 7771SOL     OW24211   2.984   2.874   6.307
 7771SOL    HW124212   3.059   2.809   6.319
 7771SOL    HW224213   2.928   2.846   6.230
 7772SOL     OW24214   4.949   1.058   1.347
 7772SOL    HW124215   4.852   1.082   1.355
 7772SOL    HW224216   4.971   0.987   1.415
 7773SOL     OW24217   2.841   5.966   0.088
 7773SOL    HW124218   2.927   5.983   0.041
 7773SOL    HW224219   2.851   5.985   0.185
 7774SOL     OW24220   4.567   1.489   2.833
 7774SOL    HW124221   4.558   1.445   2.923
 7774SOL    HW224222   4.656   1.534   2.827
 7775SOL     OW24223   3.157   0.592   0.324
 7775SOL    HW124224   3.065   0.554   0.334
 7775SOL    HW224225   3.189   0.577   0.231
 7776SOL     OW24226   0.708   6.637   5.611
 7776SOL    HW124227   0.608   6.637   5.621
 7776SOL    HW224228   0.745   6.720   5.652
 7777SOL     OW24229   5.288   5.302   3.393
 7777SOL    HW124230   5.301   5.398   3.366
 7777SOL    HW224231   5.368   5.270   3.442
 7778SOL     OW24232   6.004   4.119   2.927
 7778SOL    HW124233   6.069   4.045   2.908
 7778SOL    HW224234   6.036   4.173   3.004
 7779SOL     OW24235   3.115   5.910   2.032
 7779SOL    HW124236   3.120   5.991   2.091
 7779SOL    HW224237   3.072   5.835   2.081
 7780SOL     OW24238   6.671   6.204   5.369
 7780SOL    HW124239   6.663   6.108   5.343
 7780SOL    HW224240   6.737   6.212   5.444
 7781SOL     OW24241   1.545   2.815   0.313
 7781SOL    HW124242   1.604   2.831   0.392
 7781SOL    HW224243   1.594   2.761   0.245
 7782SOL     OW24244   6.391   4.793   3.523
 7782SOL    HW124245   6.322   4.739   3.572
 7782SOL    HW224246   6.388   4.770   3.426
 7783SOL     OW24247   1.062   0.715   5.068
 7783SOL    HW124248   1.046   0.655   4.990
 7783SOL    HW224249   1.030   0.669   5.152
 7784SOL     OW24250   2.558   2.502   2.117
 7784SOL    HW124251   2.631   2.439   2.144
 7784SOL    HW224252   2.501   2.459   2.047
 7785SOL     OW24253   0.772   6.045   2.297
 7785SOL    HW124254   0.767   6.037   2.396
 7785SOL    HW224255   0.837   6.116   2.272
 7786SOL     OW24256   4.202   0.283   6.301
 7786SOL    HW124257   4.254   0.206   6.338
 7786SOL    HW224258   4.264   0.343   6.250
 7787SOL     OW24259   2.813   2.852   1.329
 7787SOL    HW124260   2.809   2.945   1.292
 7787SOL    HW224261   2.720   2.822   1.353
 7788SOL     OW24262   0.728   4.651   1.423
 7788SOL    HW124263   0.667   4.640   1.502
 7788SOL    HW224264   0.821   4.668   1.456
 7789SOL     OW24265   3.358   0.938   6.591
 7789SOL    HW124266   3.260   0.955   6.582
 7789SOL    HW224267   3.403   1.020   6.627
 7790SOL     OW24268   5.475   4.943   1.913
 7790SOL    HW124269   5.513   5.036   1.913
 7790SOL    HW224270   5.378   4.947   1.891
 7791SOL     OW24271   2.110   5.338   1.937
 7791SOL    HW124272   2.018   5.315   1.967
 7791SOL    HW224273   2.170   5.259   1.952
 7792SOL     OW24274   1.179   1.900   2.385
 7792SOL    HW124275   1.161   1.868   2.292
 7792SOL    HW224276   1.099   1.949   2.419
 7793SOL     OW24277   4.668   1.674   0.073
 7793SOL    HW124278   4.645   1.739   0.145
 7793SOL    HW224279   4.607   1.687   7.016
 7794SOL     OW24280   0.794   5.357   2.877
 7794SOL    HW124281   0.790   5.393   2.970
 7794SOL    HW224282   0.871   5.397   2.828
 7795SOL     OW24283   3.239   5.182   5.795
 7795SOL    HW124284   3.208   5.172   5.890
 7795SOL    HW224285   3.293   5.266   5.786
 7796SOL     OW24286   3.599   3.226   6.438
 7796SOL    HW124287   3.533   3.290   6.477
 7796SOL    HW224288   3.550   3.156   6.387
 7797SOL     OW24289   0.976   6.007   3.307
 7797SOL    HW124290   0.964   5.948   3.387
 7797SOL    HW224291   1.038   6.082   3.329
 7798SOL     OW24292   0.514   2.220   0.991
 7798SOL    HW124293   0.509   2.127   1.029
 7798SOL    HW224294   0.488   2.217   0.894
 7799SOL     OW24295   2.529   6.338   3.518
 7799SOL    HW124296   2.566   6.270   3.455
 7799SOL    HW224297   2.448   6.381   3.478
 7800SOL     OW24298   6.728   6.416   1.204
 7800SOL    HW124299   6.824   6.392   1.194
 7800SOL    HW224300   6.674   6.365   1.137
 7801SOL     OW24301   2.080   2.647   2.628
 7801SOL    HW124302   2.177   2.663   2.608
 7801SOL    HW224303   2.040   2.731   2.665
 7802SOL     OW24304   6.908   3.889   5.456
 7802SOL    HW124305   6.977   3.956   5.427
 7802SOL    HW224306   6.850   3.931   5.526
 7803SOL     OW24307   4.548   2.191   5.338
 7803SOL    HW124308   4.534   2.257   5.264
 7803SOL    HW224309   4.625   2.131   5.315
 7804SOL     OW24310   2.663   2.020   5.078
 7804SOL    HW124311   2.596   2.017   5.003
 7804SOL    HW224312   2.755   2.036   5.040
 7805SOL     OW24313   5.242   2.769   1.318
 7805SOL    HW124314   5.227   2.672   1.337
 7805SOL    HW224315   5.299   2.809   1.390
 7806SOL     OW24316   6.769   2.126   5.674
 7806SOL    HW124317   6.721   2.098   5.756
 7806SOL    HW224318   6.833   2.053   5.646
 7807SOL     OW24319   2.153   5.250   6.010
 7807SOL    HW124320   2.173   5.241   5.913
 7807SOL    HW224321   2.157   5.347   6.036
 7808SOL     OW24322   5.654   4.236   2.710
 7808SOL    HW124323   5.583   4.286   2.660
 7808SOL    HW224324   5.744   4.272   2.686
 7809SOL     OW24325   4.894   5.387   3.256
 7809SOL    HW124326   4.932   5.303   3.216
 7809SOL    HW224327   4.842   5.363   3.338
 7810SOL     OW24328   4.215   6.180   5.327
 7810SOL    HW124329   4.126   6.139   5.344
 7810SOL    HW224330   4.265   6.126   5.259
 7811SOL     OW24331   1.223   5.630   2.467
 7811SOL    HW124332   1.269   5.596   2.550
 7811SOL    HW224333   1.145   5.687   2.494
 7812SOL     OW24334   2.463   2.953   5.757
 7812SOL    HW124335   2.446   3.036   5.809
 7812SOL    HW224336   2.473   2.975   5.660
 7813SOL     OW24337   5.730   1.401   1.179
 7813SOL    HW124338   5.771   1.402   1.270
 7813SOL    HW224339   5.743   1.490   1.135
 7814SOL     OW24340   6.926   2.937   2.017
 7814SOL    HW124341   6.851   2.919   1.952
 7814SOL    HW224342   6.956   3.032   2.008
 7815SOL     OW24343   6.176   2.890   5.488
 7815SOL    HW124344   6.224   2.848   5.411
 7815SOL    HW224345   6.088   2.845   5.501
 7816SOL     OW24346   0.136   1.412   5.234
 7816SOL    HW124347   0.096   1.413   5.326
 7816SOL    HW224348   0.113   1.497   5.186
 7817SOL     OW24349   2.602   2.843   6.441
 7817SOL    HW124350   2.581   2.886   6.528
 7817SOL    HW224351   2.584   2.907   6.366
 7818SOL     OW24352   5.656   1.256   2.259
 7818SOL    HW124353   5.596   1.335   2.272
 7818SOL    HW224354   5.618   1.177   2.307
 7819SOL     OW24355   1.257   3.735   4.079
 7819SOL    HW124356   1.355   3.724   4.063
 7819SOL    HW224357   1.219   3.649   4.113
 7820SOL     OW24358   1.514   0.427   5.844
 7820SOL    HW124359   1.558   0.347   5.885
 7820SOL    HW224360   1.518   0.420   5.744
 7821SOL     OW24361   6.360   5.525   6.697
 7821SOL    HW124362   6.393   5.434   6.722
 7821SOL    HW224363   6.439   5.586   6.687
 7822SOL     OW24364   1.371   1.008   4.678
 7822SOL    HW124365   1.417   1.070   4.742
 7822SOL    HW224366   1.378   1.045   4.585
 7823SOL     OW24367   1.535   4.226   0.019
 7823SOL    HW124368   1.569   4.318   0.002
 7823SOL    HW224369   1.588   4.185   0.094
 7824SOL     OW24370   4.899   2.439   2.396
 7824SOL    HW124371   4.890   2.346   2.360
 7824SOL    HW224372   4.809   2.479   2.410
 7825SOL     OW24373   3.336   3.017   1.471
 7825SOL    HW124374   3.377   3.079   1.538
 7825SOL    HW224375   3.396   2.938   1.458
 7826SOL     OW24376   6.684   0.887   0.342
 7826SOL    HW124377   6.593   0.904   0.305
 7826SOL    HW224378   6.745   0.856   0.268
 7827SOL     OW24379   5.229   5.311   1.336
 7827SOL    HW124380   5.194   5.403   1.319
 7827SOL    HW224381   5.153   5.248   1.349
 7828SOL     OW24382   0.454   6.300   0.994
 7828SOL    HW124383   0.491   6.273   0.905
 7828SOL    HW224384   0.459   6.223   1.058
 7829SOL     OW24385   3.481   2.760   1.432
 7829SOL    HW124386   3.521   2.669   1.433
 7829SOL    HW224387   3.549   2.828   1.461
 7830SOL     OW24388   5.965   3.338   0.278
 7830SOL    HW124389   5.969   3.320   0.180
 7830SOL    HW224390   5.978   3.436   0.295
 7831SOL     OW24391   1.365   3.151   0.686
 7831SOL    HW124392   1.375   3.100   0.601
 7831SOL    HW224393   1.423   3.109   0.756
 7832SOL     OW24394   2.385   2.268   5.294
 7832SOL    HW124395   2.338   2.353   5.315
 7832SOL    HW224396   2.434   2.236   5.374
 7833SOL     OW24397   0.848   6.810   0.388
 7833SOL    HW124398   0.816   6.720   0.358
 7833SOL    HW224399   0.784   6.880   0.360
 7834SOL     OW24400   1.017   0.945   1.389
 7834SOL    HW124401   0.963   0.877   1.339
 7834SOL    HW224402   0.979   0.956   1.481
 7835SOL     OW24403   2.271   2.966   4.841
 7835SOL    HW124404   2.183   3.012   4.833
 7835SOL    HW224405   2.305   2.975   4.934
 7836SOL     OW24406   2.874   6.410   6.858
 7836SOL    HW124407   2.823   6.482   6.905
 7836SOL    HW224408   2.955   6.386   6.912
 7837SOL     OW24409   6.075   6.432   2.814
 7837SOL    HW124410   5.995   6.372   2.820
 7837SOL    HW224411   6.145   6.400   2.877
 7838SOL     OW24412   4.294   6.638   4.894
 7838SOL    HW124413   4.351   6.686   4.827
 7838SOL    HW224414   4.326   6.544   4.904
 7839SOL     OW24415   5.974   5.079   4.706
 7839SOL    HW124416   6.063   5.057   4.746
 7839SOL    HW224417   5.903   5.070   4.775
 7840SOL     OW24418   5.055   2.792   4.071
 7840SOL    HW124419   5.056   2.698   4.038
 7840SOL    HW224420   4.969   2.836   4.046
 7841SOL     OW24421   0.011   1.715   6.240
 7841SOL    HW124422   6.971   1.693   6.315
 7841SOL    HW224423   0.017   1.636   6.178
 7842SOL     OW24424   2.074   1.604   2.535
 7842SOL    HW124425   2.137   1.581   2.609
 7842SOL    HW224426   2.027   1.522   2.504
 7843SOL     OW24427   5.599   3.697   1.211
 7843SOL    HW124428   5.520   3.729   1.159
 7843SOL    HW224429   5.603   3.745   1.299
 7844SOL     OW24430   4.027   0.757   3.388
 7844SOL    HW124431   3.981   0.673   3.361
 7844SOL    HW224432   4.122   0.737   3.415
 7845SOL     OW24433   6.552   1.435   4.328
 7845SOL    HW124434   6.605   1.373   4.270
 7845SOL    HW224435   6.526   1.516   4.276
 7846SOL     OW24436   2.482   0.271   1.822
 7846SOL    HW124437   2.557   0.260   1.757
 7846SOL    HW224438   2.477   0.190   1.881
 7847SOL     OW24439   6.553   0.233   0.460
 7847SOL    HW124440   6.489   0.282   0.520
 7847SOL    HW224441   6.636   0.287   0.450
 7848SOL     OW24442   4.414   3.752   1.718
 7848SOL    HW124443   4.392   3.849   1.708
 7848SOL    HW224444   4.505   3.743   1.758
 7849SOL     OW24445   5.610   3.038   4.654
 7849SOL    HW124446   5.644   3.079   4.738
 7849SOL    HW224447   5.650   3.085   4.575
 7850SOL     OW24448   0.217   0.921   5.540
 7850SOL    HW124449   0.152   0.989   5.573
 7850SOL    HW224450   0.173   0.831   5.536
 7851SOL     OW24451   5.834   0.373   0.169
 7851SOL    HW124452   5.814   0.288   0.120
 7851SOL    HW224453   5.896   0.353   0.245
 7852SOL     OW24454   2.783   6.236   0.110
 7852SOL    HW124455   2.873   6.277   0.099
 7852SOL    HW224456   2.789   6.138   0.095
 7853SOL     OW24457   2.875   2.801   0.506
 7853SOL    HW124458   2.949   2.827   0.444
 7853SOL    HW224459   2.789   2.796   0.456
 7854SOL     OW24460   3.594   3.594   2.199
 7854SOL    HW124461   3.680   3.561   2.237
 7854SOL    HW224462   3.608   3.619   2.103
 7855SOL     OW24463   4.629   5.354   6.824
 7855SOL    HW124464   4.627   5.445   6.866
 7855SOL    HW224465   4.643   5.285   6.895
 7856SOL     OW24466   5.489   3.336   5.225
 7856SOL    HW124467   5.570   3.292   5.264
 7856SOL    HW224468   5.417   3.340   5.294
 7857SOL     OW24469   5.971   1.647   6.030
 7857SOL    HW124470   5.918   1.612   5.953
 7857SOL    HW224471   5.934   1.735   6.058
 7858SOL     OW24472   5.943   4.064   3.305
 7858SOL    HW124473   5.928   4.053   3.404
 7858SOL    HW224474   5.856   4.086   3.261
 7859SOL     OW24475   0.917   4.613   5.932
 7859SOL    HW124476   0.860   4.533   5.953
 7859SOL    HW224477   0.919   4.674   6.011
 7860SOL     OW24478   3.932   7.005   1.638
 7860SOL    HW124479   3.873   6.945   1.585
 7860SOL    HW224480   4.013   6.954   1.668
 7861SOL     OW24481   4.364   5.265   0.956
 7861SOL    HW124482   4.274   5.282   0.998
 7861SOL    HW224483   4.353   5.207   0.876
 7862SOL     OW24484   2.940   4.120   1.690
 7862SOL    HW124485   2.963   4.217   1.696
 7862SOL    HW224486   2.842   4.110   1.674
 7863SOL     OW24487   6.400   5.891   1.910
 7863SOL    HW124488   6.490   5.930   1.930
 7863SOL    HW224489   6.355   5.946   1.840
 7864SOL     OW24490   0.644   5.436   4.465
 7864SOL    HW124491   0.572   5.494   4.427
 7864SOL    HW224492   0.647   5.349   4.416
 7865SOL     OW24493   3.513   6.521   3.249
 7865SOL    HW124494   3.423   6.528   3.291
 7865SOL    HW224495   3.528   6.599   3.188
 7866SOL     OW24496   2.702   1.907   3.481
 7866SOL    HW124497   2.699   1.987   3.541
 7866SOL    HW224498   2.696   1.936   3.386
 7867SOL     OW24499   6.512   5.128   1.986
 7867SOL    HW124500   6.605   5.094   2.000
 7867SOL    HW224501   6.496   5.142   1.889
 7868SOL     OW24502   5.319   6.374   1.073
 7868SOL    HW124503   5.278   6.304   1.132
 7868SOL    HW224504   5.381   6.431   1.128
 7869SOL     OW24505   0.471   2.884   1.627
 7869SOL    HW124506   0.403   2.835   1.572
 7869SOL    HW224507   0.555   2.829   1.632
 7870SOL     OW24508   6.521   5.193   3.610
 7870SOL    HW124509   6.548   5.097   3.622
 7870SOL    HW224510   6.514   5.237   3.700
 7871SOL     OW24511   5.862   2.994   3.072
 7871SOL    HW124512   5.958   2.987   3.046
 7871SOL    HW224513   5.852   3.058   3.149
 7872SOL     OW24514   6.999   3.213   2.569
 7872SOL    HW124515   6.952   3.177   2.488
 7872SOL    HW224516   6.932   3.240   2.638
 7873SOL     OW24517   0.209   5.798   5.783
 7873SOL    HW124518   0.189   5.745   5.701
 7873SOL    HW224519   0.275   5.749   5.839
 7874SOL     OW24520   5.884   2.095   0.164
 7874SOL    HW124521   5.928   2.131   0.246
 7874SOL    HW224522   5.787   2.119   0.164
 7875SOL     OW24523   4.673   3.736   6.214
 7875SOL    HW124524   4.655   3.821   6.264
 7875SOL    HW224525   4.597   3.716   6.152
 7876SOL     OW24526   6.552   0.395   3.673
 7876SOL    HW124527   6.639   0.345   3.681
 7876SOL    HW224528   6.510   0.403   3.763
 7877SOL     OW24529   6.798   2.750   2.932
 7877SOL    HW124530   6.745   2.766   3.015
 7877SOL    HW224531   6.894   2.737   2.956
 7878SOL     OW24532   4.787   4.185   2.301
 7878SOL    HW124533   4.688   4.190   2.288
 7878SOL    HW224534   4.821   4.097   2.269
 7879SOL     OW24535   5.021   6.744   3.739
 7879SOL    HW124536   5.042   6.659   3.692
 7879SOL    HW224537   4.922   6.756   3.744
 7880SOL     OW24538   0.351   6.669   6.467
 7880SOL    HW124539   0.449   6.688   6.472
 7880SOL    HW224540   0.316   6.696   6.377
 7881SOL     OW24541   0.105   3.744   5.172
 7881SOL    HW124542   0.132   3.670   5.111
 7881SOL    HW224543   0.014   3.727   5.208
 7882SOL     OW24544   0.413   3.168   2.799
 7882SOL    HW124545   0.357   3.132   2.724
 7882SOL    HW224546   0.380   3.259   2.824
 7883SOL     OW24547   2.322   1.160   2.859
 7883SOL    HW124548   2.313   1.232   2.928
 7883SOL    HW224549   2.280   1.190   2.774
 7884SOL     OW24550   1.632   4.259   3.636
 7884SOL    HW124551   1.614   4.344   3.686
 7884SOL    HW224552   1.643   4.184   3.701
 7885SOL     OW24553   5.984   5.681   3.030
 7885SOL    HW124554   5.922   5.646   3.100
 7885SOL    HW224555   6.063   5.724   3.074
 7886SOL     OW24556   4.773   2.753   1.931
 7886SOL    HW124557   4.707   2.690   1.971
 7886SOL    HW224558   4.742   2.847   1.946
 7887SOL     OW24559   4.053   3.458   0.543
 7887SOL    HW124560   4.030   3.394   0.470
 7887SOL    HW224561   3.970   3.497   0.582
 7888SOL     OW24562   5.862   1.391   4.244
 7888SOL    HW124563   5.948   1.351   4.211
 7888SOL    HW224564   5.874   1.489   4.256
 7889SOL     OW24565   5.699   5.119   0.685
 7889SOL    HW124566   5.710   5.216   0.664
 7889SOL    HW224567   5.734   5.100   0.777
 7890SOL     OW24568   1.365   2.752   4.289
 7890SOL    HW124569   1.358   2.790   4.381
 7890SOL    HW224570   1.275   2.715   4.262
 7891SOL     OW24571   0.189   2.115   4.036
 7891SOL    HW124572   0.170   2.024   4.000
 7891SOL    HW224573   0.185   2.181   3.961
 7892SOL     OW24574   1.437   3.490   6.052
 7892SOL    HW124575   1.522   3.465   6.007
 7892SOL    HW224576   1.453   3.566   6.114
 7893SOL     OW24577   6.078   0.783   2.267
 7893SOL    HW124578   6.081   0.841   2.347
 7893SOL    HW224579   5.999   0.807   2.211
 7894SOL     OW24580   2.453   1.340   5.920
 7894SOL    HW124581   2.544   1.300   5.908
 7894SOL    HW224582   2.449   1.388   6.007
 7895SOL     OW24583   3.665   5.867   3.485
 7895SOL    HW124584   3.628   5.775   3.472
 7895SOL    HW224585   3.637   5.925   3.409
 7896SOL     OW24586   4.344   2.655   1.632
 7896SOL    HW124587   4.402   2.725   1.673
 7896SOL    HW224588   4.258   2.697   1.601
 7897SOL     OW24589   3.899   4.237   6.771
 7897SOL    HW124590   3.869   4.324   6.810
 7897SOL    HW224591   3.882   4.163   6.837
 7898SOL     OW24592   4.943   0.118   4.272
 7898SOL    HW124593   4.920   0.212   4.248
 7898SOL    HW224594   5.030   0.092   4.229
 7899SOL     OW24595   4.992   4.756   1.416
 7899SOL    HW124596   5.092   4.763   1.423
 7899SOL    HW224597   4.962   4.786   1.326
 7900SOL     OW24598   0.543   3.636   0.610
 7900SOL    HW124599   0.486   3.575   0.665
 7900SOL    HW224600   0.511   3.636   0.515
 7901SOL     OW24601   5.340   1.129   6.081
 7901SOL    HW124602   5.307   1.219   6.107
 7901SOL    HW224603   5.282   1.092   6.008
 7902SOL     OW24604   0.438   6.281   2.598
 7902SOL    HW124605   0.409   6.244   2.686
 7902SOL    HW224606   0.392   6.231   2.525
 7903SOL     OW24607   2.164   1.472   4.765
 7903SOL    HW124608   2.121   1.556   4.732
 7903SOL    HW224609   2.097   1.398   4.764
 7904SOL     OW24610   6.342   0.629   2.306
 7904SOL    HW124611   6.321   0.626   2.403
 7904SOL    HW224612   6.262   0.659   2.254
 7905SOL     OW24613   5.889   0.801   0.030
 7905SOL    HW124614   5.808   0.859   0.020
 7905SOL    HW224615   5.870   0.711   7.012
 7906SOL     OW24616   1.339   5.119   0.989
 7906SOL    HW124617   1.346   5.085   1.082
 7906SOL    HW224618   1.264   5.073   0.942
 7907SOL     OW24619   6.089   0.159   3.046
 7907SOL    HW124620   6.062   0.063   3.047
 7907SOL    HW224621   6.171   0.171   3.102
 7908SOL     OW24622   0.626   0.713   6.627
 7908SOL    HW124623   0.570   0.692   6.708
 7908SOL    HW224624   0.665   0.804   6.637
 7909SOL     OW24625   5.690   3.775   2.442
 7909SOL    HW124626   5.722   3.851   2.499
 7909SOL    HW224627   5.593   3.758   2.461
 7910SOL     OW24628   1.975   3.727   0.726
 7910SOL    HW124629   1.949   3.633   0.751
 7910SOL    HW224630   1.935   3.750   0.637
 7911SOL     OW24631   1.005   3.909   0.718
 7911SOL    HW124632   0.912   3.872   0.717
 7911SOL    HW224633   1.060   3.863   0.648
 7912SOL     OW24634   5.558   5.639   0.246
 7912SOL    HW124635   5.618   5.608   0.320
 7912SOL    HW224636   5.543   5.563   0.182
 7913SOL     OW24637   0.337   3.506   0.781
 7913SOL    HW124638   0.329   3.437   0.852
 7913SOL    HW224639   0.265   3.574   0.793
 7914SOL     OW24640   6.315   5.514   5.111
 7914SOL    HW124641   6.358   5.481   5.194
 7914SOL    HW224642   6.383   5.560   5.053
 7915SOL     OW24643   3.558   0.023   2.464
 7915SOL    HW124644   3.571   6.949   2.494
 7915SOL    HW224645   3.639   0.053   2.413
 7916SOL     OW24646   1.291   0.389   4.792
 7916SOL    HW124647   1.235   0.445   4.731
 7916SOL    HW224648   1.258   0.399   4.886
 7917SOL     OW24649   3.997   3.105   6.988
 7917SOL    HW124650   3.927   3.142   0.028
 7917SOL    HW224651   3.955   3.047   6.919
 7918SOL     OW24652   2.000   0.770   4.781
 7918SOL    HW124653   1.975   0.794   4.875
 7918SOL    HW224654   2.100   0.768   4.773
 7919SOL     OW24655   1.135   5.124   2.848
 7919SOL    HW124656   1.137   5.025   2.838
 7919SOL    HW224657   1.098   5.149   2.937
 7920SOL     OW24658   4.573   0.529   1.305
 7920SOL    HW124659   4.617   0.617   1.323
 7920SOL    HW224660   4.505   0.511   1.375
 7921SOL     OW24661   5.277   1.238   1.526
 7921SOL    HW124662   5.328   1.293   1.460
 7921SOL    HW224663   5.180   1.244   1.506
 7922SOL     OW24664   0.611   6.199   0.162
 7922SOL    HW124665   0.608   6.262   0.084
 7922SOL    HW224666   0.674   6.124   0.142
 7923SOL     OW24667   3.672   1.410   6.932
 7923SOL    HW124668   3.711   1.320   6.951
 7923SOL    HW224669   3.666   1.462   7.017
 7924SOL     OW24670   5.919   6.719   1.482
 7924SOL    HW124671   5.845   6.779   1.513
 7924SOL    HW224672   6.001   6.735   1.539
 7925SOL     OW24673   2.711   6.372   0.970
 7925SOL    HW124674   2.801   6.404   0.940
 7925SOL    HW224675   2.717   6.276   0.996
 7926SOL     OW24676   5.431   0.281   6.318
 7926SOL    HW124677   5.332   0.286   6.304
 7926SOL    HW224678   5.471   0.217   6.253
 7927SOL     OW24679   4.892   0.115   2.705
 7927SOL    HW124680   4.950   0.099   2.625
 7927SOL    HW224681   4.816   0.051   2.703
 7928SOL     OW24682   6.506   1.066   3.112
 7928SOL    HW124683   6.480   0.976   3.146
 7928SOL    HW224684   6.450   1.089   3.032
 7929SOL     OW24685   4.299   3.849   5.991
 7929SOL    HW124686   4.301   3.768   5.932
 7929SOL    HW224687   4.300   3.820   6.087
 7930SOL     OW24688   4.054   5.967   5.609
 7930SOL    HW124689   3.990   5.913   5.554
 7930SOL    HW224690   4.011   5.989   5.697
 7931SOL     OW24691   2.846   2.554   0.647
 7931SOL    HW124692   2.822   2.463   0.613
 7931SOL    HW224693   2.884   2.608   0.572
 7932SOL     OW24694   0.172   5.361   1.380
 7932SOL    HW124695   0.164   5.346   1.281
 7932SOL    HW224696   0.157   5.457   1.400
 7933SOL     OW24697   6.556   1.382   5.844
 7933SOL    HW124698   6.498   1.456   5.809
 7933SOL    HW224699   6.632   1.421   5.896
 7934SOL     OW24700   1.343   4.438   1.030
 7934SOL    HW124701   1.277   4.393   0.969
 7934SOL    HW224702   1.432   4.441   0.986
 7935SOL     OW24703   5.747   4.013   2.583
 7935SOL    HW124704   5.669   4.048   2.635
 7935SOL    HW224705   5.805   3.957   2.643
 7936SOL     OW24706   3.539   6.416   4.153
 7936SOL    HW124707   3.635   6.420   4.126
 7936SOL    HW224708   3.480   6.440   4.075
 7937SOL     OW24709   2.666   5.708   5.744
 7937SOL    HW124710   2.706   5.743   5.828
 7937SOL    HW224711   2.620   5.782   5.694
 7938SOL     OW24712   4.443   6.783   4.730
 7938SOL    HW124713   4.533   6.822   4.712
 7938SOL    HW224714   4.387   6.790   4.647
 7939SOL     OW24715   0.602   1.611   4.911
 7939SOL    HW124716   0.668   1.598   4.837
 7939SOL    HW224717   0.542   1.688   4.888
 7940SOL     OW24718   4.852   1.539   2.823
 7940SOL    HW124719   4.943   1.520   2.860
 7940SOL    HW224720   4.857   1.547   2.724
 7941SOL     OW24721   4.161   6.634   1.905
 7941SOL    HW124722   4.112   6.547   1.898
 7941SOL    HW224723   4.103   6.701   1.952
 7942SOL     OW24724   0.745   3.072   1.742
 7942SOL    HW124725   0.706   3.140   1.804
 7942SOL    HW224726   0.832   3.104   1.707
 7943SOL     OW24727   2.508   5.340   6.246
 7943SOL    HW124728   2.583   5.293   6.292
 7943SOL    HW224729   2.535   5.361   6.151
 7944SOL     OW24730   0.710   2.774   1.322
 7944SOL    HW124731   0.675   2.687   1.357
 7944SOL    HW224732   0.663   2.796   1.236
 7945SOL     OW24733   5.984   5.245   2.552
 7945SOL    HW124734   5.931   5.167   2.517
 7945SOL    HW224735   5.955   5.263   2.647
 7946SOL     OW24736   3.878   1.014   5.819
 7946SOL    HW124737   3.952   0.974   5.875
 7946SOL    HW224738   3.879   1.114   5.830
 7947SOL     OW24739   1.205   3.138   5.275
 7947SOL    HW124740   1.200   3.040   5.256
 7947SOL    HW224741   1.286   3.156   5.332
 7948SOL     OW24742   1.461   4.676   2.455
 7948SOL    HW124743   1.511   4.744   2.508
 7948SOL    HW224744   1.408   4.618   2.517
 7949SOL     OW24745   4.390   5.045   6.278
 7949SOL    HW124746   4.376   5.029   6.181
 7949SOL    HW224747   4.340   4.976   6.331
 7950SOL     OW24748   6.101   5.372   5.740
 7950SOL    HW124749   6.094   5.339   5.646
 7950SOL    HW224750   6.193   5.410   5.754
 7951SOL     OW24751   2.994   5.357   2.604
 7951SOL    HW124752   2.896   5.335   2.611
 7951SOL    HW224753   3.046   5.273   2.592
 7952SOL     OW24754   5.482   3.363   0.273
 7952SOL    HW124755   5.551   3.305   0.229
 7952SOL    HW224756   5.511   3.459   0.265
 7953SOL     OW24757   3.823   1.945   0.382
 7953SOL    HW124758   3.867   1.859   0.357
 7953SOL    HW224759   3.724   1.935   0.375
 7954SOL     OW24760   3.764   2.899   0.126
 7954SOL    HW124761   3.845   2.951   0.101
 7954SOL    HW224762   3.778   2.802   0.103
 7955SOL     OW24763   1.566   1.590   6.568
 7955SOL    HW124764   1.618   1.510   6.539
 7955SOL    HW224765   1.543   1.582   6.665
 7956SOL     OW24766   6.655   0.638   1.889
 7956SOL    HW124767   6.585   0.618   1.958
 7956SOL    HW224768   6.737   0.584   1.908
 7957SOL     OW24769   4.631   0.528   5.465
 7957SOL    HW124770   4.602   0.624   5.468
 7957SOL    HW224771   4.722   0.523   5.423
 7958SOL     OW24772   5.575   3.705   6.770
 7958SOL    HW124773   5.608   3.686   6.678
 7958SOL    HW224774   5.606   3.796   6.799
 7959SOL     OW24775   4.769   1.235   6.150
 7959SOL    HW124776   4.788   1.244   6.052
 7959SOL    HW224777   4.802   1.316   6.197
 7960SOL     OW24778   6.794   1.100   6.504
 7960SOL    HW124779   6.738   1.028   6.464
 7960SOL    HW224780   6.798   1.088   6.604
 7961SOL     OW24781   6.527   6.940   6.886
 7961SOL    HW124782   6.507   6.844   6.872
 7961SOL    HW224783   6.467   6.977   6.957
 7962SOL     OW24784   6.566   6.992   5.795
 7962SOL    HW124785   6.510   6.940   5.859
 7962SOL    HW224786   6.662   6.966   5.805
 7963SOL     OW24787   6.345   4.398   4.381
 7963SOL    HW124788   6.352   4.299   4.372
 7963SOL    HW224789   6.435   4.439   4.368
 7964SOL     OW24790   6.485   3.479   1.851
 7964SOL    HW124791   6.526   3.543   1.786
 7964SOL    HW224792   6.408   3.523   1.897
 7965SOL     OW24793   4.254   1.901   6.809
 7965SOL    HW124794   4.244   1.974   6.741
 7965SOL    HW224795   4.167   1.853   6.820
 7966SOL     OW24796   4.113   4.274   5.317
 7966SOL    HW124797   4.027   4.232   5.288
 7966SOL    HW224798   4.147   4.335   5.246
 7967SOL     OW24799   1.722   5.276   1.939
 7967SOL    HW124800   1.676   5.359   1.909
 7967SOL    HW224801   1.784   5.298   2.015
 7968SOL     OW24802   6.641   1.826   4.462
 7968SOL    HW124803   6.678   1.809   4.371
 7968SOL    HW224804   6.600   1.918   4.464
 7969SOL     OW24805   4.470   6.089   0.070
 7969SOL    HW124806   4.555   6.114   0.026
 7969SOL    HW224807   4.430   6.169   0.115
 7970SOL     OW24808   6.360   3.072   2.510
 7970SOL    HW124809   6.358   2.995   2.573
 7970SOL    HW224810   6.297   3.144   2.541
 7971SOL     OW24811   3.244   1.410   1.123
 7971SOL    HW124812   3.314   1.426   1.053
 7971SOL    HW224813   3.247   1.314   1.151
 7972SOL     OW24814   3.782   3.091   2.915
 7972SOL    HW124815   3.750   3.116   3.006
 7972SOL    HW224816   3.730   3.011   2.883
 7973SOL     OW24817   6.365   3.879   3.112
 7973SOL    HW124818   6.367   3.892   3.211
 7973SOL    HW224819   6.444   3.825   3.083
 7974SOL     OW24820   6.096   1.468   5.727
 7974SOL    HW124821   6.002   1.495   5.748
 7974SOL    HW224822   6.148   1.458   5.812
 7975SOL     OW24823   5.005   1.713   0.594
 7975SOL    HW124824   5.099   1.742   0.576
 7975SOL    HW224825   4.985   1.723   0.691
 7976SOL     OW24826   1.420   6.747   6.929
 7976SOL    HW124827   1.400   6.813   7.001
 7976SOL    HW224828   1.487   6.681   6.962
 7977SOL     OW24829   5.816   6.261   3.216
 7977SOL    HW124830   5.722   6.255   3.249
 7977SOL    HW224831   5.837   6.357   3.195
 7978SOL     OW24832   0.179   4.381   1.183
 7978SOL    HW124833   0.133   4.416   1.101
 7978SOL    HW224834   0.270   4.420   1.190
 7979SOL     OW24835   1.858   3.595   4.643
 7979SOL    HW124836   1.759   3.581   4.656
 7979SOL    HW224837   1.885   3.680   4.688
 7980SOL     OW24838   3.362   4.548   5.729
 7980SOL    HW124839   3.392   4.485   5.658
 7980SOL    HW224840   3.267   4.527   5.755
 7981SOL     OW24841   1.690   5.067   3.225
 7981SOL    HW124842   1.741   5.002   3.280
 7981SOL    HW224843   1.747   5.147   3.207
 7982SOL     OW24844   1.360   2.033   6.320
 7982SOL    HW124845   1.334   2.003   6.229
 7982SOL    HW224846   1.366   1.954   6.381
 7983SOL     OW24847   5.191   0.992   0.950
 7983SOL    HW124848   5.147   1.043   1.024
 7983SOL    HW224849   5.279   0.955   0.981
 7984SOL     OW24850   0.873   1.684   1.706
 7984SOL    HW124851   0.787   1.695   1.656
 7984SOL    HW224852   0.865   1.606   1.768
 7985SOL     OW24853   2.183   2.435   5.386
 7985SOL    HW124854   2.146   2.528   5.381
 7985SOL    HW224855   2.195   2.410   5.482
 7986SOL     OW24856   3.400   1.216   4.090
 7986SOL    HW124857   3.415   1.214   4.189
 7986SOL    HW224858   3.482   1.253   4.045
 7987SOL     OW24859   1.322   3.432   0.793
 7987SOL    HW124860   1.333   3.337   0.763
 7987SOL    HW224861   1.273   3.434   0.880
 7988SOL     OW24862   0.084   1.423   1.638
 7988SOL    HW124863   0.105   1.520   1.637
 7988SOL    HW224864   0.100   1.385   1.729
 7989SOL     OW24865   1.191   3.960   0.208
 7989SOL    HW124866   1.287   3.940   0.231
 7989SOL    HW224867   1.156   4.029   0.271
 7990SOL     OW24868   2.636   6.688   5.021
 7990SOL    HW124869   2.588   6.695   4.933
 7990SOL    HW224870   2.613   6.600   5.063
 7991SOL     OW24871   5.287   1.330   4.869
 7991SOL    HW124872   5.366   1.372   4.823
 7991SOL    HW224873   5.229   1.286   4.801
 7992SOL     OW24874   2.186   0.480   0.636
 7992SOL    HW124875   2.225   0.472   0.544
 7992SOL    HW224876   2.094   0.519   0.630
 7993SOL     OW24877   6.727   6.814   1.580
 7993SOL    HW124878   6.759   6.795   1.673
 7993SOL    HW224879   6.754   6.740   1.519
 7994SOL     OW24880   5.153   0.612   2.941
 7994SOL    HW124881   5.071   0.660   2.910
 7994SOL    HW224882   5.234   0.666   2.918
 7995SOL     OW24883   0.101   4.368   2.006
 7995SOL    HW124884   0.120   4.460   1.972
 7995SOL    HW224885   0.073   4.310   1.929
 7996SOL     OW24886   3.853   6.806   3.019
 7996SOL    HW124887   3.843   6.898   3.057
 7996SOL    HW224888   3.948   6.792   2.990
 7997SOL     OW24889   0.808   1.943   6.960
 7997SOL    HW124890   0.831   2.020   6.901
 7997SOL    HW224891   0.885   1.922   7.020
 7998SOL     OW24892   2.823   0.509   0.445
 7998SOL    HW124893   2.837   0.451   0.365
 7998SOL    HW224894   2.735   0.488   0.487
 7999SOL     OW24895   1.095   1.844   5.382
 7999SOL    HW124896   1.063   1.881   5.295
 7999SOL    HW224897   1.164   1.904   5.421
 8000SOL     OW24898   5.631   6.271   6.135
 8000SOL    HW124899   5.580   6.206   6.191
 8000SOL    HW224900   5.660   6.348   6.192
 8001SOL     OW24901   4.920   0.398   1.161
 8001SOL    HW124902   4.851   0.402   1.234
 8001SOL    HW224903   4.950   0.491   1.139
 8002SOL     OW24904   0.483   0.742   5.837
 8002SOL    HW124905   0.473   0.723   5.739
 8002SOL    HW224906   0.526   0.831   5.850
 8003SOL     OW24907   2.017   6.618   2.848
 8003SOL    HW124908   2.029   6.624   2.749
 8003SOL    HW224909   2.051   6.530   2.880
 8004SOL     OW24910   1.176   2.575   3.998
 8004SOL    HW124911   1.196   2.477   4.002
 8004SOL    HW224912   1.191   2.616   4.088
 8005SOL     OW24913   2.307   0.008   3.383
 8005SOL    HW124914   2.244   0.036   3.311
 8005SOL    HW224915   2.371   6.961   3.346
 8006SOL     OW24916   3.788   5.320   4.769
 8006SOL    HW124917   3.794   5.263   4.687
 8006SOL    HW224918   3.819   5.413   4.748
 8007SOL     OW24919   6.186   1.440   6.353
 8007SOL    HW124920   6.217   1.353   6.315
 8007SOL    HW224921   6.093   1.460   6.322
 8008SOL     OW24922   4.069   6.509   7.011
 8008SOL    HW124923   4.106   6.599   6.988
 8008SOL    HW224924   4.142   6.442   7.010
 8009SOL     OW24925   4.850   1.392   0.848
 8009SOL    HW124926   4.765   1.407   0.798
 8009SOL    HW224927   4.874   1.295   0.846
 8010SOL     OW24928   2.530   2.641   5.248
 8010SOL    HW124929   2.560   2.719   5.303
 8010SOL    HW224930   2.609   2.588   5.219
 8011SOL     OW24931   3.446   2.042   2.242
 8011SOL    HW124932   3.524   2.094   2.208
 8011SOL    HW224933   3.388   2.015   2.165
 8012SOL     OW24934   0.949   3.369   5.605
 8012SOL    HW124935   0.929   3.340   5.511
 8012SOL    HW224936   1.015   3.444   5.604
 8013SOL     OW24937   1.577   2.053   3.649
 8013SOL    HW124938   1.579   2.020   3.743
 8013SOL    HW224939   1.510   2.128   3.642
 8014SOL     OW24940   2.110   1.183   3.131
 8014SOL    HW124941   2.161   1.135   3.202
 8014SOL    HW224942   2.095   1.121   3.053
 8015SOL     OW24943   1.980   0.148   5.808
 8015SOL    HW124944   1.973   0.245   5.831
 8015SOL    HW224945   1.889   0.107   5.805
 8016SOL     OW24946   4.288   1.662   5.411
 8016SOL    HW124947   4.374   1.713   5.414
 8016SOL    HW224948   4.240   1.681   5.326
 8017SOL     OW24949   6.978   0.162   0.124
 8017SOL    HW124950   6.985   0.140   0.221
 8017SOL    HW224951   6.887   0.136   0.091
 8018SOL     OW24952   4.212   1.841   0.294
 8018SOL    HW124953   4.198   1.758   0.241
 8018SOL    HW224954   4.239   1.818   0.388
 8019SOL     OW24955   3.296   3.542   1.082
 8019SOL    HW124956   3.357   3.509   1.154
 8019SOL    HW224957   3.240   3.466   1.049
 8020SOL     OW24958   6.345   0.422   5.028
 8020SOL    HW124959   6.424   0.418   5.089
 8020SOL    HW224960   6.293   0.337   5.036
 8021SOL     OW24961   1.815   2.645   2.532
 8021SOL    HW124962   1.908   2.644   2.568
 8021SOL    HW224963   1.806   2.719   2.466
 8022SOL     OW24964   5.656   1.109   2.033
 8022SOL    HW124965   5.557   1.101   2.042
 8022SOL    HW224966   5.693   1.160   2.111
 8023SOL     OW24967   5.001   6.238   3.511
 8023SOL    HW124968   4.976   6.332   3.487
 8023SOL    HW224969   4.920   6.188   3.541
 8024SOL     OW24970   1.737   6.233   6.326
 8024SOL    HW124971   1.728   6.207   6.229
 8024SOL    HW224972   1.805   6.305   6.335
 8025SOL     OW24973   1.927   4.800   1.780
 8025SOL    HW124974   1.922   4.878   1.718
 8025SOL    HW224975   1.837   4.758   1.789
 8026SOL     OW24976   0.335   4.791   0.025
 8026SOL    HW124977   0.375   4.735   0.098
 8026SOL    HW224978   0.404   4.853   7.009
 8027SOL     OW24979   4.213   5.795   5.946
 8027SOL    HW124980   4.143   5.798   6.017
 8027SOL    HW224981   4.218   5.703   5.907
 8028SOL     OW24982   3.130   5.358   4.182
 8028SOL    HW124983   3.150   5.451   4.150
 8028SOL    HW224984   3.068   5.314   4.117
 8029SOL     OW24985   6.176   1.386   1.337
 8029SOL    HW124986   6.184   1.310   1.401
 8029SOL    HW224987   6.174   1.350   1.243
 8030SOL     OW24988   5.937   4.792   1.017
 8030SOL    HW124989   6.001   4.758   0.948
 8030SOL    HW224990   5.893   4.715   1.062
 8031SOL     OW24991   5.856   0.660   2.993
 8031SOL    HW124992   5.953   0.666   3.013
 8031SOL    HW224993   5.822   0.570   3.018
 8032SOL     OW24994   5.518   2.996   1.461
 8032SOL    HW124995   5.457   3.073   1.480
 8032SOL    HW224996   5.484   2.914   1.506
 8033SOL     OW24997   3.501   4.415   0.551
 8033SOL    HW124998   3.594   4.393   0.521
 8033SOL    HW224999   3.460   4.480   0.487
 8034SOL     OW25000   5.985   0.279   4.803
 8034SOL    HW125001   5.997   0.274   4.703
 8034SOL    HW225002   5.927   0.357   4.826
 8035SOL     OW25003   4.518   1.270   3.002
 8035SOL    HW125004   4.591   1.209   2.973
 8035SOL    HW225005   4.517   1.277   3.102
 8036SOL     OW25006   6.603   2.755   4.146
 8036SOL    HW125007   6.644   2.831   4.197
 8036SOL    HW225008   6.674   2.707   4.095
 8037SOL     OW25009   1.556   2.952   6.292
 8037SOL    HW125010   1.532   3.046   6.316
 8037SOL    HW225011   1.498   2.888   6.343
 8038SOL     OW25012   6.017   6.142   2.482
 8038SOL    HW125013   5.958   6.218   2.452
 8038SOL    HW225014   6.067   6.105   2.404
 8039SOL     OW25015   0.733   2.353   5.864
 8039SOL    HW125016   0.671   2.421   5.903
 8039SOL    HW225017   0.725   2.268   5.916
 8040SOL     OW25018   1.638   5.868   5.707
 8040SOL    HW125019   1.726   5.907   5.682
 8040SOL    HW225020   1.650   5.772   5.731
 8041SOL     OW25021   3.339   1.661   3.170
 8041SOL    HW125022   3.241   1.651   3.152
 8041SOL    HW225023   3.361   1.623   3.259
 8042SOL     OW25024   4.343   4.365   6.337
 8042SOL    HW125025   4.434   4.403   6.356
 8042SOL    HW225026   4.335   4.276   6.382
 8043SOL     OW25027   4.826   4.769   1.174
 8043SOL    HW125028   4.841   4.685   1.122
 8043SOL    HW225029   4.775   4.749   1.257
 8044SOL     OW25030   3.905   3.307   1.234
 8044SOL    HW125031   3.969   3.241   1.194
 8044SOL    HW225032   3.824   3.314   1.177
 8045SOL     OW25033   0.553   1.083   2.815
 8045SOL    HW125034   0.529   1.160   2.874
 8045SOL    HW225035   0.626   1.110   2.752
 8046SOL     OW25036   0.372   5.299   2.115
 8046SOL    HW125037   0.362   5.342   2.205
 8046SOL    HW225038   0.445   5.231   2.119
 8047SOL     OW25039   3.846   6.872   5.981
 8047SOL    HW125040   3.910   6.799   5.958
 8047SOL    HW225041   3.894   6.960   5.983
 8048SOL     OW25042   3.598   3.508   0.263
 8048SOL    HW125043   3.695   3.520   0.283
 8048SOL    HW225044   3.554   3.598   0.253
 8049SOL     OW25045   1.667   0.111   0.903
 8049SOL    HW125046   1.719   0.164   0.835
 8049SOL    HW225047   1.707   0.125   0.993
 8050SOL     OW25048   1.664   4.152   4.176
 8050SOL    HW125049   1.604   4.190   4.246
 8050SOL    HW225050   1.644   4.055   4.165
 8051SOL     OW25051   4.314   5.883   4.291
 8051SOL    HW125052   4.225   5.849   4.318
 8051SOL    HW225053   4.376   5.806   4.276
 8052SOL     OW25054   1.921   1.831   2.095
 8052SOL    HW125055   1.823   1.852   2.094
 8052SOL    HW225056   1.944   1.782   2.179
 8053SOL     OW25057   3.170   3.205   6.565
 8053SOL    HW125058   3.112   3.181   6.488
 8053SOL    HW225059   3.143   3.294   6.601
 8054SOL     OW25060   5.306   4.100   5.140
 8054SOL    HW125061   5.405   4.081   5.141
 8054SOL    HW225062   5.256   4.017   5.162
 8055SOL     OW25063   0.385   0.794   5.309
 8055SOL    HW125064   0.483   0.795   5.293
 8055SOL    HW225065   0.367   0.795   5.407
 8056SOL     OW25066   2.640   0.226   3.496
 8056SOL    HW125067   2.677   0.145   3.451
 8056SOL    HW225068   2.706   0.260   3.563
 8057SOL     OW25069   2.144   2.316   1.653
 8057SOL    HW125070   2.154   2.365   1.740
 8057SOL    HW225071   2.134   2.218   1.671
 8058SOL     OW25072   3.088   6.815   3.761
 8058SOL    HW125073   3.131   6.725   3.770
 8058SOL    HW225074   2.990   6.807   3.774
 8059SOL     OW25075   2.659   2.186   5.831
 8059SOL    HW125076   2.750   2.148   5.813
 8059SOL    HW225077   2.600   2.115   5.869
 8060SOL     OW25078   6.576   0.405   6.511
 8060SOL    HW125079   6.628   0.366   6.588
 8060SOL    HW225080   6.560   0.502   6.528
 8061SOL     OW25081   0.465   1.022   1.893
 8061SOL    HW125082   0.506   1.047   1.805
 8061SOL    HW225083   0.430   0.928   1.887
 8062SOL     OW25084   4.109   5.483   5.086
 8062SOL    HW125085   4.106   5.448   5.180
 8062SOL    HW225086   4.017   5.490   5.050
 8063SOL     OW25087   3.512   0.778   3.329
 8063SOL    HW125088   3.595   0.746   3.374
 8063SOL    HW225089   3.444   0.705   3.328
 8064SOL     OW25090   6.320   3.537   0.171
 8064SOL    HW125091   6.372   3.574   0.247
 8064SOL    HW225092   6.350   3.444   0.151
 8065SOL     OW25093   3.574   0.116   4.594
 8065SOL    HW125094   3.560   0.121   4.693
 8065SOL    HW225095   3.621   0.199   4.562
 8066SOL     OW25096   6.531   1.360   4.825
 8066SOL    HW125097   6.523   1.459   4.822
 8066SOL    HW225098   6.475   1.319   4.753
 8067SOL     OW25099   5.300   3.175   3.941
 8067SOL    HW125100   5.303   3.275   3.943
 8067SOL    HW225101   5.364   3.141   3.872
 8068SOL     OW25102   0.324   4.478   1.594
 8068SOL    HW125103   0.264   4.494   1.515
 8068SOL    HW225104   0.290   4.399   1.646
 8069SOL     OW25105   2.879   5.102   2.488
 8069SOL    HW125106   2.851   5.059   2.573
 8069SOL    HW225107   2.935   5.039   2.435
 8070SOL     OW25108   4.370   4.822   0.686
 8070SOL    HW125109   4.389   4.779   0.598
 8070SOL    HW225110   4.273   4.847   0.690
 8071SOL     OW25111   4.194   6.875   5.484
 8071SOL    HW125112   4.138   6.934   5.542
 8071SOL    HW225113   4.166   6.886   5.389
 8072SOL     OW25114   2.434   2.930   0.288
 8072SOL    HW125115   2.387   2.999   0.233
 8072SOL    HW225116   2.532   2.950   0.289
 8073SOL     OW25117   2.638   0.146   6.564
 8073SOL    HW125118   2.695   0.066   6.545
 8073SOL    HW225119   2.696   0.226   6.577
 8074SOL     OW25120   1.777   1.861   0.458
 8074SOL    HW125121   1.769   1.938   0.395
 8074SOL    HW225122   1.826   1.787   0.413
 8075SOL     OW25123   0.311   6.221   6.808
 8075SOL    HW125124   0.297   6.309   6.852
 8075SOL    HW225125   0.256   6.217   6.724
 8076SOL     OW25126   6.992   0.014   6.664
 8076SOL    HW125127   6.996   0.085   6.594
 8076SOL    HW225128   6.914   6.975   6.646
 8077SOL     OW25129   4.016   5.888   1.814
 8077SOL    HW125130   3.948   5.815   1.816
 8077SOL    HW225131   4.013   5.933   1.725
 8078SOL     OW25132   1.108   1.310   0.947
 8078SOL    HW125133   1.036   1.266   0.894
 8078SOL    HW225134   1.071   1.389   0.995
 8079SOL     OW25135   0.715   1.343   4.494
 8079SOL    HW125136   0.797   1.382   4.452
 8079SOL    HW225137   0.727   1.244   4.505
 8080SOL     OW25138   1.217   3.113   2.554
 8080SOL    HW125139   1.152   3.061   2.608
 8080SOL    HW225140   1.305   3.065   2.553
 8081SOL     OW25141   5.831   4.446   4.984
 8081SOL    HW125142   5.896   4.386   4.938
 8081SOL    HW225143   5.829   4.535   4.938
 8082SOL     OW25144   2.475   1.034   2.384
 8082SOL    HW125145   2.485   1.128   2.417
 8082SOL    HW225146   2.558   1.006   2.337
 8083SOL     OW25147   5.283   2.209   4.294
 8083SOL    HW125148   5.278   2.116   4.259
 8083SOL    HW225149   5.334   2.266   4.229
 8084SOL     OW25150   1.919   0.307   6.066
 8084SOL    HW125151   1.950   0.375   6.000
 8084SOL    HW225152   1.996   0.251   6.095
 8085SOL     OW25153   0.371   5.862   3.323
 8085SOL    HW125154   0.299   5.897   3.263
 8085SOL    HW225155   0.428   5.937   3.356
 8086SOL     OW25156   0.448   1.109   1.614
 8086SOL    HW125157   0.431   1.207   1.620
 8086SOL    HW225158   0.371   1.060   1.656
 8087SOL     OW25159   0.868   0.597   6.548
 8087SOL    HW125160   0.894   0.534   6.621
 8087SOL    HW225161   0.777   0.634   6.566
 8088SOL     OW25162   5.680   6.494   6.315
 8088SOL    HW125163   5.694   6.571   6.252
 8088SOL    HW225164   5.585   6.496   6.348
 8089SOL     OW25165   5.912   3.056   6.333
 8089SOL    HW125166   5.998   3.027   6.375
 8089SOL    HW225167   5.850   3.090   6.405
 8090SOL     OW25168   3.979   1.802   6.805
 8090SOL    HW125169   4.014   1.709   6.813
 8090SOL    HW225170   3.947   1.818   6.712
 8091SOL     OW25171   1.833   4.353   4.192
 8091SOL    HW125172   1.785   4.268   4.172
 8091SOL    HW225173   1.769   4.417   4.236
 8092SOL     OW25174   4.675   2.005   5.183
 8092SOL    HW125175   4.628   1.989   5.096
 8092SOL    HW225176   4.768   1.969   5.178
 8093SOL     OW25177   3.106   6.064   3.186
 8093SOL    HW125178   3.187   6.078   3.128
 8093SOL    HW225179   3.034   6.020   3.133
 8094SOL     OW25180   1.251   3.702   4.863
 8094SOL    HW125181   1.251   3.780   4.925
 8094SOL    HW225182   1.345   3.674   4.844
 8095SOL     OW25183   1.294   4.303   5.482
 8095SOL    HW125184   1.232   4.238   5.437
 8095SOL    HW225185   1.243   4.353   5.552
 8096SOL     OW25186   1.490   0.059   2.001
 8096SOL    HW125187   1.442   0.100   2.078
 8096SOL    HW225188   1.544   0.128   1.955
 8097SOL     OW25189   3.644   0.114   5.294
 8097SOL    HW125190   3.664   0.079   5.202
 8097SOL    HW225191   3.545   0.128   5.302
 8098SOL     OW25192   0.555   6.255   4.085
 8098SOL    HW125193   0.598   6.168   4.107
 8098SOL    HW225194   0.569   6.319   4.161
 8099SOL     OW25195   4.260   5.308   4.122
 8099SOL    HW125196   4.191   5.247   4.084
 8099SOL    HW225197   4.327   5.255   4.173
 8100SOL     OW25198   5.734   1.244   6.381
 8100SOL    HW125199   5.683   1.227   6.297
 8100SOL    HW225200   5.784   1.162   6.407
 8101SOL     OW25201   2.476   5.812   0.665
 8101SOL    HW125202   2.431   5.740   0.612
 8101SOL    HW225203   2.553   5.773   0.715
 8102SOL     OW25204   0.935   3.358   4.546
 8102SOL    HW125205   1.009   3.331   4.485
 8102SOL    HW225206   0.852   3.374   4.493
 8103SOL     OW25207   3.813   0.861   2.055
 8103SOL    HW125208   3.799   0.951   2.014
 8103SOL    HW225209   3.827   0.872   2.154
 8104SOL     OW25210   1.795   6.776   5.831
 8104SOL    HW125211   1.802   6.721   5.914
 8104SOL    HW225212   1.797   6.716   5.751
 8105SOL     OW25213   0.011   2.145   2.800
 8105SOL    HW125214   6.983   2.140   2.712
 8105SOL    HW225215   0.109   2.137   2.783
 8106SOL     OW25216   2.845   6.511   4.102
 8106SOL    HW125217   2.892   6.595   4.075
 8106SOL    HW225218   2.886   6.475   4.185
 8107SOL     OW25219   1.676   5.872   4.738
 8107SOL    HW125220   1.700   5.781   4.771
 8107SOL    HW225221   1.756   5.916   4.697
 8108SOL     OW25222   6.550   1.498   6.559
 8108SOL    HW125223   6.621   1.438   6.522
 8108SOL    HW225224   6.591   1.561   6.625
 8109SOL     OW25225   0.031   3.591   6.334
 8109SOL    HW125226   0.090   3.672   6.327
 8109SOL    HW225227   6.979   3.609   6.399
 8110SOL     OW25228   4.137   4.813   1.123
 8110SOL    HW125229   4.049   4.767   1.134
 8110SOL    HW225230   4.208   4.745   1.105
 8111SOL     OW25231   5.923   1.062   3.575
 8111SOL    HW125232   5.972   1.097   3.495
 8111SOL    HW225233   5.853   1.128   3.602
 8112SOL     OW25234   0.525   3.186   4.705
 8112SOL    HW125235   0.625   3.180   4.703
 8112SOL    HW225236   0.487   3.094   4.716
 8113SOL     OW25237   6.520   3.246   1.495
 8113SOL    HW125238   6.614   3.261   1.522
 8113SOL    HW225239   6.466   3.329   1.508
 8114SOL     OW25240   1.076   4.531   2.348
 8114SOL    HW125241   1.055   4.437   2.373
 8114SOL    HW225242   1.067   4.542   2.249
 8115SOL     OW25243   2.810   6.801   6.310
 8115SOL    HW125244   2.876   6.737   6.349
 8115SOL    HW225245   2.796   6.779   6.214
 8116SOL     OW25246   3.849   5.527   0.547
 8116SOL    HW125247   3.891   5.506   0.635
 8116SOL    HW225248   3.914   5.507   0.474
 8117SOL     OW25249   2.229   6.722   3.125
 8117SOL    HW125250   2.166   6.657   3.084
 8117SOL    HW225251   2.265   6.784   3.055
 8118SOL     OW25252   6.257   4.483   6.633
 8118SOL    HW125253   6.212   4.424   6.566
 8118SOL    HW225254   6.312   4.427   6.695
 8119SOL     OW25255   5.016   6.239   6.069
 8119SOL    HW125256   4.974   6.219   5.981
 8119SOL    HW225257   5.113   6.214   6.066
 8120SOL     OW25258   2.327   5.300   0.649
 8120SOL    HW125259   2.300   5.222   0.592
 8120SOL    HW225260   2.246   5.340   0.691
 8121SOL     OW25261   1.084   4.071   3.084
 8121SOL    HW125262   0.998   4.036   3.048
 8121SOL    HW225263   1.159   4.013   3.053
 8122SOL     OW25264   0.947   4.367   2.944
 8122SOL    HW125265   0.911   4.412   2.862
 8122SOL    HW225266   0.939   4.268   2.933
 8123SOL     OW25267   0.733   1.644   6.878
 8123SOL    HW125268   0.763   1.739   6.875
 8123SOL    HW225269   0.769   1.594   6.799
 8124SOL     OW25270   5.517   6.337   4.118
 8124SOL    HW125271   5.519   6.373   4.025
 8124SOL    HW225272   5.424   6.306   4.140
 8125SOL     OW25273   1.104   0.818   3.291
 8125SOL    HW125274   1.028   0.776   3.241
 8125SOL    HW225275   1.178   0.752   3.299
 8126SOL     OW25276   4.579   5.034   3.579
 8126SOL    HW125277   4.574   4.935   3.564
 8126SOL    HW225278   4.637   5.053   3.657
 8127SOL     OW25279   2.659   2.339   6.999
 8127SOL    HW125280   2.722   2.281   6.946
 8127SOL    HW225281   2.664   2.312   0.074
 8128SOL     OW25282   3.279   2.382   1.527
 8128SOL    HW125283   3.289   2.419   1.619
 8128SOL    HW225284   3.191   2.410   1.489
 8129SOL     OW25285   1.666   2.043   0.075
 8129SOL    HW125286   1.598   2.045   0.003
 8129SOL    HW225287   1.749   1.998   0.042
 8130SOL     OW25288   1.631   5.763   0.049
 8130SOL    HW125289   1.534   5.784   0.043
 8130SOL    HW225290   1.643   5.668   0.077
 8131SOL     OW25291   3.008   2.665   1.254
 8131SOL    HW125292   3.077   2.714   1.202
 8131SOL    HW225293   2.935   2.728   1.281
 8132SOL     OW25294   6.324   6.790   4.446
 8132SOL    HW125295   6.250   6.770   4.382
 8132SOL    HW225296   6.395   6.720   4.440
 8133SOL     OW25297   4.140   5.496   2.247
 8133SOL    HW125298   4.111   5.576   2.299
 8133SOL    HW225299   4.131   5.414   2.303
 8134SOL     OW25300   6.105   0.945   6.171
 8134SOL    HW125301   6.036   0.917   6.105
 8134SOL    HW225302   6.082   0.910   6.262
 8135SOL     OW25303   1.765   0.908   1.813
 8135SOL    HW125304   1.688   0.925   1.751
 8135SOL    HW225305   1.774   0.809   1.828
 8136SOL     OW25306   5.644   5.365   2.620
 8136SOL    HW125307   5.573   5.431   2.597
 8136SOL    HW225308   5.634   5.284   2.562
 8137SOL     OW25309   2.901   0.959   5.232
 8137SOL    HW125310   2.803   0.949   5.251
 8137SOL    HW225311   2.914   1.026   5.159
 8138SOL     OW25312   5.558   1.248   1.438
 8138SOL    HW125313   5.527   1.256   1.533
 8138SOL    HW225314   5.657   1.232   1.437
 8139SOL     OW25315   0.342   1.620   2.534
 8139SOL    HW125316   0.388   1.534   2.556
 8139SOL    HW225317   0.255   1.624   2.582
 8140SOL     OW25318   4.320   1.135   4.417
 8140SOL    HW125319   4.404   1.188   4.431
 8140SOL    HW225320   4.263   1.179   4.348
 8141SOL     OW25321   3.754   5.366   5.410
 8141SOL    HW125322   3.767   5.358   5.509
 8141SOL    HW225323   3.732   5.461   5.387
 8142SOL     OW25324   6.213   4.630   0.235
 8142SOL    HW125325   6.124   4.677   0.233
 8142SOL    HW225326   6.285   4.698   0.250
 8143SOL     OW25327   6.056   4.390   6.055
 8143SOL    HW125328   6.028   4.485   6.064
 8143SOL    HW225329   6.014   4.336   6.128
 8144SOL     OW25330   5.547   0.215   6.984
 8144SOL    HW125331   5.512   0.250   0.049
 8144SOL    HW225332   5.640   0.181   6.996
 8145SOL     OW25333   6.155   5.826   2.796
 8145SOL    HW125334   6.154   5.730   2.821
 8145SOL    HW225335   6.103   5.839   2.712
 8146SOL     OW25336   3.426   1.102   5.757
 8146SOL    HW125337   3.457   1.194   5.735
 8146SOL    HW225338   3.364   1.069   5.686
 8147SOL     OW25339   5.355   1.800   3.442
 8147SOL    HW125340   5.372   1.877   3.380
 8147SOL    HW225341   5.337   1.836   3.534
 8148SOL     OW25342   5.372   3.182   2.858
 8148SOL    HW125343   5.409   3.257   2.803
 8148SOL    HW225344   5.283   3.155   2.822
 8149SOL     OW25345   3.055   5.584   2.483
 8149SOL    HW125346   3.067   5.629   2.571
 8149SOL    HW225347   3.029   5.489   2.497
 8150SOL     OW25348   0.078   4.765   0.983
 8150SOL    HW125349   0.064   4.857   0.948
 8150SOL    HW225350   0.149   4.719   0.930
 8151SOL     OW25351   0.950   2.125   3.394
 8151SOL    HW125352   1.011   2.119   3.473
 8151SOL    HW225353   0.919   2.219   3.382
 8152SOL     OW25354   1.813   1.291   2.866
 8152SOL    HW125355   1.862   1.214   2.825
 8152SOL    HW225356   1.748   1.327   2.799
 8153SOL     OW25357   2.966   0.331   2.131
 8153SOL    HW125358   2.906   0.284   2.196
 8153SOL    HW225359   2.939   0.427   2.124
 8154SOL     OW25360   2.467   6.332   4.158
 8154SOL    HW125361   2.540   6.266   4.143
 8154SOL    HW225362   2.450   6.340   4.257
 8155SOL     OW25363   3.078   3.004   2.121
 8155SOL    HW125364   3.074   2.977   2.217
 8155SOL    HW225365   3.076   2.922   2.063
 8156SOL     OW25366   5.579   0.510   4.889
 8156SOL    HW125367   5.609   0.602   4.864
 8156SOL    HW225368   5.607   0.490   4.983
 8157SOL     OW25369   5.752   4.969   6.900
 8157SOL    HW125370   5.770   4.975   6.802
 8157SOL    HW225371   5.662   4.928   6.915
 8158SOL     OW25372   1.190   5.611   1.330
 8158SOL    HW125373   1.209   5.645   1.422
 8158SOL    HW225374   1.169   5.514   1.334
 8159SOL     OW25375   1.891   5.328   2.148
 8159SOL    HW125376   1.895   5.229   2.160
 8159SOL    HW225377   1.863   5.371   2.234
 8160SOL     OW25378   4.972   1.952   1.343
 8160SOL    HW125379   4.923   1.868   1.320
 8160SOL    HW225380   4.951   2.023   1.276
 8161SOL     OW25381   4.555   1.076   0.413
 8161SOL    HW125382   4.548   1.057   0.511
 8161SOL    HW225383   4.648   1.104   0.390
 8162SOL     OW25384   5.866   0.249   1.081
 8162SOL    HW125385   5.825   0.242   0.990
 8162SOL    HW225386   5.826   0.327   1.129
 8163SOL     OW25387   2.435   4.419   5.283
 8163SOL    HW125388   2.382   4.360   5.221
 8163SOL    HW225389   2.425   4.515   5.254
 8164SOL     OW25390   5.391   2.768   1.542
 8164SOL    HW125391   5.357   2.743   1.632
 8164SOL    HW225392   5.440   2.691   1.502
 8165SOL     OW25393   1.958   4.446   1.237
 8165SOL    HW125394   1.874   4.483   1.276
 8165SOL    HW225395   1.952   4.447   1.138
 8166SOL     OW25396   2.061   0.760   2.278
 8166SOL    HW125397   2.024   0.851   2.296
 8166SOL    HW225398   2.047   0.701   2.358
 8167SOL     OW25399   5.978   2.688   3.528
 8167SOL    HW125400   6.062   2.668   3.578
 8167SOL    HW225401   5.903   2.633   3.565
 8168SOL     OW25402   3.333   1.407   2.975
 8168SOL    HW125403   3.352   1.315   3.011
 8168SOL    HW225404   3.340   1.473   3.049
 8169SOL     OW25405   4.373   3.982   0.539
 8169SOL    HW125406   4.467   4.016   0.545
 8169SOL    HW225407   4.349   3.934   0.623
 8170SOL     OW25408   1.151   5.989   3.975
 8170SOL    HW125409   1.240   5.983   3.930
 8170SOL    HW225410   1.104   6.072   3.944
 8171SOL     OW25411   0.252   1.663   6.350
 8171SOL    HW125412   0.324   1.665   6.281
 8171SOL    HW225413   0.163   1.676   6.305
 8172SOL     OW25414   0.275   6.971   0.385
 8172SOL    HW125415   0.299   6.938   0.293
 8172SOL    HW225416   0.178   6.955   0.402
 8173SOL     OW25417   3.792   2.453   6.862
 8173SOL    HW125418   3.858   2.385   6.831
 8173SOL    HW225419   3.802   2.536   6.808
 8174SOL     OW25420   5.800   1.937   0.948
 8174SOL    HW125421   5.821   1.994   1.028
 8174SOL    HW225422   5.774   1.996   0.871
 8175SOL     OW25423   6.857   2.512   6.210
 8175SOL    HW125424   6.887   2.417   6.221
 8175SOL    HW225425   6.852   2.534   6.112
 8176SOL     OW25426   2.655   6.074   2.029
 8176SOL    HW125427   2.672   6.049   2.124
 8176SOL    HW225428   2.568   6.123   2.023
 8177SOL     OW25429   0.887   6.339   4.181
 8177SOL    HW125430   0.900   6.411   4.113
 8177SOL    HW225431   0.795   6.345   4.219
 8178SOL     OW25432   2.021   6.846   6.209
 8178SOL    HW125433   1.951   6.849   6.137
 8178SOL    HW225434   1.976   6.853   6.299
 8179SOL     OW25435   3.349   2.869   0.205
 8179SOL    HW125436   3.392   2.780   0.223
 8179SOL    HW225437   3.387   2.907   0.121
 8180SOL     OW25438   0.573   6.940   4.445
 8180SOL    HW125439   0.492   6.886   4.467
 8180SOL    HW225440   0.648   6.878   4.420
 8181SOL     OW25441   2.749   2.283   2.868
 8181SOL    HW125442   2.709   2.365   2.828
 8181SOL    HW225443   2.840   2.268   2.828
 8182SOL     OW25444   3.064   2.032   6.021
 8182SOL    HW125445   3.046   2.078   5.934
 8182SOL    HW225446   3.129   2.086   6.074
 8183SOL     OW25447   0.953   3.828   5.239
 8183SOL    HW125448   0.897   3.777   5.175
 8183SOL    HW225449   0.974   3.770   5.318
 8184SOL     OW25450   0.081   0.673   5.229
 8184SOL    HW125451   0.153   0.743   5.232
 8184SOL    HW225452   7.016   0.713   5.261
 8185SOL     OW25453   2.967   1.206   1.925
 8185SOL    HW125454   2.870   1.195   1.945
 8185SOL    HW225455   2.982   1.289   1.872
 8186SOL     OW25456   3.161   6.285   5.852
 8186SOL    HW125457   3.129   6.193   5.873
 8186SOL    HW225458   3.154   6.301   5.753
 8187SOL     OW25459   1.432   2.101   5.628
 8187SOL    HW125460   1.409   2.004   5.626
 8187SOL    HW225461   1.531   2.113   5.616
 8188SOL     OW25462   5.763   2.065   2.645
 8188SOL    HW125463   5.766   1.972   2.682
 8188SOL    HW225464   5.726   2.063   2.552
 8189SOL     OW25465   5.536   4.431   2.300
 8189SOL    HW125466   5.542   4.347   2.246
 8189SOL    HW225467   5.628   4.462   2.324
 8190SOL     OW25468   5.192   3.497   3.742
 8190SOL    HW125469   5.230   3.469   3.830
 8190SOL    HW225470   5.098   3.463   3.733
 8191SOL     OW25471   0.901   5.606   3.936
 8191SOL    HW125472   0.993   5.638   3.915
 8191SOL    HW225473   0.835   5.654   3.878
 8192SOL     OW25474   2.283   5.543   1.989
 8192SOL    HW125475   2.372   5.506   2.012
 8192SOL    HW225476   2.224   5.471   1.953
 8193SOL     OW25477   4.934   6.674   5.048
 8193SOL    HW125478   4.961   6.664   5.143
 8193SOL    HW225479   4.834   6.678   5.042
 8194SOL     OW25480   6.503   1.139   6.788
 8194SOL    HW125481   6.439   1.108   6.718
 8194SOL    HW225482   6.545   1.225   6.759
 8195SOL     OW25483   6.727   0.084   0.020
 8195SOL    HW125484   6.667   0.088   0.100
 8195SOL    HW225485   6.680   0.035   6.968
 8196SOL     OW25486   3.636   6.430   6.489
 8196SOL    HW125487   3.550   6.392   6.525
 8196SOL    HW225488   3.616   6.514   6.438
 8197SOL     OW25489   6.591   0.689   6.310
 8197SOL    HW125490   6.627   0.658   6.398
 8197SOL    HW225491   6.496   0.718   6.321
 8198SOL     OW25492   2.601   6.533   3.198
 8198SOL    HW125493   2.521   6.512   3.255
 8198SOL    HW225494   2.571   6.588   3.120
 8199SOL     OW25495   0.484   3.936   0.018
 8199SOL    HW125496   0.495   3.887   0.104
 8199SOL    HW225497   0.407   4.000   0.026
 8200SOL     OW25498   4.671   4.075   1.746
 8200SOL    HW125499   4.595   4.140   1.758
 8200SOL    HW225500   4.749   4.105   1.800
 8201SOL     OW25501   5.610   0.144   3.779
 8201SOL    HW125502   5.668   0.189   3.847
 8201SOL    HW225503   5.663   0.072   3.734
 8202SOL     OW25504   1.331   4.656   3.269
 8202SOL    HW125505   1.415   4.631   3.221
 8202SOL    HW225506   1.338   4.751   3.300
 8203SOL     OW25507   5.040   3.843   1.578
 8203SOL    HW125508   5.044   3.793   1.491
 8203SOL    HW225509   5.015   3.781   1.652
 8204SOL     OW25510   3.109   6.892   2.627
 8204SOL    HW125511   3.098   6.797   2.655
 8204SOL    HW225512   3.144   6.895   2.533
 8205SOL     OW25513   5.662   5.461   1.818
 8205SOL    HW125514   5.677   5.500   1.727
 8205SOL    HW225515   5.732   5.392   1.837
 8206SOL     OW25516   4.170   2.201   5.474
 8206SOL    HW125517   4.248   2.218   5.534
 8206SOL    HW225518   4.085   2.227   5.520
 8207SOL     OW25519   3.163   4.842   5.865
 8207SOL    HW125520   3.257   4.838   5.898
 8207SOL    HW225521   3.102   4.861   5.942
 8208SOL     OW25522   1.877   4.988   1.553
 8208SOL    HW125523   1.913   5.018   1.464
 8208SOL    HW225524   1.848   5.067   1.606
 8209SOL     OW25525   1.347   0.878   5.350
 8209SOL    HW125526   1.431   0.887   5.403
 8209SOL    HW225527   1.282   0.821   5.400
 8210SOL     OW25528   2.044   1.241   0.376
 8210SOL    HW125529   2.132   1.231   0.331
 8210SOL    HW225530   1.978   1.176   0.338
 8211SOL     OW25531   3.055   3.108   4.431
 8211SOL    HW125532   3.018   3.148   4.347
 8211SOL    HW225533   2.982   3.065   4.483
 8212SOL     OW25534   2.212   6.958   1.420
 8212SOL    HW125535   2.266   0.004   1.369
 8212SOL    HW225536   2.228   6.971   1.518
 8213SOL     OW25537   4.294   4.354   1.670
 8213SOL    HW125538   4.301   4.454   1.677
 8213SOL    HW225539   4.371   4.312   1.718
 8214SOL     OW25540   3.210   5.606   4.074
 8214SOL    HW125541   3.205   5.667   4.153
 8214SOL    HW225542   3.303   5.604   4.039
 8215SOL     OW25543   3.870   6.372   6.915
 8215SOL    HW125544   3.953   6.419   6.945
 8215SOL    HW225545   3.829   6.423   6.840
 8216SOL     OW25546   4.610   6.157   2.085
 8216SOL    HW125547   4.667   6.128   2.161
 8216SOL    HW225548   4.618   6.092   2.010
 8217SOL     OW25549   2.706   5.412   3.627
 8217SOL    HW125550   2.676   5.347   3.697
 8217SOL    HW225551   2.688   5.374   3.537
 8218SOL     OW25552   1.735   0.276   4.895
 8218SOL    HW125553   1.720   0.372   4.918
 8218SOL    HW225554   1.816   0.268   4.837
 8219SOL     OW25555   3.922   3.934   0.476
 8219SOL    HW125556   3.963   3.843   0.480
 8219SOL    HW225557   3.894   3.953   0.381
 8220SOL     OW25558   3.866   4.047   4.735
 8220SOL    HW125559   3.910   3.987   4.802
 8220SOL    HW225560   3.775   4.073   4.767
 8221SOL     OW25561   6.510   3.133   3.607
 8221SOL    HW125562   6.588   3.094   3.560
 8221SOL    HW225563   6.425   3.095   3.569
 8222SOL     OW25564   6.060   2.894   1.457
 8222SOL    HW125565   5.961   2.881   1.462
 8222SOL    HW225566   6.092   2.936   1.542
 8223SOL     OW25567   0.079   5.867   5.271
 8223SOL    HW125568   7.007   5.836   5.254
 8223SOL    HW225569   0.087   5.964   5.248
 8224SOL     OW25570   5.380   2.346   7.004
 8224SOL    HW125571   5.428   2.261   0.004
 8224SOL    HW225572   5.311   2.329   6.934
 8225SOL     OW25573   4.880   1.940   0.420
 8225SOL    HW125574   4.877   2.014   0.487
 8225SOL    HW225575   4.846   1.856   0.461
 8226SOL     OW25576   3.695   0.400   0.332
 8226SOL    HW125577   3.717   0.305   0.358
 8226SOL    HW225578   3.638   0.400   0.251
 8227SOL     OW25579   5.151   2.263   2.714
 8227SOL    HW125580   5.248   2.284   2.728
 8227SOL    HW225581   5.099   2.348   2.705
 8228SOL     OW25582   1.189   1.107   5.481
 8228SOL    HW125583   1.131   1.147   5.410
 8228SOL    HW225584   1.176   1.007   5.482
 8229SOL     OW25585   4.249   4.660   0.862
 8229SOL    HW125586   4.304   4.703   0.790
 8229SOL    HW225587   4.160   4.707   0.868
 8230SOL     OW25588   4.230   1.191   5.697
 8230SOL    HW125589   4.227   1.261   5.626
 8230SOL    HW225590   4.234   1.100   5.655
 8231SOL     OW25591   2.721   1.170   2.682
 8231SOL    HW125592   2.723   1.121   2.769
 8231SOL    HW225593   2.802   1.228   2.675
 8232SOL     OW25594   4.372   6.745   2.407
 8232SOL    HW125595   4.401   6.701   2.492
 8232SOL    HW225596   4.351   6.674   2.339
 8233SOL     OW25597   0.674   0.835   5.083
 8233SOL    HW125598   0.608   0.768   5.048
 8233SOL    HW225599   0.649   0.926   5.051
 8234SOL     OW25600   2.249   2.171   0.376
 8234SOL    HW125601   2.285   2.125   0.457
 8234SOL    HW225602   2.325   2.213   0.325
 8235SOL     OW25603   6.910   5.589   0.522
 8235SOL    HW125604   6.868   5.601   0.612
 8235SOL    HW225605   6.854   5.634   0.453
 8236SOL     OW25606   0.885   6.808   6.563
 8236SOL    HW125607   0.965   6.773   6.514
 8236SOL    HW225608   0.899   6.905   6.584
 8237SOL     OW25609   4.437   5.464   6.451
 8237SOL    HW125610   4.490   5.538   6.493
 8237SOL    HW225611   4.497   5.411   6.390
 8238SOL     OW25612   1.861   4.621   0.843
 8238SOL    HW125613   1.955   4.603   0.874
 8238SOL    HW225614   1.849   4.585   0.750
 8239SOL     OW25615   0.567   1.836   5.366
 8239SOL    HW125616   0.485   1.870   5.412
 8239SOL    HW225617   0.607   1.909   5.311
 8240SOL     OW25618   3.719   3.859   4.935
 8240SOL    HW125619   3.653   3.879   5.008
 8240SOL    HW225620   3.809   3.842   4.976
 8241SOL     OW25621   2.225   3.990   6.701
 8241SOL    HW125622   2.205   3.971   6.605
 8241SOL    HW225623   2.324   3.991   6.714
 8242SOL     OW25624   0.410   3.473   4.367
 8242SOL    HW125625   0.358   3.406   4.314
 8242SOL    HW225626   0.367   3.563   4.360
 8243SOL     OW25627   0.787   5.097   4.719
 8243SOL    HW125628   0.846   5.178   4.716
 8243SOL    HW225629   0.830   5.026   4.775
 8244SOL     OW25630   1.697   0.199   3.612
 8244SOL    HW125631   1.668   0.205   3.517
 8244SOL    HW225632   1.740   0.286   3.639
 8245SOL     OW25633   5.632   1.407   3.820
 8245SOL    HW125634   5.682   1.470   3.760
 8245SOL    HW225635   5.608   1.455   3.905
 8246SOL     OW25636   1.299   4.517   6.683
 8246SOL    HW125637   1.338   4.600   6.721
 8246SOL    HW225638   1.366   4.443   6.685
 8247SOL     OW25639   3.358   5.538   3.215
 8247SOL    HW125640   3.331   5.445   3.239
 8247SOL    HW225641   3.306   5.568   3.135
 8248SOL     OW25642   0.709   5.120   2.992
 8248SOL    HW125643   0.757   5.139   3.077
 8248SOL    HW225644   0.749   5.175   2.918
 8249SOL     OW25645   2.603   1.924   6.001
 8249SOL    HW125646   2.690   1.935   6.050
 8249SOL    HW225647   2.619   1.870   5.918
 8250SOL     OW25648   1.796   1.756   6.459
 8250SOL    HW125649   1.810   1.720   6.366
 8250SOL    HW225650   1.701   1.740   6.486
 8251SOL     OW25651   0.014   2.149   4.700
 8251SOL    HW125652   6.974   2.130   4.777
 8251SOL    HW225653   6.988   2.205   4.632
 8252SOL     OW25654   1.681   2.342   6.803
 8252SOL    HW125655   1.686   2.398   6.886
 8252SOL    HW225656   1.671   2.400   6.723
 8253SOL     OW25657   4.036   5.906   0.454
 8253SOL    HW125658   4.022   6.005   0.448
 8253SOL    HW225659   4.075   5.873   0.367
 8254SOL     OW25660   5.513   5.386   0.128
 8254SOL    HW125661   5.484   5.321   0.058
 8254SOL    HW225662   5.457   5.374   0.210
 8255SOL     OW25663   0.584   6.096   6.255
 8255SOL    HW125664   0.516   6.023   6.243
 8255SOL    HW225665   0.616   6.126   6.165
 8256SOL     OW25666   1.987   5.760   3.158
 8256SOL    HW125667   1.988   5.820   3.238
 8256SOL    HW225668   1.897   5.762   3.116
 8257SOL     OW25669   4.825   3.890   3.527
 8257SOL    HW125670   4.842   3.816   3.592
 8257SOL    HW225671   4.756   3.861   3.461
 8258SOL     OW25672   6.714   3.219   1.853
 8258SOL    HW125673   6.742   3.285   1.923
 8258SOL    HW225674   6.743   3.252   1.763
 8259SOL     OW25675   4.309   1.334   3.663
 8259SOL    HW125676   4.247   1.395   3.613
 8259SOL    HW225677   4.332   1.375   3.752
 8260SOL     OW25678   3.552   0.756   1.156
 8260SOL    HW125679   3.601   0.716   1.079
 8260SOL    HW225680   3.544   0.688   1.229
 8261SOL     OW25681   5.489   0.223   3.081
 8261SOL    HW125682   5.559   0.293   3.064
 8261SOL    HW225683   5.401   0.266   3.095
 8262SOL     OW25684   6.600   3.971   1.874
 8262SOL    HW125685   6.686   3.942   1.915
 8262SOL    HW225686   6.559   4.043   1.930
 8263SOL     OW25687   0.391   2.270   6.061
 8263SOL    HW125688   0.422   2.353   6.016
 8263SOL    HW225689   0.455   2.196   6.043
 8264SOL     OW25690   2.128   6.310   2.743
 8264SOL    HW125691   2.114   6.328   2.840
 8264SOL    HW225692   2.044   6.328   2.692
 8265SOL     OW25693   5.690   0.987   0.414
 8265SOL    HW125694   5.744   1.005   0.331
 8265SOL    HW225695   5.608   1.044   0.414
 8266SOL     OW25696   2.372   0.389   3.383
 8266SOL    HW125697   2.319   0.444   3.318
 8266SOL    HW225698   2.432   0.450   3.435
 8267SOL     OW25699   1.586   3.871   3.156
 8267SOL    HW125700   1.666   3.872   3.095
 8267SOL    HW225701   1.587   3.788   3.211
 8268SOL     OW25702   2.988   4.745   6.609
 8268SOL    HW125703   3.000   4.767   6.705
 8268SOL    HW225704   2.977   4.830   6.556
 8269SOL     OW25705   4.699   1.952   3.527
 8269SOL    HW125706   4.621   1.889   3.529
 8269SOL    HW225707   4.753   1.935   3.444
 8270SOL     OW25708   3.256   0.498   5.993
 8270SOL    HW125709   3.257   0.572   6.060
 8270SOL    HW225710   3.270   0.536   5.901
 8271SOL     OW25711   4.248   6.584   5.436
 8271SOL    HW125712   4.334   6.588   5.386
 8271SOL    HW225713   4.204   6.674   5.436
 8272SOL     OW25714   0.840   6.910   1.459
 8272SOL    HW125715   0.939   6.907   1.473
 8272SOL    HW225716   0.817   6.990   1.403
 8273SOL     OW25717   2.838   6.995   6.843
 8273SOL    HW125718   2.844   6.976   6.746
 8273SOL    HW225719   2.829   6.909   6.894
 8274SOL     OW25720   5.109   6.468   6.213
 8274SOL    HW125721   5.019   6.508   6.205
 8274SOL    HW225722   5.107   6.374   6.180
 8275SOL     OW25723   5.908   0.909   4.355
 8275SOL    HW125724   5.898   0.875   4.449
 8275SOL    HW225725   5.817   0.918   4.314
 8276SOL     OW25726   6.743   2.657   6.435
 8276SOL    HW125727   6.646   2.648   6.411
 8276SOL    HW225728   6.797   2.596   6.377
 8277SOL     OW25729   1.329   5.646   6.275
 8277SOL    HW125730   1.230   5.651   6.289
 8277SOL    HW225731   1.349   5.590   6.194
 8278SOL     OW25732   3.737   1.214   0.363
 8278SOL    HW125733   3.665   1.265   0.316
 8278SOL    HW225734   3.733   1.234   0.461
 8279SOL     OW25735   4.944   5.396   5.799
 8279SOL    HW125736   5.019   5.330   5.792
 8279SOL    HW225737   4.860   5.356   5.762
 8280SOL     OW25738   5.582   2.947   0.004
 8280SOL    HW125739   5.491   2.962   0.043
 8280SOL    HW225740   5.622   2.864   0.044
 8281SOL     OW25741   2.191   4.856   6.705
 8281SOL    HW125742   2.291   4.852   6.705
 8281SOL    HW225743   2.160   4.918   6.776
 8282SOL     OW25744   3.111   2.536   0.802
 8282SOL    HW125745   3.023   2.560   0.761
 8282SOL    HW225746   3.183   2.543   0.733
 8283SOL     OW25747   0.368   5.037   2.813
 8283SOL    HW125748   0.326   5.119   2.851
 8283SOL    HW225749   0.406   4.982   2.887
 8284SOL     OW25750   2.426   2.076   2.482
 8284SOL    HW125751   2.524   2.071   2.499
 8284SOL    HW225752   2.409   2.105   2.388
 8285SOL     OW25753   3.406   4.242   6.218
 8285SOL    HW125754   3.319   4.289   6.233
 8285SOL    HW225755   3.475   4.279   6.279
 8286SOL     OW25756   5.406   1.188   5.544
 8286SOL    HW125757   5.394   1.287   5.554
 8286SOL    HW225758   5.452   1.168   5.458
 8287SOL     OW25759   2.046   0.568   3.198
 8287SOL    HW125760   1.995   0.617   3.268
 8287SOL    HW225761   2.101   0.633   3.145
 8288SOL     OW25762   1.461   1.426   2.818
 8288SOL    HW125763   1.515   1.505   2.848
 8288SOL    HW225764   1.373   1.426   2.866
 8289SOL     OW25765   6.336   1.282   5.541
 8289SOL    HW125766   6.271   1.348   5.578
 8289SOL    HW225767   6.320   1.193   5.582
 8290SOL     OW25768   3.948   2.464   1.627
 8290SOL    HW125769   4.029   2.451   1.684
 8290SOL    HW225770   3.914   2.375   1.597
 8291SOL     OW25771   5.568   5.790   6.081
 8291SOL    HW125772   5.650   5.808   6.136
 8291SOL    HW225773   5.588   5.715   6.017
 8292SOL     OW25774   0.866   3.769   4.329
 8292SOL    HW125775   0.785   3.798   4.279
 8292SOL    HW225776   0.841   3.739   4.421
 8293SOL     OW25777   3.018   5.473   3.272
 8293SOL    HW125778   3.077   5.539   3.317
 8293SOL    HW225779   2.957   5.520   3.208
 8294SOL     OW25780   5.916   3.993   6.046
 8294SOL    HW125781   5.926   3.896   6.067
 8294SOL    HW225782   5.997   4.025   5.997
 8295SOL     OW25783   4.741   4.469   2.126
 8295SOL    HW125784   4.709   4.524   2.202
 8295SOL    HW225785   4.666   4.411   2.092
 8296SOL     OW25786   3.936   6.763   1.432
 8296SOL    HW125787   3.918   6.839   1.370
 8296SOL    HW225788   3.869   6.690   1.415
 8297SOL     OW25789   6.119   4.601   2.936
 8297SOL    HW125790   6.055   4.624   2.863
 8297SOL    HW225791   6.207   4.645   2.920
 8298SOL     OW25792   6.133   0.306   6.297
 8298SOL    HW125793   6.164   0.375   6.362
 8298SOL    HW225794   6.109   0.222   6.345
 8299SOL     OW25795   0.845   3.461   1.176
 8299SOL    HW125796   0.823   3.382   1.234
 8299SOL    HW225797   0.900   3.431   1.098
 8300SOL     OW25798   5.854   5.257   3.074
 8300SOL    HW125799   5.892   5.191   3.140
 8300SOL    HW225800   5.852   5.348   3.116
 8301SOL     OW25801   4.394   6.606   0.184
 8301SOL    HW125802   4.312   6.628   0.131
 8301SOL    HW225803   4.376   6.620   0.281
 8302SOL     OW25804   3.915   6.537   5.320
 8302SOL    HW125805   3.891   6.590   5.238
 8302SOL    HW225806   3.894   6.591   5.401
 8303SOL     OW25807   7.008   6.016   3.144
 8303SOL    HW125808   6.966   5.955   3.077
 8303SOL    HW225809   6.948   6.094   3.160
 8304SOL     OW25810   5.647   3.922   3.457
 8304SOL    HW125811   5.645   3.890   3.363
 8304SOL    HW225812   5.645   3.844   3.520
 8305SOL     OW25813   5.207   5.673   4.633
 8305SOL    HW125814   5.229   5.575   4.638
 8305SOL    HW225815   5.290   5.725   4.613
 8306SOL     OW25816   6.754   0.701   2.318
 8306SOL    HW125817   6.719   0.726   2.408
 8306SOL    HW225818   6.680   0.666   2.261
 8307SOL     OW25819   2.181   4.823   2.917
 8307SOL    HW125820   2.210   4.744   2.863
 8307SOL    HW225821   2.261   4.878   2.941
 8308SOL     OW25822   1.416   5.239   6.861
 8308SOL    HW125823   1.392   5.150   6.901
 8308SOL    HW225824   1.387   5.312   6.923
 8309SOL     OW25825   6.166   4.583   4.077
 8309SOL    HW125826   6.087   4.617   4.028
 8309SOL    HW225827   6.137   4.518   4.147
 8310SOL     OW25828   0.970   6.634   0.012
 8310SOL    HW125829   0.933   6.554   0.060
 8310SOL    HW225830   0.898   6.703   0.002
 8311SOL     OW25831   5.347   0.470   3.483
 8311SOL    HW125832   5.431   0.452   3.533
 8311SOL    HW225833   5.346   0.564   3.450
 8312SOL     OW25834   5.372   1.700   6.451
 8312SOL    HW125835   5.328   1.771   6.396
 8312SOL    HW225836   5.465   1.728   6.474
 8313SOL     OW25837   4.660   1.733   4.821
 8313SOL    HW125838   4.744   1.729   4.768
 8313SOL    HW225839   4.585   1.691   4.769
 8314SOL     OW25840   4.868   6.035   5.575
 8314SOL    HW125841   4.787   6.036   5.518
 8314SOL    HW225842   4.903   5.942   5.583
 8315SOL     OW25843   3.948   3.622   5.014
 8315SOL    HW125844   3.903   3.539   4.982
 8315SOL    HW225845   4.038   3.599   5.051
 8316SOL     OW25846   1.677   2.508   6.574
 8316SOL    HW125847   1.746   2.567   6.531
 8316SOL    HW225848   1.593   2.512   6.520
 8317SOL     OW25849   2.145   1.347   3.453
 8317SOL    HW125850   2.103   1.265   3.415
 8317SOL    HW225851   2.109   1.363   3.545
 8318SOL     OW25852   4.043   0.094   6.534
 8318SOL    HW125853   4.107   0.084   6.457
 8318SOL    HW225854   3.949   0.087   6.501
 8319SOL     OW25855   1.648   6.654   6.628
 8319SOL    HW125856   1.595   6.584   6.676
 8319SOL    HW225857   1.594   6.738   6.621
 8320SOL     OW25858   3.043   3.886   4.379
 8320SOL    HW125859   3.120   3.948   4.390
 8320SOL    HW225860   2.957   3.936   4.389
 8321SOL     OW25861   6.399   6.623   0.205
 8321SOL    HW125862   6.395   6.546   0.269
 8321SOL    HW225863   6.320   6.682   0.220
 8322SOL     OW25864   0.300   0.946   6.959
 8322SOL    HW125865   0.340   1.026   7.003
 8322SOL    HW225866   0.200   0.955   6.958
 8323SOL     OW25867   4.580   4.815   0.846
 8323SOL    HW125868   4.495   4.807   0.795
 8323SOL    HW225869   4.565   4.874   0.926
 8324SOL     OW25870   5.424   6.862   6.630
 8324SOL    HW125871   5.513   6.852   6.584
 8324SOL    HW225872   5.435   6.918   6.711
 8325SOL     OW25873   1.056   5.688   5.794
 8325SOL    HW125874   1.077   5.637   5.878
 8325SOL    HW225875   1.129   5.673   5.727
 8326SOL     OW25876   1.617   4.052   1.987
 8326SOL    HW125877   1.546   4.024   2.052
 8326SOL    HW225878   1.594   4.142   1.950
 8327SOL     OW25879   1.152   6.876   4.679
 8327SOL    HW125880   1.194   6.785   4.673
 8327SOL    HW225881   1.208   6.942   4.628
 8328SOL     OW25882   1.861   0.349   6.722
 8328SOL    HW125883   1.859   0.309   6.813
 8328SOL    HW225884   1.950   0.391   6.705
 8329SOL     OW25885   1.363   2.822   5.252
 8329SOL    HW125886   1.369   2.846   5.348
 8329SOL    HW225887   1.401   2.730   5.238
 8330SOL     OW25888   3.110   1.629   6.692
 8330SOL    HW125889   3.141   1.661   6.603
 8330SOL    HW225890   3.167   1.553   6.722
 8331SOL     OW25891   1.910   2.416   7.000
 8331SOL    HW125892   1.829   2.443   0.030
 8331SOL    HW225893   1.893   2.330   6.951
 8332SOL     OW25894   6.155   5.311   1.930
 8332SOL    HW125895   6.170   5.379   1.857
 8332SOL    HW225896   6.126   5.224   1.889
 8333SOL     OW25897   2.441   5.159   1.312
 8333SOL    HW125898   2.465   5.122   1.223
 8333SOL    HW225899   2.398   5.087   1.367
 8334SOL     OW25900   3.885   1.953   6.288
 8334SOL    HW125901   3.799   1.937   6.240
 8334SOL    HW225902   3.962   1.939   6.226
 8335SOL     OW25903   5.047   3.630   6.047
 8335SOL    HW125904   4.959   3.584   6.036
 8335SOL    HW225905   5.046   3.685   6.130
 8336SOL     OW25906   1.291   3.568   3.527
 8336SOL    HW125907   1.286   3.549   3.625
 8336SOL    HW225908   1.231   3.505   3.477
 8337SOL     OW25909   0.444   1.361   4.234
 8337SOL    HW125910   0.536   1.327   4.210
 8337SOL    HW225911   0.451   1.420   4.315
 8338SOL     OW25912   4.508   5.596   2.671
 8338SOL    HW125913   4.608   5.588   2.673
 8338SOL    HW225914   4.479   5.659   2.742
 8339SOL     OW25915   6.119   0.150   0.579
 8339SOL    HW125916   6.161   0.132   0.668
 8339SOL    HW225917   6.176   0.113   0.506
 8340SOL     OW25918   5.901   2.903   0.339
 8340SOL    HW125919   5.828   2.963   0.372
 8340SOL    HW225920   5.866   2.810   0.331
 8341SOL     OW25921   3.470   1.444   0.936
 8341SOL    HW125922   3.419   1.439   0.850
 8341SOL    HW225923   3.494   1.539   0.956
 8342SOL     OW25924   4.553   0.387   0.240
 8342SOL    HW125925   4.461   0.386   0.202
 8342SOL    HW225926   4.618   0.356   0.171
 8343SOL     OW25927   6.000   3.925   3.771
 8343SOL    HW125928   6.012   3.920   3.871
 8343SOL    HW225929   5.940   3.850   3.742
 8344SOL     OW25930   1.454   4.951   5.143
 8344SOL    HW125931   1.511   4.996   5.073
 8344SOL    HW225932   1.493   4.971   5.233
 8345SOL     OW25933   4.504   0.757   2.658
 8345SOL    HW125934   4.503   0.667   2.615
 8345SOL    HW225935   4.441   0.758   2.735
 8346SOL     OW25936   5.010   3.071   5.475
 8346SOL    HW125937   5.094   3.104   5.520
 8346SOL    HW225938   4.964   3.148   5.432
 8347SOL     OW25939   2.514   0.352   6.232
 8347SOL    HW125940   2.597   0.344   6.288
 8347SOL    HW225941   2.453   0.420   6.272
 8348SOL     OW25942   3.560   6.908   1.757
 8348SOL    HW125943   3.583   7.001   1.786
 8348SOL    HW225944   3.583   6.897   1.660
 8349SOL     OW25945   0.983   6.537   1.777
 8349SOL    HW125946   0.953   6.501   1.689
 8349SOL    HW225947   1.054   6.606   1.763
 8350SOL     OW25948   2.444   6.932   6.977
 8350SOL    HW125949   2.511   6.996   7.015
 8350SOL    HW225950   2.486   6.878   6.905
 8351SOL     OW25951   6.704   3.925   3.595
 8351SOL    HW125952   6.718   3.829   3.616
 8351SOL    HW225953   6.782   3.960   3.543
 8352SOL     OW25954   2.502   5.521   1.556
 8352SOL    HW125955   2.452   5.564   1.630
 8352SOL    HW225956   2.601   5.527   1.574
 8353SOL     OW25957   1.762   3.858   2.356
 8353SOL    HW125958   1.788   3.819   2.268
 8353SOL    HW225959   1.842   3.900   2.400
 8354SOL     OW25960   3.555   0.279   3.993
 8354SOL    HW125961   3.593   0.297   4.084
 8354SOL    HW225962   3.525   0.365   3.952
 8355SOL     OW25963   2.162   5.897   5.959
 8355SOL    HW125964   2.224   5.819   5.965
 8355SOL    HW225965   2.208   5.974   5.914
 8356SOL     OW25966   1.751   5.544   1.101
 8356SOL    HW125967   1.662   5.588   1.112
 8356SOL    HW225968   1.765   5.477   1.174
 8357SOL     OW25969   4.378   6.139   5.952
 8357SOL    HW125970   4.347   6.161   5.860
 8357SOL    HW225971   4.471   6.103   5.948
 8358SOL     OW25972   0.967   2.522   4.974
 8358SOL    HW125973   1.063   2.545   4.984
 8358SOL    HW225974   0.921   2.534   5.062
 8359SOL     OW25975   3.104   1.976   5.378
 8359SOL    HW125976   3.047   2.013   5.304
 8359SOL    HW225977   3.193   1.949   5.341
 8360SOL     OW25978   5.054   0.644   1.043
 8360SOL    HW125979   5.134   0.690   1.080
 8360SOL    HW225980   4.997   0.709   0.993
 8361SOL     OW25981   3.331   0.059   0.155
 8361SOL    HW125982   3.398   7.005   0.150
 8361SOL    HW225983   3.325   0.092   0.249
 8362SOL     OW25984   6.874   3.855   1.889
 8362SOL    HW125985   6.888   3.873   1.791
 8362SOL    HW225986   6.884   3.757   1.906
 8363SOL     OW25987   2.407   2.803   0.027
 8363SOL    HW125988   2.365   2.713   0.023
 8363SOL    HW225989   2.403   2.837   0.121
 8364SOL     OW25990   0.052   2.651   4.488
 8364SOL    HW125991   0.130   2.592   4.506
 8364SOL    HW225992   0.015   2.632   4.397
 8365SOL     OW25993   2.271   2.615   2.971
 8365SOL    HW125994   2.193   2.648   2.917
 8365SOL    HW225995   2.288   2.678   3.047
 8366SOL     OW25996   5.492   5.892   1.730
 8366SOL    HW125997   5.552   5.923   1.656
 8366SOL    HW225998   5.410   5.851   1.690
 8367SOL     OW25999   4.127   5.021   4.655
 8367SOL    HW126000   4.113   4.972   4.741
 8367SOL    HW226001   4.137   4.956   4.580
 8368SOL     OW26002   6.944   6.300   0.474
 8368SOL    HW126003   6.887   6.222   0.448
 8368SOL    HW226004   7.008   6.272   0.546
 8369SOL     OW26005   1.820   0.777   0.400
 8369SOL    HW126006   1.721   0.794   0.408
 8369SOL    HW226007   1.836   0.699   0.340
 8370SOL     OW26008   2.617   2.659   0.424
 8370SOL    HW126009   2.624   2.578   0.483
 8370SOL    HW226010   2.543   2.645   0.358
 8371SOL     OW26011   2.143   4.499   5.924
 8371SOL    HW126012   2.211   4.514   5.995
 8371SOL    HW226013   2.060   4.460   5.965
 8372SOL     OW26014   2.003   5.665   2.405
 8372SOL    HW126015   1.957   5.579   2.383
 8372SOL    HW226016   1.964   5.703   2.489
 8373SOL     OW26017   0.320   0.876   4.353
 8373SOL    HW126018   0.335   0.968   4.391
 8373SOL    HW226019   0.329   0.880   4.254
 8374SOL     OW26020   1.654   0.543   4.954
 8374SOL    HW126021   1.607   0.563   4.869
 8374SOL    HW226022   1.614   0.596   5.028
 8375SOL     OW26023   3.992   1.312   4.579
 8375SOL    HW126024   4.063   1.312   4.649
 8375SOL    HW226025   3.923   1.243   4.601
 8376SOL     OW26026   1.838   0.687   2.909
 8376SOL    HW126027   1.808   0.783   2.916
 8376SOL    HW226028   1.931   0.680   2.943
 8377SOL     OW26029   5.012   5.888   6.847
 8377SOL    HW126030   4.978   5.910   6.938
 8377SOL    HW226031   5.010   5.789   6.833
 8378SOL     OW26032   6.423   5.864   3.743
 8378SOL    HW126033   6.329   5.831   3.755
 8378SOL    HW226034   6.457   5.898   3.831
 8379SOL     OW26035   5.982   1.104   1.988
 8379SOL    HW126036   5.959   1.201   1.999
 8379SOL    HW226037   6.055   1.079   2.052
 8380SOL     OW26038   6.593   5.561   0.370
 8380SOL    HW126039   6.611   5.466   0.398
 8380SOL    HW226040   6.603   5.568   0.270
 8381SOL     OW26041   0.030   1.366   2.522
 8381SOL    HW126042   0.052   1.403   2.612
 8381SOL    HW226043   0.111   1.323   2.482
 8382SOL     OW26044   2.411   0.222   0.593
 8382SOL    HW126045   2.334   0.269   0.635
 8382SOL    HW226046   2.398   0.123   0.602
 8383SOL     OW26047   2.672   6.102   5.460
 8383SOL    HW126048   2.736   6.169   5.422
 8383SOL    HW226049   2.621   6.143   5.535
 8384SOL     OW26050   0.682   2.739   0.377
 8384SOL    HW126051   0.585   2.763   0.375
 8384SOL    HW226052   0.734   2.805   0.323
 8385SOL     OW26053   3.975   4.098   0.736
 8385SOL    HW126054   3.965   3.999   0.732
 8385SOL    HW226055   4.042   4.128   0.668
 8386SOL     OW26056   1.372   5.651   1.876
 8386SOL    HW126057   1.424   5.567   1.865
 8386SOL    HW226058   1.434   5.730   1.875
 8387SOL     OW26059   1.635   1.214   2.203
 8387SOL    HW126060   1.547   1.191   2.245
 8387SOL    HW226061   1.648   1.314   2.206
 8388SOL     OW26062   3.283   6.903   0.815
 8388SOL    HW126063   3.342   6.939   0.742
 8388SOL    HW226064   3.286   6.803   0.815
 8389SOL     OW26065   1.234   2.466   4.482
 8389SOL    HW126066   1.182   2.462   4.568
 8389SOL    HW226067   1.331   2.453   4.502
 8390SOL     OW26068   2.115   0.664   5.329
 8390SOL    HW126069   2.147   0.681   5.236
 8390SOL    HW226070   2.136   0.742   5.387
 8391SOL     OW26071   4.892   5.510   1.450
 8391SOL    HW126072   4.953   5.529   1.374
 8391SOL    HW226073   4.933   5.439   1.508
 8392SOL     OW26074   5.964   6.678   5.485
 8392SOL    HW126075   5.926   6.761   5.445
 8392SOL    HW226076   5.892   6.629   5.535
 8393SOL     OW26077   0.417   6.207   3.126
 8393SOL    HW126078   0.512   6.188   3.101
 8393SOL    HW226079   0.414   6.280   3.193
 8394SOL     OW26080   0.754   1.761   3.102
 8394SOL    HW126081   0.660   1.771   3.070
 8394SOL    HW226082   0.814   1.819   3.047
 8395SOL     OW26083   0.075   6.412   4.680
 8395SOL    HW126084   0.089   6.509   4.701
 8395SOL    HW226085   0.073   6.400   4.581
 8396SOL     OW26086   4.932   4.187   2.831
 8396SOL    HW126087   5.010   4.238   2.792
 8396SOL    HW226088   4.937   4.191   2.931
 8397SOL     OW26089   2.134   5.935   2.987
 8397SOL    HW126090   2.110   5.880   3.067
 8397SOL    HW226091   2.070   6.011   2.979
 8398SOL     OW26092   4.532   1.435   0.073
 8398SOL    HW126093   4.443   1.472   0.047
 8398SOL    HW226094   4.594   1.510   0.097
 8399SOL     OW26095   5.298   6.093   0.300
 8399SOL    HW126096   5.382   6.039   0.292
 8399SOL    HW226097   5.268   6.122   0.209
 8400SOL     OW26098   6.992   6.903   2.581
 8400SOL    HW126099   6.904   6.884   2.624
 8400SOL    HW226100   0.020   6.972   2.634
 8401SOL     OW26101   3.642   3.896   6.280
 8401SOL    HW126102   3.728   3.932   6.245
 8401SOL    HW226103   3.595   3.846   6.208
 8402SOL     OW26104   4.414   1.979   6.330
 8402SOL    HW126105   4.380   1.901   6.383
 8402SOL    HW226106   4.393   2.064   6.379
 8403SOL     OW26107   1.439   1.327   4.316
 8403SOL    HW126108   1.490   1.337   4.401
 8403SOL    HW226109   1.490   1.369   4.241
 8404SOL     OW26110   4.937   5.610   5.986
 8404SOL    HW126111   4.865   5.599   6.054
 8404SOL    HW226112   4.939   5.530   5.926
 8405SOL     OW26113   0.232   2.424   6.254
 8405SOL    HW126114   0.199   2.355   6.319
 8405SOL    HW226115   0.313   2.390   6.207
 8406SOL     OW26116   4.837   2.636   1.483
 8406SOL    HW126117   4.854   2.734   1.498
 8406SOL    HW226118   4.921   2.585   1.501
 8407SOL     OW26119   5.035   4.064   3.802
 8407SOL    HW126120   4.984   4.123   3.739
 8407SOL    HW226121   5.129   4.096   3.808
 8408SOL     OW26122   5.059   2.114   3.860
 8408SOL    HW126123   5.084   2.056   3.938
 8408SOL    HW226124   4.973   2.080   3.821
 8409SOL     OW26125   1.821   1.606   4.442
 8409SOL    HW126126   1.788   1.666   4.369
 8409SOL    HW226127   1.896   1.550   4.408
 8410SOL     OW26128   4.200   6.616   1.367
 8410SOL    HW126129   4.109   6.619   1.326
 8410SOL    HW226130   4.204   6.542   1.435
 8411SOL     OW26131   2.136   4.378   4.182
 8411SOL    HW126132   2.190   4.460   4.166
 8411SOL    HW226133   2.040   4.395   4.159
 8412SOL     OW26134   4.551   2.172   2.009
 8412SOL    HW126135   4.627   2.238   2.005
 8412SOL    HW226136   4.577   2.095   2.067
 8413SOL     OW26137   3.352   4.999   0.311
 8413SOL    HW126138   3.352   5.034   0.405
 8413SOL    HW226139   3.446   5.000   0.275
 8414SOL     OW26140   4.121   6.100   3.027
 8414SOL    HW126141   4.101   6.080   2.931
 8414SOL    HW226142   4.081   6.188   3.052
 8415SOL     OW26143   6.616   4.000   3.307
 8415SOL    HW126144   6.710   4.034   3.313
 8415SOL    HW226145   6.616   3.912   3.261
 8416SOL     OW26146   4.990   3.835   2.686
 8416SOL    HW126147   5.004   3.848   2.588
 8416SOL    HW226148   5.046   3.901   2.737
 8417SOL     OW26149   2.133   6.184   6.452
 8417SOL    HW126150   2.208   6.174   6.517
 8417SOL    HW226151   2.051   6.141   6.488
 8418SOL     OW26152   6.487   5.605   2.526
 8418SOL    HW126153   6.481   5.669   2.602
 8418SOL    HW226154   6.440   5.520   2.549
 8419SOL     OW26155   4.504   0.559   2.301
 8419SOL    HW126156   4.449   0.543   2.383
 8419SOL    HW226157   4.560   0.640   2.313
 8420SOL     OW26158   3.579   0.545   6.208
 8420SOL    HW126159   3.672   0.512   6.221
 8420SOL    HW226160   3.574   0.600   6.125
 8421SOL     OW26161   2.000   6.587   2.134
 8421SOL    HW126162   1.986   6.489   2.144
 8421SOL    HW226163   2.028   6.608   2.040
 8422SOL     OW26164   4.553   6.864   0.333
 8422SOL    HW126165   4.582   6.804   0.407
 8422SOL    HW226166   4.629   6.923   0.306
 8423SOL     OW26167   3.518   4.758   0.414
 8423SOL    HW126168   3.449   4.829   0.423
 8423SOL    HW226169   3.484   4.685   0.355
 8424SOL     OW26170   3.358   1.716   2.794
 8424SOL    HW126171   3.347   1.631   2.743
 8424SOL    HW226172   3.273   1.735   2.845
 8425SOL     OW26173   5.963   5.048   1.581
 8425SOL    HW126174   5.864   5.053   1.595
 8425SOL    HW226175   6.010   5.082   1.663
 8426SOL     OW26176   4.054   3.244   3.775
 8426SOL    HW126177   4.070   3.232   3.873
 8426SOL    HW226178   4.014   3.161   3.737
 8427SOL     OW26179   2.583   4.286   6.543
 8427SOL    HW126180   2.673   4.259   6.576
 8427SOL    HW226181   2.551   4.365   6.596
 8428SOL     OW26182   0.529   4.082   1.961
 8428SOL    HW126183   0.510   4.021   2.038
 8428SOL    HW226184   0.614   4.054   1.917
 8429SOL     OW26185   1.849   5.678   3.913
 8429SOL    HW126186   1.780   5.747   3.895
 8429SOL    HW226187   1.912   5.711   3.984
 8430SOL     OW26188   4.486   4.515   3.261
 8430SOL    HW126189   4.499   4.453   3.183
 8430SOL    HW226190   4.469   4.608   3.227
 8431SOL     OW26191   3.381   4.645   1.119
 8431SOL    HW126192   3.452   4.590   1.075
 8431SOL    HW226193   3.375   4.619   1.216
 8432SOL     OW26194   3.776   5.655   6.469
 8432SOL    HW126195   3.715   5.734   6.462
 8432SOL    HW226196   3.865   5.677   6.429
 8433SOL     OW26197   1.000   2.930   5.919
 8433SOL    HW126198   0.984   3.026   5.945
 8433SOL    HW226199   1.067   2.890   5.981
 8434SOL     OW26200   4.852   6.202   5.814
 8434SOL    HW126201   4.835   6.299   5.793
 8434SOL    HW226202   4.848   6.149   5.730
 8435SOL     OW26203   4.607   1.989   1.331
 8435SOL    HW126204   4.650   2.026   1.249
 8435SOL    HW226205   4.647   1.900   1.352
 8436SOL     OW26206   4.382   4.881   2.289
 8436SOL    HW126207   4.357   4.974   2.261
 8436SOL    HW226208   4.320   4.816   2.246
 8437SOL     OW26209   0.618   1.079   0.704
 8437SOL    HW126210   0.570   0.991   0.704
 8437SOL    HW226211   0.618   1.117   0.611
 8438SOL     OW26212   2.823   4.725   2.439
 8438SOL    HW126213   2.898   4.789   2.425
 8438SOL    HW226214   2.800   4.681   2.353
 8439SOL     OW26215   0.079   5.561   2.334
 8439SOL    HW126216   0.084   5.470   2.293
 8439SOL    HW226217   7.007   5.579   2.366
 8440SOL     OW26218   0.464   0.730   1.511
 8440SOL    HW126219   0.535   0.799   1.497
 8440SOL    HW226220   0.380   0.774   1.543
 8441SOL     OW26221   5.117   5.555   6.342
 8441SOL    HW126222   5.204   5.505   6.342
 8441SOL    HW226223   5.119   5.625   6.271
 8442SOL     OW26224   2.379   4.472   0.195
 8442SOL    HW126225   2.351   4.423   0.277
 8442SOL    HW226226   2.332   4.433   0.115
 8443SOL     OW26227   0.976   0.500   2.813
 8443SOL    HW126228   0.891   0.483   2.763
 8443SOL    HW226229   0.959   0.565   2.886
 8444SOL     OW26230   3.818   6.230   3.557
 8444SOL    HW126231   3.828   6.130   3.551
 8444SOL    HW226232   3.906   6.272   3.534
 8445SOL     OW26233   3.623   5.019   2.703
 8445SOL    HW126234   3.701   4.958   2.715
 8445SOL    HW226235   3.647   5.111   2.736
 8446SOL     OW26236   5.640   5.050   2.810
 8446SOL    HW126237   5.647   5.074   2.907
 8446SOL    HW226238   5.559   5.094   2.771
 8447SOL     OW26239   5.210   1.966   2.266
 8447SOL    HW126240   5.136   1.905   2.293
 8447SOL    HW226241   5.188   2.010   2.179
 8448SOL     OW26242   0.246   3.749   6.647
 8448SOL    HW126243   0.310   3.815   6.607
 8448SOL    HW226244   0.241   3.669   6.588
 8449SOL     OW26245   0.843   3.677   5.032
 8449SOL    HW126246   0.833   3.706   4.937
 8449SOL    HW226247   0.929   3.628   5.042
 8450SOL     OW26248   1.938   6.116   2.966
 8450SOL    HW126249   1.931   6.215   2.982
 8450SOL    HW226250   1.856   6.084   2.919
 8451SOL     OW26251   4.194   2.983   1.393
 8451SOL    HW126252   4.217   3.003   1.298
 8451SOL    HW226253   4.240   3.049   1.453
 8452SOL     OW26254   6.707   0.388   1.424
 8452SOL    HW126255   6.638   0.320   1.396
 8452SOL    HW226256   6.785   0.384   1.362
 8453SOL     OW26257   6.414   4.447   6.350
 8453SOL    HW126258   6.402   4.438   6.252
 8453SOL    HW226259   6.387   4.361   6.395
 8454SOL     OW26260   1.252   6.849   3.391
 8454SOL    HW126261   1.329   6.833   3.453
 8454SOL    HW226262   1.270   6.929   3.334
 8455SOL     OW26263   4.927   1.601   1.095
 8455SOL    HW126264   4.968   1.518   1.134
 8455SOL    HW226265   4.832   1.609   1.127
 8456SOL     OW26266   5.355   5.708   3.579
 8456SOL    HW126267   5.344   5.671   3.486
 8456SOL    HW226268   5.321   5.641   3.645
 8457SOL     OW26269   0.076   0.268   5.499
 8457SOL    HW126270   0.115   0.339   5.557
 8457SOL    HW226271   0.094   0.290   5.403
 8458SOL     OW26272   1.771   2.100   0.320
 8458SOL    HW126273   1.741   2.080   0.226
 8458SOL    HW226274   1.868   2.078   0.329
 8459SOL     OW26275   3.461   5.367   2.087
 8459SOL    HW126276   3.522   5.440   2.117
 8459SOL    HW226277   3.379   5.407   2.046
 8460SOL     OW26278   4.815   2.230   6.948
 8460SOL    HW126279   4.895   2.212   7.005
 8460SOL    HW226280   4.734   2.193   6.991
 8461SOL     OW26281   0.595   4.120   1.437
 8461SOL    HW126282   0.636   4.209   1.458
 8461SOL    HW226283   0.576   4.115   1.339
 8462SOL     OW26284   3.314   4.122   6.835
 8462SOL    HW126285   3.397   4.156   6.791
 8462SOL    HW226286   3.338   4.080   6.922
 8463SOL     OW26287   0.190   1.962   0.164
 8463SOL    HW126288   0.207   1.977   0.066
 8463SOL    HW226289   0.094   1.977   0.183
 8464SOL     OW26290   0.138   3.278   6.899
 8464SOL    HW126291   0.187   3.362   6.878
 8464SOL    HW226292   0.190   3.200   6.864
 8465SOL     OW26293   3.684   2.170   1.084
 8465SOL    HW126294   3.649   2.091   1.134
 8465SOL    HW226295   3.654   2.254   1.129
 8466SOL     OW26296   5.311   0.659   5.262
 8466SOL    HW126297   5.300   0.563   5.236
 8466SOL    HW226298   5.409   0.681   5.268
 8467SOL     OW26299   3.005   1.128   0.773
 8467SOL    HW126300   2.930   1.114   0.708
 8467SOL    HW226301   3.025   1.225   0.781
 8468SOL     OW26302   5.965   3.581   6.713
 8468SOL    HW126303   5.984   3.496   6.664
 8468SOL    HW226304   5.881   3.571   6.765
 8469SOL     OW26305   4.138   2.883   5.467
 8469SOL    HW126306   4.088   2.952   5.519
 8469SOL    HW226307   4.154   2.802   5.524
 8470SOL     OW26308   0.678   4.738   1.162
 8470SOL    HW126309   0.578   4.734   1.153
 8470SOL    HW226310   0.704   4.705   1.253
 8471SOL     OW26311   2.726   0.789   5.050
 8471SOL    HW126312   2.700   0.853   5.123
 8471SOL    HW226313   2.714   0.695   5.084
 8472SOL     OW26314   5.376   1.471   6.227
 8472SOL    HW126315   5.373   1.517   6.316
 8472SOL    HW226316   5.290   1.424   6.211
 8473SOL     OW26317   4.881   5.067   6.581
 8473SOL    HW126318   4.948   5.130   6.541
 8473SOL    HW226319   4.867   5.089   6.677
 8474SOL     OW26320   3.097   3.343   2.242
 8474SOL    HW126321   3.017   3.338   2.183
 8474SOL    HW226322   3.164   3.407   2.204
 8475SOL     OW26323   0.101   3.394   1.343
 8475SOL    HW126324   0.162   3.345   1.282
 8475SOL    HW226325   0.008   3.392   1.306
 8476SOL     OW26326   6.212   0.144   1.675
 8476SOL    HW126327   6.180   0.184   1.589
 8476SOL    HW226328   6.140   0.153   1.744
 8477SOL     OW26329   4.858   6.986   1.472
 8477SOL    HW126330   4.848   0.027   1.395
 8477SOL    HW226331   4.896   0.014   1.550
 8478SOL     OW26332   0.398   0.056   5.535
 8478SOL    HW126333   0.368   0.142   5.577
 8478SOL    HW226334   0.469   0.015   5.592
 8479SOL     OW26335   1.745   2.211   1.378
 8479SOL    HW126336   1.773   2.203   1.282
 8479SOL    HW226337   1.683   2.136   1.401
 8480SOL     OW26338   4.800   3.569   0.456
 8480SOL    HW126339   4.870   3.508   0.418
 8480SOL    HW226340   4.790   3.552   0.554
 8481SOL     OW26341   3.865   2.065   4.336
 8481SOL    HW126342   3.794   2.122   4.295
 8481SOL    HW226343   3.891   1.993   4.271
 8482SOL     OW26344   4.652   1.190   0.143
 8482SOL    HW126345   4.570   1.133   0.134
 8482SOL    HW226346   4.628   1.286   0.131
 8483SOL     OW26347   3.495   6.078   3.604
 8483SOL    HW126348   3.581   6.079   3.554
 8483SOL    HW226349   3.423   6.117   3.546
 8484SOL     OW26350   6.487   6.277   4.788
 8484SOL    HW126351   6.426   6.242   4.717
 8484SOL    HW226352   6.434   6.328   4.856
 8485SOL     OW26353   3.757   2.622   0.084
 8485SOL    HW126354   3.742   2.534   0.129
 8485SOL    HW226355   3.771   2.607   7.007
 8486SOL     OW26356   1.376   1.444   2.381
 8486SOL    HW126357   1.398   1.359   2.334
 8486SOL    HW226358   1.282   1.440   2.415
 8487SOL     OW26359   5.496   2.155   5.778
 8487SOL    HW126360   5.551   2.175   5.859
 8487SOL    HW226361   5.401   2.181   5.796
 8488SOL     OW26362   5.728   5.765   2.492
 8488SOL    HW126363   5.662   5.742   2.421
 8488SOL    HW226364   5.681   5.806   2.569
 8489SOL     OW26365   5.861   1.016   1.152
 8489SOL    HW126366   5.889   1.068   1.233
 8489SOL    HW226367   5.767   1.039   1.129
 8490SOL     OW26368   2.425   6.816   6.608
 8490SOL    HW126369   2.448   6.910   6.582
 8490SOL    HW226370   2.387   6.769   6.529
 8491SOL     OW26371   2.000   5.806   2.171
 8491SOL    HW126372   1.982   5.743   2.096
 8491SOL    HW226373   2.009   5.754   2.256
 8492SOL     OW26374   6.260   3.868   4.681
 8492SOL    HW126375   6.294   3.909   4.766
 8492SOL    HW226376   6.335   3.865   4.614
 8493SOL     OW26377   3.362   1.191   0.691
 8493SOL    HW126378   3.366   1.291   0.688
 8493SOL    HW226379   3.426   1.157   0.760
 8494SOL     OW26380   5.808   4.879   2.121
 8494SOL    HW126381   5.757   4.840   2.198
 8494SOL    HW226382   5.869   4.810   2.083
 8495SOL     OW26383   6.186   5.199   0.593
 8495SOL    HW126384   6.187   5.164   0.687
 8495SOL    HW226385   6.098   5.179   0.550
 8496SOL     OW26386   5.539   1.539   1.988
 8496SOL    HW126387   5.540   1.472   1.914
 8496SOL    HW226388   5.567   1.628   1.951
 8497SOL     OW26389   6.998   0.457   3.642
 8497SOL    HW126390   7.009   0.358   3.643
 8497SOL    HW226391   6.925   0.482   3.578
 8498SOL     OW26392   5.268   6.956   4.354
 8498SOL    HW126393   5.290   0.019   4.403
 8498SOL    HW226394   5.211   6.898   4.412
 8499SOL     OW26395   6.891   5.627   0.196
 8499SOL    HW126396   6.962   5.683   0.153
 8499SOL    HW226397   6.932   5.543   0.233
 8500SOL     OW26398   1.657   1.125   5.762
 8500SOL    HW126399   1.709   1.188   5.821
 8500SOL    HW226400   1.559   1.144   5.771
 8501SOL     OW26401   0.345   1.608   6.958
 8501SOL    HW126402   0.398   1.650   6.885
 8501SOL    HW226403   0.254   1.649   6.960
 8502SOL     OW26404   0.527   2.952   6.470
 8502SOL    HW126405   0.505   3.035   6.522
 8502SOL    HW226406   0.443   2.911   6.435
 8503SOL     OW26407   6.533   6.260   4.456
 8503SOL    HW126408   6.485   6.186   4.504
 8503SOL    HW226409   6.467   6.329   4.427
 8504SOL     OW26410   2.220   5.495   2.282
 8504SOL    HW126411   2.143   5.543   2.325
 8504SOL    HW226412   2.251   5.546   2.202
 8505SOL     OW26413   5.325   3.653   3.134
 8505SOL    HW126414   5.278   3.579   3.086
 8505SOL    HW226415   5.366   3.618   3.218
 8506SOL     OW26416   1.921   0.569   0.567
 8506SOL    HW126417   1.888   0.648   0.515
 8506SOL    HW226418   1.875   0.566   0.656
 8507SOL     OW26419   4.804   0.202   5.610
 8507SOL    HW126420   4.762   0.112   5.619
 8507SOL    HW226421   4.863   0.219   5.689
 8508SOL     OW26422   4.280   2.180   6.700
 8508SOL    HW126423   4.333   2.194   6.783
 8508SOL    HW226424   4.184   2.201   6.718
 8509SOL     OW26425   5.807   0.457   3.543
 8509SOL    HW126426   5.765   0.459   3.453
 8509SOL    HW226427   5.894   0.409   3.539
 8510SOL     OW26428   5.447   2.491   4.278
 8510SOL    HW126429   5.478   2.459   4.189
 8510SOL    HW226430   5.348   2.487   4.283
 8511SOL     OW26431   5.602   2.840   1.922
 8511SOL    HW126432   5.681   2.826   1.863
 8511SOL    HW226433   5.632   2.884   2.007
 8512SOL     OW26434   1.859   7.011   3.706
 8512SOL    HW126435   1.790   0.054   3.673
 8512SOL    HW226436   1.905   6.968   3.628
 8513SOL     OW26437   5.904   6.341   6.976
 8513SOL    HW126438   5.941   6.390   0.034
 8513SOL    HW226439   5.862   6.256   7.007
 8514SOL     OW26440   3.158   6.567   3.684
 8514SOL    HW126441   3.244   6.612   3.661
 8514SOL    HW226442   3.177   6.478   3.726
 8515SOL     OW26443   5.715   2.147   0.759
 8515SOL    HW126444   5.659   2.149   0.676
 8515SOL    HW226445   5.803   2.189   0.741
 8516SOL     OW26446   6.417   2.235   2.031
 8516SOL    HW126447   6.385   2.324   2.064
 8516SOL    HW226448   6.339   2.181   1.999
 8517SOL     OW26449   1.214   2.800   6.065
 8517SOL    HW126450   1.174   2.761   6.148
 8517SOL    HW226451   1.304   2.760   6.048
 8518SOL     OW26452   3.341   5.515   6.988
 8518SOL    HW126453   3.303   5.440   0.021
 8518SOL    HW226454   3.266   5.573   6.955
 8519SOL     OW26455   1.585   5.487   2.459
 8519SOL    HW126456   1.577   5.427   2.538
 8519SOL    HW226457   1.508   5.472   2.397
 8520SOL     OW26458   4.089   0.828   0.370
 8520SOL    HW126459   4.005   0.870   0.335
 8520SOL    HW226460   4.168   0.870   0.327
 8521SOL     OW26461   1.158   6.291   6.013
 8521SOL    HW126462   1.084   6.252   5.959
 8521SOL    HW226463   1.119   6.341   6.091
 8522SOL     OW26464   1.113   6.078   4.619
 8522SOL    HW126465   1.192   6.138   4.608
 8522SOL    HW226466   1.072   6.093   4.709
 8523SOL     OW26467   1.859   6.605   6.415
 8523SOL    HW126468   1.931   6.673   6.419
 8523SOL    HW226469   1.796   6.619   6.492
 8524SOL     OW26470   1.442   3.906   5.788
 8524SOL    HW126471   1.355   3.922   5.835
 8524SOL    HW226472   1.503   3.854   5.847
 8525SOL     OW26473   5.772   3.566   2.708
 8525SOL    HW126474   5.774   3.475   2.666
 8525SOL    HW226475   5.678   3.600   2.711
 8526SOL     OW26476   2.444   2.497   1.850
 8526SOL    HW126477   2.409   2.540   1.767
 8526SOL    HW226478   2.405   2.406   1.860
 8527SOL     OW26479   4.900   0.547   4.237
 8527SOL    HW126480   4.806   0.523   4.263
 8527SOL    HW226481   4.909   0.545   4.137
 8528SOL     OW26482   4.792   3.017   5.939
 8528SOL    HW126483   4.754   2.946   5.998
 8528SOL    HW226484   4.817   3.097   5.994
 8529SOL     OW26485   1.399   4.781   6.708
 8529SOL    HW126486   1.337   4.845   6.663
 8529SOL    HW226487   1.485   4.776   6.658
 8530SOL     OW26488   1.483   3.932   5.258
 8530SOL    HW126489   1.570   3.885   5.243
 8530SOL    HW226490   1.500   4.023   5.295
 8531SOL     OW26491   5.374   5.117   2.750
 8531SOL    HW126492   5.389   5.142   2.845
 8531SOL    HW226493   5.323   5.031   2.746
 8532SOL     OW26494   3.185   4.644   5.493
 8532SOL    HW126495   3.137   4.683   5.414
 8532SOL    HW226496   3.247   4.713   5.532
 8533SOL     OW26497   3.213   1.191   4.513
 8533SOL    HW126498   3.194   1.130   4.591
 8533SOL    HW226499   3.140   1.260   4.507
 8534SOL     OW26500   1.257   3.515   2.976
 8534SOL    HW126501   1.337   3.542   3.029
 8534SOL    HW226502   1.255   3.416   2.967
 8535SOL     OW26503   0.528   1.997   4.556
 8535SOL    HW126504   0.509   2.071   4.491
 8535SOL    HW226505   0.516   1.909   4.511
 8536SOL     OW26506   6.508   1.689   5.523
 8536SOL    HW126507   6.554   1.759   5.468
 8536SOL    HW226508   6.482   1.612   5.465
 8537SOL     OW26509   5.413   0.364   1.267
 8537SOL    HW126510   5.320   0.334   1.249
 8537SOL    HW226511   5.415   0.464   1.271
 8538SOL     OW26512   7.020   0.405   4.743
 8538SOL    HW126513   0.025   0.407   4.646
 8538SOL    HW226514   6.933   0.358   4.753
 8539SOL     OW26515   0.532   2.660   1.893
 8539SOL    HW126516   0.605   2.691   1.833
 8539SOL    HW226517   0.445   2.664   1.844
 8540SOL     OW26518   3.510   0.498   0.566
 8540SOL    HW126519   3.590   0.516   0.508
 8540SOL    HW226520   3.436   0.559   0.539
 8541SOL     OW26521   3.031   1.386   4.478
 8541SOL    HW126522   2.986   1.414   4.393
 8541SOL    HW226523   2.972   1.405   4.556
 8542SOL     OW26524   2.229   4.590   6.436
 8542SOL    HW126525   2.236   4.608   6.534
 8542SOL    HW226526   2.251   4.494   6.418
 8543SOL     OW26527   1.867   2.434   5.619
 8543SOL    HW126528   1.920   2.364   5.572
 8543SOL    HW226529   1.888   2.523   5.579
 8544SOL     OW26530   5.067   4.018   5.513
 8544SOL    HW126531   5.103   3.970   5.593
 8544SOL    HW226532   5.045   4.112   5.539
 8545SOL     OW26533   3.459   6.802   5.773
 8545SOL    HW126534   3.530   6.872   5.760
 8545SOL    HW226535   3.466   6.765   5.866
 8546SOL     OW26536   5.544   0.438   1.522
 8546SOL    HW126537   5.538   0.403   1.428
 8546SOL    HW226538   5.551   0.537   1.520
 8547SOL     OW26539   6.282   6.571   5.820
 8547SOL    HW126540   6.293   6.510   5.898
 8547SOL    HW226541   6.368   6.576   5.769
 8548SOL     OW26542   0.564   3.469   5.947
 8548SOL    HW126543   0.501   3.392   5.952
 8548SOL    HW226544   0.645   3.443   5.895
 8549SOL     OW26545   2.234   1.085   3.383
 8549SOL    HW126546   2.330   1.080   3.357
 8549SOL    HW226547   2.200   0.993   3.402
 8550SOL     OW26548   0.861   4.578   6.934
 8550SOL    HW126549   0.786   4.553   6.873
 8550SOL    HW226550   0.942   4.525   6.911
 8551SOL     OW26551   1.907   2.289   6.117
 8551SOL    HW126552   1.830   2.228   6.139
 8551SOL    HW226553   1.922   2.289   6.018
 8552SOL     OW26554   2.252   1.278   2.622
 8552SOL    HW126555   2.225   1.235   2.537
 8552SOL    HW226556   2.332   1.337   2.606
 8553SOL     OW26557   5.068   3.323   0.974
 8553SOL    HW126558   5.148   3.376   1.002
 8553SOL    HW226559   5.068   3.314   0.875
 8554SOL     OW26560   0.810   6.543   0.334
 8554SOL    HW126561   0.876   6.528   0.408
 8554SOL    HW226562   0.839   6.490   0.254
 8555SOL     OW26563   4.803   1.135   3.809
 8555SOL    HW126564   4.898   1.105   3.793
 8555SOL    HW226565   4.751   1.127   3.724
 8556SOL     OW26566   1.715   6.178   0.338
 8556SOL    HW126567   1.685   6.089   0.304
 8556SOL    HW226568   1.785   6.216   0.277
 8557SOL     OW26569   0.176   0.956   0.218
 8557SOL    HW126570   0.175   0.864   0.179
 8557SOL    HW226571   0.150   1.023   0.149
 8558SOL     OW26572   2.958   4.935   3.323
 8558SOL    HW126573   3.014   4.880   3.260
 8558SOL    HW226574   2.973   5.032   3.305
 8559SOL     OW26575   0.954   5.120   2.510
 8559SOL    HW126576   1.020   5.047   2.527
 8559SOL    HW226577   0.982   5.202   2.560
 8560SOL     OW26578   2.353   4.257   1.667
 8560SOL    HW126579   2.381   4.299   1.580
 8560SOL    HW226580   2.266   4.210   1.655
 8561SOL     OW26581   4.452   0.076   2.264
 8561SOL    HW126582   4.505   0.019   2.202
 8561SOL    HW226583   4.372   0.112   2.215
 8562SOL     OW26584   3.956   1.320   6.684
 8562SOL    HW126585   3.859   1.306   6.664
 8562SOL    HW226586   4.011   1.298   6.603
 8563SOL     OW26587   1.719   5.735   3.050
 8563SOL    HW126588   1.641   5.795   3.033
 8563SOL    HW226589   1.730   5.672   2.973
 8564SOL     OW26590   4.048   0.434   6.935
 8564SOL    HW126591   4.005   0.512   6.888
 8564SOL    HW226592   4.147   0.447   6.936
 8565SOL     OW26593   2.828   5.526   1.210
 8565SOL    HW126594   2.815   5.515   1.112
 8565SOL    HW226595   2.848   5.437   1.251
 8566SOL     OW26596   3.400   1.182   3.095
 8566SOL    HW126597   3.461   1.143   3.025
 8566SOL    HW226598   3.422   1.143   3.184
 8567SOL     OW26599   1.604   1.982   1.808
 8567SOL    HW126600   1.688   1.966   1.757
 8567SOL    HW226601   1.623   1.980   1.906
 8568SOL     OW26602   6.853   1.801   6.556
 8568SOL    HW126603   6.951   1.795   6.571
 8568SOL    HW226604   6.831   1.885   6.506
 8569SOL     OW26605   5.280   2.408   6.243
 8569SOL    HW126606   5.364   2.408   6.188
 8569SOL    HW226607   5.252   2.502   6.262
 8570SOL     OW26608   1.367   2.967   4.067
 8570SOL    HW126609   1.318   2.918   3.995
 8570SOL    HW226610   1.376   2.908   4.147
 8571SOL     OW26611   1.719   0.513   3.641
 8571SOL    HW126612   1.704   0.608   3.612
 8571SOL    HW226613   1.782   0.512   3.718
 8572SOL     OW26614   3.133   4.225   5.743
 8572SOL    HW126615   3.084   4.302   5.784
 8572SOL    HW226616   3.077   4.143   5.751
 8573SOL     OW26617   3.566   6.410   0.528
 8573SOL    HW126618   3.480   6.397   0.478
 8573SOL    HW226619   3.628   6.334   0.508
 8574SOL     OW26620   6.930   6.426   5.502
 8574SOL    HW126621   6.890   6.468   5.420
 8574SOL    HW226622   6.949   6.330   5.484
 8575SOL     OW26623   3.310   6.065   2.725
 8575SOL    HW126624   3.324   6.049   2.627
 8575SOL    HW226625   3.257   6.149   2.737
 8576SOL     OW26626   0.815   3.775   3.226
 8576SOL    HW126627   0.904   3.800   3.188
 8576SOL    HW226628   0.775   3.855   3.270
 8577SOL     OW26629   1.921   1.553   6.771
 8577SOL    HW126630   1.987   1.551   6.696
 8577SOL    HW226631   1.880   1.644   6.778
 8578SOL     OW26632   6.230   0.117   5.241
 8578SOL    HW126633   6.326   0.105   5.265
 8578SOL    HW226634   6.222   0.149   5.147
 8579SOL     OW26635   3.182   5.781   2.654
 8579SOL    HW126636   3.251   5.738   2.596
 8579SOL    HW226637   3.201   5.879   2.662
 8580SOL     OW26638   1.339   6.760   1.421
 8580SOL    HW126639   1.264   6.825   1.418
 8580SOL    HW226640   1.426   6.808   1.408
 8581SOL     OW26641   3.536   4.933   1.053
 8581SOL    HW126642   3.443   4.918   1.086
 8581SOL    HW226643   3.556   4.868   0.979
 8582SOL     OW26644   3.856   4.369   5.508
 8582SOL    HW126645   3.822   4.276   5.528
 8582SOL    HW226646   3.883   4.375   5.412
 8583SOL     OW26647   4.197   0.957   2.630
 8583SOL    HW126648   4.241   1.014   2.700
 8583SOL    HW226649   4.107   0.996   2.608
 8584SOL     OW26650   6.732   1.005   4.641
 8584SOL    HW126651   6.661   1.041   4.580
 8584SOL    HW226652   6.822   1.027   4.604
 8585SOL     OW26653   5.652   2.226   1.708
 8585SOL    HW126654   5.743   2.243   1.744
 8585SOL    HW226655   5.598   2.310   1.713
 8586SOL     OW26656   5.664   6.039   0.996
 8586SOL    HW126657   5.599   6.062   1.068
 8586SOL    HW226658   5.757   6.060   1.027
 8587SOL     OW26659   1.399   1.294   5.837
 8587SOL    HW126660   1.319   1.239   5.814
 8587SOL    HW226661   1.431   1.343   5.756
 8588SOL     OW26662   3.008   1.864   6.842
 8588SOL    HW126663   3.080   1.805   6.804
 8588SOL    HW226664   3.041   1.958   6.845
 8589SOL     OW26665   0.523   2.897   5.694
 8589SOL    HW126666   0.617   2.871   5.671
 8589SOL    HW226667   0.524   2.966   5.766
 8590SOL     OW26668   0.883   1.918   2.905
 8590SOL    HW126669   0.825   1.924   2.824
 8590SOL    HW226670   0.941   1.837   2.898
 8591SOL     OW26671   6.769   5.175   0.230
 8591SOL    HW126672   6.765   5.180   0.130
 8591SOL    HW226673   6.807   5.086   0.257
 8592SOL     OW26674   1.099   2.603   6.610
 8592SOL    HW126675   1.049   2.686   6.635
 8592SOL    HW226676   1.047   2.523   6.639
 8593SOL     OW26677   2.927   0.430   6.838
 8593SOL    HW126678   3.016   0.472   6.855
 8593SOL    HW226679   2.871   0.434   6.921
 8594SOL     OW26680   6.268   2.776   6.193
 8594SOL    HW126681   6.273   2.836   6.112
 8594SOL    HW226682   6.200   2.704   6.177
 8595SOL     OW26683   5.099   6.747   2.423
 8595SOL    HW126684   5.044   6.665   2.441
 8595SOL    HW226685   5.154   6.733   2.341
 8596SOL     OW26686   0.935   2.714   3.427
 8596SOL    HW126687   0.905   2.657   3.351
 8596SOL    HW226688   0.991   2.659   3.489
 8597SOL     OW26689   5.508   3.452   1.578
 8597SOL    HW126690   5.533   3.376   1.637
 8597SOL    HW226691   5.587   3.512   1.565
 8598SOL     OW26692   5.494   0.254   4.480
 8598SOL    HW126693   5.564   0.277   4.549
 8598SOL    HW226694   5.536   0.255   4.389
 8599SOL     OW26695   1.683   2.598   3.785
 8599SOL    HW126696   1.715   2.526   3.846
 8599SOL    HW226697   1.744   2.677   3.790
 8600SOL     OW26698   4.533   3.267   1.224
 8600SOL    HW126699   4.550   3.183   1.275
 8600SOL    HW226700   4.618   3.297   1.181
 8601SOL     OW26701   1.016   0.703   3.665
 8601SOL    HW126702   0.946   0.661   3.722
 8601SOL    HW226703   0.972   0.758   3.594
 8602SOL     OW26704   2.776   6.805   4.347
 8602SOL    HW126705   2.702   6.746   4.315
 8602SOL    HW226706   2.836   6.752   4.407
 8603SOL     OW26707   0.031   0.870   0.456
 8603SOL    HW126708   7.006   0.787   0.487
 8603SOL    HW226709   0.103   0.846   0.391
 8604SOL     OW26710   1.250   4.007   5.964
 8604SOL    HW126711   1.259   4.045   6.057
 8604SOL    HW226712   1.157   3.972   5.951
 8605SOL     OW26713   6.808   4.805   4.558
 8605SOL    HW126714   6.749   4.768   4.486
 8605SOL    HW226715   6.893   4.839   4.517
 8606SOL     OW26716   2.111   2.358   6.551
 8606SOL    HW126717   2.082   2.305   6.631
 8606SOL    HW226718   2.030   2.384   6.498
 8607SOL     OW26719   2.168   4.973   1.418
 8607SOL    HW126720   2.214   4.934   1.497
 8607SOL    HW226721   2.175   4.910   1.340
 8608SOL     OW26722   2.590   5.070   3.279
 8608SOL    HW126723   2.508   5.021   3.250
 8608SOL    HW226724   2.661   5.061   3.209
 8609SOL     OW26725   4.953   1.345   3.633
 8609SOL    HW126726   5.051   1.325   3.637
 8609SOL    HW226727   4.902   1.278   3.688
 8610SOL     OW26728   0.470   6.442   3.306
 8610SOL    HW126729   0.555   6.404   3.344
 8610SOL    HW226730   0.398   6.439   3.375
 8611SOL     OW26731   3.334   1.911   3.650
 8611SOL    HW126732   3.324   1.980   3.722
 8611SOL    HW226733   3.353   1.822   3.691
 8612SOL     OW26734   3.970   3.307   3.492
 8612SOL    HW126735   4.014   3.306   3.582
 8612SOL    HW226736   3.872   3.293   3.503
 8613SOL     OW26737   3.017   2.478   1.470
 8613SOL    HW126738   2.922   2.450   1.483
 8613SOL    HW226739   3.028   2.520   1.380
 8614SOL     OW26740   1.083   2.391   1.559
 8614SOL    HW126741   1.119   2.304   1.525
 8614SOL    HW226742   0.984   2.384   1.569
 8615SOL     OW26743   4.377   1.173   3.403
 8615SOL    HW126744   4.383   1.239   3.479
 8615SOL    HW226745   4.327   1.214   3.327
 8616SOL     OW26746   4.300   5.143   2.596
 8616SOL    HW126747   4.299   5.082   2.675
 8616SOL    HW226748   4.389   5.190   2.591
 8617SOL     OW26749   4.596   0.090   4.086
 8617SOL    HW126750   4.562   0.042   4.166
 8617SOL    HW226751   4.622   0.024   4.015
 8618SOL     OW26752   5.582   4.053   1.674
 8618SOL    HW126753   5.540   3.990   1.740
 8618SOL    HW226754   5.555   4.147   1.696
 8619SOL     OW26755   5.659   4.703   1.884
 8619SOL    HW126756   5.597   4.781   1.876
 8619SOL    HW226757   5.732   4.724   1.949
 8620SOL     OW26758   2.248   1.061   4.649
 8620SOL    HW126759   2.266   0.985   4.586
 8620SOL    HW226760   2.312   1.058   4.725
 8621SOL     OW26761   5.049   2.313   2.085
 8621SOL    HW126762   5.081   2.229   2.042
 8621SOL    HW226763   5.127   2.367   2.117
 8622SOL     OW26764   6.667   5.328   2.673
 8622SOL    HW126765   6.671   5.231   2.697
 8622SOL    HW226766   6.630   5.380   2.750
 8623SOL     OW26767   6.755   2.948   5.368
 8623SOL    HW126768   6.781   2.859   5.330
 8623SOL    HW226769   6.712   3.004   5.297
 8624SOL     OW26770   3.276   3.577   6.410
 8624SOL    HW126771   3.271   3.676   6.418
 8624SOL    HW226772   3.196   3.544   6.359
 8625SOL     OW26773   3.780   1.646   5.470
 8625SOL    HW126774   3.767   1.554   5.507
 8625SOL    HW226775   3.848   1.643   5.397
 8626SOL     OW26776   4.865   3.723   0.209
 8626SOL    HW126777   4.811   3.696   0.289
 8626SOL    HW226778   4.962   3.723   0.233
 8627SOL     OW26779   1.502   1.588   2.586
 8627SOL    HW126780   1.447   1.536   2.651
 8627SOL    HW226781   1.471   1.569   2.493
 8628SOL     OW26782   0.375   6.289   0.387
 8628SOL    HW126783   0.404   6.217   0.324
 8628SOL    HW226784   0.423   6.374   0.366
 8629SOL     OW26785   0.325   0.133   4.291
 8629SOL    HW126786   0.404   0.107   4.347
 8629SOL    HW226787   0.263   0.056   4.283
 8630SOL     OW26788   4.869   3.223   2.950
 8630SOL    HW126789   4.812   3.146   2.978
 8630SOL    HW226790   4.950   3.229   3.009
 8631SOL     OW26791   2.794   6.300   6.623
 8631SOL    HW126792   2.827   6.325   6.714
 8631SOL    HW226793   2.871   6.299   6.559
 8632SOL     OW26794   4.498   4.760   5.250
 8632SOL    HW126795   4.430   4.800   5.312
 8632SOL    HW226796   4.569   4.828   5.230
 8633SOL     OW26797   5.479   3.876   5.454
 8633SOL    HW126798   5.496   3.932   5.373
 8633SOL    HW226799   5.436   3.932   5.525
 8634SOL     OW26800   5.507   5.102   1.077
 8634SOL    HW126801   5.512   5.038   1.154
 8634SOL    HW226802   5.413   5.108   1.045
 8635SOL     OW26803   6.384   2.979   6.836
 8635SOL    HW126804   6.455   2.943   6.776
 8635SOL    HW226805   6.294   2.963   6.795
 8636SOL     OW26806   4.737   6.285   1.153
 8636SOL    HW126807   4.787   6.235   1.224
 8636SOL    HW226808   4.691   6.364   1.194
 8637SOL     OW26809   2.195   1.936   6.267
 8637SOL    HW126810   2.187   2.019   6.211
 8637SOL    HW226811   2.287   1.897   6.256
 8638SOL     OW26812   4.351   3.073   5.365
 8638SOL    HW126813   4.428   3.023   5.325
 8638SOL    HW226814   4.275   3.010   5.378
 8639SOL     OW26815   4.348   3.191   6.551
 8639SOL    HW126816   4.331   3.156   6.643
 8639SOL    HW226817   4.424   3.257   6.554
 8640SOL     OW26818   2.909   3.226   1.441
 8640SOL    HW126819   2.890   3.179   1.527
 8640SOL    HW226820   2.888   3.165   1.364
 8641SOL     OW26821   4.784   5.529   2.683
 8641SOL    HW126822   4.813   5.448   2.735
 8641SOL    HW226823   4.824   5.525   2.591
 8642SOL     OW26824   1.375   6.502   4.539
 8642SOL    HW126825   1.290   6.521   4.489
 8642SOL    HW226826   1.378   6.557   4.622
 8643SOL     OW26827   3.427   6.996   0.603
 8643SOL    HW126828   3.438   0.073   0.617
 8643SOL    HW226829   3.515   6.954   0.580
 8644SOL     OW26830   6.089   1.897   6.667
 8644SOL    HW126831   6.165   1.894   6.602
 8644SOL    HW226832   6.034   1.814   6.658
 8645SOL     OW26833   6.056   4.337   1.875
 8645SOL    HW126834   5.995   4.390   1.935
 8645SOL    HW226835   6.012   4.251   1.850
 8646SOL     OW26836   0.210   2.200   5.541
 8646SOL    HW126837   0.194   2.296   5.517
 8646SOL    HW226838   0.226   2.193   5.640
 8647SOL     OW26839   2.345   4.600   1.589
 8647SOL    HW126840   2.380   4.693   1.593
 8647SOL    HW226841   2.289   4.582   1.669
 8648SOL     OW26842   5.783   5.679   1.157
 8648SOL    HW126843   5.879   5.694   1.181
 8648SOL    HW226844   5.739   5.767   1.140
 8649SOL     OW26845   4.383   6.655   0.484
 8649SOL    HW126846   4.344   6.595   0.554
 8649SOL    HW226847   4.392   6.747   0.521
 8650SOL     OW26848   2.256   6.977   4.231
 8650SOL    HW126849   2.204   0.038   4.254
 8650SOL    HW226850   2.295   6.986   4.140
 8651SOL     OW26851   2.782   1.571   0.587
 8651SOL    HW126852   2.841   1.503   0.544
 8651SOL    HW226853   2.830   1.613   0.664
 8652SOL     OW26854   1.462   4.085   3.859
 8652SOL    HW126855   1.418   4.170   3.887
 8652SOL    HW226856   1.436   4.062   3.765
 8653SOL     OW26857   6.828   1.481   5.956
 8653SOL    HW126858   6.844   1.491   5.858
 8653SOL    HW226859   6.760   1.548   5.985
 8654SOL     OW26860   1.283   4.919   1.865
 8654SOL    HW126861   1.205   4.979   1.885
 8654SOL    HW226862   1.362   4.975   1.840
 8655SOL     OW26863   6.819   1.308   5.273
 8655SOL    HW126864   6.737   1.319   5.329
 8655SOL    HW226865   6.794   1.308   5.177
 8656SOL     OW26866   4.565   6.965   1.618
 8656SOL    HW126867   4.492   6.977   1.551
 8656SOL    HW226868   4.599   0.034   1.647
 8657SOL     OW26869   5.334   0.859   2.442
 8657SOL    HW126870   5.315   0.809   2.357
 8657SOL    HW226871   5.248   0.877   2.489
 8658SOL     OW26872   6.302   4.850   1.243
 8658SOL    HW126873   6.390   4.870   1.199
 8658SOL    HW226874   6.305   4.880   1.338
 8659SOL     OW26875   5.181   1.442   2.188
 8659SOL    HW126876   5.132   1.505   2.128
 8659SOL    HW226877   5.117   1.374   2.225
 8660SOL     OW26878   0.957   2.863   1.328
 8660SOL    HW126879   0.861   2.836   1.342
 8660SOL    HW226880   0.998   2.805   1.258
 8661SOL     OW26881   6.218   3.354   3.074
 8661SOL    HW126882   6.146   3.418   3.050
 8661SOL    HW226883   6.182   3.284   3.136
 8662SOL     OW26884   3.183   5.649   3.014
 8662SOL    HW126885   3.176   5.595   2.930
 8662SOL    HW226886   3.206   5.743   2.992
 8663SOL     OW26887   3.604   5.649   3.248
 8663SOL    HW126888   3.515   5.607   3.228
 8663SOL    HW226889   3.673   5.577   3.260
 8664SOL     OW26890   2.669   5.535   3.255
 8664SOL    HW126891   2.644   5.584   3.339
 8664SOL    HW226892   2.618   5.572   3.178
 8665SOL     OW26893   6.161   3.999   5.934
 8665SOL    HW126894   6.215   4.071   5.889
 8665SOL    HW226895   6.207   3.971   6.018
 8666SOL     OW26896   5.299   0.354   3.250
 8666SOL    HW126897   5.345   0.374   3.336
 8666SOL    HW226898   5.238   0.430   3.226
 8667SOL     OW26899   4.994   1.829   4.365
 8667SOL    HW126900   5.059   1.761   4.400
 8667SOL    HW226901   4.967   1.890   4.440
 8668SOL     OW26902   5.173   2.750   5.104
 8668SOL    HW126903   5.075   2.745   5.085
 8668SOL    HW226904   5.198   2.843   5.131
 8669SOL     OW26905   6.060   6.554   6.198
 8669SOL    HW126906   6.120   6.623   6.239
 8669SOL    HW226907   6.086   6.540   6.102
 8670SOL     OW26908   6.155   4.492   5.625
 8670SOL    HW126909   6.100   4.575   5.618
 8670SOL    HW226910   6.098   4.417   5.661
 8671SOL     OW26911   0.342   2.347   2.533
 8671SOL    HW126912   0.292   2.265   2.506
 8671SOL    HW226913   0.422   2.358   2.474
 8672SOL     OW26914   0.147   0.653   3.597
 8672SOL    HW126915   0.078   0.589   3.631
 8672SOL    HW226916   0.121   0.684   3.505
 8673SOL     OW26917   0.907   1.722   0.359
 8673SOL    HW126918   0.995   1.693   0.320
 8673SOL    HW226919   0.899   1.688   0.453
 8674SOL     OW26920   0.520   4.634   3.329
 8674SOL    HW126921   0.504   4.663   3.424
 8674SOL    HW226922   0.552   4.712   3.275
 8675SOL     OW26923   3.487   1.860   5.863
 8675SOL    HW126924   3.448   1.874   5.772
 8675SOL    HW226925   3.543   1.777   5.862
 8676SOL     OW26926   5.691   0.868   0.854
 8676SOL    HW126927   5.671   0.924   0.933
 8676SOL    HW226928   5.703   0.926   0.773
 8677SOL     OW26929   1.278   6.813   5.558
 8677SOL    HW126930   1.232   6.835   5.644
 8677SOL    HW226931   1.348   6.743   5.575
 8678SOL     OW26932   1.557   0.647   0.997
 8678SOL    HW126933   1.468   0.687   1.016
 8678SOL    HW226934   1.545   0.558   0.953
 8679SOL     OW26935   2.161   1.223   4.201
 8679SOL    HW126936   2.097   1.159   4.157
 8679SOL    HW226937   2.215   1.173   4.269
 8680SOL     OW26938   6.482   2.672   6.332
 8680SOL    HW126939   6.417   2.734   6.286
 8680SOL    HW226940   6.439   2.634   6.413
 8681SOL     OW26941   5.309   5.702   1.073
 8681SOL    HW126942   5.332   5.777   1.011
 8681SOL    HW226943   5.287   5.621   1.020
 8682SOL     OW26944   0.241   0.183   0.954
 8682SOL    HW126945   0.262   0.250   1.025
 8682SOL    HW226946   0.187   0.227   0.882
 8683SOL     OW26947   1.913   4.012   4.645
 8683SOL    HW126948   1.871   3.981   4.730
 8683SOL    HW226949   1.841   4.031   4.578
 8684SOL     OW26950   0.879   3.979   4.633
 8684SOL    HW126951   0.971   3.946   4.613
 8684SOL    HW226952   0.824   3.980   4.549
 8685SOL     OW26953   5.014   2.341   5.435
 8685SOL    HW126954   4.934   2.400   5.427
 8685SOL    HW226955   4.986   2.250   5.464
 8686SOL     OW26956   6.500   6.381   2.509
 8686SOL    HW126957   6.571   6.436   2.464
 8686SOL    HW226958   6.412   6.401   2.468
 8687SOL     OW26959   6.119   3.135   3.182
 8687SOL    HW126960   6.158   3.124   3.274
 8687SOL    HW226961   6.171   3.079   3.117
 8688SOL     OW26962   1.224   4.074   6.224
 8688SOL    HW126963   1.255   4.113   6.311
 8688SOL    HW226964   1.168   3.992   6.242
 8689SOL     OW26965   4.436   3.442   0.845
 8689SOL    HW126966   4.388   3.450   0.758
 8689SOL    HW226967   4.526   3.400   0.830
 8690SOL     OW26968   1.808   2.023   3.481
 8690SOL    HW126969   1.734   2.052   3.541
 8690SOL    HW226970   1.877   1.974   3.534
 8691SOL     OW26971   2.925   2.052   4.897
 8691SOL    HW126972   2.964   2.120   4.835
 8691SOL    HW226973   2.907   1.967   4.847
 8692SOL     OW26974   4.628   2.346   5.808
 8692SOL    HW126975   4.662   2.411   5.876
 8692SOL    HW226976   4.637   2.253   5.844
 8693SOL     OW26977   6.044   0.798   6.403
 8693SOL    HW126978   5.981   0.870   6.432
 8693SOL    HW226979   5.992   0.721   6.367
 8694SOL     OW26980   5.912   3.108   3.932
 8694SOL    HW126981   5.862   3.058   3.862
 8694SOL    HW226982   5.849   3.164   3.986
 8695SOL     OW26983   4.339   3.556   6.583
 8695SOL    HW126984   4.367   3.532   6.490
 8695SOL    HW226985   4.398   3.509   6.649
 8696SOL     OW26986   3.100   5.602   5.924
 8696SOL    HW126987   3.133   5.557   6.007
 8696SOL    HW226988   3.024   5.663   5.947
 8697SOL     OW26989   1.853   4.117   5.797
 8697SOL    HW126990   1.793   4.074   5.730
 8697SOL    HW226991   1.933   4.059   5.813
 8698SOL     OW26992   5.243   5.870   5.387
 8698SOL    HW126993   5.200   5.842   5.473
 8698SOL    HW226994   5.213   5.963   5.364
 8699SOL     OW26995   2.256   3.042   7.001
 8699SOL    HW126996   2.330   2.975   6.998
 8699SOL    HW226997   2.169   2.995   7.018
 8700SOL     OW26998   0.588   0.123   5.089
 8700SOL    HW126999   0.552   0.081   5.172
 8700SOL    HW227000   0.662   0.186   5.113
 8701SOL     OW27001   0.929   2.140   6.805
 8701SOL    HW127002   0.999   2.206   6.834
 8701SOL    HW227003   0.953   2.101   6.717
 8702SOL     OW27004   5.162   4.233   1.808
 8702SOL    HW127005   5.176   4.166   1.735
 8702SOL    HW227006   5.181   4.325   1.773
 8703SOL     OW27007   2.432   4.535   1.121
 8703SOL    HW127008   2.500   4.501   1.185
 8703SOL    HW227009   2.344   4.546   1.167
 8704SOL     OW27010   0.736   2.209   3.803
 8704SOL    HW127011   0.716   2.177   3.710
 8704SOL    HW227012   0.835   2.212   3.816
 8705SOL     OW27013   4.474   2.718   0.238
 8705SOL    HW127014   4.452   2.792   0.301
 8705SOL    HW227015   4.564   2.734   0.197
 8706SOL     OW27016   4.987   3.245   6.440
 8706SOL    HW127017   4.896   3.243   6.398
 8706SOL    HW227018   4.990   3.316   6.510
 8707SOL     OW27019   1.436   2.129   4.412
 8707SOL    HW127020   1.435   2.029   4.404
 8707SOL    HW227021   1.450   2.155   4.508
 8708SOL     OW27022   5.926   2.272   2.580
 8708SOL    HW127023   5.878   2.335   2.519
 8708SOL    HW227024   5.865   2.196   2.603
 8709SOL     OW27025   6.636   0.245   5.850
 8709SOL    HW127026   6.721   0.265   5.800
 8709SOL    HW227027   6.597   0.159   5.816
 8710SOL     OW27028   2.276   1.163   3.655
 8710SOL    HW127029   2.359   1.121   3.691
 8710SOL    HW227030   2.259   1.128   3.562
 8711SOL     OW27031   1.291   0.557   1.620
 8711SOL    HW127032   1.330   0.533   1.531
 8711SOL    HW227033   1.194   0.533   1.621
 8712SOL     OW27034   1.910   2.647   5.463
 8712SOL    HW127035   1.991   2.705   5.464
 8712SOL    HW227036   1.828   2.704   5.456
 8713SOL     OW27037   0.982   4.880   2.160
 8713SOL    HW127038   0.966   4.979   2.155
 8713SOL    HW227039   0.906   4.832   2.117
 8714SOL     OW27040   6.600   6.253   6.792
 8714SOL    HW127041   6.556   6.173   6.752
 8714SOL    HW227042   6.583   6.333   6.734
 8715SOL     OW27043   2.766   2.291   0.540
 8715SOL    HW127044   2.856   2.268   0.502
 8715SOL    HW227045   2.713   2.208   0.554
 8716SOL     OW27046   6.438   6.841   1.419
 8716SOL    HW127047   6.498   6.793   1.354
 8716SOL    HW227048   6.481   6.927   1.447
 8717SOL     OW27049   2.201   4.726   0.201
 8717SOL    HW127050   2.105   4.719   0.173
 8717SOL    HW227051   2.240   4.634   0.209
 8718SOL     OW27052   2.180   4.288   6.224
 8718SOL    HW127053   2.108   4.357   6.214
 8718SOL    HW227054   2.210   4.285   6.320
 8719SOL     OW27055   3.601   1.002   5.970
 8719SOL    HW127056   3.699   1.020   5.966
 8719SOL    HW227057   3.558   1.031   5.885
 8720SOL     OW27058   6.627   4.227   5.049
 8720SOL    HW127059   6.557   4.296   5.068
 8720SOL    HW227060   6.665   4.243   4.957
 8721SOL     OW27061   0.051   6.538   6.579
 8721SOL    HW127062   0.028   6.454   6.629
 8721SOL    HW227063   0.145   6.534   6.548
 8722SOL     OW27064   3.812   1.135   1.205
 8722SOL    HW127065   3.822   1.148   1.304
 8722SOL    HW227066   3.759   1.211   1.167
 8723SOL     OW27067   5.035   7.007   2.474
 8723SOL    HW127068   4.952   7.010   2.418
 8723SOL    HW227069   5.079   6.918   2.461
 8724SOL     OW27070   4.273   0.343   4.558
 8724SOL    HW127071   4.205   0.412   4.535
 8724SOL    HW227072   4.228   0.266   4.604
 8725SOL     OW27073   0.689   6.411   4.591
 8725SOL    HW127074   0.683   6.434   4.688
 8725SOL    HW227075   0.785   6.405   4.564
 8726SOL     OW27076   0.815   0.824   0.465
 8726SOL    HW127077   0.858   0.838   0.555
 8726SOL    HW227078   0.857   0.885   0.398
 8727SOL     OW27079   5.344   5.795   6.240
 8727SOL    HW127080   5.401   5.781   6.159
 8727SOL    HW227081   5.249   5.807   6.211
 8728SOL     OW27082   5.937   0.406   3.149
 8728SOL    HW127083   5.842   0.409   3.180
 8728SOL    HW227084   5.959   0.315   3.116
 8729SOL     OW27085   3.871   5.356   6.167
 8729SOL    HW127086   3.892   5.421   6.094
 8729SOL    HW227087   3.836   5.271   6.127
 8730SOL     OW27088   5.174   4.880   2.154
 8730SOL    HW127089   5.227   4.824   2.089
 8730SOL    HW227090   5.110   4.938   2.103
 8731SOL     OW27091   0.291   2.026   3.296
 8731SOL    HW127092   0.272   2.003   3.391
 8731SOL    HW227093   0.234   2.103   3.268
 8732SOL     OW27094   5.034   5.437   0.929
 8732SOL    HW127095   5.085   5.518   0.899
 8732SOL    HW227096   4.982   5.459   1.012
 8733SOL     OW27097   0.360   4.680   2.154
 8733SOL    HW127098   0.289   4.637   2.098
 8733SOL    HW227099   0.327   4.687   2.248
 8734SOL     OW27100   6.890   3.565   1.845
 8734SOL    HW127101   6.880   3.516   1.759
 8734SOL    HW227102   6.832   3.524   1.915
 8735SOL     OW27103   1.975   3.847   5.485
 8735SOL    HW127104   2.059   3.849   5.432
 8735SOL    HW227105   1.934   3.938   5.487
 8736SOL     OW27106   0.901   5.531   2.620
 8736SOL    HW127107   0.980   5.470   2.627
 8736SOL    HW227108   0.844   5.503   2.542
 8737SOL     OW27109   1.610   5.162   6.445
 8737SOL    HW127110   1.614   5.143   6.543
 8737SOL    HW227111   1.517   5.149   6.412
 8738SOL     OW27112   1.116   3.862   3.550
 8738SOL    HW127113   1.080   3.769   3.551
 8738SOL    HW227114   1.041   3.928   3.549
 8739SOL     OW27115   5.144   4.299   5.398
 8739SOL    HW127116   5.107   4.234   5.332
 8739SOL    HW227117   5.079   4.312   5.473
 8740SOL     OW27118   3.472   1.665   3.747
 8740SOL    HW127119   3.499   1.655   3.651
 8740SOL    HW227120   3.549   1.703   3.799
 8741SOL     OW27121   1.143   7.006   2.286
 8741SOL    HW127122   1.189   0.074   2.290
 8741SOL    HW227123   1.211   6.935   2.270
 8742SOL     OW27124   3.154   1.523   2.568
 8742SOL    HW127125   3.172   1.495   2.473
 8742SOL    HW227126   3.218   1.476   2.629
 8743SOL     OW27127   1.565   0.577   2.017
 8743SOL    HW127128   1.659   0.560   1.989
 8743SOL    HW227129   1.515   0.620   1.943
 8744SOL     OW27130   3.601   3.910   6.847
 8744SOL    HW127131   3.549   3.890   6.763
 8744SOL    HW227132   3.661   3.833   6.868
 8745SOL     OW27133   6.479   1.561   6.091
 8745SOL    HW127134   6.409   1.592   6.027
 8745SOL    HW227135   6.457   1.593   6.183
 8746SOL     OW27136   5.305   5.209   4.363
 8746SOL    HW127137   5.392   5.173   4.327
 8746SOL    HW227138   5.313   5.223   4.461
 8747SOL     OW27139   6.919   0.792   2.102
 8747SOL    HW127140   6.908   0.706   2.051
 8747SOL    HW227141   6.873   0.784   2.190
 8748SOL     OW27142   0.628   1.924   3.509
 8748SOL    HW127143   0.709   1.872   3.481
 8748SOL    HW227144   0.655   2.019   3.526
 8749SOL     OW27145   2.619   1.600   5.459
 8749SOL    HW127146   2.581   1.636   5.544
 8749SOL    HW227147   2.663   1.674   5.408
 8750SOL     OW27148   4.406   2.718   6.177
 8750SOL    HW127149   4.495   2.762   6.168
 8750SOL    HW227150   4.358   2.755   6.257
 8751SOL     OW27151   0.336   6.346   1.950
 8751SOL    HW127152   0.341   6.274   2.020
 8751SOL    HW227153   0.261   6.408   1.973
 8752SOL     OW27154   4.761   3.145   6.798
 8752SOL    HW127155   4.808   3.100   6.874
 8752SOL    HW227156   4.662   3.142   6.814
 8753SOL     OW27157   1.598   3.111   6.997
 8753SOL    HW127158   1.582   3.158   6.910
 8753SOL    HW227159   1.536   3.033   7.005
 8754SOL     OW27160   3.033   5.074   0.013
 8754SOL    HW127161   2.953   5.075   0.073
 8754SOL    HW227162   3.113   5.103   0.065
 8755SOL     OW27163   0.374   1.777   2.309
 8755SOL    HW127164   0.361   1.707   2.380
 8755SOL    HW227165   0.285   1.800   2.269
 8756SOL     OW27166   2.349   2.541   3.886
 8756SOL    HW127167   2.269   2.490   3.855
 8756SOL    HW227168   2.324   2.600   3.962
 8757SOL     OW27169   4.956   6.600   5.663
 8757SOL    HW127170   4.883   6.534   5.645
 8757SOL    HW227171   4.998   6.581   5.751
 8758SOL     OW27172   3.615   6.401   3.657
 8758SOL    HW127173   3.685   6.339   3.621
 8758SOL    HW227174   3.579   6.364   3.743
 8759SOL     OW27175   6.122   1.071   7.013
 8759SOL    HW127176   6.217   1.039   7.019
 8759SOL    HW227177   6.071   1.038   0.071
 8760SOL     OW27178   1.979   2.177   4.566
 8760SOL    HW127179   1.919   2.246   4.525
 8760SOL    HW227180   2.026   2.217   4.644
 8761SOL     OW27181   4.578   1.245   2.103
 8761SOL    HW127182   4.541   1.307   2.172
 8761SOL    HW227183   4.673   1.269   2.083
 8762SOL     OW27184   1.434   4.929   3.382
 8762SOL    HW127185   1.473   4.915   3.291
 8762SOL    HW227186   1.503   4.969   3.442
 8763SOL     OW27187   0.100   0.871   5.866
 8763SOL    HW127188   0.042   0.795   5.835
 8763SOL    HW227189   0.119   0.932   5.789
 8764SOL     OW27190   4.041   4.943   5.561
 8764SOL    HW127191   3.985   4.925   5.480
 8764SOL    HW227192   3.997   4.903   5.642
 8765SOL     OW27193   5.016   0.044   5.097
 8765SOL    HW127194   5.015   0.121   5.033
 8765SOL    HW227195   5.096   7.008   5.078
 8766SOL     OW27196   5.315   4.786   5.825
 8766SOL    HW127197   5.337   4.748   5.735
 8766SOL    HW227198   5.343   4.722   5.896
 8767SOL     OW27199   3.100   0.531   3.570
 8767SOL    HW127200   3.165   0.605   3.553
 8767SOL    HW227201   3.150   0.447   3.592
 8768SOL     OW27202   6.585   2.762   0.253
 8768SOL    HW127203   6.536   2.839   0.213
 8768SOL    HW227204   6.661   2.796   0.308
 8769SOL     OW27205   6.386   1.139   1.105
 8769SOL    HW127206   6.457   1.163   1.040
 8769SOL    HW227207   6.425   1.080   1.176
 8770SOL     OW27208   4.934   3.271   2.678
 8770SOL    HW127209   4.909   3.252   2.773
 8770SOL    HW227210   4.941   3.370   2.665
 8771SOL     OW27211   0.418   3.739   6.288
 8771SOL    HW127212   0.496   3.799   6.305
 8771SOL    HW227213   0.443   3.645   6.312
 8772SOL     OW27214   5.774   0.159   4.427
 8772SOL    HW127215   5.788   0.225   4.353
 8772SOL    HW227216   5.863   0.123   4.456
 8773SOL     OW27217   6.899   2.039   4.160
 8773SOL    HW127218   6.955   2.006   4.084
 8773SOL    HW227219   6.946   2.113   4.207
 8774SOL     OW27220   1.317   0.108   0.145
 8774SOL    HW127221   1.272   0.047   0.210
 8774SOL    HW227222   1.307   0.202   0.175
 8775SOL     OW27223   5.408   1.788   4.366
 8775SOL    HW127224   5.413   1.741   4.454
 8775SOL    HW227225   5.348   1.738   4.304
 8776SOL     OW27226   4.903   2.769   0.272
 8776SOL    HW127227   4.943   2.737   0.186
 8776SOL    HW227228   4.967   2.751   0.347
 8777SOL     OW27229   1.551   2.319   3.105
 8777SOL    HW127230   1.502   2.238   3.071
 8777SOL    HW227231   1.515   2.401   3.061
 8778SOL     OW27232   4.426   4.422   5.700
 8778SOL    HW127233   4.336   4.420   5.656
 8778SOL    HW227234   4.419   4.466   5.790
 8779SOL     OW27235   3.273   4.872   3.304
 8779SOL    HW127236   3.222   4.837   3.383
 8779SOL    HW227237   3.220   4.857   3.221
 8780SOL     OW27238   6.858   5.381   2.898
 8780SOL    HW127239   6.830   5.368   2.993
 8780SOL    HW227240   6.949   5.422   2.896
 8781SOL     OW27241   3.668   6.122   1.949
 8781SOL    HW127242   3.764   6.147   1.940
 8781SOL    HW227243   3.630   6.166   2.030
 8782SOL     OW27244   5.039   0.707   1.782
 8782SOL    HW127245   5.023   0.806   1.775
 8782SOL    HW227246   4.981   0.669   1.853
 8783SOL     OW27247   4.935   3.430   4.830
 8783SOL    HW127248   4.875   3.489   4.884
 8783SOL    HW227249   4.927   3.455   4.733
 8784SOL     OW27250   5.511   6.406   0.876
 8784SOL    HW127251   5.459   6.389   0.959
 8784SOL    HW227252   5.486   6.496   0.840
 8785SOL     OW27253   0.735   5.570   6.145
 8785SOL    HW127254   0.753   5.472   6.153
 8785SOL    HW227255   0.666   5.597   6.212
 8786SOL     OW27256   4.120   1.932   2.133
 8786SOL    HW127257   4.029   1.965   2.109
 8786SOL    HW227258   4.164   1.996   2.195
 8787SOL     OW27259   3.731   0.441   1.909
 8787SOL    HW127260   3.763   0.462   2.001
 8787SOL    HW227261   3.661   0.507   1.882
 8788SOL     OW27262   0.539   0.052   4.832
 8788SOL    HW127263   0.567   0.124   4.769
 8788SOL    HW227264   0.570   0.075   4.925
 8789SOL     OW27265   0.631   3.467   4.797
 8789SOL    HW127266   0.557   3.501   4.739
 8789SOL    HW227267   0.718   3.475   4.747
 8790SOL     OW27268   5.863   3.079   6.901
 8790SOL    HW127269   5.767   3.067   6.926
 8790SOL    HW227270   5.911   2.992   6.909
 8791SOL     OW27271   4.559   5.613   5.462
 8791SOL    HW127272   4.570   5.696   5.517
 8791SOL    HW227273   4.498   5.550   5.510
 8792SOL     OW27274   4.921   5.283   1.631
 8792SOL    HW127275   4.933   5.193   1.589
 8792SOL    HW227276   4.850   5.278   1.702
 8793SOL     OW27277   0.450   4.751   4.371
 8793SOL    HW127278   0.381   4.738   4.442
 8793SOL    HW227279   0.533   4.788   4.413
 8794SOL     OW27280   0.089   0.241   1.950
 8794SOL    HW127281   0.050   0.197   1.869
 8794SOL    HW227282   0.043   0.328   1.965
 8795SOL     OW27283   1.799   5.236   5.721
 8795SOL    HW127284   1.846   5.261   5.805
 8795SOL    HW227285   1.765   5.319   5.676
 8796SOL     OW27286   6.683   3.340   3.295
 8796SOL    HW127287   6.647   3.406   3.361
 8796SOL    HW227288   6.673   3.247   3.333
 8797SOL     OW27289   6.096   7.019   4.096
 8797SOL    HW127290   6.108   0.030   4.002
 8797SOL    HW227291   6.004   6.982   4.107
 8798SOL     OW27292   4.724   6.440   5.683
 8798SOL    HW127293   4.740   6.400   5.593
 8798SOL    HW227294   4.640   6.494   5.681
 8799SOL     OW27295   2.121   5.021   2.186
 8799SOL    HW127296   2.148   4.957   2.114
 8799SOL    HW227297   2.196   5.031   2.251
 8800SOL     OW27298   6.832   5.927   5.256
 8800SOL    HW127299   6.746   5.876   5.255
 8800SOL    HW227300   6.837   5.987   5.176
 8801SOL     OW27301   6.102   2.278   5.183
 8801SOL    HW127302   6.121   2.375   5.172
 8801SOL    HW227303   6.079   2.259   5.279
 8802SOL     OW27304   1.049   6.350   5.638
 8802SOL    HW127305   1.022   6.319   5.730
 8802SOL    HW227306   1.039   6.274   5.574
 8803SOL     OW27307   6.119   0.628   6.132
 8803SOL    HW127308   6.148   0.533   6.129
 8803SOL    HW227309   6.024   0.633   6.163
 8804SOL     OW27310   1.558   5.840   1.882
 8804SOL    HW127311   1.636   5.846   1.819
 8804SOL    HW227312   1.509   5.927   1.882
 8805SOL     OW27313   4.415   5.485   2.438
 8805SOL    HW127314   4.439   5.390   2.456
 8805SOL    HW227315   4.443   5.542   2.515
 8806SOL     OW27316   2.237   6.489   0.249
 8806SOL    HW127317   2.210   6.517   0.341
 8806SOL    HW227318   2.203   6.556   0.183
 8807SOL     OW27319   5.093   2.277   1.271
 8807SOL    HW127320   5.047   2.199   1.229
 8807SOL    HW227321   5.104   2.349   1.202
 8808SOL     OW27322   2.058   2.115   0.589
 8808SOL    HW127323   2.035   2.101   0.493
 8808SOL    HW227324   2.102   2.032   0.625
 8809SOL     OW27325   1.503   3.737   3.640
 8809SOL    HW127326   1.426   3.711   3.582
 8809SOL    HW227327   1.490   3.700   3.731
 8810SOL     OW27328   6.831   1.474   5.689
 8810SOL    HW127329   6.768   1.396   5.687
 8810SOL    HW227330   6.849   1.506   5.596
 8811SOL     OW27331   4.282   6.021   2.367
 8811SOL    HW127332   4.290   6.033   2.268
 8811SOL    HW227333   4.253   5.928   2.387
 8812SOL     OW27334   3.659   1.485   6.465
 8812SOL    HW127335   3.609   1.502   6.550
 8812SOL    HW227336   3.613   1.530   6.389
 8813SOL     OW27337   2.666   4.584   3.050
 8813SOL    HW127338   2.572   4.584   3.015
 8813SOL    HW227339   2.665   4.609   3.147
 8814SOL     OW27340   5.776   0.120   0.058
 8814SOL    HW127341   5.861   0.102   0.008
 8814SOL    HW227342   5.764   0.051   0.129
 8815SOL     OW27343   5.169   1.380   0.250
 8815SOL    HW127344   5.082   1.385   0.202
 8815SOL    HW227345   5.161   1.425   0.339
 8816SOL     OW27346   0.922   6.192   5.885
 8816SOL    HW127347   0.931   6.105   5.836
 8816SOL    HW227348   0.840   6.189   5.943
 8817SOL     OW27349   1.643   3.227   4.225
 8817SOL    HW127350   1.714   3.186   4.169
 8817SOL    HW227351   1.664   3.324   4.240
 8818SOL     OW27352   2.261   6.983   3.957
 8818SOL    HW127353   2.343   6.935   3.924
 8818SOL    HW227354   2.181   6.924   3.944
 8819SOL     OW27355   5.232   4.242   6.177
 8819SOL    HW127356   5.291   4.194   6.112
 8819SOL    HW227357   5.171   4.304   6.127
 8820SOL     OW27358   3.293   0.660   4.419
 8820SOL    HW127359   3.324   0.745   4.377
 8820SOL    HW227360   3.226   0.616   4.360
 8821SOL     OW27361   1.050   4.402   0.420
 8821SOL    HW127362   1.132   4.436   0.372
 8821SOL    HW227363   1.067   4.403   0.518
 8822SOL     OW27364   6.662   6.789   3.851
 8822SOL    HW127365   6.587   6.824   3.907
 8822SOL    HW227366   6.731   6.860   3.838
 8823SOL     OW27367   3.733   0.872   3.178
 8823SOL    HW127368   3.655   0.862   3.240
 8823SOL    HW227369   3.728   0.960   3.131
 8824SOL     OW27370   2.179   1.105   1.267
 8824SOL    HW127371   2.116   1.182   1.271
 8824SOL    HW227372   2.232   1.110   1.182
 8825SOL     OW27373   0.187   0.069   6.812
 8825SOL    HW127374   0.165   0.006   6.886
 8825SOL    HW227375   0.120   0.060   6.738
 8826SOL     OW27376   0.887   3.081   0.852
 8826SOL    HW127377   0.835   3.002   0.884
 8826SOL    HW227378   0.929   3.060   0.764
 8827SOL     OW27379   4.248   0.332   2.519
 8827SOL    HW127380   4.259   0.234   2.534
 8827SOL    HW227381   4.333   0.379   2.542
 8828SOL     OW27382   4.398   3.488   6.323
 8828SOL    HW127383   4.303   3.458   6.319
 8828SOL    HW227384   4.421   3.538   6.240
 8829SOL     OW27385   0.031   1.764   1.937
 8829SOL    HW127386   6.976   1.715   1.893
 8829SOL    HW227387   0.116   1.740   1.891
 8830SOL     OW27388   2.711   1.991   2.870
 8830SOL    HW127389   2.636   1.934   2.903
 8830SOL    HW227390   2.682   2.086   2.866
 8831SOL     OW27391   0.427   2.101   1.731
 8831SOL    HW127392   0.520   2.139   1.731
 8831SOL    HW227393   0.361   2.176   1.725
 8832SOL     OW27394   6.739   0.048   3.972
 8832SOL    HW127395   6.735   0.107   3.892
 8832SOL    HW227396   6.665   0.074   4.035
 8833SOL     OW27397   3.608   2.554   0.970
 8833SOL    HW127398   3.526   2.578   1.021
 8833SOL    HW227399   3.686   2.548   1.033
 8834SOL     OW27400   5.743   3.411   5.397
 8834SOL    HW127401   5.808   3.430   5.324
 8834SOL    HW227402   5.651   3.440   5.369
 8835SOL     OW27403   6.281   0.728   5.508
 8835SOL    HW127404   6.252   0.772   5.422
 8835SOL    HW227405   6.351   0.784   5.552
 8836SOL     OW27406   4.987   2.345   6.342
 8836SOL    HW127407   5.069   2.320   6.394
 8836SOL    HW227408   4.995   2.309   6.249
 8837SOL     OW27409   5.753   6.930   1.656
 8837SOL    HW127410   5.796   6.993   1.591
 8837SOL    HW227411   5.737   6.977   1.743
 8838SOL     OW27412   0.210   4.101   3.307
 8838SOL    HW127413   0.284   4.130   3.247
 8838SOL    HW227414   0.185   4.176   3.369
 8839SOL     OW27415   5.376   6.334   3.410
 8839SOL    HW127416   5.460   6.283   3.393
 8839SOL    HW227417   5.301   6.269   3.427
 8840SOL     OW27418   0.193   0.965   1.270
 8840SOL    HW127419   0.186   1.064   1.276
 8840SOL    HW227420   0.273   0.940   1.215
 8841SOL     OW27421   3.599   1.500   1.906
 8841SOL    HW127422   3.698   1.490   1.918
 8841SOL    HW227423   3.552   1.420   1.945
 8842SOL     OW27424   3.670   2.919   4.060
 8842SOL    HW127425   3.717   2.967   4.134
 8842SOL    HW227426   3.681   2.971   3.975
 8843SOL     OW27427   1.957   3.757   5.160
 8843SOL    HW127428   2.018   3.721   5.089
 8843SOL    HW227429   2.009   3.771   5.244
 8844SOL     OW27430   5.078   1.550   4.842
 8844SOL    HW127431   5.055   1.476   4.780
 8844SOL    HW227432   5.001   1.569   4.902
 8845SOL     OW27433   0.907   5.313   1.460
 8845SOL    HW127434   0.825   5.340   1.511
 8845SOL    HW227435   0.959   5.246   1.513
 8846SOL     OW27436   5.441   4.843   3.406
 8846SOL    HW127437   5.419   4.779   3.333
 8846SOL    HW227438   5.367   4.910   3.415
 8847SOL     OW27439   2.320   2.244   2.686
 8847SOL    HW127440   2.365   2.170   2.635
 8847SOL    HW227441   2.326   2.226   2.784
 8848SOL     OW27442   3.527   1.705   0.941
 8848SOL    HW127443   3.438   1.743   0.967
 8848SOL    HW227444   3.599   1.763   0.978
 8849SOL     OW27445   3.440   5.922   4.549
 8849SOL    HW127446   3.381   5.842   4.560
 8849SOL    HW227447   3.497   5.911   4.467
 8850SOL     OW27448   3.000   2.188   0.497
 8850SOL    HW127449   3.057   2.197   0.578
 8850SOL    HW227450   3.053   2.145   0.424
 8851SOL     OW27451   1.078   4.827   3.728
 8851SOL    HW127452   1.102   4.733   3.754
 8851SOL    HW227453   0.979   4.837   3.728
 8852SOL     OW27454   5.700   2.760   5.686
 8852SOL    HW127455   5.648   2.701   5.748
 8852SOL    HW227456   5.711   2.850   5.727
 8853SOL     OW27457   4.102   1.426   5.176
 8853SOL    HW127458   4.109   1.352   5.243
 8853SOL    HW227459   4.052   1.503   5.216
 8854SOL     OW27460   1.295   1.841   6.134
 8854SOL    HW127461   1.312   1.878   6.043
 8854SOL    HW227462   1.248   1.753   6.125
 8855SOL     OW27463   6.368   5.880   6.577
 8855SOL    HW127464   6.378   5.958   6.638
 8855SOL    HW227465   6.270   5.862   6.563
 8856SOL     OW27466   5.938   1.049   5.136
 8856SOL    HW127467   5.947   1.148   5.131
 8856SOL    HW227468   5.944   1.020   5.232
 8857SOL     OW27469   6.148   2.189   3.588
 8857SOL    HW127470   6.215   2.136   3.535
 8857SOL    HW227471   6.058   2.145   3.581
 8858SOL     OW27472   1.003   3.741   5.994
 8858SOL    HW127473   0.994   3.830   5.950
 8858SOL    HW227474   0.912   3.701   6.006
 8859SOL     OW27475   1.030   5.963   5.209
 8859SOL    HW127476   1.070   5.872   5.218
 8859SOL    HW227477   1.046   5.997   5.116
 8860SOL     OW27478   1.240   2.206   2.491
 8860SOL    HW127479   1.143   2.194   2.512
 8860SOL    HW227480   1.250   2.254   2.404
 8861SOL     OW27481   3.846   3.236   0.169
 8861SOL    HW127482   3.915   3.304   0.144
 8861SOL    HW227483   3.857   3.211   0.266
 8862SOL     OW27484   5.989   1.637   4.908
 8862SOL    HW127485   6.056   1.575   4.950
 8862SOL    HW227486   5.987   1.622   4.810
 8863SOL     OW27487   1.991   5.700   4.903
 8863SOL    HW127488   2.063   5.758   4.942
 8863SOL    HW227489   2.018   5.604   4.911
 8864SOL     OW27490   2.388   3.193   6.384
 8864SOL    HW127491   2.383   3.179   6.483
 8864SOL    HW227492   2.469   3.246   6.361
 8865SOL     OW27493   2.424   1.900   5.449
 8865SOL    HW127494   2.475   1.968   5.502
 8865SOL    HW227495   2.350   1.945   5.399
 8866SOL     OW27496   3.251   6.668   3.357
 8866SOL    HW127497   3.312   6.672   3.437
 8866SOL    HW227498   3.203   6.755   3.348
 8867SOL     OW27499   5.909   1.965   3.117
 8867SOL    HW127500   5.945   1.900   3.049
 8867SOL    HW227501   5.985   2.010   3.163
 8868SOL     OW27502   4.650   4.051   0.541
 8868SOL    HW127503   4.739   4.077   0.502
 8868SOL    HW227504   4.655   3.958   0.577
 8869SOL     OW27505   4.879   3.597   3.405
 8869SOL    HW127506   4.877   3.648   3.491
 8869SOL    HW227507   4.909   3.657   3.331
 8870SOL     OW27508   4.010   1.331   0.785
 8870SOL    HW127509   3.932   1.277   0.754
 8870SOL    HW227510   3.995   1.360   0.880
 8871SOL     OW27511   2.052   1.621   3.558
 8871SOL    HW127512   2.010   1.595   3.471
 8871SOL    HW227513   2.038   1.548   3.625
 8872SOL     OW27514   1.959   4.039   4.160
 8872SOL    HW127515   1.889   3.976   4.192
 8872SOL    HW227516   1.917   4.127   4.137
 8873SOL     OW27517   0.486   5.579   4.018
 8873SOL    HW127518   0.467   5.643   4.092
 8873SOL    HW227519   0.575   5.535   4.033
 8874SOL     OW27520   2.811   0.547   1.230
 8874SOL    HW127521   2.822   0.646   1.233
 8874SOL    HW227522   2.762   0.517   1.312
 8875SOL     OW27523   1.611   2.889   4.320
 8875SOL    HW127524   1.538   2.821   4.328
 8875SOL    HW227525   1.661   2.874   4.235
 8876SOL     OW27526   0.534   1.094   5.008
 8876SOL    HW127527   0.533   1.094   4.908
 8876SOL    HW227528   0.580   1.177   5.041
 8877SOL     OW27529   2.988   0.921   4.398
 8877SOL    HW127530   2.961   0.997   4.340
 8877SOL    HW227531   3.088   0.920   4.408
 8878SOL     OW27532   0.208   4.297   0.090
 8878SOL    HW127533   0.306   4.285   0.108
 8878SOL    HW227534   0.192   4.387   0.050
 8879SOL     OW27535   5.390   6.301   0.471
 8879SOL    HW127536   5.358   6.261   0.385
 8879SOL    HW227537   5.431   6.229   0.528
 8880SOL     OW27538   6.692   4.775   4.286
 8880SOL    HW127539   6.596   4.804   4.278
 8880SOL    HW227540   6.742   4.803   4.204
 8881SOL     OW27541   0.029   1.268   1.856
 8881SOL    HW127542   6.998   1.183   1.851
 8881SOL    HW227543   0.123   1.248   1.882
 8882SOL     OW27544   5.692   2.371   6.453
 8882SOL    HW127545   5.652   2.303   6.392
 8882SOL    HW227546   5.648   2.459   6.438
 8883SOL     OW27547   6.127   0.777   5.904
 8883SOL    HW127548   6.214   0.773   5.854
 8883SOL    HW227549   6.139   0.737   5.995
 8884SOL     OW27550   5.593   0.164   6.114
 8884SOL    HW127551   5.617   0.072   6.144
 8884SOL    HW227552   5.675   0.221   6.110
 8885SOL     OW27553   5.818   3.781   1.968
 8885SOL    HW127554   5.759   3.739   1.899
 8885SOL    HW227555   5.774   3.774   2.058
 8886SOL     OW27556   2.710   6.708   6.024
 8886SOL    HW127557   2.616   6.695   6.055
 8886SOL    HW227558   2.726   6.805   6.005
 8887SOL     OW27559   2.757   1.105   1.379
 8887SOL    HW127560   2.715   1.171   1.442
 8887SOL    HW227561   2.692   1.032   1.359
 8888SOL     OW27562   2.038   1.338   1.347
 8888SOL    HW127563   2.031   1.356   1.445
 8888SOL    HW227564   2.031   1.424   1.297
 8889SOL     OW27565   4.619   0.313   4.723
 8889SOL    HW127566   4.713   0.323   4.755
 8889SOL    HW227567   4.583   0.403   4.697
 8890SOL     OW27568   0.105   5.565   4.849
 8890SOL    HW127569   0.108   5.466   4.866
 8890SOL    HW227570   0.169   5.588   4.776
 8891SOL     OW27571   5.675   3.334   6.442
 8891SOL    HW127572   5.617   3.254   6.428
 8891SOL    HW227573   5.699   3.374   6.354
 8892SOL     OW27574   1.947   0.398   3.477
 8892SOL    HW127575   1.889   0.478   3.492
 8892SOL    HW227576   1.895   0.326   3.432
 8893SOL     OW27577   6.728   1.442   0.834
 8893SOL    HW127578   6.785   1.367   0.798
 8893SOL    HW227579   6.749   1.526   0.784
 8894SOL     OW27580   4.313   2.489   6.018
 8894SOL    HW127581   4.355   2.568   6.062
 8894SOL    HW227582   4.260   2.519   5.938
 8895SOL     OW27583   0.445   6.770   1.208
 8895SOL    HW127584   0.495   6.686   1.187
 8895SOL    HW227585   0.445   6.830   1.128
 8896SOL     OW27586   1.637   3.929   4.802
 8896SOL    HW127587   1.714   3.875   4.835
 8896SOL    HW227588   1.644   4.022   4.839
 8897SOL     OW27589   1.317   1.493   1.499
 8897SOL    HW127590   1.401   1.547   1.492
 8897SOL    HW227591   1.250   1.542   1.555
 8898SOL     OW27592   5.861   3.253   4.275
 8898SOL    HW127593   5.937   3.296   4.225
 8898SOL    HW227594   5.790   3.225   4.210
 8899SOL     OW27595   1.966   4.398   0.290
 8899SOL    HW127596   1.935   4.333   0.360
 8899SOL    HW227597   2.065   4.393   0.281
 8900SOL     OW27598   4.660   2.271   3.072
 8900SOL    HW127599   4.618   2.183   3.094
 8900SOL    HW227600   4.629   2.301   2.982
 8901SOL     OW27601   1.121   0.346   2.666
 8901SOL    HW127602   1.104   0.378   2.573
 8901SOL    HW227603   1.070   0.404   2.730
 8902SOL     OW27604   1.823   5.535   6.393
 8902SOL    HW127605   1.782   5.566   6.307
 8902SOL    HW227606   1.868   5.612   6.438
 8903SOL     OW27607   2.207   1.661   4.024
 8903SOL    HW127608   2.171   1.570   4.002
 8903SOL    HW227609   2.172   1.690   4.112
 8904SOL     OW27610   0.110   5.680   4.238
 8904SOL    HW127611   0.204   5.711   4.251
 8904SOL    HW227612   0.053   5.758   4.211
 8905SOL     OW27613   2.462   3.275   5.664
 8905SOL    HW127614   2.480   3.373   5.663
 8905SOL    HW227615   2.378   3.258   5.715
 8906SOL     OW27616   6.622   6.388   6.147
 8906SOL    HW127617   6.556   6.313   6.149
 8906SOL    HW227618   6.691   6.373   6.219
 8907SOL     OW27619   3.324   2.692   5.208
 8907SOL    HW127620   3.299   2.595   5.203
 8907SOL    HW227621   3.247   2.748   5.178
 8908SOL     OW27622   1.632   1.936   1.334
 8908SOL    HW127623   1.556   1.936   1.400
 8908SOL    HW227624   1.600   1.899   1.247
 8909SOL     OW27625   2.711   1.059   6.135
 8909SOL    HW127626   2.681   1.087   6.043
 8909SOL    HW227627   2.806   1.029   6.131
 8910SOL     OW27628   2.985   2.933   6.876
 8910SOL    HW127629   2.957   2.940   6.972
 8910SOL    HW227630   2.968   2.841   6.842
 8911SOL     OW27631   3.408   2.143   4.666
 8911SOL    HW127632   3.402   2.147   4.766
 8911SOL    HW227633   3.504   2.143   4.638
 8912SOL     OW27634   4.172   1.784   6.199
 8912SOL    HW127635   4.212   1.805   6.288
 8912SOL    HW227636   4.181   1.686   6.181
 8913SOL     OW27637   4.839   4.356   1.769
 8913SOL    HW127638   4.742   4.377   1.762
 8913SOL    HW227639   4.891   4.438   1.791
 8914SOL     OW27640   3.767   1.440   5.107
 8914SOL    HW127641   3.806   1.364   5.160
 8914SOL    HW227642   3.731   1.405   5.020
 8915SOL     OW27643   2.235   3.001   3.438
 8915SOL    HW127644   2.190   3.020   3.526
 8915SOL    HW227645   2.266   2.906   3.437
 8916SOL     OW27646   6.858   4.574   2.471
 8916SOL    HW127647   6.887   4.572   2.375
 8916SOL    HW227648   6.929   4.618   2.526
 8917SOL     OW27649   6.268   6.419   6.585
 8917SOL    HW127650   6.256   6.518   6.583
 8917SOL    HW227651   6.259   6.386   6.679
 8918SOL     OW27652   5.399   6.203   6.595
 8918SOL    HW127653   5.305   6.230   6.615
 8918SOL    HW227654   5.462   6.269   6.635
 8919SOL     OW27655   3.282   4.340   0.972
 8919SOL    HW127656   3.335   4.363   0.890
 8919SOL    HW227657   3.195   4.390   0.971
 8920SOL     OW27658   6.223   5.049   6.038
 8920SOL    HW127659   6.193   5.095   6.122
 8920SOL    HW227660   6.168   5.081   5.961
 8921SOL     OW27661   1.446   0.734   3.677
 8921SOL    HW127662   1.371   0.786   3.720
 8921SOL    HW227663   1.480   0.667   3.743
 8922SOL     OW27664   1.645   4.789   0.732
 8922SOL    HW127665   1.720   4.742   0.779
 8922SOL    HW227666   1.614   4.734   0.655
 8923SOL     OW27667   1.950   3.848   6.660
 8923SOL    HW127668   2.037   3.894   6.676
 8923SOL    HW227669   1.915   3.811   6.746
 8924SOL     OW27670   3.238   5.131   5.094
 8924SOL    HW127671   3.263   5.060   5.028
 8924SOL    HW227672   3.272   5.219   5.063
 8925SOL     OW27673   6.710   6.981   2.235
 8925SOL    HW127674   6.774   6.920   2.282
 8925SOL    HW227675   6.621   6.978   2.281
 8926SOL     OW27676   5.522   2.176   2.031
 8926SOL    HW127677   5.483   2.266   2.047
 8926SOL    HW227678   5.621   2.184   2.021
 8927SOL     OW27679   2.295   2.776   5.199
 8927SOL    HW127680   2.384   2.735   5.215
 8927SOL    HW227681   2.306   2.866   5.157
 8928SOL     OW27682   0.485   0.494   5.584
 8928SOL    HW127683   0.479   0.593   5.594
 8928SOL    HW227684   0.492   0.451   5.674
 8929SOL     OW27685   6.892   3.776   4.257
 8929SOL    HW127686   6.990   3.757   4.255
 8929SOL    HW227687   6.878   3.875   4.267
 8930SOL     OW27688   1.342   5.191   4.846
 8930SOL    HW127689   1.246   5.170   4.859
 8930SOL    HW227690   1.351   5.274   4.790
 8931SOL     OW27691   5.005   1.576   1.446
 8931SOL    HW127692   5.003   1.480   1.471
 8931SOL    HW227693   4.946   1.591   1.367
 8932SOL     OW27694   5.997   0.457   6.532
 8932SOL    HW127695   5.994   0.539   6.590
 8932SOL    HW227696   6.045   0.384   6.580
 8933SOL     OW27697   1.613   0.898   4.785
 8933SOL    HW127698   1.539   0.923   4.723
 8933SOL    HW227699   1.586   0.818   4.838
 8934SOL     OW27700   3.506   5.797   3.043
 8934SOL    HW127701   3.567   5.736   3.093
 8934SOL    HW227702   3.560   5.860   2.987
 8935SOL     OW27703   4.486   2.280   2.523
 8935SOL    HW127704   4.426   2.251   2.598
 8935SOL    HW227705   4.431   2.319   2.449
 8936SOL     OW27706   0.855   4.967   1.210
 8936SOL    HW127707   0.802   4.890   1.174
 8936SOL    HW227708   0.923   4.995   1.143
 8937SOL     OW27709   0.187   6.537   4.228
 8937SOL    HW127710   0.132   6.470   4.277
 8937SOL    HW227711   0.129   6.615   4.203
 8938SOL     OW27712   6.286   1.055   0.451
 8938SOL    HW127713   6.258   1.125   0.516
 8938SOL    HW227714   6.242   0.968   0.474
 8939SOL     OW27715   0.312   2.795   4.319
 8939SOL    HW127716   0.354   2.773   4.231
 8939SOL    HW227717   0.350   2.736   4.390
 8940SOL     OW27718   0.146   3.097   0.732
 8940SOL    HW127719   0.205   3.035   0.679
 8940SOL    HW227720   0.154   3.076   0.829
 8941SOL     OW27721   5.387   2.286   2.391
 8941SOL    HW127722   5.367   2.275   2.294
 8941SOL    HW227723   5.306   2.321   2.439
 8942SOL     OW27724   6.730   4.503   3.377
 8942SOL    HW127725   6.740   4.424   3.437
 8942SOL    HW227726   6.644   4.495   3.325
 8943SOL     OW27727   4.556   3.802   0.053
 8943SOL    HW127728   4.621   3.875   0.072
 8943SOL    HW227729   4.559   3.734   0.127
 8944SOL     OW27730   4.762   5.178   4.377
 8944SOL    HW127731   4.792   5.272   4.394
 8944SOL    HW227732   4.682   5.157   4.433
 8945SOL     OW27733   6.033   4.083   5.037
 8945SOL    HW127734   6.083   4.114   4.957
 8945SOL    HW227735   6.067   3.994   5.065
 8946SOL     OW27736   5.479   1.050   4.087
 8946SOL    HW127737   5.394   1.099   4.065
 8946SOL    HW227738   5.557   1.102   4.053
 8947SOL     OW27739   1.445   4.683   5.983
 8947SOL    HW127740   1.422   4.751   6.052
 8947SOL    HW227741   1.539   4.697   5.952
 8948SOL     OW27742   6.389   0.307   3.457
 8948SOL    HW127743   6.444   0.225   3.472
 8948SOL    HW227744   6.417   0.378   3.523
 8949SOL     OW27745   3.058   6.315   0.021
 8949SOL    HW127746   3.102   6.238   6.997
 8949SOL    HW227747   3.126   6.387   0.038
 8950SOL     OW27748   4.649   4.741   1.410
 8950SOL    HW127749   4.589   4.814   1.441
 8950SOL    HW227750   4.667   4.678   1.485
 8951SOL     OW27751   2.224   1.428   4.450
 8951SOL    HW127752   2.283   1.435   4.370
 8951SOL    HW227753   2.154   1.499   4.445
 8952SOL     OW27754   1.908   4.726   3.518
 8952SOL    HW127755   1.989   4.673   3.542
 8952SOL    HW227756   1.840   4.665   3.476
 8953SOL     OW27757   2.303   4.944   2.414
 8953SOL    HW127758   2.279   4.965   2.509
 8953SOL    HW227759   2.330   5.028   2.367
 8954SOL     OW27760   1.143   5.225   5.244
 8954SOL    HW127761   1.104   5.153   5.187
 8954SOL    HW227762   1.087   5.307   5.237
 8955SOL     OW27763   5.004   2.741   3.665
 8955SOL    HW127764   5.101   2.742   3.640
 8955SOL    HW227765   4.949   2.757   3.583
 8956SOL     OW27766   1.219   6.000   6.225
 8956SOL    HW127767   1.306   6.032   6.260
 8956SOL    HW227768   1.233   5.952   6.138
 8957SOL     OW27769   1.195   5.255   2.099
 8957SOL    HW127770   1.285   5.224   2.129
 8957SOL    HW227771   1.175   5.216   2.009
 8958SOL     OW27772   1.679   3.743   5.111
 8958SOL    HW127773   1.775   3.747   5.138
 8958SOL    HW227774   1.641   3.654   5.136
 8959SOL     OW27775   0.654   3.159   2.590
 8959SOL    HW127776   0.573   3.210   2.620
 8959SOL    HW227777   0.685   3.098   2.663
 8960SOL     OW27778   5.827   4.055   4.379
 8960SOL    HW127779   5.811   4.150   4.352
 8960SOL    HW227780   5.834   4.050   4.479
 8961SOL     OW27781   3.508   6.815   4.881
 8961SOL    HW127782   3.419   6.824   4.927
 8961SOL    HW227783   3.497   6.838   4.784
 8962SOL     OW27784   0.920   5.906   1.433
 8962SOL    HW127785   0.885   5.819   1.399
 8962SOL    HW227786   0.972   5.952   1.361
 8963SOL     OW27787   3.660   5.922   4.364
 8963SOL    HW127788   3.760   5.922   4.354
 8963SOL    HW227789   3.618   5.902   4.276
 8964SOL     OW27790   6.900   3.416   4.283
 8964SOL    HW127791   6.945   3.483   4.341
 8964SOL    HW227792   6.945   3.412   4.194
 8965SOL     OW27793   4.590   5.076   0.574
 8965SOL    HW127794   4.597   5.170   0.540
 8965SOL    HW227795   4.631   5.070   0.665
 8966SOL     OW27796   5.265   5.424   6.088
 8966SOL    HW127797   5.302   5.413   6.180
 8966SOL    HW227798   5.174   5.383   6.084
 8967SOL     OW27799   3.717   0.635   3.453
 8967SOL    HW127800   3.766   0.659   3.536
 8967SOL    HW227801   3.757   0.553   3.412
 8968SOL     OW27802   3.436   4.943   2.074
 8968SOL    HW127803   3.355   4.887   2.061
 8968SOL    HW227804   3.517   4.895   2.039
 8969SOL     OW27805   0.174   0.793   2.879
 8969SOL    HW127806   0.122   0.876   2.859
 8969SOL    HW227807   0.239   0.776   2.805
 8970SOL     OW27808   1.664   1.408   6.281
 8970SOL    HW127809   1.677   1.408   6.380
 8970SOL    HW227810   1.742   1.454   6.237
 8971SOL     OW27811   4.446   5.883   0.507
 8971SOL    HW127812   4.534   5.867   0.552
 8971SOL    HW227813   4.372   5.866   0.573
 8972SOL     OW27814   5.992   4.557   0.484
 8972SOL    HW127815   6.061   4.504   0.435
 8972SOL    HW227816   5.901   4.527   0.455
 8973SOL     OW27817   0.270   2.458   2.175
 8973SOL    HW127818   0.242   2.500   2.261
 8973SOL    HW227819   0.305   2.528   2.113
 8974SOL     OW27820   2.264   4.166   4.478
 8974SOL    HW127821   2.238   4.085   4.426
 8974SOL    HW227822   2.272   4.142   4.575
 8975SOL     OW27823   0.425   0.354   6.235
 8975SOL    HW127824   0.401   0.317   6.324
 8975SOL    HW227825   0.459   0.447   6.245
 8976SOL     OW27826   6.454   6.700   1.684
 8976SOL    HW127827   6.526   6.643   1.722
 8976SOL    HW227828   6.489   6.753   1.607
 8977SOL     OW27829   0.067   5.034   6.159
 8977SOL    HW127830   0.044   4.947   6.203
 8977SOL    HW227831   7.010   5.064   6.103
 8978SOL     OW27832   5.783   5.356   5.409
 8978SOL    HW127833   5.802   5.449   5.440
 8978SOL    HW227834   5.731   5.360   5.323
 8979SOL     OW27835   0.971   5.406   5.952
 8979SOL    HW127836   0.907   5.330   5.967
 8979SOL    HW227837   0.970   5.432   5.856
 8980SOL     OW27838   3.803   0.787   4.895
 8980SOL    HW127839   3.829   0.884   4.887
 8980SOL    HW227840   3.806   0.760   4.991
 8981SOL     OW27841   4.257   3.068   6.807
 8981SOL    HW127842   4.218   2.982   6.842
 8981SOL    HW227843   4.207   3.145   6.846
 8982SOL     OW27844   0.138   1.318   1.282
 8982SOL    HW127845   0.209   1.281   1.222
 8982SOL    HW227846   0.175   1.395   1.334
 8983SOL     OW27847   0.967   6.564   3.126
 8983SOL    HW127848   1.066   6.576   3.141
 8983SOL    HW227849   0.947   6.573   3.029
 8984SOL     OW27850   5.786   0.369   4.201
 8984SOL    HW127851   5.784   0.401   4.107
 8984SOL    HW227852   5.759   0.443   4.263
 8985SOL     OW27853   4.389   2.565   0.906
 8985SOL    HW127854   4.406   2.497   0.977
 8985SOL    HW227855   4.423   2.531   0.819
 8986SOL     OW27856   6.545   4.595   0.992
 8986SOL    HW127857   6.553   4.693   1.012
 8986SOL    HW227858   6.448   4.569   0.992
 8987SOL     OW27859   2.218   0.001   1.681
 8987SOL    HW127860   2.235   0.098   1.697
 8987SOL    HW227861   2.153   6.989   1.750
 8988SOL     OW27862   1.340   5.037   1.238
 8988SOL    HW127863   1.383   4.958   1.282
 8988SOL    HW227864   1.323   5.108   1.307
 8989SOL     OW27865   5.711   1.666   1.800
 8989SOL    HW127866   5.680   1.759   1.822
 8989SOL    HW227867   5.648   1.624   1.736
 8990SOL     OW27868   3.310   6.850   1.795
 8990SOL    HW127869   3.404   6.880   1.787
 8990SOL    HW227870   3.248   6.922   1.762
 8991SOL     OW27871   2.172   2.565   0.767
 8991SOL    HW127872   2.220   2.641   0.812
 8991SOL    HW227873   2.196   2.563   0.670
 8992SOL     OW27874   0.310   3.494   6.865
 8992SOL    HW127875   0.312   3.593   6.855
 8992SOL    HW227876   0.398   3.455   6.839
 8993SOL     OW27877   5.581   2.609   3.292
 8993SOL    HW127878   5.514   2.653   3.351
 8993SOL    HW227879   5.586   2.658   3.205
 8994SOL     OW27880   1.166   4.918   3.457
 8994SOL    HW127881   1.266   4.918   3.453
 8994SOL    HW227882   1.137   4.869   3.540
 8995SOL     OW27883   1.871   3.773   4.845
 8995SOL    HW127884   1.837   3.708   4.912
 8995SOL    HW227885   1.953   3.819   4.881
 8996SOL     OW27886   0.493   3.845   2.671
 8996SOL    HW127887   0.436   3.900   2.610
 8996SOL    HW227888   0.525   3.764   2.623
 8997SOL     OW27889   4.264   1.524   4.963
 8997SOL    HW127890   4.220   1.518   5.053
 8997SOL    HW227891   4.352   1.478   4.967
 8998SOL     OW27892   1.250   2.233   5.807
 8998SOL    HW127893   1.286   2.321   5.836
 8998SOL    HW227894   1.314   2.190   5.743
 8999SOL     OW27895   5.935   1.323   5.098
 8999SOL    HW127896   5.976   1.374   5.023
 8999SOL    HW227897   5.882   1.385   5.156
 9000SOL     OW27898   3.316   4.214   0.515
 9000SOL    HW127899   3.287   4.153   0.589
 9000SOL    HW227900   3.392   4.271   0.547
 9001SOL     OW27901   2.197   4.842   3.768
 9001SOL    HW127902   2.145   4.921   3.801
 9001SOL    HW227903   2.288   4.871   3.738
 9002SOL     OW27904   5.756   4.608   6.355
 9002SOL    HW127905   5.819   4.545   6.402
 9002SOL    HW227906   5.680   4.630   6.416
 9003SOL     OW27907   6.201   3.080   0.174
 9003SOL    HW127908   6.214   2.985   0.201
 9003SOL    HW227909   6.248   3.140   0.239
 9004SOL     OW27910   4.440   6.597   0.981
 9004SOL    HW127911   4.373   6.592   1.055
 9004SOL    HW227912   4.404   6.653   0.907
 9005SOL     OW27913   5.010   1.958   3.554
 9005SOL    HW127914   5.061   2.038   3.522
 9005SOL    HW227915   4.929   1.988   3.604
 9006SOL     OW27916   1.455   5.515   1.107
 9006SOL    HW127917   1.361   5.480   1.117
 9006SOL    HW227918   1.469   5.543   1.012
 9007SOL     OW27919   3.268   6.070   3.745
 9007SOL    HW127920   3.202   6.008   3.702
 9007SOL    HW227921   3.360   6.045   3.714
 9008SOL     OW27922   0.532   4.424   2.361
 9008SOL    HW127923   0.531   4.474   2.275
 9008SOL    HW227924   0.555   4.328   2.344
 9009SOL     OW27925   2.647   6.402   0.467
 9009SOL    HW127926   2.606   6.383   0.556
 9009SOL    HW227927   2.576   6.407   0.398
 9010SOL     OW27928   0.594   6.077   5.181
 9010SOL    HW127929   0.601   6.069   5.081
 9010SOL    HW227930   0.522   6.017   5.214
 9011SOL     OW27931   4.453   1.883   1.013
 9011SOL    HW127932   4.458   1.842   0.922
 9011SOL    HW227933   4.513   1.963   1.017
 9012SOL     OW27934   0.357   5.061   1.844
 9012SOL    HW127935   0.419   5.075   1.921
 9012SOL    HW227936   0.408   5.070   1.758
 9013SOL     OW27937   6.522   6.050   3.206
 9013SOL    HW127938   6.473   5.986   3.147
 9013SOL    HW227939   6.471   6.135   3.212
 9014SOL     OW27940   1.600   0.389   1.229
 9014SOL    HW127941   1.667   0.330   1.184
 9014SOL    HW227942   1.631   0.484   1.223
 9015SOL     OW27943   0.214   1.215   6.260
 9015SOL    HW127944   0.179   1.157   6.187
 9015SOL    HW227945   0.314   1.216   6.258
 9016SOL     OW27946   6.384   6.134   6.166
 9016SOL    HW127947   6.346   6.041   6.172
 9016SOL    HW227948   6.396   6.171   6.259
 9017SOL     OW27949   6.380   2.285   3.951
 9017SOL    HW127950   6.392   2.319   4.044
 9017SOL    HW227951   6.406   2.188   3.948
 9018SOL     OW27952   3.591   2.251   5.303
 9018SOL    HW127953   3.622   2.229   5.211
 9018SOL    HW227954   3.625   2.341   5.329
 9019SOL     OW27955   2.516   6.837   0.345
 9019SOL    HW127956   2.485   6.781   0.422
 9019SOL    HW227957   2.487   6.932   0.358
 9020SOL     OW27958   1.520   3.956   2.689
 9020SOL    HW127959   1.491   4.032   2.631
 9020SOL    HW227960   1.503   3.869   2.642
 9021SOL     OW27961   6.604   5.703   4.662
 9021SOL    HW127962   6.614   5.610   4.696
 9021SOL    HW227963   6.676   5.723   4.596
 9022SOL     OW27964   2.534   0.924   0.277
 9022SOL    HW127965   2.563   0.864   0.202
 9022SOL    HW227966   2.580   0.897   0.361
 9023SOL     OW27967   3.442   2.860   3.859
 9023SOL    HW127968   3.483   2.818   3.940
 9023SOL    HW227969   3.515   2.895   3.800
 9024SOL     OW27970   1.728   6.627   6.185
 9024SOL    HW127971   1.778   6.614   6.271
 9024SOL    HW227972   1.633   6.597   6.196
 9025SOL     OW27973   6.166   4.688   1.870
 9025SOL    HW127974   6.193   4.783   1.890
 9025SOL    HW227975   6.248   4.631   1.865
 9026SOL     OW27976   3.456   2.893   5.009
 9026SOL    HW127977   3.441   2.795   4.998
 9026SOL    HW227978   3.517   2.909   5.087
 9027SOL     OW27979   2.776   2.183   3.371
 9027SOL    HW127980   2.757   2.268   3.419
 9027SOL    HW227981   2.747   2.190   3.276
 9028SOL     OW27982   2.683   4.757   5.184
 9028SOL    HW127983   2.735   4.805   5.254
 9028SOL    HW227984   2.744   4.729   5.110
 9029SOL     OW27985   4.642   6.131   3.277
 9029SOL    HW127986   4.686   6.129   3.187
 9029SOL    HW227987   4.624   6.225   3.304
 9030SOL     OW27988   1.874   0.899   2.572
 9030SOL    HW127989   1.787   0.924   2.529
 9030SOL    HW227990   1.885   0.800   2.571
 9031SOL     OW27991   2.542   6.231   5.668
 9031SOL    HW127992   2.501   6.298   5.605
 9031SOL    HW227993   2.554   6.274   5.758
 9032SOL     OW27994   2.557   1.887   1.336
 9032SOL    HW127995   2.652   1.866   1.312
 9032SOL    HW227996   2.521   1.815   1.396
 9033SOL     OW27997   2.003   3.385   3.434
 9033SOL    HW127998   2.068   3.444   3.386
 9033SOL    HW227999   2.017   3.290   3.406
 9034SOL     OW28000   2.944   6.494   5.615
 9034SOL    HW128001   2.875   6.516   5.683
 9034SOL    HW228002   2.953   6.571   5.551
 9035SOL     OW28003   0.014   1.188   4.110
 9035SOL    HW128004   6.966   1.147   4.050
 9035SOL    HW228005   0.102   1.145   4.092
 9036SOL     OW28006   0.885   3.126   5.710
 9036SOL    HW128007   0.897   3.207   5.653
 9036SOL    HW228008   0.878   3.154   5.806
 9037SOL     OW28009   2.719   4.451   6.358
 9037SOL    HW128010   2.650   4.406   6.415
 9037SOL    HW228011   2.776   4.381   6.314
 9038SOL     OW28012   4.515   6.521   5.311
 9038SOL    HW128013   4.538   6.589   5.380
 9038SOL    HW228014   4.529   6.429   5.348
 9039SOL     OW28015   1.878   5.109   4.635
 9039SOL    HW128016   1.864   5.130   4.539
 9039SOL    HW228017   1.951   5.041   4.643
 9040SOL     OW28018   1.717   1.709   2.679
 9040SOL    HW128019   1.727   1.809   2.673
 9040SOL    HW228020   1.627   1.682   2.644
 9041SOL     OW28021   1.355   2.722   0.677
 9041SOL    HW128022   1.255   2.720   0.675
 9041SOL    HW228023   1.387   2.816   0.688
 9042SOL     OW28024   2.709   4.984   3.023
 9042SOL    HW128025   2.618   4.943   3.021
 9042SOL    HW228026   2.778   4.914   3.006
 9043SOL     OW28027   0.529   2.508   5.970
 9043SOL    HW128028   0.582   2.536   6.050
 9043SOL    HW228029   0.491   2.588   5.925
 9044SOL     OW28030   6.049   0.573   0.900
 9044SOL    HW128031   5.988   0.633   0.848
 9044SOL    HW228032   6.085   0.501   0.841
 9045SOL     OW28033   2.794   7.011   3.391
 9045SOL    HW128034   2.775   6.973   3.300
 9045SOL    HW228035   2.785   6.939   3.460
 9046SOL     OW28036   3.173   4.222   5.473
 9046SOL    HW128037   3.124   4.254   5.554
 9046SOL    HW228038   3.178   4.295   5.406
 9047SOL     OW28039   1.130   4.224   4.332
 9047SOL    HW128040   1.154   4.130   4.306
 9047SOL    HW228041   1.189   4.288   4.283
 9048SOL     OW28042   1.134   3.875   4.618
 9048SOL    HW128043   1.126   3.801   4.551
 9048SOL    HW228044   1.158   3.835   4.707
 9049SOL     OW28045   5.805   6.182   5.924
 9049SOL    HW128046   5.903   6.163   5.919
 9049SOL    HW228047   5.786   6.237   6.006
 9050SOL     OW28048   0.103   4.801   6.827
 9050SOL    HW128049   0.124   4.859   6.906
 9050SOL    HW228050   0.170   4.727   6.822
 9051SOL     OW28051   5.983   5.700   6.965
 9051SOL    HW128052   5.982   5.782   0.000
 9051SOL    HW228053   6.077   5.672   6.947
 9052SOL     OW28054   2.451   4.829   4.443
 9052SOL    HW128055   2.380   4.822   4.513
 9052SOL    HW228056   2.539   4.799   4.482
 9053SOL     OW28057   2.259   2.702   4.078
 9053SOL    HW128058   2.264   2.778   4.143
 9053SOL    HW228059   2.261   2.616   4.127
 9054SOL     OW28060   1.626   0.585   2.272
 9054SOL    HW128061   1.678   0.668   2.292
 9054SOL    HW228062   1.592   0.588   2.178
 9055SOL     OW28063   0.681   2.388   4.017
 9055SOL    HW128064   0.694   2.315   3.950
 9055SOL    HW228065   0.764   2.399   4.071
 9056SOL     OW28066   4.765   0.009   3.116
 9056SOL    HW128067   4.858   7.018   3.150
 9056SOL    HW228068   4.732   6.943   3.079
 9057SOL     OW28069   6.330   6.077   6.766
 9057SOL    HW128070   6.306   6.022   6.846
 9057SOL    HW228071   6.298   6.170   6.778
 9058SOL     OW28072   1.992   2.793   4.913
 9058SOL    HW128073   2.081   2.789   4.867
 9058SOL    HW228074   1.968   2.888   4.932
 9059SOL     OW28075   6.722   1.866   2.792
 9059SOL    HW128076   6.779   1.945   2.767
 9059SOL    HW228077   6.643   1.861   2.731
 9060SOL     OW28078   0.394   3.249   1.754
 9060SOL    HW128079   0.377   3.155   1.784
 9060SOL    HW228080   0.387   3.254   1.654
 9061SOL     OW28081   4.875   5.617   2.023
 9061SOL    HW128082   4.956   5.639   1.969
 9061SOL    HW228083   4.876   5.669   2.108
 9062SOL     OW28084   0.833   4.085   3.742
 9062SOL    HW128085   0.912   4.100   3.684
 9062SOL    HW228086   0.849   4.125   3.832
 9063SOL     OW28087   3.112   0.695   2.534
 9063SOL    HW128088   3.055   0.634   2.479
 9063SOL    HW228089   3.191   0.645   2.569
 9064SOL     OW28090   0.383   4.351   3.570
 9064SOL    HW128091   0.455   4.284   3.551
 9064SOL    HW228092   0.423   4.429   3.617
 9065SOL     OW28093   2.743   5.976   4.923
 9065SOL    HW128094   2.696   5.973   4.835
 9065SOL    HW228095   2.725   5.891   4.973
 9066SOL     OW28096   5.357   5.407   6.345
 9066SOL    HW128097   5.452   5.429   6.323
 9066SOL    HW228098   5.353   5.322   6.397
 9067SOL     OW28099   6.352   0.493   4.744
 9067SOL    HW128100   6.313   0.487   4.836
 9067SOL    HW228101   6.341   0.405   4.698
 9068SOL     OW28102   5.096   0.278   4.896
 9068SOL    HW128103   5.153   0.341   4.949
 9068SOL    HW228104   5.155   0.223   4.837
 9069SOL     OW28105   5.002   1.872   1.858
 9069SOL    HW128106   4.912   1.831   1.876
 9069SOL    HW228107   4.994   1.939   1.785
 9070SOL     OW28108   1.023   2.318   5.630
 9070SOL    HW128109   1.110   2.327   5.677
 9070SOL    HW228110   0.962   2.259   5.682
 9071SOL     OW28111   4.549   1.400   5.760
 9071SOL    HW128112   4.456   1.421   5.787
 9071SOL    HW228113   4.565   1.428   5.666
 9072SOL     OW28114   5.182   0.179   2.036
 9072SOL    HW128115   5.160   0.271   2.004
 9072SOL    HW228116   5.266   0.181   2.090
 9073SOL     OW28117   3.778   0.429   6.765
 9073SOL    HW128118   3.784   0.503   6.832
 9073SOL    HW228119   3.840   0.448   6.689
 9074SOL     OW28120   1.347   6.866   1.095
 9074SOL    HW128121   1.318   6.919   1.015
 9074SOL    HW228122   1.411   6.795   1.066
 9075SOL     OW28123   6.729   0.815   1.365
 9075SOL    HW128124   6.739   0.766   1.451
 9075SOL    HW228125   6.819   0.840   1.330
 9076SOL     OW28126   5.621   6.881   2.449
 9076SOL    HW128127   5.661   6.874   2.541
 9076SOL    HW228128   5.693   6.869   2.381
 9077SOL     OW28129   5.398   1.453   5.886
 9077SOL    HW128130   5.466   1.475   5.956
 9077SOL    HW228131   5.394   1.354   5.874
 9078SOL     OW28132   4.932   5.983   0.080
 9078SOL    HW128133   4.982   5.906   0.122
 9078SOL    HW228134   4.878   6.029   0.150
 9079SOL     OW28135   1.076   0.231   5.827
 9079SOL    HW128136   1.174   0.222   5.846
 9079SOL    HW228137   1.062   0.230   5.728
 9080SOL     OW28138   6.735   3.563   0.937
 9080SOL    HW128139   6.758   3.469   0.962
 9080SOL    HW228140   6.720   3.568   0.838
 9081SOL     OW28141   3.653   1.822   1.658
 9081SOL    HW128142   3.697   1.733   1.669
 9081SOL    HW228143   3.664   1.875   1.742
 9082SOL     OW28144   3.219   6.034   6.075
 9082SOL    HW128145   3.120   6.024   6.070
 9082SOL    HW228146   3.262   5.985   6.000
 9083SOL     OW28147   4.622   4.610   6.137
 9083SOL    HW128148   4.591   4.689   6.190
 9083SOL    HW228149   4.570   4.604   6.052
 9084SOL     OW28150   0.795   2.841   5.664
 9084SOL    HW128151   0.846   2.756   5.677
 9084SOL    HW228152   0.834   2.912   5.722
 9085SOL     OW28153   3.067   5.198   6.786
 9085SOL    HW128154   3.044   5.168   6.879
 9085SOL    HW228155   3.135   5.271   6.791
 9086SOL     OW28156   6.658   4.451   0.797
 9086SOL    HW128157   6.659   4.501   0.884
 9086SOL    HW228158   6.632   4.356   0.813
 9087SOL     OW28159   6.039   2.351   1.939
 9087SOL    HW128160   6.074   2.390   1.854
 9087SOL    HW228161   5.995   2.263   1.920
 9088SOL     OW28162   6.025   0.809   1.560
 9088SOL    HW128163   6.002   0.809   1.462
 9088SOL    HW228164   6.108   0.756   1.574
 9089SOL     OW28165   4.604   5.378   3.677
 9089SOL    HW128166   4.623   5.457   3.736
 9089SOL    HW228167   4.651   5.298   3.712
 9090SOL     OW28168   5.520   6.346   4.708
 9090SOL    HW128169   5.466   6.388   4.635
 9090SOL    HW228170   5.586   6.282   4.668
 9091SOL     OW28171   3.715   2.371   0.161
 9091SOL    HW128172   3.616   2.366   0.176
 9091SOL    HW228173   3.763   2.332   0.240
 9092SOL     OW28174   1.427   6.582   5.690
 9092SOL    HW128175   1.380   6.525   5.622
 9092SOL    HW228176   1.406   6.548   5.782
 9093SOL     OW28177   1.350   5.700   0.491
 9093SOL    HW128178   1.449   5.704   0.499
 9093SOL    HW228179   1.316   5.616   0.533
 9094SOL     OW28180   0.127   5.703   2.019
 9094SOL    HW128181   0.068   5.708   2.100
 9094SOL    HW228182   0.103   5.777   1.956
 9095SOL     OW28183   5.182   3.394   6.745
 9095SOL    HW128184   5.109   3.462   6.740
 9095SOL    HW228185   5.183   3.351   6.835
 9096SOL     OW28186   5.654   3.218   2.846
 9096SOL    HW128187   5.717   3.199   2.921
 9096SOL    HW228188   5.562   3.186   2.870
 9097SOL     OW28189   1.227   3.776   6.605
 9097SOL    HW128190   1.157   3.713   6.636
 9097SOL    HW228191   1.187   3.867   6.593
 9098SOL     OW28192   3.895   3.817   2.076
 9098SOL    HW128193   3.871   3.890   2.141
 9098SOL    HW228194   3.975   3.767   2.110
 9099SOL     OW28195   3.161   3.305   0.977
 9099SOL    HW128196   3.110   3.340   0.899
 9099SOL    HW228197   3.229   3.239   0.946
 9100SOL     OW28198   0.698   3.049   1.457
 9100SOL    HW128199   0.710   2.960   1.413
 9100SOL    HW228200   0.697   3.037   1.556
 9101SOL     OW28201   1.999   2.875   2.808
 9101SOL    HW128202   2.032   2.951   2.864
 9101SOL    HW228203   1.974   2.798   2.867
 9102SOL     OW28204   3.682   5.290   2.319
 9102SOL    HW128205   3.588   5.325   2.321
 9102SOL    HW228206   3.708   5.268   2.225
 9103SOL     OW28207   6.951   3.912   0.904
 9103SOL    HW128208   6.928   3.841   0.971
 9103SOL    HW228209   7.003   3.871   0.829
 9104SOL     OW28210   3.972   6.143   1.907
 9104SOL    HW128211   3.989   6.059   1.854
 9104SOL    HW228212   4.018   6.136   1.996
 9105SOL     OW28213   1.661   0.546   6.755
 9105SOL    HW128214   1.719   0.466   6.739
 9105SOL    HW228215   1.590   0.550   6.685
 9106SOL     OW28216   5.584   4.117   0.337
 9106SOL    HW128217   5.623   4.051   0.401
 9106SOL    HW228218   5.634   4.203   0.342
 9107SOL     OW28219   4.142   6.904   6.683
 9107SOL    HW128220   4.098   6.982   6.640
 9107SOL    HW228221   4.072   6.837   6.710
 9108SOL     OW28222   4.754   4.563   5.268
 9108SOL    HW128223   4.752   4.503   5.348
 9108SOL    HW228224   4.831   4.536   5.209
 9109SOL     OW28225   2.175   2.102   3.208
 9109SOL    HW128226   2.180   2.002   3.218
 9109SOL    HW228227   2.165   2.143   3.299
 9110SOL     OW28228   2.547   4.691   3.677
 9110SOL    HW128229   2.501   4.780   3.680
 9110SOL    HW228230   2.557   4.655   3.770
 9111SOL     OW28231   3.881   4.137   1.327
 9111SOL    HW128232   3.968   4.155   1.374
 9111SOL    HW228233   3.806   4.161   1.389
 9112SOL     OW28234   0.515   3.355   3.624
 9112SOL    HW128235   0.481   3.399   3.541
 9112SOL    HW228236   0.608   3.322   3.609
 9113SOL     OW28237   4.321   1.142   6.843
 9113SOL    HW128238   4.229   1.111   6.865
 9113SOL    HW228239   4.372   1.069   6.798
 9114SOL     OW28240   1.919   4.653   2.574
 9114SOL    HW128241   1.963   4.739   2.600
 9114SOL    HW228242   1.853   4.626   2.645
 9115SOL     OW28243   1.203   5.021   4.298
 9115SOL    HW128244   1.170   5.015   4.392
 9115SOL    HW228245   1.294   4.982   4.291
 9116SOL     OW28246   6.755   2.105   6.841
 9116SOL    HW128247   6.683   2.174   6.850
 9116SOL    HW228248   6.741   2.035   6.911
 9117SOL     OW28249   6.338   3.135   6.446
 9117SOL    HW128250   6.347   3.227   6.409
 9117SOL    HW228251   6.296   3.140   6.537
 9118SOL     OW28252   5.961   6.952   1.091
 9118SOL    HW128253   5.862   6.961   1.083
 9118SOL    HW228254   5.983   6.892   1.168
 9119SOL     OW28255   5.940   1.239   2.336
 9119SOL    HW128256   6.030   1.282   2.324
 9119SOL    HW228257   5.877   1.273   2.266
 9120SOL     OW28258   5.962   2.786   5.983
 9120SOL    HW128259   5.896   2.736   6.040
 9120SOL    HW228260   5.913   2.854   5.928
 9121SOL     OW28261   0.868   3.287   5.107
 9121SOL    HW128262   0.925   3.369   5.114
 9121SOL    HW228263   0.826   3.268   5.195
 9122SOL     OW28264   1.874   2.797   1.758
 9122SOL    HW128265   1.971   2.776   1.764
 9122SOL    HW228266   1.823   2.739   1.821
 9123SOL     OW28267   3.428   6.501   5.323
 9123SOL    HW128268   3.460   6.408   5.304
 9123SOL    HW228269   3.470   6.534   5.408
 9124SOL     OW28270   6.090   5.692   5.487
 9124SOL    HW128271   6.099   5.780   5.441
 9124SOL    HW228272   5.994   5.677   5.511
 9125SOL     OW28273   4.690   4.193   3.886
 9125SOL    HW128274   4.725   4.167   3.796
 9125SOL    HW228275   4.751   4.158   3.957
 9126SOL     OW28276   6.036   1.686   2.303
 9126SOL    HW128277   5.943   1.650   2.315
 9126SOL    HW228278   6.033   1.766   2.244
 9127SOL     OW28279   5.628   0.561   5.575
 9127SOL    HW128280   5.711   0.545   5.522
 9127SOL    HW228281   5.620   0.491   5.647
 9128SOL     OW28282   4.066   1.847   5.153
 9128SOL    HW128283   4.059   1.891   5.242
 9128SOL    HW228284   4.143   1.886   5.103
 9129SOL     OW28285   1.721   3.594   1.077
 9129SOL    HW128286   1.682   3.619   0.988
 9129SOL    HW228287   1.820   3.602   1.074
 9130SOL     OW28288   6.954   4.345   6.629
 9130SOL    HW128289   6.879   4.327   6.693
 9130SOL    HW228290   6.919   4.337   6.535
 9131SOL     OW28291   0.366   4.197   4.797
 9131SOL    HW128292   0.439   4.257   4.832
 9131SOL    HW228293   0.277   4.235   4.823
 9132SOL     OW28294   6.907   4.276   3.821
 9132SOL    HW128295   6.995   4.268   3.775
 9132SOL    HW228296   6.860   4.188   3.818
 9133SOL     OW28297   3.257   5.074   0.814
 9133SOL    HW128298   3.338   5.062   0.872
 9133SOL    HW228299   3.285   5.096   0.721
 9134SOL     OW28300   3.725   6.940   0.521
 9134SOL    HW128301   3.817   6.909   0.544
 9134SOL    HW228302   3.724   0.019   0.516
 9135SOL     OW28303   0.041   6.432   1.899
 9135SOL    HW128304   0.054   6.526   1.867
 9135SOL    HW228305   7.017   6.379   1.828
 9136SOL     OW28306   4.917   5.214   5.375
 9136SOL    HW128307   4.851   5.289   5.377
 9136SOL    HW228308   4.893   5.149   5.303
 9137SOL     OW28309   5.441   1.524   1.047
 9137SOL    HW128310   5.469   1.617   1.070
 9137SOL    HW228311   5.404   1.522   0.955
 9138SOL     OW28312   6.667   5.076   6.095
 9138SOL    HW128313   6.680   5.155   6.034
 9138SOL    HW228314   6.615   5.005   6.047
 9139SOL     OW28315   2.424   1.279   4.562
 9139SOL    HW128316   2.391   1.188   4.590
 9139SOL    HW228317   2.348   1.330   4.521
 9140SOL     OW28318   6.443   2.849   2.678
 9140SOL    HW128319   6.423   2.811   2.769
 9140SOL    HW228320   6.531   2.896   2.680
 9141SOL     OW28321   5.579   0.262   6.535
 9141SOL    HW128322   5.501   0.263   6.472
 9141SOL    HW228323   5.545   0.253   6.629
 9142SOL     OW28324   0.147   2.716   5.614
 9142SOL    HW128325   0.118   2.753   5.702
 9142SOL    HW228326   0.171   2.792   5.553
 9143SOL     OW28327   4.909   4.238   6.914
 9143SOL    HW128328   4.913   4.216   7.011
 9143SOL    HW228329   4.937   4.159   6.860
 9144SOL     OW28330   2.273   5.478   6.326
 9144SOL    HW128331   2.195   5.423   6.356
 9144SOL    HW228332   2.351   5.418   6.308
 9145SOL     OW28333   6.576   5.009   1.304
 9145SOL    HW128334   6.546   4.968   1.218
 9145SOL    HW228335   6.631   5.090   1.285
 9146SOL     OW28336   5.224   1.505   1.780
 9146SOL    HW128337   5.186   1.528   1.690
 9146SOL    HW228338   5.308   1.451   1.767
 9147SOL     OW28339   6.016   0.046   4.486
 9147SOL    HW128340   6.092   0.082   4.432
 9147SOL    HW228341   6.003   6.970   4.467
 9148SOL     OW28342   5.112   0.218   1.349
 9148SOL    HW128343   5.109   0.119   1.333
 9148SOL    HW228344   5.031   0.260   1.308
 9149SOL     OW28345   4.898   2.619   3.886
 9149SOL    HW128346   4.939   2.667   3.809
 9149SOL    HW228347   4.926   2.523   3.884
 9150SOL     OW28348   3.701   5.171   3.331
 9150SOL    HW128349   3.606   5.172   3.365
 9150SOL    HW228350   3.761   5.140   3.404
 9151SOL     OW28351   1.444   4.218   2.922
 9151SOL    HW128352   1.482   4.220   3.015
 9151SOL    HW228353   1.410   4.310   2.899
 9152SOL     OW28354   2.754   5.131   4.687
 9152SOL    HW128355   2.769   5.220   4.645
 9152SOL    HW228356   2.710   5.143   4.776
 9153SOL     OW28357   1.512   3.477   1.173
 9153SOL    HW128358   1.607   3.485   1.144
 9153SOL    HW228359   1.452   3.487   1.094
 9154SOL     OW28360   2.891   5.330   0.136
 9154SOL    HW128361   2.819   5.284   0.084
 9154SOL    HW228362   2.859   5.420   0.166
 9155SOL     OW28363   2.100   3.663   0.359
 9155SOL    HW128364   2.042   3.643   0.280
 9155SOL    HW228365   2.154   3.745   0.341
 9156SOL     OW28366   3.338   3.110   0.939
 9156SOL    HW128367   3.334   3.146   1.032
 9156SOL    HW228368   3.432   3.114   0.905
 9157SOL     OW28369   6.131   4.818   5.815
 9157SOL    HW128370   6.203   4.750   5.829
 9157SOL    HW228371   6.122   4.875   5.897
 9158SOL     OW28372   6.312   3.403   5.164
 9158SOL    HW128373   6.220   3.378   5.134
 9158SOL    HW228374   6.312   3.416   5.264
 9159SOL     OW28375   1.179   6.833   3.775
 9159SOL    HW128376   1.144   6.790   3.691
 9159SOL    HW228377   1.102   6.870   3.828
 9160SOL     OW28378   6.560   0.345   5.250
 9160SOL    HW128379   6.565   0.246   5.265
 9160SOL    HW228380   6.480   0.382   5.297
 9161SOL     OW28381   4.854   4.071   4.259
 9161SOL    HW128382   4.760   4.098   4.280
 9161SOL    HW228383   4.914   4.095   4.335
 9162SOL     OW28384   4.680   1.482   3.646
 9162SOL    HW128385   4.649   1.417   3.716
 9162SOL    HW228386   4.774   1.460   3.619
 9163SOL     OW28387   2.169   3.369   3.860
 9163SOL    HW128388   2.097   3.362   3.791
 9163SOL    HW228389   2.184   3.465   3.883
 9164SOL     OW28390   2.784   0.572   0.020
 9164SOL    HW128391   2.686   0.560   0.005
 9164SOL    HW228392   2.818   0.645   6.982
 9165SOL     OW28393   6.133   1.264   5.299
 9165SOL    HW128394   6.148   1.319   5.382
 9165SOL    HW228395   6.105   1.324   5.224
 9166SOL     OW28396   4.705   6.118   0.912
 9166SOL    HW128397   4.624   6.145   0.860
 9166SOL    HW228398   4.713   6.175   0.994
 9167SOL     OW28399   1.425   2.834   6.477
 9167SOL    HW128400   1.430   2.736   6.495
 9167SOL    HW228401   1.480   2.883   6.545
 9168SOL     OW28402   0.690   6.934   5.988
 9168SOL    HW128403   0.644   6.903   6.070
 9168SOL    HW228404   0.745   7.015   6.009
 9169SOL     OW28405   6.517   1.643   4.836
 9169SOL    HW128406   6.488   1.708   4.906
 9169SOL    HW228407   6.598   1.678   4.788
 9170SOL     OW28408   0.353   5.022   0.724
 9170SOL    HW128409   0.352   5.031   0.624
 9170SOL    HW228410   0.414   4.947   0.750
 9171SOL     OW28411   3.073   5.195   0.532
 9171SOL    HW128412   3.000   5.127   0.537
 9171SOL    HW228413   3.036   5.280   0.495
 9172SOL     OW28414   3.270   0.606   5.038
 9172SOL    HW128415   3.357   0.620   4.990
 9172SOL    HW228416   3.196   0.602   4.972
 9173SOL     OW28417   5.966   4.046   4.682
 9173SOL    HW128418   5.888   3.983   4.674
 9173SOL    HW228419   6.051   3.993   4.681
 9174SOL     OW28420   6.276   4.600   0.972
 9174SOL    HW128421   6.202   4.544   1.007
 9174SOL    HW228422   6.242   4.691   0.950
 9175SOL     OW28423   1.421   6.699   4.966
 9175SOL    HW128424   1.485   6.654   4.904
 9175SOL    HW228425   1.454   6.690   5.060
 9176SOL     OW28426   2.815   0.933   4.853
 9176SOL    HW128427   2.860   1.014   4.890
 9176SOL    HW228428   2.762   0.888   4.925
 9177SOL     OW28429   1.772   4.840   4.735
 9177SOL    HW128430   1.771   4.899   4.654
 9177SOL    HW228431   1.776   4.896   4.817
 9178SOL     OW28432   2.290   5.714   0.439
 9178SOL    HW128433   2.352   5.647   0.478
 9178SOL    HW228434   2.196   5.681   0.448
 9179SOL     OW28435   3.140   5.444   3.714
 9179SOL    HW128436   3.210   5.393   3.764
 9179SOL    HW228437   3.175   5.468   3.624
 9180SOL     OW28438   5.560   2.139   3.059
 9180SOL    HW128439   5.509   2.112   3.141
 9180SOL    HW228440   5.551   2.068   2.989
 9181SOL     OW28441   3.953   1.958   3.868
 9181SOL    HW128442   3.977   1.884   3.805
 9181SOL    HW228443   3.945   2.044   3.818
 9182SOL     OW28444   2.283   6.517   2.492
 9182SOL    HW128445   2.373   6.537   2.531
 9182SOL    HW228446   2.273   6.418   2.480
 9183SOL     OW28447   5.012   6.655   0.587
 9183SOL    HW128448   4.990   6.668   0.491
 9183SOL    HW228449   5.085   6.587   0.596
 9184SOL     OW28450   5.357   1.918   6.855
 9184SOL    HW128451   5.296   1.922   6.777
 9184SOL    HW228452   5.340   1.835   6.908
 9185SOL     OW28453   4.549   6.831   4.975
 9185SOL    HW128454   4.493   6.873   5.046
 9185SOL    HW228455   4.496   6.826   4.890
 9186SOL     OW28456   6.165   0.379   3.996
 9186SOL    HW128457   6.128   0.373   4.089
 9186SOL    HW228458   6.166   0.288   3.954
 9187SOL     OW28459   2.850   1.275   1.183
 9187SOL    HW128460   2.805   1.215   1.250
 9187SOL    HW228461   2.907   1.341   1.231
 9188SOL     OW28462   2.108   6.500   1.896
 9188SOL    HW128463   2.027   6.453   1.862
 9188SOL    HW228464   2.189   6.442   1.885
 9189SOL     OW28465   5.253   5.950   1.272
 9189SOL    HW128466   5.162   5.954   1.230
 9189SOL    HW228467   5.304   5.873   1.233
 9190SOL     OW28468   1.761   4.753   7.008
 9190SOL    HW128469   1.691   4.759   0.058
 9190SOL    HW228470   1.759   4.836   6.952
 9191SOL     OW28471   5.768   0.920   6.078
 9191SOL    HW128472   5.726   1.009   6.094
 9191SOL    HW228473   5.827   0.925   5.997
 9192SOL     OW28474   0.490   4.028   6.104
 9192SOL    HW128475   0.537   3.990   6.183
 9192SOL    HW228476   0.544   4.009   6.021
 9193SOL     OW28477   4.456   4.719   0.448
 9193SOL    HW128478   4.415   4.662   0.377
 9193SOL    HW228479   4.549   4.688   0.466
 9194SOL     OW28480   3.018   0.453   3.312
 9194SOL    HW128481   3.046   0.461   3.407
 9194SOL    HW228482   3.005   0.545   3.273
 9195SOL     OW28483   1.750   2.161   4.301
 9195SOL    HW128484   1.654   2.191   4.303
 9195SOL    HW228485   1.757   2.069   4.340
 9196SOL     OW28486   4.252   0.236   4.133
 9196SOL    HW128487   4.338   0.287   4.126
 9196SOL    HW228488   4.188   0.286   4.191
 9197SOL     OW28489   1.956   4.401   1.670
 9197SOL    HW128490   2.016   4.459   1.725
 9197SOL    HW228491   2.000   4.313   1.654
 9198SOL     OW28492   6.640   4.693   6.438
 9198SOL    HW128493   6.558   4.709   6.383
 9198SOL    HW228494   6.615   4.647   6.523
 9199SOL     OW28495   1.664   3.828   5.969
 9199SOL    HW128496   1.672   3.924   5.996
 9199SOL    HW228497   1.751   3.798   5.929
 9200SOL     OW28498   2.853   0.209   0.833
 9200SOL    HW128499   2.758   0.181   0.844
 9200SOL    HW228500   2.913   0.134   0.860
 9201SOL     OW28501   0.424   2.792   0.345
 9201SOL    HW128502   0.360   2.748   0.282
 9201SOL    HW228503   0.447   2.883   0.311
 9202SOL     OW28504   1.298   6.501   2.784
 9202SOL    HW128505   1.383   6.503   2.730
 9202SOL    HW228506   1.222   6.531   2.726
 9203SOL     OW28507   0.543   5.247   0.384
 9203SOL    HW128508   0.627   5.196   0.367
 9203SOL    HW228509   0.509   5.286   0.298
 9204SOL     OW28510   4.177   2.615   6.418
 9204SOL    HW128511   4.164   2.560   6.336
 9204SOL    HW228512   4.192   2.711   6.393
 9205SOL     OW28513   6.220   4.854   2.677
 9205SOL    HW128514   6.295   4.919   2.676
 9205SOL    HW228515   6.137   4.898   2.709
 9206SOL     OW28516   4.091   5.549   1.994
 9206SOL    HW128517   4.031   5.475   1.965
 9206SOL    HW228518   4.099   5.548   2.094
 9207SOL     OW28519   4.124   5.198   6.613
 9207SOL    HW128520   4.217   5.162   6.604
 9207SOL    HW228521   4.072   5.177   6.530
 9208SOL     OW28522   5.671   3.919   4.153
 9208SOL    HW128523   5.690   3.969   4.237
 9208SOL    HW228524   5.738   3.846   4.142
 9209SOL     OW28525   2.888   0.804   6.886
 9209SOL    HW128526   2.848   0.838   6.801
 9209SOL    HW228527   2.888   0.877   6.955
 9210SOL     OW28528   6.935   0.718   3.300
 9210SOL    HW128529   6.901   0.800   3.346
 9210SOL    HW228530   0.008   0.732   3.273
 9211SOL     OW28531   6.305   3.204   4.815
 9211SOL    HW128532   6.207   3.224   4.811
 9211SOL    HW228533   6.357   3.288   4.795
 9212SOL     OW28534   4.324   5.200   4.655
 9212SOL    HW128535   4.243   5.143   4.636
 9212SOL    HW228536   4.300   5.270   4.722
 9213SOL     OW28537   5.417   3.551   5.731
 9213SOL    HW128538   5.331   3.539   5.780
 9213SOL    HW228539   5.424   3.482   5.658
 9214SOL     OW28540   0.436   5.004   6.230
 9214SOL    HW128541   0.509   4.996   6.162
 9214SOL    HW228542   0.433   5.098   6.265
 9215SOL     OW28543   1.449   2.289   0.046
 9215SOL    HW128544   1.541   2.328   0.054
 9215SOL    HW228545   1.432   2.228   0.123
 9216SOL     OW28546   2.543   0.206   2.660
 9216SOL    HW128547   2.459   0.219   2.713
 9216SOL    HW228548   2.522   0.159   2.575
 9217SOL     OW28549   0.501   1.219   6.306
 9217SOL    HW128550   0.553   1.219   6.220
 9217SOL    HW228551   0.542   1.154   6.370
 9218SOL     OW28552   3.509   6.294   0.798
 9218SOL    HW128553   3.530   6.347   0.716
 9218SOL    HW228554   3.583   6.229   0.815
 9219SOL     OW28555   0.214   2.515   1.274
 9219SOL    HW128556   0.217   2.426   1.319
 9219SOL    HW228557   0.246   2.506   1.180
 9220SOL     OW28558   2.106   6.785   0.530
 9220SOL    HW128559   2.147   6.760   0.442
 9220SOL    HW228560   2.037   6.855   0.515
 9221SOL     OW28561   2.849   1.132   4.285
 9221SOL    HW128562   2.777   1.200   4.280
 9221SOL    HW228563   2.849   1.077   4.202
 9222SOL     OW28564   1.940   6.880   6.480
 9222SOL    HW128565   1.980   6.972   6.472
 9222SOL    HW228566   1.965   6.841   6.569
 9223SOL     OW28567   1.853   1.471   4.020
 9223SOL    HW128568   1.871   1.427   4.108
 9223SOL    HW228569   1.928   1.451   3.957
 9224SOL     OW28570   2.498   4.994   5.122
 9224SOL    HW128571   2.572   5.061   5.114
 9224SOL    HW228572   2.533   4.903   5.102
 9225SOL     OW28573   4.013   6.687   5.904
 9225SOL    HW128574   4.027   6.588   5.898
 9225SOL    HW228575   4.065   6.724   5.980
 9226SOL     OW28576   5.382   6.828   2.305
 9226SOL    HW128577   5.479   6.835   2.327
 9226SOL    HW228578   5.329   6.888   2.365
 9227SOL     OW28579   0.736   5.219   1.240
 9227SOL    HW128580   0.763   5.271   1.322
 9227SOL    HW228581   0.767   5.125   1.250
 9228SOL     OW28582   1.768   1.020   6.014
 9228SOL    HW128583   1.837   1.028   6.086
 9228SOL    HW228584   1.678   1.038   6.053
 9229SOL     OW28585   1.412   5.374   4.659
 9229SOL    HW128586   1.355   5.437   4.607
 9229SOL    HW228587   1.493   5.422   4.692
 9230SOL     OW28588   5.828   0.816   3.457
 9230SOL    HW128589   5.861   0.885   3.521
 9230SOL    HW228590   5.805   0.732   3.506
 9231SOL     OW28591   1.496   4.742   4.900
 9231SOL    HW128592   1.524   4.682   4.974
 9231SOL    HW228593   1.575   4.760   4.840
 9232SOL     OW28594   3.364   5.468   0.656
 9232SOL    HW128595   3.460   5.438   0.660
 9232SOL    HW228596   3.331   5.462   0.563
 9233SOL     OW28597   5.359   5.337   1.617
 9233SOL    HW128598   5.410   5.329   1.703
 9233SOL    HW228599   5.354   5.248   1.573
 9234SOL     OW28600   3.782   5.660   4.986
 9234SOL    HW128601   3.789   5.561   5.002
 9234SOL    HW228602   3.794   5.679   4.888
 9235SOL     OW28603   1.218   2.306   3.987
 9235SOL    HW128604   1.199   2.312   4.084
 9235SOL    HW228605   1.304   2.256   3.972
 9236SOL     OW28606   2.573   4.294   5.453
 9236SOL    HW128607   2.506   4.341   5.396
 9236SOL    HW228608   2.608   4.214   5.405
 9237SOL     OW28609   2.272   4.976   5.340
 9237SOL    HW128610   2.334   5.015   5.272
 9237SOL    HW228611   2.324   4.922   5.406
 9238SOL     OW28612   3.798   1.689   6.199
 9238SOL    HW128613   3.875   1.695   6.263
 9238SOL    HW228614   3.713   1.709   6.249
 9239SOL     OW28615   0.354   3.851   0.600
 9239SOL    HW128616   0.450   3.856   0.628
 9239SOL    HW228617   0.340   3.770   0.543
 9240SOL     OW28618   5.526   1.759   0.721
 9240SOL    HW128619   5.475   1.693   0.776
 9240SOL    HW228620   5.609   1.716   0.686
 9241SOL     OW28621   0.723   5.330   6.589
 9241SOL    HW128622   0.768   5.253   6.544
 9241SOL    HW228623   0.761   5.416   6.555
 9242SOL     OW28624   6.661   5.460   0.855
 9242SOL    HW128625   6.567   5.430   0.841
 9242SOL    HW228626   6.678   5.544   0.803
 9243SOL     OW28627   5.883   6.688   2.591
 9243SOL    HW128628   5.808   6.621   2.587
 9243SOL    HW228629   5.853   6.768   2.642
 9244SOL     OW28630   4.529   5.303   6.242
 9244SOL    HW128631   4.481   5.217   6.262
 9244SOL    HW228632   4.486   5.349   6.165
 9245SOL     OW28633   1.400   5.510   3.118
 9245SOL    HW128634   1.478   5.464   3.161
 9245SOL    HW228635   1.386   5.599   3.160
 9246SOL     OW28636   0.255   4.862   3.173
 9246SOL    HW128637   0.340   4.914   3.176
 9246SOL    HW228638   0.243   4.813   3.259
 9247SOL     OW28639   1.078   0.130   3.477
 9247SOL    HW128640   1.129   0.106   3.394
 9247SOL    HW228641   0.980   0.129   3.457
 9248SOL     OW28642   1.817   2.970   6.285
 9248SOL    HW128643   1.843   2.883   6.242
 9248SOL    HW228644   1.717   2.980   6.283
 9249SOL     OW28645   5.301   3.496   6.032
 9249SOL    HW128646   5.369   3.566   6.011
 9249SOL    HW228647   5.220   3.540   6.072
 9250SOL     OW28648   5.173   3.482   4.948
 9250SOL    HW128649   5.091   3.443   4.906
 9250SOL    HW228650   5.254   3.440   4.908
 9251SOL     OW28651   3.849   2.138   3.141
 9251SOL    HW128652   3.845   2.108   3.237
 9251SOL    HW228653   3.931   2.102   3.098
 9252SOL     OW28654   6.063   0.413   4.273
 9252SOL    HW128655   5.970   0.412   4.236
 9252SOL    HW228656   6.084   0.505   4.307
 9253SOL     OW28657   5.266   6.088   6.289
 9253SOL    HW128658   5.353   6.104   6.335
 9253SOL    HW228659   5.220   6.010   6.332
 9254SOL     OW28660   6.294   4.449   1.798
 9254SOL    HW128661   6.205   4.426   1.837
 9254SOL    HW228662   6.365   4.436   1.868
 9255SOL     OW28663   5.461   3.283   0.527
 9255SOL    HW128664   5.478   3.317   0.434
 9255SOL    HW228665   5.528   3.321   0.589
 9256SOL     OW28666   4.045   5.179   2.799
 9256SOL    HW128667   4.020   5.144   2.709
 9256SOL    HW228668   4.123   5.129   2.834
 9257SOL     OW28669   0.821   3.536   2.617
 9257SOL    HW128670   0.786   3.512   2.527
 9257SOL    HW228671   0.857   3.454   2.662
 9258SOL     OW28672   3.810   3.191   3.934
 9258SOL    HW128673   3.873   3.243   3.877
 9258SOL    HW228674   3.857   3.161   4.017
 9259SOL     OW28675   1.755   2.173   1.105
 9259SOL    HW128676   1.710   2.208   1.023
 9259SOL    HW228677   1.756   2.073   1.102
 9260SOL     OW28678   5.192   1.507   5.162
 9260SOL    HW128679   5.182   1.438   5.091
 9260SOL    HW228680   5.107   1.514   5.214
 9261SOL     OW28681   4.626   0.733   6.261
 9261SOL    HW128682   4.711   0.730   6.208
 9261SOL    HW228683   4.619   0.821   6.308
 9262SOL     OW28684   6.655   3.316   5.502
 9262SOL    HW128685   6.741   3.367   5.509
 9262SOL    HW228686   6.616   3.329   5.411
 9263SOL     OW28687   6.257   4.060   1.171
 9263SOL    HW128688   6.294   4.007   1.094
 9263SOL    HW228689   6.281   4.015   1.257
 9264SOL     OW28690   5.599   3.868   0.477
 9264SOL    HW128691   5.693   3.862   0.443
 9264SOL    HW228692   5.572   3.781   0.518
 9265SOL     OW28693   3.075   1.787   0.420
 9265SOL    HW128694   3.128   1.744   0.347
 9265SOL    HW228695   3.127   1.786   0.505
 9266SOL     OW28696   1.896   6.326   2.268
 9266SOL    HW128697   1.841   6.331   2.185
 9266SOL    HW228698   1.851   6.265   2.334
 9267SOL     OW28699   6.847   4.353   5.849
 9267SOL    HW128700   6.798   4.359   5.936
 9267SOL    HW228701   6.781   4.344   5.774
 9268SOL     OW28702   1.239   5.856   1.209
 9268SOL    HW128703   1.239   5.931   1.276
 9268SOL    HW228704   1.225   5.769   1.257
 9269SOL     OW28705   3.338   2.903   6.101
 9269SOL    HW128706   3.359   2.944   6.012
 9269SOL    HW228707   3.316   2.806   6.090
 9270SOL     OW28708   5.200   0.140   5.707
 9270SOL    HW128709   5.199   0.092   5.619
 9270SOL    HW228710   5.258   0.090   5.771
 9271SOL     OW28711   1.683   5.424   6.626
 9271SOL    HW128712   1.660   5.327   6.627
 9271SOL    HW228713   1.708   5.452   6.533
 9272SOL     OW28714   3.093   5.544   5.665
 9272SOL    HW128715   3.066   5.448   5.675
 9272SOL    HW228716   3.103   5.585   5.756
 9273SOL     OW28717   5.489   6.193   4.402
 9273SOL    HW128718   5.430   6.268   4.374
 9273SOL    HW228719   5.564   6.228   4.458
 9274SOL     OW28720   6.500   2.986   0.126
 9274SOL    HW128721   6.431   3.047   0.166
 9274SOL    HW228722   6.588   3.034   0.121
 9275SOL     OW28723   0.237   2.011   6.744
 9275SOL    HW128724   0.296   2.050   6.673
 9275SOL    HW228725   0.288   1.941   6.794
 9276SOL     OW28726   2.581   4.600   3.939
 9276SOL    HW128727   2.543   4.523   3.992
 9276SOL    HW228728   2.533   4.684   3.965
 9277SOL     OW28729   4.082   3.685   0.433
 9277SOL    HW128730   4.074   3.598   0.481
 9277SOL    HW228731   4.177   3.700   0.406
 9278SOL     OW28732   1.628   1.034   4.455
 9278SOL    HW128733   1.707   1.000   4.507
 9278SOL    HW228734   1.575   0.956   4.421
 9279SOL     OW28735   4.508   0.329   1.993
 9279SOL    HW128736   4.484   0.275   1.912
 9279SOL    HW228737   4.425   0.364   2.036
 9280SOL     OW28738   1.587   0.380   3.235
 9280SOL    HW128739   1.548   0.398   3.325
 9280SOL    HW228740   1.519   0.333   3.179
 9281SOL     OW28741   3.315   4.090   1.502
 9281SOL    HW128742   3.218   4.082   1.524
 9281SOL    HW228743   3.330   4.174   1.449
 9282SOL     OW28744   4.604   2.004   4.354
 9282SOL    HW128745   4.576   2.054   4.436
 9282SOL    HW228746   4.645   2.067   4.289
 9283SOL     OW28747   5.791   0.887   3.187
 9283SOL    HW128748   5.801   0.798   3.142
 9283SOL    HW228749   5.812   0.878   3.284
 9284SOL     OW28750   3.489   5.336   6.470
 9284SOL    HW128751   3.470   5.424   6.514
 9284SOL    HW228752   3.587   5.316   6.477
 9285SOL     OW28753   5.142   3.200   0.464
 9285SOL    HW128754   5.167   3.198   0.367
 9285SOL    HW228755   5.211   3.152   0.518
 9286SOL     OW28756   5.409   0.072   5.932
 9286SOL    HW128757   5.440   7.001   5.908
 9286SOL    HW228758   5.479   0.117   5.987
 9287SOL     OW28759   2.811   5.999   0.375
 9287SOL    HW128760   2.850   5.910   0.398
 9287SOL    HW228761   2.718   6.005   0.412
 9288SOL     OW28762   2.909   1.403   5.108
 9288SOL    HW128763   2.841   1.341   5.147
 9288SOL    HW228764   2.976   1.427   5.178
 9289SOL     OW28765   3.787   1.719   2.128
 9289SOL    HW128766   3.868   1.678   2.170
 9289SOL    HW228767   3.706   1.693   2.181
 9290SOL     OW28768   5.151   1.934   4.071
 9290SOL    HW128769   5.063   1.967   4.105
 9290SOL    HW228770   5.158   1.836   4.088
 9291SOL     OW28771   2.847   0.320   5.068
 9291SOL    HW128772   2.805   0.229   5.069
 9291SOL    HW228773   2.848   0.355   4.974
 9292SOL     OW28774   0.209   3.471   6.151
 9292SOL    HW128775   0.241   3.532   6.079
 9292SOL    HW228776   0.132   3.512   6.198
 9293SOL     OW28777   6.414   3.949   0.897
 9293SOL    HW128778   6.500   3.930   0.946
 9293SOL    HW228779   6.375   3.864   0.864
 9294SOL     OW28780   3.454   6.388   5.710
 9294SOL    HW128781   3.378   6.434   5.663
 9294SOL    HW228782   3.446   6.402   5.808
 9295SOL     OW28783   5.550   2.119   3.559
 9295SOL    HW128784   5.475   2.085   3.615
 9295SOL    HW228785   5.629   2.138   3.617
 9296SOL     OW28786   0.525   6.133   6.561
 9296SOL    HW128787   0.522   6.178   6.471
 9296SOL    HW228788   0.593   6.060   6.559
 9297SOL     OW28789   6.796   0.708   1.036
 9297SOL    HW128790   6.716   0.651   1.020
 9297SOL    HW228791   6.795   0.787   0.974
 9298SOL     OW28792   1.722   0.066   5.742
 9298SOL    HW128793   1.654   0.044   5.673
 9298SOL    HW228794   1.679   0.116   5.817
 9299SOL     OW28795   0.818   2.622   4.602
 9299SOL    HW128796   0.821   2.600   4.504
 9299SOL    HW228797   0.810   2.721   4.614
 9300SOL     OW28798   0.326   4.966   4.688
 9300SOL    HW128799   0.249   4.986   4.749
 9300SOL    HW228800   0.335   5.040   4.621
 9301SOL     OW28801   4.865   4.360   3.441
 9301SOL    HW128802   4.767   4.376   3.433
 9301SOL    HW228803   4.900   4.322   3.355
 9302SOL     OW28804   2.215   3.020   4.583
 9302SOL    HW128805   2.213   3.056   4.677
 9302SOL    HW228806   2.253   3.089   4.522
 9303SOL     OW28807   3.940   6.162   0.519
 9303SOL    HW128808   3.975   6.244   0.475
 9303SOL    HW228809   3.849   6.141   0.482
 9304SOL     OW28810   4.420   4.182   0.861
 9304SOL    HW128811   4.493   4.125   0.900
 9304SOL    HW228812   4.337   4.127   0.854
 9305SOL     OW28813   4.147   1.607   1.753
 9305SOL    HW128814   4.091   1.629   1.673
 9305SOL    HW228815   4.087   1.602   1.834
 9306SOL     OW28816   0.637   4.730   4.871
 9306SOL    HW128817   0.548   4.765   4.900
 9306SOL    HW228818   0.624   4.648   4.815
 9307SOL     OW28819   1.132   3.665   1.750
 9307SOL    HW128820   1.077   3.748   1.757
 9307SOL    HW228821   1.144   3.641   1.653
 9308SOL     OW28822   1.161   3.717   0.959
 9308SOL    HW128823   1.215   3.692   0.879
 9308SOL    HW228824   1.221   3.754   1.030
 9309SOL     OW28825   3.376   5.071   5.381
 9309SOL    HW128826   3.349   5.081   5.285
 9309SOL    HW228827   3.466   5.027   5.386
 9310SOL     OW28828   4.610   5.653   6.532
 9310SOL    HW128829   4.684   5.589   6.550
 9310SOL    HW228830   4.635   5.715   6.458
 9311SOL     OW28831   5.988   4.534   1.617
 9311SOL    HW128832   6.068   4.577   1.576
 9311SOL    HW228833   6.016   4.477   1.695
 9312SOL     OW28834   1.276   4.073   1.744
 9312SOL    HW128835   1.243   4.156   1.790
 9312SOL    HW228836   1.211   4.048   1.671
 9313SOL     OW28837   0.323   0.566   0.841
 9313SOL    HW128838   0.285   0.568   0.748
 9313SOL    HW228839   0.256   0.525   0.903
 9314SOL     OW28840   3.983   5.618   5.689
 9314SOL    HW128841   4.083   5.625   5.692
 9314SOL    HW228842   3.952   5.617   5.594
 9315SOL     OW28843   6.773   0.692   4.977
 9315SOL    HW128844   6.865   0.695   4.938
 9315SOL    HW228845   6.727   0.780   4.961
 9316SOL     OW28846   4.033   5.351   5.331
 9316SOL    HW128847   3.935   5.367   5.336
 9316SOL    HW228848   4.052   5.271   5.274
 9317SOL     OW28849   6.473   5.551   3.453
 9317SOL    HW128850   6.468   5.577   3.357
 9317SOL    HW228851   6.564   5.516   3.474
 9318SOL     OW28852   6.661   0.937   4.894
 9318SOL    HW128853   6.562   0.952   4.903
 9318SOL    HW228854   6.690   0.958   4.801
 9319SOL     OW28855   0.401   2.676   5.806
 9319SOL    HW128856   0.326   2.652   5.746
 9319SOL    HW228857   0.442   2.763   5.777
 9320SOL     OW28858   4.690   1.984   6.361
 9320SOL    HW128859   4.721   1.975   6.267
 9320SOL    HW228860   4.590   1.978   6.365
 9321SOL     OW28861   6.272   0.123   2.408
 9321SOL    HW128862   6.187   0.147   2.454
 9321SOL    HW228863   6.311   0.204   2.366
 9322SOL     OW28864   6.993   5.893   6.243
 9322SOL    HW128865   6.900   5.871   6.215
 9322SOL    HW228866   0.016   5.946   6.171
 9323SOL     OW28867   1.795   0.170   5.413
 9323SOL    HW128868   1.745   0.247   5.454
 9323SOL    HW228869   1.883   0.159   5.460
 9324SOL     OW28870   1.974   5.184   0.511
 9324SOL    HW128871   1.945   5.223   0.598
 9324SOL    HW228872   1.910   5.112   0.484
 9325SOL     OW28873   5.123   1.974   0.250
 9325SOL    HW128874   5.034   1.938   0.276
 9325SOL    HW228875   5.189   1.952   0.322
 9326SOL     OW28876   2.612   0.090   0.810
 9326SOL    HW128877   2.514   0.103   0.792
 9326SOL    HW228878   2.631   7.013   0.820
 9327SOL     OW28879   4.933   6.460   2.447
 9327SOL    HW128880   5.019   6.427   2.487
 9327SOL    HW228881   4.862   6.460   2.518
 9328SOL     OW28882   3.516   0.894   6.379
 9328SOL    HW128883   3.492   0.943   6.295
 9328SOL    HW228884   3.459   0.928   6.454
 9329SOL     OW28885   0.122   4.041   2.211
 9329SOL    HW128886   0.055   4.055   2.139
 9329SOL    HW228887   0.187   4.117   2.212
 9330SOL     OW28888   0.662   6.370   6.965
 9330SOL    HW128889   0.753   6.406   6.945
 9330SOL    HW228890   0.594   6.419   6.911
 9331SOL     OW28891   1.300   1.530   5.935
 9331SOL    HW128892   1.237   1.519   6.012
 9331SOL    HW228893   1.343   1.443   5.913
 9332SOL     OW28894   3.666   3.937   2.852
 9332SOL    HW128895   3.656   4.010   2.920
 9332SOL    HW228896   3.609   3.859   2.878
 9333SOL     OW28897   4.609   3.932   1.482
 9333SOL    HW128898   4.561   4.009   1.438
 9333SOL    HW228899   4.625   3.954   1.579
 9334SOL     OW28900   4.139   6.567   3.886
 9334SOL    HW128901   4.107   6.472   3.878
 9334SOL    HW228902   4.216   6.571   3.950
 9335SOL     OW28903   0.951   1.336   5.806
 9335SOL    HW128904   0.908   1.294   5.726
 9335SOL    HW228905   0.913   1.427   5.821
 9336SOL     OW28906   3.614   5.504   6.143
 9336SOL    HW128907   3.713   5.498   6.159
 9336SOL    HW228908   3.592   5.466   6.053
 9337SOL     OW28909   5.247   0.991   3.487
 9337SOL    HW128910   5.202   0.903   3.473
 9337SOL    HW228911   5.316   0.982   3.559
 9338SOL     OW28912   4.345   1.110   2.134
 9338SOL    HW128913   4.345   1.013   2.158
 9338SOL    HW228914   4.440   1.143   2.128
 9339SOL     OW28915   5.214   6.924   1.011
 9339SOL    HW128916   5.311   6.910   1.030
 9339SOL    HW228917   5.184   6.858   0.942
 9340SOL     OW28918   5.157   3.756   4.938
 9340SOL    HW128919   5.062   3.781   4.919
 9340SOL    HW228920   5.164   3.656   4.947
 9341SOL     OW28921   0.326   5.935   6.604
 9341SOL    HW128922   0.231   5.951   6.578
 9341SOL    HW228923   0.367   6.021   6.636
 9342SOL     OW28924   2.545   0.742   3.849
 9342SOL    HW128925   2.617   0.784   3.794
 9342SOL    HW228926   2.464   0.727   3.792
 9343SOL     OW28927   6.060   4.366   3.073
 9343SOL    HW128928   6.093   4.453   3.037
 9343SOL    HW228929   6.117   4.339   3.151
 9344SOL     OW28930   4.420   5.722   1.437
 9344SOL    HW128931   4.413   5.773   1.351
 9344SOL    HW228932   4.481   5.643   1.423
 9345SOL     OW28933   6.443   4.177   1.966
 9345SOL    HW128934   6.377   4.107   1.994
 9345SOL    HW228935   6.491   4.212   2.047
 9346SOL     OW28936   6.244   0.812   0.834
 9346SOL    HW128937   6.181   0.738   0.859
 9346SOL    HW228938   6.226   0.892   0.891
 9347SOL     OW28939   1.169   5.539   0.849
 9347SOL    HW128940   1.076   5.516   0.877
 9347SOL    HW228941   1.187   5.635   0.870
 9348SOL     OW28942   3.758   5.335   1.674
 9348SOL    HW128943   3.681   5.358   1.614
 9348SOL    HW228944   3.795   5.246   1.648
 9349SOL     OW28945   0.681   6.822   2.443
 9349SOL    HW128946   0.696   6.730   2.406
 9349SOL    HW228947   0.744   6.886   2.399
 9350SOL     OW28948   0.684   3.198   5.347
 9350SOL    HW128949   0.776   3.159   5.349
 9350SOL    HW228950   0.647   3.199   5.440
 9351SOL     OW28951   3.189   1.373   6.477
 9351SOL    HW128952   3.214   1.421   6.561
 9351SOL    HW228953   3.267   1.320   6.444
 9352SOL     OW28954   2.834   3.285   0.128
 9352SOL    HW128955   2.812   3.294   0.031
 9352SOL    HW228956   2.922   3.237   0.137
 9353SOL     OW28957   0.688   5.319   1.609
 9353SOL    HW128958   0.694   5.413   1.641
 9353SOL    HW228959   0.611   5.274   1.654
 9354SOL     OW28960   6.850   2.353   6.859
 9354SOL    HW128961   6.852   2.253   6.867
 9354SOL    HW228962   6.859   2.378   6.762
 9355SOL     OW28963   0.740   2.359   4.805
 9355SOL    HW128964   0.826   2.371   4.756
 9355SOL    HW228965   0.754   2.376   4.903
 9356SOL     OW28966   3.615   7.005   1.005
 9356SOL    HW128967   3.524   6.998   1.046
 9356SOL    HW228968   3.632   6.925   0.947
 9357SOL     OW28969   1.330   3.117   6.112
 9357SOL    HW128970   1.415   3.147   6.153
 9357SOL    HW228971   1.270   3.080   6.182
 9358SOL     OW28972   0.488   3.931   2.184
 9358SOL    HW128973   0.497   3.834   2.208
 9358SOL    HW228974   0.395   3.962   2.207
 9359SOL     OW28975   1.799   4.786   6.282
 9359SOL    HW128976   1.897   4.775   6.299
 9359SOL    HW228977   1.777   4.747   6.192
 9360SOL     OW28978   1.532   6.356   6.482
 9360SOL    HW128979   1.620   6.324   6.446
 9360SOL    HW228980   1.539   6.367   6.581
 9361SOL     OW28981   1.979   5.643   3.497
 9361SOL    HW128982   2.027   5.731   3.496
 9361SOL    HW228983   1.993   5.599   3.586
 9362SOL     OW28984   1.450   1.839   2.311
 9362SOL    HW128985   1.527   1.820   2.372
 9362SOL    HW228986   1.369   1.864   2.365
 9363SOL     OW28987   3.392   5.083   1.550
 9363SOL    HW128988   3.333   5.109   1.627
 9363SOL    HW228989   3.336   5.040   1.479
 9364SOL     OW28990   2.217   2.024   1.473
 9364SOL    HW128991   2.282   2.010   1.548
 9364SOL    HW228992   2.232   2.113   1.431
 9365SOL     OW28993   2.952   2.131   3.934
 9365SOL    HW128994   2.954   2.071   3.854
 9365SOL    HW228995   2.881   2.099   3.997
 9366SOL     OW28996   3.291   5.818   6.890
 9366SOL    HW128997   3.221   5.748   6.896
 9366SOL    HW228998   3.367   5.785   6.834
 9367SOL     OW28999   5.739   0.438   1.235
 9367SOL    HW129000   5.791   0.471   1.314
 9367SOL    HW229001   5.714   0.516   1.177
 9368SOL     OW29002   3.662   6.915   2.163
 9368SOL    HW129003   3.595   6.988   2.155
 9368SOL    HW229004   3.742   6.947   2.212
 9369SOL     OW29005   0.674   5.815   4.911
 9369SOL    HW129006   0.654   5.779   5.003
 9369SOL    HW229007   0.602   5.879   4.884
 9370SOL     OW29008   4.867   0.691   3.257
 9370SOL    HW129009   4.832   0.690   3.350
 9370SOL    HW229010   4.895   0.784   3.233
 9371SOL     OW29011   2.981   5.310   1.328
 9371SOL    HW129012   2.982   5.263   1.416
 9371SOL    HW229013   3.013   5.248   1.256
 9372SOL     OW29014   4.221   0.032   1.721
 9372SOL    HW129015   4.312   0.045   1.761
 9372SOL    HW229016   4.211   6.957   1.694
 9373SOL     OW29017   6.596   2.528   0.424
 9373SOL    HW129018   6.612   2.613   0.374
 9373SOL    HW229019   6.502   2.526   0.458
 9374SOL     OW29020   0.375   3.992   5.765
 9374SOL    HW129021   0.395   4.089   5.782
 9374SOL    HW229022   0.317   3.984   5.685
 9375SOL     OW29023   0.275   1.908   0.412
 9375SOL    HW129024   0.202   1.925   0.479
 9375SOL    HW229025   0.247   1.944   0.323
 9376SOL     OW29026   2.122   3.336   2.253
 9376SOL    HW129027   2.157   3.416   2.302
 9376SOL    HW229028   2.144   3.345   2.156
 9377SOL     OW29029   2.714   5.401   2.920
 9377SOL    HW129030   2.688   5.479   2.976
 9377SOL    HW229031   2.786   5.349   2.967
 9378SOL     OW29032   3.424   0.956   3.666
 9378SOL    HW129033   3.495   0.914   3.723
 9378SOL    HW229034   3.451   1.049   3.643
 9379SOL     OW29035   4.707   6.892   4.664
 9379SOL    HW129036   4.730   6.923   4.572
 9379SOL    HW229037   4.787   6.901   4.723
 9380SOL     OW29038   3.546   5.757   5.548
 9380SOL    HW129039   3.448   5.769   5.564
 9380SOL    HW229040   3.594   5.753   5.635
 9381SOL     OW29041   5.160   1.631   4.486
 9381SOL    HW129042   5.138   1.544   4.530
 9381SOL    HW229043   5.183   1.698   4.557
 9382SOL     OW29044   3.827   0.760   4.165
 9382SOL    HW129045   3.919   0.721   4.166
 9382SOL    HW229046   3.772   0.713   4.095
 9383SOL     OW29047   4.834   4.155   3.645
 9383SOL    HW129048   4.802   4.068   3.606
 9383SOL    HW229049   4.828   4.227   3.576
 9384SOL     OW29050   1.794   6.822   1.873
 9384SOL    HW129051   1.787   6.777   1.784
 9384SOL    HW229052   1.734   6.776   1.939
 9385SOL     OW29053   4.043   1.472   4.176
 9385SOL    HW129054   4.014   1.510   4.264
 9385SOL    HW229055   3.970   1.415   4.138
 9386SOL     OW29056   3.347   6.115   5.426
 9386SOL    HW129057   3.403   6.036   5.400
 9386SOL    HW229058   3.274   6.127   5.358
 9387SOL     OW29059   4.059   2.284   0.045
 9387SOL    HW129060   4.065   2.356   0.115
 9387SOL    HW229061   4.034   2.198   0.088
 9388SOL     OW29062   1.545   6.762   4.364
 9388SOL    HW129063   1.472   6.819   4.327
 9388SOL    HW229064   1.508   6.699   4.432
 9389SOL     OW29065   3.255   5.198   2.674
 9389SOL    HW129066   3.254   5.134   2.750
 9389SOL    HW229067   3.283   5.150   2.590
 9390SOL     OW29068   5.291   4.619   5.577
 9390SOL    HW129069   5.309   4.572   5.491
 9390SOL    HW229070   5.370   4.608   5.638
 9391SOL     OW29071   0.733   6.851   5.086
 9391SOL    HW129072   0.749   6.758   5.119
 9391SOL    HW229073   0.667   6.896   5.146
 9392SOL     OW29074   5.016   4.812   3.496
 9392SOL    HW129075   5.034   4.713   3.495
 9392SOL    HW229076   4.920   4.828   3.516
 9393SOL     OW29077   3.460   6.194   6.152
 9393SOL    HW129078   3.530   6.151   6.208
 9393SOL    HW229079   3.391   6.126   6.127
 9394SOL     OW29080   5.561   0.708   1.513
 9394SOL    HW129081   5.645   0.762   1.500
 9394SOL    HW229082   5.484   0.770   1.528
 9395SOL     OW29083   2.721   1.557   0.971
 9395SOL    HW129084   2.694   1.653   0.972
 9395SOL    HW229085   2.815   1.549   0.938
 9396SOL     OW29086   2.184   6.245   6.140
 9396SOL    HW129087   2.141   6.263   6.052
 9396SOL    HW229088   2.117   6.258   6.214
 9397SOL     OW29089   3.717   6.884   6.213
 9397SOL    HW129090   3.625   6.922   6.203
 9397SOL    HW229091   3.766   6.890   6.126
 9398SOL     OW29092   6.268   1.115   6.597
 9398SOL    HW129093   6.173   1.105   6.626
 9398SOL    HW229094   6.295   1.211   6.606
 9399SOL     OW29095   1.707   2.740   4.068
 9399SOL    HW129096   1.798   2.741   4.109
 9399SOL    HW229097   1.712   2.775   3.974
 9400SOL     OW29098   5.414   1.444   0.151
 9400SOL    HW129099   5.325   1.416   0.186
 9400SOL    HW229100   5.417   1.432   0.052
 9401SOL     OW29101   0.650   2.621   2.750
 9401SOL    HW129102   0.612   2.644   2.660
 9401SOL    HW229103   0.579   2.631   2.820
 9402SOL     OW29104   1.739   5.491   3.460
 9402SOL    HW129105   1.687   5.546   3.394
 9402SOL    HW229106   1.816   5.544   3.495
 9403SOL     OW29107   6.740   1.108   2.124
 9403SOL    HW129108   6.680   1.033   2.094
 9403SOL    HW229109   6.686   1.192   2.135
 9404SOL     OW29110   0.997   3.077   1.088
 9404SOL    HW129111   1.013   2.979   1.089
 9404SOL    HW229112   0.958   3.103   0.999
 9405SOL     OW29113   0.390   4.697   4.630
 9405SOL    HW129114   0.375   4.649   4.717
 9405SOL    HW229115   0.362   4.793   4.641
 9406SOL     OW29116   0.696   3.058   6.282
 9406SOL    HW129117   0.646   3.009   6.353
 9406SOL    HW229118   0.724   2.995   6.210
 9407SOL     OW29119   2.685   5.291   4.916
 9407SOL    HW129120   2.682   5.335   5.005
 9407SOL    HW229121   2.598   5.306   4.868
 9408SOL     OW29122   6.742   3.964   5.682
 9408SOL    HW129123   6.669   3.896   5.676
 9408SOL    HW229124   6.766   3.979   5.778
 9409SOL     OW29125   6.838   5.857   2.213
 9409SOL    HW129126   6.843   5.953   2.240
 9409SOL    HW229127   6.837   5.799   2.294
 9410SOL     OW29128   4.282   0.565   1.826
 9410SOL    HW129129   4.216   0.628   1.868
 9410SOL    HW229130   4.232   0.496   1.773
 9411SOL     OW29131   3.639   2.941   3.691
 9411SOL    HW129132   3.654   2.901   3.600
 9411SOL    HW229133   3.595   3.030   3.682
 9412SOL     OW29134   0.212   0.822   0.872
 9412SOL    HW129135   0.265   0.866   0.944
 9412SOL    HW229136   0.217   0.723   0.883
 9413SOL     OW29137   4.540   4.903   4.274
 9413SOL    HW129138   4.539   4.968   4.350
 9413SOL    HW229139   4.601   4.827   4.296
 9414SOL     OW29140   2.232   2.470   4.939
 9414SOL    HW129141   2.163   2.503   5.003
 9414SOL    HW229142   2.286   2.398   4.982
 9415SOL     OW29143   3.725   0.512   2.385
 9415SOL    HW129144   3.759   0.480   2.297
 9415SOL    HW229145   3.629   0.484   2.396
 9416SOL     OW29146   0.293   6.585   6.019
 9416SOL    HW129147   0.370   6.545   6.069
 9416SOL    HW229148   0.251   6.515   5.961
 9417SOL     OW29149   3.317   6.513   1.305
 9417SOL    HW129150   3.354   6.458   1.379
 9417SOL    HW229151   3.280   6.598   1.342
 9418SOL     OW29152   3.222   2.032   4.164
 9418SOL    HW129153   3.309   2.028   4.116
 9418SOL    HW229154   3.218   2.116   4.219
 9419SOL     OW29155   2.715   2.200   6.534
 9419SOL    HW129156   2.802   2.242   6.510
 9419SOL    HW229157   2.718   2.167   6.628
 9420SOL     OW29158   5.659   3.419   0.680
 9420SOL    HW129159   5.740   3.362   0.689
 9420SOL    HW229160   5.619   3.435   0.770
 9421SOL     OW29161   3.986   6.281   5.477
 9421SOL    HW129162   3.954   6.189   5.457
 9421SOL    HW229163   3.909   6.337   5.509
 9422SOL     OW29164   2.596   6.070   4.190
 9422SOL    HW129165   2.689   6.092   4.160
 9422SOL    HW229166   2.587   6.094   4.287
 9423SOL     OW29167   4.255   6.028   3.270
 9423SOL    HW129168   4.321   5.955   3.253
 9423SOL    HW229169   4.211   6.054   3.184
 9424SOL     OW29170   5.448   1.370   4.298
 9424SOL    HW129171   5.499   1.433   4.357
 9424SOL    HW229172   5.396   1.306   4.354
 9425SOL     OW29173   6.186   4.560   1.267
 9425SOL    HW129174   6.210   4.576   1.363
 9425SOL    HW229175   6.196   4.645   1.215
 9426SOL     OW29176   0.521   1.889   6.294
 9426SOL    HW129177   0.595   1.843   6.245
 9426SOL    HW229178   0.469   1.946   6.230
 9427SOL     OW29179   3.513   5.543   2.891
 9427SOL    HW129180   3.467   5.586   2.969
 9427SOL    HW229181   3.610   5.564   2.893
 9428SOL     OW29182   6.237   6.742   6.826
 9428SOL    HW129183   6.194   6.730   6.736
 9428SOL    HW229184   6.335   6.721   6.819
 9429SOL     OW29185   1.735   2.370   3.981
 9429SOL    HW129186   1.821   2.404   4.019
 9429SOL    HW229187   1.686   2.318   4.051
 9430SOL     OW29188   0.600   2.219   4.358
 9430SOL    HW129189   0.578   2.160   4.281
 9430SOL    HW229190   0.529   2.290   4.367
 9431SOL     OW29191   0.013   4.682   0.210
 9431SOL    HW129192   0.083   4.689   0.281
 9431SOL    HW229193   0.027   4.753   0.141
 9432SOL     OW29194   6.810   1.540   3.506
 9432SOL    HW129195   6.884   1.507   3.447
 9432SOL    HW229196   6.731   1.565   3.450
 9433SOL     OW29197   4.290   6.483   2.586
 9433SOL    HW129198   4.263   6.387   2.581
 9433SOL    HW229199   4.207   6.540   2.590
 9434SOL     OW29200   5.127   5.804   3.996
 9434SOL    HW129201   5.130   5.900   4.023
 9434SOL    HW229202   5.097   5.797   3.901
 9435SOL     OW29203   0.809   2.693   2.305
 9435SOL    HW129204   0.758   2.776   2.282
 9435SOL    HW229205   0.855   2.705   2.392
 9436SOL     OW29206   0.521   1.174   2.488
 9436SOL    HW129207   0.576   1.155   2.569
 9436SOL    HW229208   0.510   1.091   2.434
 9437SOL     OW29209   0.280   5.213   4.207
 9437SOL    HW129210   0.280   5.312   4.192
 9437SOL    HW229211   0.363   5.173   4.167
 9438SOL     OW29212   2.419   6.323   1.619
 9438SOL    HW129213   2.424   6.232   1.579
 9438SOL    HW229214   2.453   6.391   1.554
 9439SOL     OW29215   0.783   3.021   6.995
 9439SOL    HW129216   0.822   3.077   6.922
 9439SOL    HW229217   0.735   2.943   6.956
 9440SOL     OW29218   3.174   4.986   3.598
 9440SOL    HW129219   3.236   5.042   3.652
 9440SOL    HW229220   3.104   5.044   3.557
 9441SOL     OW29221   6.386   5.700   4.520
 9441SOL    HW129222   6.340   5.619   4.557
 9441SOL    HW229223   6.469   5.718   4.572
 9442SOL     OW29224   4.607   3.821   0.662
 9442SOL    HW129225   4.518   3.855   0.693
 9442SOL    HW229226   4.614   3.723   0.683
 9443SOL     OW29227   2.925   4.854   1.957
 9443SOL    HW129228   2.890   4.902   1.876
 9443SOL    HW229229   2.884   4.763   1.962
 9444SOL     OW29230   2.233   3.898   0.342
 9444SOL    HW129231   2.189   3.953   0.270
 9444SOL    HW229232   2.332   3.897   0.327
 9445SOL     OW29233   0.421   1.478   3.776
 9445SOL    HW129234   0.392   1.560   3.727
 9445SOL    HW229235   0.392   1.485   3.872
 9446SOL     OW29236   6.427   4.965   3.272
 9446SOL    HW129237   6.383   4.967   3.182
 9446SOL    HW229238   6.484   5.046   3.283
 9447SOL     OW29239   5.863   5.550   2.642
 9447SOL    HW129240   5.817   5.621   2.588
 9447SOL    HW229241   5.811   5.465   2.636
 9448SOL     OW29242   5.262   0.498   5.857
 9448SOL    HW129243   5.339   0.438   5.879
 9448SOL    HW229244   5.281   0.546   5.771
 9449SOL     OW29245   5.611   0.069   0.920
 9449SOL    HW129246   5.598   7.004   0.970
 9449SOL    HW229247   5.530   0.126   0.930
 9450SOL     OW29248   1.485   5.694   4.623
 9450SOL    HW129249   1.386   5.700   4.621
 9450SOL    HW229250   1.522   5.764   4.684
 9451SOL     OW29251   3.955   5.524   5.941
 9451SOL    HW129252   4.034   5.562   5.988
 9451SOL    HW229253   3.952   5.560   5.847
 9452SOL     OW29254   0.545   4.581   0.867
 9452SOL    HW129255   0.501   4.530   0.793
 9452SOL    HW229256   0.644   4.584   0.851
 9453SOL     OW29257   3.627   5.141   3.078
 9453SOL    HW129258   3.682   5.149   3.161
 9453SOL    HW229259   3.593   5.047   3.070
 9454SOL     OW29260   4.195   4.501   0.628
 9454SOL    HW129261   4.198   4.563   0.707
 9454SOL    HW229262   4.266   4.431   0.638
 9455SOL     OW29263   2.708   2.300   2.188
 9455SOL    HW129264   2.657   2.219   2.159
 9455SOL    HW229265   2.797   2.301   2.142
 9456SOL     OW29266   6.053   3.203   2.367
 9456SOL    HW129267   6.019   3.191   2.460
 9456SOL    HW229268   6.098   3.119   2.337
 9457SOL     OW29269   1.173   4.608   4.210
 9457SOL    HW129270   1.159   4.702   4.178
 9457SOL    HW229271   1.150   4.602   4.307
 9458SOL     OW29272   6.738   4.327   0.233
 9458SOL    HW129273   6.793   4.354   0.311
 9458SOL    HW229274   6.738   4.401   0.165
 9459SOL     OW29275   5.243   4.669   4.595
 9459SOL    HW129276   5.321   4.616   4.627
 9459SOL    HW229277   5.272   4.729   4.520
 9460SOL     OW29278   1.277   3.017   3.378
 9460SOL    HW129279   1.240   3.108   3.398
 9460SOL    HW229280   1.337   3.022   3.298
 9461SOL     OW29281   1.467   2.273   1.232
 9461SOL    HW129282   1.381   2.224   1.214
 9461SOL    HW229283   1.541   2.230   1.180
 9462SOL     OW29284   2.128   1.965   4.481
 9462SOL    HW129285   2.222   1.967   4.517
 9462SOL    HW229286   2.085   2.054   4.494
 9463SOL     OW29287   5.136   6.981   1.282
 9463SOL    HW129288   5.151   6.903   1.343
 9463SOL    HW229289   5.138   6.949   1.187
 9464SOL     OW29290   0.162   0.815   1.502
 9464SOL    HW129291   0.167   0.859   1.412
 9464SOL    HW229292   0.084   0.752   1.504
 9465SOL     OW29293   0.280   4.068   1.193
 9465SOL    HW129294   0.278   4.163   1.226
 9465SOL    HW229295   0.249   4.065   1.098
 9466SOL     OW29296   3.998   5.197   6.367
 9466SOL    HW129297   4.086   5.242   6.352
 9466SOL    HW229298   3.929   5.235   6.306
 9467SOL     OW29299   2.183   3.295   1.197
 9467SOL    HW129300   2.231   3.360   1.138
 9467SOL    HW229301   2.219   3.301   1.290
 9468SOL     OW29302   6.448   3.497   0.545
 9468SOL    HW129303   6.520   3.428   0.539
 9468SOL    HW229304   6.363   3.454   0.574
 9469SOL     OW29305   0.030   6.210   0.746
 9469SOL    HW129306   0.099   6.165   0.689
 9469SOL    HW229307   0.072   6.244   0.830
 9470SOL     OW29308   5.134   3.816   0.327
 9470SOL    HW129309   5.208   3.862   0.376
 9470SOL    HW229310   5.141   3.717   0.342
 9471SOL     OW29311   6.339   2.117   5.091
 9471SOL    HW129312   6.341   2.074   5.001
 9471SOL    HW229313   6.260   2.177   5.098
 9472SOL     OW29314   1.521   4.284   6.028
 9472SOL    HW129315   1.461   4.340   6.085
 9472SOL    HW229316   1.472   4.253   5.947
 9473SOL     OW29317   2.775   4.579   0.424
 9473SOL    HW129318   2.769   4.484   0.456
 9473SOL    HW229319   2.863   4.593   0.378
 9474SOL     OW29320   5.936   3.506   2.004
 9474SOL    HW129321   6.034   3.503   2.023
 9474SOL    HW229322   5.911   3.596   1.968
 9475SOL     OW29323   4.758   3.385   5.549
 9475SOL    HW129324   4.767   3.453   5.623
 9475SOL    HW229325   4.745   3.295   5.589
 9476SOL     OW29326   3.621   4.223   5.720
 9476SOL    HW129327   3.555   4.269   5.659
 9476SOL    HW229328   3.576   4.145   5.764
 9477SOL     OW29329   1.787   3.723   1.620
 9477SOL    HW129330   1.705   3.780   1.630
 9477SOL    HW229331   1.864   3.768   1.665
 9478SOL     OW29332   5.132   2.701   0.542
 9478SOL    HW129333   5.092   2.761   0.611
 9478SOL    HW229334   5.065   2.631   0.516
 9479SOL     OW29335   4.755   1.018   1.641
 9479SOL    HW129336   4.729   1.035   1.546
 9479SOL    HW229337   4.700   1.076   1.702
 9480SOL     OW29338   6.059   5.852   6.604
 9480SOL    HW129339   5.971   5.862   6.649
 9480SOL    HW229340   6.073   5.928   6.541
 9481SOL     OW29341   4.513   1.439   3.414
 9481SOL    HW129342   4.415   1.459   3.419
 9481SOL    HW229343   4.557   1.465   3.500
 9482SOL     OW29344   5.754   1.045   0.668
 9482SOL    HW129345   5.851   1.034   0.690
 9482SOL    HW229346   5.739   1.023   0.571
 9483SOL     OW29347   0.729   0.578   0.334
 9483SOL    HW129348   0.767   0.659   0.378
 9483SOL    HW229349   0.778   0.497   0.365
 9484SOL     OW29350   2.829   6.469   4.645
 9484SOL    HW129351   2.746   6.523   4.661
 9484SOL    HW229352   2.908   6.531   4.639
 9485SOL     OW29353   6.577   1.507   0.159
 9485SOL    HW129354   6.485   1.513   0.198
 9485SOL    HW229355   6.624   1.427   0.197
 9486SOL     OW29356   4.734   5.564   0.178
 9486SOL    HW129357   4.711   5.638   0.115
 9486SOL    HW229358   4.657   5.500   0.185
 9487SOL     OW29359   3.055   3.491   4.171
 9487SOL    HW129360   3.044   3.392   4.160
 9487SOL    HW229361   3.124   3.509   4.241
 9488SOL     OW29362   1.581   1.323   1.244
 9488SOL    HW129363   1.550   1.229   1.256
 9488SOL    HW229364   1.535   1.363   1.165
 9489SOL     OW29365   5.159   4.185   1.026
 9489SOL    HW129366   5.182   4.277   0.996
 9489SOL    HW229367   5.062   4.182   1.053
 9490SOL     OW29368   6.169   4.681   3.730
 9490SOL    HW129369   6.114   4.689   3.813
 9490SOL    HW229370   6.226   4.599   3.734
 9491SOL     OW29371   5.049   6.531   3.584
 9491SOL    HW129372   5.147   6.539   3.565
 9491SOL    HW229373   5.036   6.480   3.669
 9492SOL     OW29374   4.837   3.011   4.529
 9492SOL    HW129375   4.835   3.059   4.617
 9492SOL    HW229376   4.929   2.975   4.512
 9493SOL     OW29377   4.408   6.106   4.164
 9493SOL    HW129378   4.330   6.157   4.128
 9493SOL    HW229379   4.376   6.026   4.215
 9494SOL     OW29380   5.017   2.870   2.433
 9494SOL    HW129381   4.943   2.870   2.366
 9494SOL    HW229382   5.021   2.960   2.478
 9495SOL     OW29383   0.489   0.530   1.697
 9495SOL    HW129384   0.404   0.532   1.750
 9495SOL    HW229385   0.478   0.587   1.615
 9496SOL     OW29386   4.261   2.012   2.525
 9496SOL    HW129387   4.333   1.955   2.485
 9496SOL    HW229388   4.173   1.988   2.485
 9497SOL     OW29389   5.893   5.735   4.748
 9497SOL    HW129390   5.803   5.755   4.787
 9497SOL    HW229391   5.953   5.814   4.760
 9498SOL     OW29392   6.615   5.234   4.412
 9498SOL    HW129393   6.661   5.322   4.414
 9498SOL    HW229394   6.523   5.245   4.375
 9499SOL     OW29395   6.468   5.285   5.219
 9499SOL    HW129396   6.396   5.312   5.154
 9499SOL    HW229397   6.549   5.342   5.204
 9500SOL     OW29398   4.268   0.198   0.891
 9500SOL    HW129399   4.305   0.115   0.932
 9500SOL    HW229400   4.225   0.253   0.963
 9501SOL     OW29401   1.663   1.331   4.478
 9501SOL    HW129402   1.750   1.285   4.462
 9501SOL    HW229403   1.667   1.383   4.563
 9502SOL     OW29404   5.365   4.781   5.315
 9502SOL    HW129405   5.338   4.685   5.308
 9502SOL    HW229406   5.380   4.818   5.224
 9503SOL     OW29407   0.595   1.973   0.113
 9503SOL    HW129408   0.580   1.875   0.099
 9503SOL    HW229409   0.690   1.995   0.094
 9504SOL     OW29410   6.980   4.528   1.032
 9504SOL    HW129411   7.006   4.621   1.008
 9504SOL    HW229412   6.893   4.529   1.081
 9505SOL     OW29413   4.310   4.658   5.562
 9505SOL    HW129414   4.404   4.691   5.548
 9505SOL    HW229415   4.273   4.700   5.645
 9506SOL     OW29416   2.436   2.196   1.165
 9506SOL    HW129417   2.392   2.267   1.109
 9506SOL    HW229418   2.468   2.122   1.106
 9507SOL     OW29419   6.184   0.225   1.425
 9507SOL    HW129420   6.169   0.164   1.347
 9507SOL    HW229421   6.204   0.317   1.392
 9508SOL     OW29422   4.643   1.560   2.453
 9508SOL    HW129423   4.732   1.578   2.495
 9508SOL    HW229424   4.572   1.611   2.502
 9509SOL     OW29425   6.616   0.379   2.783
 9509SOL    HW129426   6.648   0.355   2.875
 9509SOL    HW229427   6.546   0.450   2.790
 9510SOL     OW29428   0.428   3.087   3.584
 9510SOL    HW129429   0.492   3.164   3.597
 9510SOL    HW229430   0.335   3.118   3.605
 9511SOL     OW29431   1.248   1.013   1.234
 9511SOL    HW129432   1.197   1.092   1.200
 9511SOL    HW229433   1.194   0.966   1.304
 9512SOL     OW29434   6.741   3.284   0.979
 9512SOL    HW129435   6.648   3.249   0.972
 9512SOL    HW229436   6.806   3.208   0.980
 9513SOL     OW29437   4.176   4.690   6.142
 9513SOL    HW129438   4.257   4.637   6.120
 9513SOL    HW229439   4.099   4.629   6.160
 9514SOL     OW29440   3.195   3.126   6.867
 9514SOL    HW129441   3.247   3.110   6.783
 9514SOL    HW229442   3.106   3.081   6.860
 9515SOL     OW29443   2.656   5.167   3.780
 9515SOL    HW129444   2.729   5.119   3.828
 9515SOL    HW229445   2.631   5.117   3.697
 9516SOL     OW29446   6.311   4.126   0.169
 9516SOL    HW129447   6.252   4.053   0.204
 9516SOL    HW229448   6.286   4.213   0.212
 9517SOL     OW29449   1.027   4.017   0.991
 9517SOL    HW129450   1.091   3.962   0.937
 9517SOL    HW229451   0.949   3.961   1.019
 9518SOL     OW29452   2.373   1.599   0.796
 9518SOL    HW129453   2.421   1.553   0.871
 9518SOL    HW229454   2.322   1.532   0.743
 9519SOL     OW29455   1.262   2.505   5.659
 9519SOL    HW129456   1.274   2.514   5.758
 9519SOL    HW229457   1.352   2.504   5.615
 9520SOL     OW29458   2.430   0.083   3.043
 9520SOL    HW129459   2.491   0.161   3.060
 9520SOL    HW229460   2.354   0.086   3.108
 9521SOL     OW29461   5.880   5.923   3.803
 9521SOL    HW129462   5.793   5.965   3.775
 9521SOL    HW229463   5.872   5.891   3.897
 9522SOL     OW29464   3.346   5.982   1.127
 9522SOL    HW129465   3.401   6.049   1.176
 9522SOL    HW229466   3.327   6.016   1.035
 9523SOL     OW29467   3.772   5.234   4.148
 9523SOL    HW129468   3.734   5.142   4.155
 9523SOL    HW229469   3.697   5.300   4.142
 9524SOL     OW29470   3.648   3.050   1.172
 9524SOL    HW129471   3.692   2.962   1.156
 9524SOL    HW229472   3.553   3.036   1.201
 9525SOL     OW29473   1.801   1.301   5.923
 9525SOL    HW129474   1.899   1.318   5.912
 9525SOL    HW229475   1.786   1.222   5.982
 9526SOL     OW29476   4.825   6.290   3.115
 9526SOL    HW129477   4.742   6.331   3.154
 9526SOL    HW229478   4.905   6.339   3.150
 9527SOL     OW29479   0.769   1.130   2.158
 9527SOL    HW129480   0.716   1.046   2.162
 9527SOL    HW229481   0.864   1.110   2.182
 9528SOL     OW29482   6.158   0.089   1.198
 9528SOL    HW129483   6.216   0.008   1.200
 9528SOL    HW229484   6.069   0.065   1.157
 9529SOL     OW29485   1.048   3.189   6.418
 9529SOL    HW129486   1.074   3.092   6.421
 9529SOL    HW229487   1.126   3.245   6.447
 9530SOL     OW29488   1.666   2.716   2.865
 9530SOL    HW129489   1.639   2.664   2.784
 9530SOL    HW229490   1.594   2.781   2.888
 9531SOL     OW29491   3.593   6.829   3.167
 9531SOL    HW129492   3.546   6.903   3.119
 9531SOL    HW229493   3.684   6.816   3.127
 9532SOL     OW29494   1.776   6.707   1.161
 9532SOL    HW129495   1.863   6.671   1.195
 9532SOL    HW229496   1.792   6.761   1.078
 9533SOL     OW29497   1.298   1.393   5.463
 9533SOL    HW129498   1.361   1.418   5.536
 9533SOL    HW229499   1.261   1.302   5.481
 9534SOL     OW29500   5.176   1.840   4.682
 9534SOL    HW129501   5.188   1.940   4.679
 9534SOL    HW229502   5.202   1.806   4.772
 9535SOL     OW29503   2.515   1.256   5.511
 9535SOL    HW129504   2.600   1.308   5.500
 9535SOL    HW229505   2.439   1.318   5.525
 9536SOL     OW29506   1.674   5.631   5.503
 9536SOL    HW129507   1.737   5.554   5.494
 9536SOL    HW229508   1.637   5.633   5.596
 9537SOL     OW29509   3.206   0.460   2.164
 9537SOL    HW129510   3.122   0.406   2.157
 9537SOL    HW229511   3.263   0.442   2.083
 9538SOL     OW29512   6.568   2.077   4.389
 9538SOL    HW129513   6.614   2.092   4.302
 9538SOL    HW229514   6.530   2.164   4.422
 9539SOL     OW29515   0.949   5.764   7.020
 9539SOL    HW129516   0.982   5.688   6.964
 9539SOL    HW229517   0.882   5.817   6.967
 9540SOL     OW29518   4.440   4.946   4.932
 9540SOL    HW129519   4.392   4.870   4.976
 9540SOL    HW229520   4.390   5.031   4.948
 9541SOL     OW29521   1.955   2.844   4.194
 9541SOL    HW129522   1.921   2.855   4.288
 9541SOL    HW229523   2.047   2.806   4.197
 9542SOL     OW29524   4.837   3.144   4.792
 9542SOL    HW129525   4.864   3.100   4.878
 9542SOL    HW229526   4.835   3.243   4.804
 9543SOL     OW29527   4.637   0.848   3.678
 9543SOL    HW129528   4.564   0.904   3.718
 9543SOL    HW229529   4.709   0.835   3.746
 9544SOL     OW29530   5.558   0.743   1.885
 9544SOL    HW129531   5.633   0.677   1.886
 9544SOL    HW229532   5.487   0.712   1.822
 9545SOL     OW29533   6.956   0.232   2.905
 9545SOL    HW129534   6.926   0.284   2.824
 9545SOL    HW229535   6.876   0.207   2.960
 9546SOL     OW29536   2.884   5.490   6.231
 9546SOL    HW129537   2.891   5.434   6.148
 9546SOL    HW229538   2.905   5.434   6.311
 9547SOL     OW29539   1.298   6.240   4.958
 9547SOL    HW129540   1.364   6.212   5.027
 9547SOL    HW229541   1.339   6.232   4.867
 9548SOL     OW29542   5.717   5.950   4.397
 9548SOL    HW129543   5.729   5.851   4.410
 9548SOL    HW229544   5.650   5.966   4.324
 9549SOL     OW29545   2.882   5.721   0.380
 9549SOL    HW129546   2.799   5.692   0.333
 9549SOL    HW229547   2.961   5.672   0.341
 9550SOL     OW29548   1.168   1.184   0.225
 9550SOL    HW129549   1.124   1.262   0.179
 9550SOL    HW229550   1.266   1.184   0.205
 9551SOL     OW29551   0.341   6.894   4.724
 9551SOL    HW129552   0.416   6.932   4.778
 9551SOL    HW229553   0.289   6.969   4.682
 9552SOL     OW29554   1.635   6.245   3.509
 9552SOL    HW129555   1.579   6.164   3.497
 9552SOL    HW229556   1.580   6.327   3.490
 9553SOL     OW29557   5.861   4.645   6.124
 9553SOL    HW129558   5.807   4.659   6.207
 9553SOL    HW229559   5.818   4.694   6.048
 9554SOL     OW29560   2.436   1.384   2.100
 9554SOL    HW129561   2.435   1.285   2.088
 9554SOL    HW229562   2.497   1.426   2.032
 9555SOL     OW29563   6.509   2.200   1.072
 9555SOL    HW129564   6.522   2.101   1.059
 9555SOL    HW229565   6.598   2.246   1.064
 9556SOL     OW29566   2.476   1.257   1.357
 9556SOL    HW129567   2.413   1.325   1.319
 9556SOL    HW229568   2.498   1.189   1.287
 9557SOL     OW29569   5.560   0.421   2.495
 9557SOL    HW129570   5.514   0.508   2.514
 9557SOL    HW229571   5.496   0.360   2.448
 9558SOL     OW29572   6.930   5.131   2.794
 9558SOL    HW129573   6.923   5.068   2.871
 9558SOL    HW229574   6.903   5.223   2.822
 9559SOL     OW29575   0.026   3.236   1.800
 9559SOL    HW129576   6.981   3.258   1.872
 9559SOL    HW229577   0.034   3.315   1.738
 9560SOL     OW29578   2.547   1.173   3.117
 9560SOL    HW129579   2.499   1.261   3.109
 9560SOL    HW229580   2.526   1.131   3.205
 9561SOL     OW29581   4.230   6.790   0.835
 9561SOL    HW129582   4.154   6.729   0.817
 9561SOL    HW229583   4.277   6.811   0.749
 9562SOL     OW29584   4.781   5.301   2.422
 9562SOL    HW129585   4.828   5.389   2.413
 9562SOL    HW229586   4.794   5.247   2.340
 9563SOL     OW29587   6.720   5.873   6.151
 9563SOL    HW129588   6.675   5.958   6.124
 9563SOL    HW229589   6.653   5.810   6.189
 9564SOL     OW29590   2.814   6.717   6.771
 9564SOL    HW129591   2.894   6.765   6.736
 9564SOL    HW229592   2.775   6.659   6.700
 9565SOL     OW29593   3.545   6.294   4.433
 9565SOL    HW129594   3.588   6.378   4.468
 9565SOL    HW229595   3.537   6.300   4.334
 9566SOL     OW29596   2.841   4.751   5.794
 9566SOL    HW129597   2.904   4.708   5.728
 9566SOL    HW229598   2.764   4.689   5.810
 9567SOL     OW29599   6.007   5.694   6.243
 9567SOL    HW129600   5.975   5.660   6.332
 9567SOL    HW229601   6.079   5.634   6.209
 9568SOL     OW29602   4.927   3.715   6.515
 9568SOL    HW129603   4.964   3.807   6.502
 9568SOL    HW229604   4.832   3.721   6.544
 9569SOL     OW29605   6.487   0.494   0.297
 9569SOL    HW129606   6.570   0.460   0.342
 9569SOL    HW229607   6.466   0.586   0.332
 9570SOL     OW29608   1.108   1.287   6.870
 9570SOL    HW129609   1.134   1.376   6.908
 9570SOL    HW229610   1.109   1.292   6.770
 9571SOL     OW29611   2.162   3.366   0.222
 9571SOL    HW129612   2.179   3.372   0.321
 9571SOL    HW229613   2.078   3.315   0.205
 9572SOL     OW29614   1.299   4.317   1.949
 9572SOL    HW129615   1.293   4.395   2.012
 9572SOL    HW229616   1.389   4.317   1.905
 9573SOL     OW29617   1.906   1.405   0.207
 9573SOL    HW129618   1.947   1.375   0.293
 9573SOL    HW229619   1.905   1.329   0.142
 9574SOL     OW29620   2.919   3.107   5.837
 9574SOL    HW129621   2.848   3.160   5.790
 9574SOL    HW229622   2.876   3.044   5.901
 9575SOL     OW29623   5.257   0.771   2.180
 9575SOL    HW129624   5.179   0.832   2.188
 9575SOL    HW229625   5.226   0.678   2.160
 9576SOL     OW29626   3.286   1.506   4.613
 9576SOL    HW129627   3.258   1.449   4.536
 9576SOL    HW229628   3.242   1.595   4.606
 9577SOL     OW29629   0.940   6.283   2.624
 9577SOL    HW129630   1.001   6.204   2.634
 9577SOL    HW229631   0.857   6.269   2.678
 9578SOL     OW29632   6.507   2.760   2.001
 9578SOL    HW129633   6.460   2.681   1.963
 9578SOL    HW229634   6.470   2.780   2.092
 9579SOL     OW29635   1.016   6.755   2.273
 9579SOL    HW129636   0.953   6.766   2.197
 9579SOL    HW229637   1.068   6.839   2.286
 9580SOL     OW29638   4.010   3.769   6.785
 9580SOL    HW129639   4.035   3.681   6.747
 9580SOL    HW229640   4.077   3.838   6.758
 9581SOL     OW29641   1.120   4.309   6.113
 9581SOL    HW129642   1.161   4.319   6.023
 9581SOL    HW229643   1.144   4.219   6.151
 9582SOL     OW29644   4.170   4.856   4.423
 9582SOL    HW129645   4.221   4.776   4.451
 9582SOL    HW229646   4.192   4.879   4.328
 9583SOL     OW29647   2.113   3.891   2.229
 9583SOL    HW129648   2.077   3.932   2.313
 9583SOL    HW229649   2.050   3.821   2.196
 9584SOL     OW29650   6.249   5.701   6.913
 9584SOL    HW129651   6.277   5.701   7.009
 9584SOL    HW229652   6.304   5.633   6.863
 9585SOL     OW29653   6.534   0.290   4.299
 9585SOL    HW129654   6.492   0.296   4.390
 9585SOL    HW229655   6.582   0.375   4.280
 9586SOL     OW29656   5.573   3.680   3.619
 9586SOL    HW129657   5.482   3.710   3.590
 9586SOL    HW229658   5.586   3.584   3.594
 9587SOL     OW29659   5.152   0.494   2.571
 9587SOL    HW129660   5.180   0.465   2.663
 9587SOL    HW229661   5.154   0.416   2.509
 9588SOL     OW29662   0.470   0.690   1.250
 9588SOL    HW129663   0.473   0.721   1.344
 9588SOL    HW229664   0.501   0.595   1.245
 9589SOL     OW29665   2.583   0.701   6.673
 9589SOL    HW129666   2.637   0.785   6.678
 9589SOL    HW229667   2.488   0.721   6.696
 9590SOL     OW29668   0.252   4.480   3.345
 9590SOL    HW129669   0.343   4.488   3.303
 9590SOL    HW229670   0.261   4.450   3.439
 9591SOL     OW29671   1.399   5.290   0.772
 9591SOL    HW129672   1.487   5.263   0.732
 9591SOL    HW229673   1.380   5.233   0.852
 9592SOL     OW29674   4.826   5.363   2.062
 9592SOL    HW129675   4.849   5.460   2.068
 9592SOL    HW229676   4.910   5.309   2.066
 9593SOL     OW29677   6.946   2.546   4.707
 9593SOL    HW129678   6.973   2.614   4.639
 9593SOL    HW229679   6.968   2.454   4.674
 9594SOL     OW29680   6.440   6.952   2.306
 9594SOL    HW129681   6.446   6.856   2.332
 9594SOL    HW229682   6.386   7.002   2.374
 9595SOL     OW29683   1.560   5.623   4.070
 9595SOL    HW129684   1.651   5.657   4.047
 9595SOL    HW229685   1.535   5.548   4.008
 9596SOL     OW29686   5.880   6.144   5.091
 9596SOL    HW129687   5.831   6.209   5.149
 9596SOL    HW229688   5.849   6.154   4.997
 9597SOL     OW29689   1.714   4.126   1.502
 9597SOL    HW129690   1.620   4.095   1.515
 9597SOL    HW229691   1.772   4.047   1.479
 9598SOL     OW29692   6.966   5.501   5.852
 9598SOL    HW129693   0.014   5.430   5.869
 9598SOL    HW229694   6.973   5.572   5.922
 9599SOL     OW29695   4.618   1.584   5.287
 9599SOL    HW129696   4.624   1.598   5.386
 9599SOL    HW229697   4.628   1.487   5.266
 9600SOL     OW29698   1.460   0.515   6.600
 9600SOL    HW129699   1.424   0.428   6.636
 9600SOL    HW229700   1.387   0.583   6.599
 9601SOL     OW29701   0.274   5.461   5.714
 9601SOL    HW129702   0.221   5.519   5.652
 9601SOL    HW229703   0.341   5.517   5.762
 9602SOL     OW29704   1.062   5.602   6.804
 9602SOL    HW129705   1.035   5.644   6.717
 9602SOL    HW229706   1.161   5.613   6.816
 9603SOL     OW29707   1.913   6.040   4.634
 9603SOL    HW129708   1.878   6.123   4.590
 9603SOL    HW229709   2.004   6.020   4.599
 9604SOL     OW29710   5.927   1.677   6.915
 9604SOL    HW129711   5.860   1.730   6.865
 9604SOL    HW229712   5.945   1.591   6.867
 9605SOL     OW29713   1.664   6.077   6.697
 9605SOL    HW129714   1.651   5.981   6.675
 9605SOL    HW229715   1.637   6.095   6.791
 9606SOL     OW29716   0.002   6.466   4.418
 9606SOL    HW129717   6.927   6.448   4.396
 9606SOL    HW229718   0.017   6.564   4.423
 9607SOL     OW29719   1.343   2.401   2.067
 9607SOL    HW129720   1.298   2.416   2.155
 9607SOL    HW229721   1.276   2.401   1.994
 9608SOL     OW29722   0.709   0.065   2.118
 9608SOL    HW129723   0.747   0.003   2.049
 9608SOL    HW229724   0.610   0.069   2.108
 9609SOL     OW29725   1.510   4.271   4.385
 9609SOL    HW129726   1.451   4.327   4.443
 9609SOL    HW229727   1.554   4.200   4.440
 9610SOL     OW29728   2.069   1.913   5.969
 9610SOL    HW129729   2.065   1.955   5.878
 9610SOL    HW229730   2.081   1.984   6.038
 9611SOL     OW29731   6.212   0.301   1.029
 9611SOL    HW129732   6.150   0.249   1.089
 9611SOL    HW229733   6.233   0.389   1.072
 9612SOL     OW29734   5.814   2.832   1.762
 9612SOL    HW129735   5.901   2.783   1.775
 9612SOL    HW229736   5.809   2.866   1.668
 9613SOL     OW29737   6.125   6.920   4.993
 9613SOL    HW129738   6.031   6.907   5.024
 9613SOL    HW229739   6.141   7.017   4.975
 9614SOL     OW29740   3.707   3.667   2.569
 9614SOL    HW129741   3.653   3.743   2.532
 9614SOL    HW229742   3.646   3.601   2.613
 9615SOL     OW29743   1.300   5.576   2.711
 9615SOL    HW129744   1.290   5.490   2.762
 9615SOL    HW229745   1.243   5.646   2.754
 9616SOL     OW29746   3.904   2.846   0.993
 9616SOL    HW129747   3.894   2.827   0.895
 9616SOL    HW229748   3.820   2.818   1.040
 9617SOL     OW29749   1.209   3.120   3.746
 9617SOL    HW129750   1.206   3.021   3.754
 9617SOL    HW229751   1.186   3.147   3.652
 9618SOL     OW29752   3.957   6.126   6.637
 9618SOL    HW129753   3.900   6.111   6.717
 9618SOL    HW229754   3.901   6.122   6.554
 9619SOL     OW29755   2.475   6.417   0.693
 9619SOL    HW129756   2.518   6.337   0.734
 9619SOL    HW229757   2.376   6.405   0.691
 9620SOL     OW29758   3.428   1.547   6.283
 9620SOL    HW129759   3.378   1.558   6.197
 9620SOL    HW229760   3.427   1.450   6.310
 9621SOL     OW29761   0.671   0.514   1.067
 9621SOL    HW129762   0.647   0.608   1.044
 9621SOL    HW229763   0.696   0.464   0.984
 9622SOL     OW29764   5.864   0.624   6.241
 9622SOL    HW129765   5.848   0.532   6.276
 9622SOL    HW229766   5.782   0.656   6.194
 9623SOL     OW29767   4.536   6.288   6.201
 9623SOL    HW129768   4.628   6.248   6.204
 9623SOL    HW229769   4.483   6.243   6.129
 9624SOL     OW29770   4.042   5.095   5.196
 9624SOL    HW129771   3.961   5.037   5.202
 9624SOL    HW229772   4.062   5.116   5.100
 9625SOL     OW29773   5.066   4.387   6.028
 9625SOL    HW129774   5.049   4.466   6.087
 9625SOL    HW229775   5.079   4.419   5.934
 9626SOL     OW29776   2.434   4.203   6.099
 9626SOL    HW129777   2.416   4.159   6.011
 9626SOL    HW229778   2.364   4.272   6.117
 9627SOL     OW29779   1.005   5.277   0.230
 9627SOL    HW129780   0.929   5.211   0.228
 9627SOL    HW229781   0.996   5.336   0.311
 9628SOL     OW29782   5.639   3.288   6.754
 9628SOL    HW129783   5.645   3.298   6.655
 9628SOL    HW229784   5.547   3.312   6.785
 9629SOL     OW29785   0.351   5.683   3.547
 9629SOL    HW129786   0.366   5.762   3.487
 9629SOL    HW229787   0.385   5.600   3.503
 9630SOL     OW29788   6.403   5.842   6.077
 9630SOL    HW129789   6.309   5.868   6.099
 9630SOL    HW229790   6.438   5.779   6.146
 9631SOL     OW29791   4.233   1.176   0.701
 9631SOL    HW129792   4.156   1.237   0.719
 9631SOL    HW229793   4.204   1.081   0.710
 9632SOL     OW29794   3.502   6.128   1.250
 9632SOL    HW129795   3.502   6.217   1.204
 9632SOL    HW229796   3.538   6.138   1.343
 9633SOL     OW29797   3.341   2.942   2.716
 9633SOL    HW129798   3.346   2.999   2.798
 9633SOL    HW229799   3.429   2.944   2.669
 9634SOL     OW29800   5.441   4.509   2.052
 9634SOL    HW129801   5.510   4.459   1.999
 9634SOL    HW229802   5.464   4.503   2.149
 9635SOL     OW29803   1.086   3.480   3.310
 9635SOL    HW129804   1.121   3.566   3.272
 9635SOL    HW229805   0.986   3.478   3.300
 9636SOL     OW29806   4.585   2.544   4.480
 9636SOL    HW129807   4.492   2.547   4.515
 9636SOL    HW229808   4.634   2.627   4.507
 9637SOL     OW29809   2.943   2.941   0.791
 9637SOL    HW129810   2.898   3.016   0.743
 9637SOL    HW229811   2.877   2.866   0.805
 9638SOL     OW29812   7.006   4.554   5.733
 9638SOL    HW129813   6.972   4.461   5.744
 9638SOL    HW229814   0.041   4.559   5.650
 9639SOL     OW29815   4.233   1.556   2.507
 9639SOL    HW129816   4.165   1.610   2.558
 9639SOL    HW229817   4.220   1.571   2.409
 9640SOL     OW29818   3.669   0.228   2.218
 9640SOL    HW129819   3.768   0.230   2.201
 9640SOL    HW229820   3.620   0.241   2.131
 9641SOL     OW29821   6.087   4.164   2.464
 9641SOL    HW129822   6.150   4.213   2.524
 9641SOL    HW229823   6.112   4.182   2.368
 9642SOL     OW29824   2.368   0.736   3.260
 9642SOL    HW129825   2.399   0.662   3.200
 9642SOL    HW229826   2.437   0.809   3.261
 9643SOL     OW29827   5.442   4.623   4.156
 9643SOL    HW129828   5.430   4.609   4.058
 9643SOL    HW229829   5.381   4.697   4.187
 9644SOL     OW29830   1.420   5.529   5.002
 9644SOL    HW129831   1.361   5.555   4.925
 9644SOL    HW229832   1.493   5.595   5.012
 9645SOL     OW29833   0.921   5.391   6.872
 9645SOL    HW129834   0.987   5.461   6.844
 9645SOL    HW229835   0.945   5.304   6.829
 9646SOL     OW29836   3.515   6.095   5.687
 9646SOL    HW129837   3.459   6.099   5.605
 9646SOL    HW229838   3.541   6.187   5.714
 9647SOL     OW29839   6.068   6.727   3.423
 9647SOL    HW129840   6.166   6.732   3.403
 9647SOL    HW229841   6.042   6.631   3.437
 9648SOL     OW29842   4.782   2.409   1.076
 9648SOL    HW129843   4.828   2.492   1.108
 9648SOL    HW229844   4.694   2.399   1.122
 9649SOL     OW29845   2.728   3.822   0.696
 9649SOL    HW129846   2.678   3.821   0.609
 9649SOL    HW229847   2.670   3.782   0.767
 9650SOL     OW29848   6.819   4.633   4.766
 9650SOL    HW129849   6.792   4.693   4.690
 9650SOL    HW229850   6.782   4.541   4.750
 9651SOL     OW29851   3.018   1.431   0.555
 9651SOL    HW129852   2.987   1.420   0.650
 9651SOL    HW229853   2.990   1.350   0.502
 9652SOL     OW29854   6.635   4.439   0.540
 9652SOL    HW129855   6.653   4.456   0.637
 9652SOL    HW229856   6.673   4.349   0.514
 9653SOL     OW29857   4.420   4.036   5.862
 9653SOL    HW129858   4.477   4.091   5.923
 9653SOL    HW229859   4.385   3.957   5.911
 9654SOL     OW29860   3.328   3.484   3.977
 9654SOL    HW129861   3.335   3.572   4.025
 9654SOL    HW229862   3.295   3.500   3.884
 9655SOL     OW29863   5.376   1.012   2.025
 9655SOL    HW129864   5.394   0.918   2.051
 9655SOL    HW229865   5.350   1.017   1.929
 9656SOL     OW29866   5.299   4.153   1.356
 9656SOL    HW129867   5.383   4.137   1.305
 9656SOL    HW229868   5.284   4.252   1.365
 9657SOL     OW29869   6.057   3.517   3.478
 9657SOL    HW129870   6.039   3.586   3.408
 9657SOL    HW229871   6.155   3.502   3.486
 9658SOL     OW29872   4.948   1.754   2.183
 9658SOL    HW129873   5.037   1.716   2.157
 9658SOL    HW229874   4.891   1.764   2.102
 9659SOL     OW29875   3.367   2.770   0.585
 9659SOL    HW129876   3.325   2.814   0.664
 9659SOL    HW229877   3.466   2.767   0.599
 9660SOL     OW29878   0.363   5.867   1.200
 9660SOL    HW129879   0.371   5.850   1.298
 9660SOL    HW229880   0.268   5.891   1.178
 9661SOL     OW29881   4.793   4.839   0.653
 9661SOL    HW129882   4.723   4.820   0.721
 9661SOL    HW229883   4.883   4.845   0.698
 9662SOL     OW29884   5.038   4.358   6.389
 9662SOL    HW129885   4.940   4.359   6.368
 9662SOL    HW229886   5.087   4.417   6.324
 9663SOL     OW29887   0.801   4.430   3.672
 9663SOL    HW129888   0.868   4.466   3.737
 9663SOL    HW229889   0.839   4.348   3.628
 9664SOL     OW29890   5.682   4.277   3.298
 9664SOL    HW129891   5.603   4.215   3.293
 9664SOL    HW229892   5.650   4.372   3.296
 9665SOL     OW29893   5.592   6.349   6.707
 9665SOL    HW129894   5.580   6.439   6.749
 9665SOL    HW229895   5.669   6.353   6.642
 9666SOL     OW29896   5.819   3.939   1.077
 9666SOL    HW129897   5.905   3.909   1.034
 9666SOL    HW229898   5.742   3.893   1.033
 9667SOL     OW29899   5.060   5.163   0.242
 9667SOL    HW129900   5.100   5.109   0.315
 9667SOL    HW229901   5.014   5.243   0.282
 9668SOL     OW29902   1.018   6.580   5.817
 9668SOL    HW129903   1.035   6.536   5.729
 9668SOL    HW229904   1.051   6.674   5.814
 9669SOL     OW29905   3.517   6.881   0.165
 9669SOL    HW129906   3.524   6.830   0.250
 9669SOL    HW229907   3.593   6.946   0.159
 9670SOL     OW29908   0.184   0.261   6.111
 9670SOL    HW129909   0.245   0.182   6.107
 9670SOL    HW229910   0.237   0.343   6.129
 9671SOL     OW29911   1.365   5.076   6.392
 9671SOL    HW129912   1.316   5.069   6.305
 9671SOL    HW229913   1.319   5.019   6.460
 9672SOL     OW29914   0.461   4.008   4.200
 9672SOL    HW129915   0.420   4.059   4.125
 9672SOL    HW229916   0.390   3.960   4.251
 9673SOL     OW29917   2.377   3.852   1.417
 9673SOL    HW129918   2.402   3.765   1.375
 9673SOL    HW229919   2.430   3.926   1.375
 9674SOL     OW29920   3.679   6.316   3.300
 9674SOL    HW129921   3.762   6.328   3.355
 9674SOL    HW229922   3.617   6.393   3.316
 9675SOL     OW29923   4.678   3.811   1.772
 9675SOL    HW129924   4.767   3.778   1.803
 9675SOL    HW229925   4.685   3.908   1.748
 9676SOL     OW29926   1.270   3.105   5.598
 9676SOL    HW129927   1.339   3.121   5.527
 9676SOL    HW229928   1.247   3.192   5.642
 9677SOL     OW29929   6.367   5.104   0.202
 9677SOL    HW129930   6.289   5.100   0.139
 9677SOL    HW229931   6.393   5.011   0.228
 9678SOL     OW29932   3.561   3.886   5.153
 9678SOL    HW129933   3.502   3.956   5.194
 9678SOL    HW229934   3.633   3.862   5.218
 9679SOL     OW29935   1.700   1.406   5.197
 9679SOL    HW129936   1.621   1.456   5.234
 9679SOL    HW229937   1.713   1.431   5.101
 9680SOL     OW29938   4.523   6.168   2.794
 9680SOL    HW129939   4.466   6.163   2.876
 9680SOL    HW229940   4.596   6.236   2.808
 9681SOL     OW29941   1.892   1.365   2.077
 9681SOL    HW129942   1.971   1.424   2.060
 9681SOL    HW229943   1.826   1.413   2.135
 9682SOL     OW29944   5.688   6.055   4.825
 9682SOL    HW129945   5.606   6.089   4.870
 9682SOL    HW229946   5.686   5.955   4.824
 9683SOL     OW29947   2.576   0.216   1.096
 9683SOL    HW129948   2.569   0.306   1.054
 9683SOL    HW229949   2.609   0.150   1.028
 9684SOL     OW29950   1.383   4.214   5.808
 9684SOL    HW129951   1.394   4.205   5.709
 9684SOL    HW229952   1.325   4.140   5.842
 9685SOL     OW29953   3.606   4.525   0.990
 9685SOL    HW129954   3.568   4.474   0.913
 9685SOL    HW229955   3.607   4.467   1.071
 9686SOL     OW29956   6.431   1.955   5.676
 9686SOL    HW129957   6.364   1.908   5.619
 9686SOL    HW229958   6.515   1.901   5.681
 9687SOL     OW29959   6.339   0.342   2.276
 9687SOL    HW129960   6.400   0.419   2.296
 9687SOL    HW229961   6.261   0.375   2.223
 9688SOL     OW29962   1.221   4.800   1.589
 9688SOL    HW129963   1.189   4.823   1.681
 9688SOL    HW229964   1.169   4.852   1.522
 9689SOL     OW29965   1.012   6.199   0.451
 9689SOL    HW129966   1.086   6.135   0.470
 9689SOL    HW229967   1.046   6.293   0.461
 9690SOL     OW29968   5.753   5.887   5.372
 9690SOL    HW129969   5.798   5.885   5.283
 9690SOL    HW229970   5.666   5.839   5.367
 9691SOL     OW29971   3.321   3.502   2.201
 9691SOL    HW129972   3.284   3.583   2.155
 9691SOL    HW229973   3.421   3.503   2.193
 9692SOL     OW29974   4.547   4.932   0.318
 9692SOL    HW129975   4.588   4.988   0.390
 9692SOL    HW229976   4.492   4.859   0.360
 9693SOL     OW29977   5.489   4.211   4.101
 9693SOL    HW129978   5.534   4.295   4.073
 9693SOL    HW229979   5.416   4.188   4.037
 9694SOL     OW29980   3.149   6.507   1.842
 9694SOL    HW129981   3.220   6.529   1.775
 9694SOL    HW229982   3.060   6.505   1.796
 9695SOL     OW29983   0.454   2.871   4.047
 9695SOL    HW129984   0.453   2.781   4.002
 9695SOL    HW229985   0.477   2.941   3.979
 9696SOL     OW29986   6.190   2.198   2.616
 9696SOL    HW129987   6.091   2.200   2.601
 9696SOL    HW229988   6.210   2.222   2.711
 9697SOL     OW29989   6.812   6.100   0.267
 9697SOL    HW129990   6.769   6.106   0.177
 9697SOL    HW229991   6.804   6.007   0.302
 9698SOL     OW29992   5.128   3.541   0.283
 9698SOL    HW129993   5.131   3.574   0.188
 9698SOL    HW229994   5.085   3.450   0.285
 9699SOL     OW29995   1.050   5.245   0.734
 9699SOL    HW129996   1.028   5.323   0.675
 9699SOL    HW229997   1.145   5.218   0.720
 9700SOL     OW29998   5.874   6.700   4.158
 9700SOL    HW129999   5.836   6.611   4.181
 9700SOL    HW230000   5.923   6.737   4.237
 9701SOL     OW30001   5.260   3.138   6.561
 9701SOL    HW130002   5.229   3.225   6.600
 9701SOL    HW230003   5.257   3.067   6.632
 9702SOL     OW30004   3.570   3.060   0.807
 9702SOL    HW130005   3.654   3.007   0.802
 9702SOL    HW230006   3.501   3.020   0.747
 9703SOL     OW30007   5.975   3.760   5.233
 9703SOL    HW130008   5.897   3.791   5.287
 9703SOL    HW230009   5.958   3.667   5.199
 9704SOL     OW30010   2.878   4.732   2.968
 9704SOL    HW130011   2.826   4.691   3.043
 9704SOL    HW230012   2.831   4.714   2.882
 9705SOL     OW30013   5.961   4.164   5.296
 9705SOL    HW130014   5.955   4.157   5.196
 9705SOL    HW230015   6.050   4.130   5.326
 9706SOL     OW30016   1.080   1.488   2.408
 9706SOL    HW130017   0.987   1.471   2.441
 9706SOL    HW230018   1.078   1.501   2.309
 9707SOL     OW30019   6.079   4.663   2.245
 9707SOL    HW130020   6.024   4.605   2.305
 9707SOL    HW230021   6.172   4.628   2.240
 9708SOL     OW30022   1.511   0.756   2.698
 9708SOL    HW130023   1.424   0.732   2.654
 9708SOL    HW230024   1.526   0.697   2.777
 9709SOL     OW30025   5.771   2.873   2.430
 9709SOL    HW130026   5.814   2.803   2.373
 9709SOL    HW230027   5.673   2.876   2.412
 9710SOL     OW30028   6.122   6.131   5.213
 9710SOL    HW130029   6.184   6.149   5.136
 9710SOL    HW230030   6.028   6.126   5.180
 9711SOL     OW30031   3.857   6.497   6.660
 9711SOL    HW130032   3.777   6.465   6.609
 9711SOL    HW230033   3.932   6.514   6.596
 9712SOL     OW30034   6.357   2.444   0.538
 9712SOL    HW130035   6.289   2.517   0.549
 9712SOL    HW230036   6.334   2.368   0.599
 9713SOL     OW30037   1.835   6.307   3.711
 9713SOL    HW130038   1.827   6.355   3.798
 9713SOL    HW230039   1.751   6.319   3.658
 9714SOL     OW30040   3.607   4.933   4.498
 9714SOL    HW130041   3.625   4.837   4.522
 9714SOL    HW230042   3.534   4.936   4.430
 9715SOL     OW30043   6.116   4.524   0.712
 9715SOL    HW130044   6.198   4.581   0.716
 9715SOL    HW230045   6.060   4.551   0.633
 9716SOL     OW30046   3.299   4.966   6.640
 9716SOL    HW130047   3.392   4.941   6.667
 9716SOL    HW230048   3.239   4.963   6.719
 9717SOL     OW30049   3.847   0.613   5.983
 9717SOL    HW130050   3.923   0.677   5.991
 9717SOL    HW230051   3.761   0.662   5.992
 9718SOL     OW30052   3.198   2.200   0.106
 9718SOL    HW130053   3.263   2.253   0.052
 9718SOL    HW230054   3.246   2.150   0.178
 9719SOL     OW30055   4.754   5.846   5.214
 9719SOL    HW130056   4.680   5.878   5.274
 9719SOL    HW230057   4.716   5.817   5.126
 9720SOL     OW30058   1.663   4.421   2.987
 9720SOL    HW130059   1.681   4.466   2.899
 9720SOL    HW230060   1.736   4.355   3.006
 9721SOL     OW30061   1.002   1.868   0.109
 9721SOL    HW130062   1.093   1.828   0.121
 9721SOL    HW230063   0.960   1.884   0.198
 9722SOL     OW30064   3.730   2.894   5.454
 9722SOL    HW130065   3.800   2.894   5.526
 9722SOL    HW230066   3.666   2.818   5.470
 9723SOL     OW30067   6.419   4.678   4.922
 9723SOL    HW130068   6.352   4.711   4.856
 9723SOL    HW230069   6.425   4.742   4.999
 9724SOL     OW30070   1.255   5.262   0.070
 9724SOL    HW130071   1.319   5.333   0.096
 9724SOL    HW230072   1.162   5.289   0.096
 9725SOL     OW30073   3.495   5.284   4.815
 9725SOL    HW130074   3.578   5.317   4.770
 9725SOL    HW230075   3.501   5.303   4.913
 9726SOL     OW30076   6.406   1.041   4.133
 9726SOL    HW130077   6.409   0.953   4.087
 9726SOL    HW230078   6.322   1.090   4.107
 9727SOL     OW30079   0.374   1.746   6.705
 9727SOL    HW130080   0.463   1.791   6.714
 9727SOL    HW230081   0.370   1.695   6.619
 9728SOL     OW30082   5.080   0.479   6.112
 9728SOL    HW130083   5.110   0.387   6.085
 9728SOL    HW230084   5.147   0.546   6.082
 9729SOL     OW30085   0.628   4.286   3.428
 9729SOL    HW130086   0.627   4.373   3.378
 9729SOL    HW230087   0.702   4.228   3.393
 9730SOL     OW30088   0.465   4.453   3.141
 9730SOL    HW130089   0.509   4.448   3.052
 9730SOL    HW230090   0.490   4.539   3.186
 9731SOL     OW30091   4.805   4.005   2.978
 9731SOL    HW130092   4.834   4.033   2.886
 9731SOL    HW230093   4.817   3.906   2.989
 9732SOL     OW30094   1.775   2.863   2.309
 9732SOL    HW130095   1.715   2.895   2.236
 9732SOL    HW230096   1.804   2.941   2.365
 9733SOL     OW30097   6.253   5.458   2.631
 9733SOL    HW130098   6.200   5.476   2.548
 9733SOL    HW230099   6.210   5.504   2.709
 9734SOL     OW30100   6.197   6.683   6.560
 9734SOL    HW130101   6.144   6.736   6.494
 9734SOL    HW230102   6.288   6.723   6.570
 9735SOL     OW30103   0.927   1.653   2.753
 9735SOL    HW130104   0.965   1.653   2.846
 9735SOL    HW230105   0.993   1.692   2.690
 9736SOL     OW30106   4.737   2.270   5.028
 9736SOL    HW130107   4.693   2.329   5.096
 9736SOL    HW230108   4.668   2.234   4.965
 9737SOL     OW30109   6.301   1.702   2.260
 9737SOL    HW130110   6.344   1.782   2.303
 9737SOL    HW230111   6.207   1.692   2.293
 9738SOL     OW30112   1.959   5.990   1.118
 9738SOL    HW130113   1.911   5.925   1.058
 9738SOL    HW230114   1.897   6.065   1.141
 9739SOL     OW30115   4.903   0.205   0.207
 9739SOL    HW130116   4.987   0.234   0.252
 9739SOL    HW230117   4.849   0.148   0.269
 9740SOL     OW30118   7.015   0.611   2.325
 9740SOL    HW130119   6.931   0.658   2.350
 9740SOL    HW230120   6.995   0.517   2.299
 9741SOL     OW30121   3.231   1.979   4.539
 9741SOL    HW130122   3.299   2.003   4.609
 9741SOL    HW230123   3.265   2.004   4.449
 9742SOL     OW30124   4.217   1.496   6.463
 9742SOL    HW130125   4.129   1.536   6.489
 9742SOL    HW230126   4.219   1.481   6.364
 9743SOL     OW30127   6.347   2.864   3.499
 9743SOL    HW130128   6.423   2.802   3.519
 9743SOL    HW230129   6.274   2.850   3.566
 9744SOL     OW30130   2.097   6.674   3.557
 9744SOL    HW130131   2.088   6.730   3.475
 9744SOL    HW230132   2.011   6.675   3.608
 9745SOL     OW30133   5.809   1.278   5.943
 9745SOL    HW130134   5.895   1.255   5.897
 9745SOL    HW230135   5.733   1.271   5.879
 9746SOL     OW30136   4.952   6.083   6.666
 9746SOL    HW130137   4.962   6.010   6.734
 9746SOL    HW230138   5.028   6.147   6.675
 9747SOL     OW30139   2.509   2.130   2.186
 9747SOL    HW130140   2.419   2.155   2.150
 9747SOL    HW230141   2.518   2.030   2.187
 9748SOL     OW30142   0.884   0.747   3.120
 9748SOL    HW130143   0.830   0.664   3.132
 9748SOL    HW230144   0.823   0.824   3.103
 9749SOL     OW30145   0.583   1.847   2.484
 9749SOL    HW130146   0.501   1.822   2.434
 9749SOL    HW230147   0.608   1.773   2.547
 9750SOL     OW30148   6.304   4.835   4.049
 9750SOL    HW130149   6.254   4.879   3.974
 9750SOL    HW230150   6.269   4.743   4.063
 9751SOL     OW30151   2.458   0.716   1.923
 9751SOL    HW130152   2.556   0.737   1.922
 9751SOL    HW230153   2.423   0.720   1.830
 9752SOL     OW30154   4.223   2.583   0.611
 9752SOL    HW130155   4.205   2.644   0.688
 9752SOL    HW230156   4.165   2.610   0.534
 9753SOL     OW30157   6.845   6.193   6.198
 9753SOL    HW130158   6.775   6.167   6.132
 9753SOL    HW230159   6.840   6.132   6.277
 9754SOL     OW30160   3.893   0.516   0.867
 9754SOL    HW130161   3.858   0.425   0.846
 9754SOL    HW230162   3.848   0.584   0.808
 9755SOL     OW30163   3.347   4.073   5.763
 9755SOL    HW130164   3.360   4.107   5.856
 9755SOL    HW230165   3.266   4.116   5.723
 9756SOL     OW30166   5.589   1.519   6.081
 9756SOL    HW130167   5.633   1.589   6.137
 9756SOL    HW230168   5.503   1.491   6.125
 9757SOL     OW30169   5.388   4.079   4.370
 9757SOL    HW130170   5.406   4.044   4.278
 9757SOL    HW230171   5.289   4.094   4.381
 9758SOL     OW30172   1.343   0.724   0.783
 9758SOL    HW130173   1.341   0.756   0.878
 9758SOL    HW230174   1.255   0.682   0.760
 9759SOL     OW30175   1.263   1.450   0.621
 9759SOL    HW130176   1.347   1.401   0.597
 9759SOL    HW230177   1.263   1.540   0.577
 9760SOL     OW30178   5.133   2.266   6.853
 9760SOL    HW130179   5.081   2.236   6.772
 9760SOL    HW230180   5.118   2.201   6.927
 9761SOL     OW30181   1.455   1.106   1.996
 9761SOL    HW130182   1.435   1.173   1.925
 9761SOL    HW230183   1.539   1.132   2.043
 9762SOL     OW30184   3.159   1.442   4.844
 9762SOL    HW130185   3.214   1.473   4.766
 9762SOL    HW230186   3.065   1.428   4.815
 9763SOL     OW30187   6.398   1.491   1.595
 9763SOL    HW130188   6.320   1.429   1.594
 9763SOL    HW230189   6.368   1.583   1.619
 9764SOL     OW30190   5.701   2.006   2.380
 9764SOL    HW130191   5.654   1.919   2.365
 9764SOL    HW230192   5.798   1.995   2.358
 9765SOL     OW30193   6.358   1.312   1.936
 9765SOL    HW130194   6.322   1.221   1.916
 9765SOL    HW230195   6.429   1.335   1.870
 9766SOL     OW30196   2.101   0.741   3.693
 9766SOL    HW130197   2.064   0.822   3.740
 9766SOL    HW230198   2.110   0.762   3.595
 9767SOL     OW30199   1.985   3.264   5.876
 9767SOL    HW130200   1.965   3.194   5.807
 9767SOL    HW230201   1.941   3.238   5.962
 9768SOL     OW30202   6.417   2.252   0.811
 9768SOL    HW130203   6.446   2.247   0.907
 9768SOL    HW230204   6.491   2.221   0.752
 9769SOL     OW30205   3.113   1.758   4.920
 9769SOL    HW130206   3.018   1.788   4.909
 9769SOL    HW230207   3.117   1.658   4.918
 9770SOL     OW30208   3.583   2.726   6.183
 9770SOL    HW130209   3.655   2.683   6.128
 9770SOL    HW230210   3.511   2.760   6.122
 9771SOL     OW30211   2.696   6.353   2.478
 9771SOL    HW130212   2.732   6.271   2.522
 9771SOL    HW230213   2.633   6.326   2.405
 9772SOL     OW30214   1.727   6.382   2.063
 9772SOL    HW130215   1.672   6.308   2.024
 9772SOL    HW230216   1.667   6.449   2.107
 9773SOL     OW30217   5.446   5.567   2.576
 9773SOL    HW130218   5.429   5.666   2.576
 9773SOL    HW230219   5.463   5.537   2.670
 9774SOL     OW30220   0.562   5.253   3.876
 9774SOL    HW130221   0.590   5.331   3.933
 9774SOL    HW230222   0.568   5.279   3.780
 9775SOL     OW30223   2.515   0.602   3.527
 9775SOL    HW130224   2.596   0.581   3.582
 9775SOL    HW230225   2.440   0.627   3.588
 9776SOL     OW30226   1.599   4.922   6.051
 9776SOL    HW130227   1.679   4.864   6.032
 9776SOL    HW230228   1.548   4.885   6.129
 9777SOL     OW30229   5.397   6.540   6.271
 9777SOL    HW130230   5.320   6.495   6.227
 9777SOL    HW230231   5.366   6.588   6.353
 9778SOL     OW30232   0.431   1.802   4.814
 9778SOL    HW130233   0.477   1.837   4.732
 9778SOL    HW230234   0.345   1.851   4.828
 9779SOL     OW30235   0.913   1.614   3.561
 9779SOL    HW130236   1.012   1.605   3.554
 9779SOL    HW230237   0.880   1.673   3.488
 9780SOL     OW30238   1.628   1.742   1.130
 9780SOL    HW130239   1.669   1.652   1.147
 9780SOL    HW230240   1.690   1.796   1.074
 9781SOL     OW30241   1.186   3.562   3.802
 9781SOL    HW130242   1.237   3.648   3.810
 9781SOL    HW230243   1.244   3.486   3.833
 9782SOL     OW30244   0.672   2.306   0.342
 9782SOL    HW130245   0.698   2.350   0.428
 9782SOL    HW230246   0.591   2.250   0.356
 9783SOL     OW30247   3.918   1.618   3.159
 9783SOL    HW130248   3.832   1.670   3.164
 9783SOL    HW230249   3.897   1.520   3.156
 9784SOL     OW30250   2.918   1.372   0.043
 9784SOL    HW130251   2.951   1.289   7.019
 9784SOL    HW230252   2.949   1.453   7.014
 9785SOL     OW30253   6.804   2.395   4.945
 9785SOL    HW130254   6.819   2.409   5.043
 9785SOL    HW230255   6.878   2.437   4.893
 9786SOL     OW30256   2.576   4.475   0.748
 9786SOL    HW130257   2.607   4.380   0.741
 9786SOL    HW230258   2.484   4.477   0.788
 9787SOL     OW30259   3.646   3.564   3.587
 9787SOL    HW130260   3.591   3.604   3.514
 9787SOL    HW230261   3.662   3.467   3.567
 9788SOL     OW30262   0.462   6.073   2.000
 9788SOL    HW130263   0.518   6.142   2.047
 9788SOL    HW230264   0.512   6.041   1.919
 9789SOL     OW30265   3.070   6.911   6.400
 9789SOL    HW130266   3.087   6.846   6.326
 9789SOL    HW230267   3.058   6.861   6.486
 9790SOL     OW30268   6.976   3.880   4.725
 9790SOL    HW130269   0.025   3.810   4.720
 9790SOL    HW230270   6.948   3.891   4.821
 9791SOL     OW30271   0.542   6.529   0.347
 9791SOL    HW130272   0.523   6.626   0.349
 9791SOL    HW230273   0.640   6.514   0.361
 9792SOL     OW30274   3.835   5.703   0.892
 9792SOL    HW130275   3.914   5.711   0.953
 9792SOL    HW230276   3.855   5.749   0.805
 9793SOL     OW30277   4.525   1.317   1.687
 9793SOL    HW130278   4.465   1.388   1.724
 9793SOL    HW230279   4.562   1.262   1.762
 9794SOL     OW30280   4.827   4.576   4.661
 9794SOL    HW130281   4.875   4.532   4.585
 9794SOL    HW230282   4.848   4.673   4.663
 9795SOL     OW30283   0.875   3.016   3.790
 9795SOL    HW130284   0.906   2.949   3.857
 9795SOL    HW230285   0.950   3.038   3.728
 9796SOL     OW30286   3.657   4.111   3.622
 9796SOL    HW130287   3.728   4.151   3.564
 9796SOL    HW230288   3.699   4.057   3.695
 9797SOL     OW30289   3.008   6.297   6.446
 9797SOL    HW130290   3.009   6.263   6.352
 9797SOL    HW230291   2.987   6.395   6.445
 9798SOL     OW30292   1.345   2.552   0.952
 9798SOL    HW130293   1.359   2.585   0.859
 9798SOL    HW230294   1.250   2.523   0.964
 9799SOL     OW30295   2.644   5.361   5.998
 9799SOL    HW130296   2.612   5.301   5.925
 9799SOL    HW230297   2.738   5.390   5.979
 9800SOL     OW30298   5.596   3.073   3.742
 9800SOL    HW130299   5.575   3.006   3.813
 9800SOL    HW230300   5.609   3.026   3.655
 9801SOL     OW30301   5.642   4.801   6.571
 9801SOL    HW130302   5.578   4.836   6.639
 9801SOL    HW230303   5.735   4.804   6.608
 9802SOL     OW30304   4.028   5.407   0.793
 9802SOL    HW130305   3.954   5.341   0.803
 9802SOL    HW230306   4.070   5.398   0.703
 9803SOL     OW30307   1.524   3.569   6.570
 9803SOL    HW130308   1.496   3.558   6.665
 9803SOL    HW230309   1.530   3.666   6.548
 9804SOL     OW30310   6.476   5.662   3.209
 9804SOL    HW130311   6.566   5.703   3.219
 9804SOL    HW230312   6.410   5.731   3.179
 9805SOL     OW30313   0.526   6.438   3.880
 9805SOL    HW130314   0.546   6.353   3.930
 9805SOL    HW230315   0.609   6.493   3.874
 9806SOL     OW30316   3.829   2.238   5.815
 9806SOL    HW130317   3.876   2.263   5.731
 9806SOL    HW230318   3.815   2.139   5.816
 9807SOL     OW30319   3.516   2.817   2.316
 9807SOL    HW130320   3.435   2.862   2.354
 9807SOL    HW230321   3.494   2.722   2.295
 9808SOL     OW30322   4.263   6.067   3.874
 9808SOL    HW130323   4.186   6.038   3.931
 9808SOL    HW230324   4.312   5.986   3.842
 9809SOL     OW30325   0.508   3.068   0.591
 9809SOL    HW130326   0.443   3.137   0.559
 9809SOL    HW230327   0.586   3.113   0.635
 9810SOL     OW30328   2.195   1.763   5.502
 9810SOL    HW130329   2.155   1.718   5.422
 9810SOL    HW230330   2.291   1.786   5.482
 9811SOL     OW30331   6.613   3.803   3.976
 9811SOL    HW130332   6.631   3.720   4.030
 9811SOL    HW230333   6.612   3.882   4.037
 9812SOL     OW30334   2.593   6.891   4.645
 9812SOL    HW130335   2.522   6.948   4.603
 9812SOL    HW230336   2.660   6.950   4.691
 9813SOL     OW30337   5.458   2.540   0.612
 9813SOL    HW130338   5.399   2.494   0.678
 9813SOL    HW230339   5.456   2.639   0.628
 9814SOL     OW30340   5.605   2.039   0.126
 9814SOL    HW130341   5.511   2.071   0.115
 9814SOL    HW230342   5.604   1.947   0.165
 9815SOL     OW30343   4.670   2.780   4.579
 9815SOL    HW130344   4.674   2.754   4.676
 9815SOL    HW230345   4.716   2.868   4.566
 9816SOL     OW30346   1.123   0.203   6.884
 9816SOL    HW130347   1.150   0.115   6.845
 9816SOL    HW230348   1.055   0.187   6.957
 9817SOL     OW30349   0.393   0.068   3.394
 9817SOL    HW130350   0.379   0.166   3.401
 9817SOL    HW230351   0.350   0.033   3.311
 9818SOL     OW30352   6.055   1.837   5.110
 9818SOL    HW130353   6.055   1.797   5.018
 9818SOL    HW230354   5.987   1.910   5.114
 9819SOL     OW30355   4.167   1.944   3.402
 9819SOL    HW130356   4.178   2.039   3.372
 9819SOL    HW230357   4.184   1.883   3.325
 9820SOL     OW30358   3.219   4.063   6.110
 9820SOL    HW130359   3.276   4.108   6.178
 9820SOL    HW230360   3.145   4.124   6.081
 9821SOL     OW30361   5.475   6.598   6.795
 9821SOL    HW130362   5.393   6.570   6.845
 9821SOL    HW230363   5.449   6.659   6.720
 9822SOL     OW30364   0.608   6.712   2.937
 9822SOL    HW130365   0.673   6.649   2.895
 9822SOL    HW230366   0.616   6.802   2.895
 9823SOL     OW30367   3.407   0.555   1.903
 9823SOL    HW130368   3.472   0.602   1.962
 9823SOL    HW230369   3.369   0.618   1.836
 9824SOL     OW30370   0.688   4.097   5.502
 9824SOL    HW130371   0.665   4.063   5.411
 9824SOL    HW230372   0.617   4.159   5.533
 9825SOL     OW30373   3.689   5.647   5.353
 9825SOL    HW130374   3.662   5.679   5.262
 9825SOL    HW230375   3.626   5.684   5.421
 9826SOL     OW30376   4.849   5.824   6.261
 9826SOL    HW130377   4.809   5.733   6.256
 9826SOL    HW230378   4.943   5.822   6.226
 9827SOL     OW30379   1.570   4.380   4.667
 9827SOL    HW130380   1.483   4.360   4.712
 9827SOL    HW230381   1.636   4.308   4.689
 9828SOL     OW30382   3.230   2.743   6.748
 9828SOL    HW130383   3.141   2.773   6.782
 9828SOL    HW230384   3.290   2.723   6.825
 9829SOL     OW30385   3.400   6.498   0.181
 9829SOL    HW130386   3.431   6.414   0.135
 9829SOL    HW230387   3.377   6.476   0.276
 9830SOL     OW30388   6.120   1.914   0.975
 9830SOL    HW130389   6.080   1.939   0.887
 9830SOL    HW230390   6.078   1.828   1.006
 9831SOL     OW30391   0.985   5.985   1.171
 9831SOL    HW130392   1.068   5.982   1.116
 9831SOL    HW230393   0.918   5.920   1.133
 9832SOL     OW30394   4.540   4.811   2.803
 9832SOL    HW130395   4.530   4.905   2.837
 9832SOL    HW230396   4.559   4.813   2.705
 9833SOL     OW30397   3.335   3.193   5.169
 9833SOL    HW130398   3.433   3.177   5.184
 9833SOL    HW230399   3.290   3.106   5.148
 9834SOL     OW30400   2.723   3.778   5.955
 9834SOL    HW130401   2.815   3.786   5.993
 9834SOL    HW230402   2.725   3.719   5.874
 9835SOL     OW30403   4.944   1.537   4.191
 9835SOL    HW130404   4.879   1.612   4.206
 9835SOL    HW230405   5.033   1.575   4.168
 9836SOL     OW30406   5.970   3.751   3.267
 9836SOL    HW130407   5.885   3.803   3.259
 9836SOL    HW230408   6.043   3.811   3.297
 9837SOL     OW30409   1.813   6.852   3.398
 9837SOL    HW130410   1.911   6.834   3.400
 9837SOL    HW230411   1.790   6.907   3.318
 9838SOL     OW30412   0.412   6.474   5.626
 9838SOL    HW130413   0.486   6.408   5.641
 9838SOL    HW230414   0.338   6.455   5.691
 9839SOL     OW30415   6.466   1.447   2.667
 9839SOL    HW130416   6.554   1.405   2.648
 9839SOL    HW230417   6.476   1.546   2.668
 9840SOL     OW30418   0.201   0.465   0.589
 9840SOL    HW130419   0.247   0.389   0.542
 9840SOL    HW230420   0.241   0.552   0.561
 9841SOL     OW30421   1.312   4.381   4.184
 9841SOL    HW130422   1.292   4.473   4.219
 9841SOL    HW230423   1.409   4.361   4.196
 9842SOL     OW30424   3.467   3.186   3.580
 9842SOL    HW130425   3.476   3.159   3.676
 9842SOL    HW230426   3.380   3.235   3.568
 9843SOL     OW30427   6.780   1.844   1.259
 9843SOL    HW130428   6.781   1.856   1.159
 9843SOL    HW230429   6.720   1.914   1.300
 9844SOL     OW30430   4.657   6.809   2.981
 9844SOL    HW130431   4.565   6.777   2.960
 9844SOL    HW230432   4.721   6.733   2.979
 9845SOL     OW30433   2.026   1.439   5.110
 9845SOL    HW130434   2.011   1.514   5.046
 9845SOL    HW230435   2.076   1.365   5.064
 9846SOL     OW30436   3.183   3.778   3.255
 9846SOL    HW130437   3.084   3.776   3.257
 9846SOL    HW230438   3.217   3.836   3.328
 9847SOL     OW30439   2.540   2.705   5.822
 9847SOL    HW130440   2.576   2.697   5.915
 9847SOL    HW230441   2.506   2.798   5.807
 9848SOL     OW30442   3.967   2.495   6.590
 9848SOL    HW130443   3.995   2.444   6.671
 9848SOL    HW230444   4.006   2.452   6.508
 9849SOL     OW30445   5.715   0.558   6.513
 9849SOL    HW130446   5.799   0.506   6.499
 9849SOL    HW230447   5.678   0.538   6.604
 9850SOL     OW30448   4.773   5.762   2.251
 9850SOL    HW130449   4.686   5.807   2.270
 9850SOL    HW230450   4.848   5.828   2.259
 9851SOL     OW30451   4.323   1.930   5.052
 9851SOL    HW130452   4.381   1.881   5.116
 9851SOL    HW230453   4.324   1.885   4.963
 9852SOL     OW30454   4.149   1.795   3.175
 9852SOL    HW130455   4.221   1.726   3.169
 9852SOL    HW230456   4.060   1.751   3.157
 9853SOL     OW30457   4.624   4.365   3.033
 9853SOL    HW130458   4.616   4.329   2.940
 9853SOL    HW230459   4.700   4.320   3.079
 9854SOL     OW30460   6.018   5.242   5.238
 9854SOL    HW130461   6.069   5.164   5.203
 9854SOL    HW230462   5.929   5.210   5.271
 9855SOL     OW30463   0.947   4.117   1.374
 9855SOL    HW130464   0.876   4.049   1.393
 9855SOL    HW230465   0.982   4.154   1.460
 9856SOL     OW30466   4.321   3.796   6.945
 9856SOL    HW130467   4.290   3.879   6.898
 9856SOL    HW230468   4.419   3.804   6.964
 9857SOL     OW30469   5.224   2.138   3.192
 9857SOL    HW130470   5.239   2.102   3.100
 9857SOL    HW230471   5.155   2.210   3.189
 9858SOL     OW30472   5.455   0.624   1.259
 9858SOL    HW130473   5.524   0.630   1.331
 9858SOL    HW230474   5.497   0.646   1.171
 9859SOL     OW30475   6.341   6.864   0.964
 9859SOL    HW130476   6.426   6.815   0.945
 9859SOL    HW230477   6.308   6.839   1.055
 9860SOL     OW30478   0.652   0.961   1.474
 9860SOL    HW130479   0.743   0.974   1.514
 9860SOL    HW230480   0.591   1.033   1.507
 9861SOL     OW30481   3.726   6.849   4.349
 9861SOL    HW130482   3.659   6.785   4.311
 9861SOL    HW230483   3.742   6.923   4.284
 9862SOL     OW30484   2.767   3.503   0.877
 9862SOL    HW130485   2.800   3.576   0.938
 9862SOL    HW230486   2.687   3.536   0.827
 9863SOL     OW30487   3.441   6.986   2.973
 9863SOL    HW130488   3.389   6.913   2.930
 9863SOL    HW230489   3.389   0.051   2.968
 9864SOL     OW30490   4.081   5.660   3.571
 9864SOL    HW130491   4.009   5.689   3.507
 9864SOL    HW230492   4.147   5.735   3.582
 9865SOL     OW30493   0.857   0.809   4.132
 9865SOL    HW130494   0.955   0.824   4.138
 9865SOL    HW230495   0.820   0.859   4.054
 9866SOL     OW30496   5.163   4.293   4.724
 9866SOL    HW130497   5.219   4.344   4.658
 9866SOL    HW230498   5.193   4.198   4.727
 9867SOL     OW30499   4.641   0.795   1.308
 9867SOL    HW130500   4.541   0.800   1.305
 9867SOL    HW230501   4.680   0.854   1.237
 9868SOL     OW30502   1.687   4.471   5.906
 9868SOL    HW130503   1.687   4.471   5.806
 9868SOL    HW230504   1.619   4.407   5.940
 9869SOL     OW30505   2.011   3.702   2.659
 9869SOL    HW130506   1.914   3.686   2.678
 9869SOL    HW230507   2.063   3.619   2.680
 9870SOL     OW30508   3.860   5.991   2.285
 9870SOL    HW130509   3.914   6.054   2.230
 9870SOL    HW230510   3.802   5.936   2.225
 9871SOL     OW30511   0.972   6.743   6.259
 9871SOL    HW130512   0.973   6.799   6.176
 9871SOL    HW230513   0.897   6.677   6.253
 9872SOL     OW30514   2.867   5.219   3.051
 9872SOL    HW130515   2.920   5.202   3.134
 9872SOL    HW230516   2.818   5.136   3.024
 9873SOL     OW30517   2.223   2.539   1.320
 9873SOL    HW130518   2.228   2.639   1.317
 9873SOL    HW230519   2.151   2.512   1.384
 9874SOL     OW30520   0.826   2.391   4.381
 9874SOL    HW130521   0.754   2.322   4.376
 9874SOL    HW230522   0.909   2.350   4.419
 9875SOL     OW30523   0.372   6.698   2.272
 9875SOL    HW130524   0.388   6.788   2.232
 9875SOL    HW230525   0.455   6.643   2.265
 9876SOL     OW30526   6.927   1.032   1.935
 9876SOL    HW130527   6.852   1.073   1.987
 9876SOL    HW230528   6.955   0.946   1.978
 9877SOL     OW30529   1.678   6.039   2.871
 9877SOL    HW130530   1.615   6.116   2.880
 9877SOL    HW230531   1.629   5.954   2.890
 9878SOL     OW30532   2.121   5.290   5.163
 9878SOL    HW130533   2.097   5.196   5.141
 9878SOL    HW230534   2.200   5.292   5.225
 9879SOL     OW30535   5.757   5.011   4.896
 9879SOL    HW130536   5.778   5.087   4.958
 9879SOL    HW230537   5.658   5.005   4.883
 9880SOL     OW30538   1.623   2.378   5.298
 9880SOL    HW130539   1.620   2.308   5.369
 9880SOL    HW230540   1.666   2.341   5.216
 9881SOL     OW30541   1.690   1.526   4.936
 9881SOL    HW130542   1.596   1.510   4.906
 9881SOL    HW230543   1.696   1.613   4.985
 9882SOL     OW30544   1.232   1.992   3.816
 9882SOL    HW130545   1.177   2.044   3.752
 9882SOL    HW230546   1.316   2.042   3.837
 9883SOL     OW30547   1.400   5.506   0.179
 9883SOL    HW130548   1.416   5.460   0.267
 9883SOL    HW230549   1.398   5.605   0.193
 9884SOL     OW30550   4.340   1.584   3.134
 9884SOL    HW130551   4.294   1.514   3.188
 9884SOL    HW230552   4.439   1.579   3.150
 9885SOL     OW30553   0.255   3.394   5.440
 9885SOL    HW130554   0.337   3.418   5.491
 9885SOL    HW230555   0.269   3.415   5.343
 9886SOL     OW30556   1.019   4.270   1.900
 9886SOL    HW130557   0.977   4.259   1.991
 9886SOL    HW230558   1.118   4.285   1.911
 9887SOL     OW30559   3.404   1.880   6.575
 9887SOL    HW130560   3.339   1.829   6.519
 9887SOL    HW230561   3.356   1.951   6.627
 9888SOL     OW30562   6.838   4.356   1.442
 9888SOL    HW130563   6.872   4.307   1.361
 9888SOL    HW230564   6.770   4.299   1.488
 9889SOL     OW30565   6.428   4.837   1.482
 9889SOL    HW130566   6.498   4.899   1.448
 9889SOL    HW230567   6.397   4.867   1.572
 9890SOL     OW30568   1.675   2.475   0.090
 9890SOL    HW130569   1.693   2.455   0.186
 9890SOL    HW230570   1.641   2.569   0.081
 9891SOL     OW30571   5.634   2.965   1.191
 9891SOL    HW130572   5.653   3.035   1.260
 9891SOL    HW230573   5.691   2.884   1.208
 9892SOL     OW30574   6.672   5.309   0.459
 9892SOL    HW130575   6.722   5.284   0.542
 9892SOL    HW230576   6.679   5.235   0.392
 9893SOL     OW30577   1.228   7.001   0.899
 9893SOL    HW130578   1.253   0.051   0.964
 9893SOL    HW230579   1.129   6.988   0.900
 9894SOL     OW30580   1.847   1.936   1.713
 9894SOL    HW130581   1.905   1.900   1.641
 9894SOL    HW230582   1.904   1.985   1.780
 9895SOL     OW30583   5.822   3.526   5.673
 9895SOL    HW130584   5.805   3.622   5.650
 9895SOL    HW230585   5.798   3.468   5.594
 9896SOL     OW30586   6.075   0.130   5.785
 9896SOL    HW130587   6.073   0.174   5.875
 9896SOL    HW230588   6.011   0.177   5.724
 9897SOL     OW30589   5.854   5.556   3.867
 9897SOL    HW130590   5.862   5.526   3.772
 9897SOL    HW230591   5.943   5.588   3.900
 9898SOL     OW30592   2.526   5.903   5.642
 9898SOL    HW130593   2.558   5.977   5.584
 9898SOL    HW230594   2.441   5.930   5.687
 9899SOL     OW30595   0.027   5.456   6.764
 9899SOL    HW130596   0.025   5.439   6.863
 9899SOL    HW230597   0.082   5.538   6.746
 9900SOL     OW30598   2.164   3.608   3.389
 9900SOL    HW130599   2.252   3.600   3.436
 9900SOL    HW230600   2.117   3.691   3.419
 9901SOL     OW30601   3.251   1.712   6.407
 9901SOL    HW130602   3.183   1.735   6.337
 9901SOL    HW230603   3.324   1.657   6.366
 9902SOL     OW30604   3.338   4.817   6.927
 9902SOL    HW130605   3.239   4.811   6.921
 9902SOL    HW230606   3.375   4.734   6.969
 9903SOL     OW30607   5.009   1.293   1.522
 9903SOL    HW130608   4.979   1.249   1.607
 9903SOL    HW230609   4.958   1.254   1.445
 9904SOL     OW30610   0.825   3.633   6.991
 9904SOL    HW130611   0.772   3.679   0.041
 9904SOL    HW230612   0.816   3.534   7.001
 9905SOL     OW30613   2.507   0.535   6.965
 9905SOL    HW130614   2.511   0.619   6.911
 9905SOL    HW230615   2.480   0.459   6.907
 9906SOL     OW30616   3.116   3.038   1.708
 9906SOL    HW130617   3.181   3.026   1.632
 9906SOL    HW230618   3.123   2.961   1.771
 9907SOL     OW30619   6.668   0.656   0.539
 9907SOL    HW130620   6.695   0.587   0.472
 9907SOL    HW230621   6.660   0.745   0.494
 9908SOL     OW30622   5.694   1.780   4.100
 9908SOL    HW130623   5.715   1.827   4.186
 9908SOL    HW230624   5.618   1.718   4.114
 9909SOL     OW30625   4.151   0.487   3.964
 9909SOL    HW130626   4.180   0.392   3.967
 9909SOL    HW230627   4.051   0.492   3.970
 9910SOL     OW30628   1.283   3.542   2.692
 9910SOL    HW130629   1.254   3.505   2.780
 9910SOL    HW230630   1.246   3.485   2.618
 9911SOL     OW30631   3.480   6.282   2.124
 9911SOL    HW130632   3.463   6.379   2.112
 9911SOL    HW230633   3.400   6.230   2.093
 9912SOL     OW30634   4.016   1.454   2.120
 9912SOL    HW130635   4.040   1.377   2.060
 9912SOL    HW230636   3.975   1.419   2.204
 9913SOL     OW30637   6.609   4.189   0.806
 9913SOL    HW130638   6.515   4.169   0.835
 9913SOL    HW230639   6.635   4.126   0.734
 9914SOL     OW30640   5.390   2.323   4.937
 9914SOL    HW130641   5.344   2.382   5.004
 9914SOL    HW230642   5.338   2.323   4.852
 9915SOL     OW30643   5.461   0.923   3.645
 9915SOL    HW130644   5.556   0.892   3.644
 9915SOL    HW230645   5.429   0.930   3.739
 9916SOL     OW30646   1.779   2.463   3.385
 9916SOL    HW130647   1.827   2.378   3.364
 9916SOL    HW230648   1.800   2.532   3.315
 9917SOL     OW30649   5.858   3.840   0.383
 9917SOL    HW130650   5.934   3.789   0.424
 9917SOL    HW230651   5.869   3.844   0.284
 9918SOL     OW30652   2.852   1.475   3.040
 9918SOL    HW130653   2.800   1.468   2.955
 9918SOL    HW230654   2.807   1.539   3.102
 9919SOL     OW30655   6.193   5.034   1.423
 9919SOL    HW130656   6.139   5.010   1.343
 9919SOL    HW230657   6.136   5.025   1.505
 9920SOL     OW30658   5.160   1.700   1.993
 9920SOL    HW130659   5.111   1.765   1.935
 9920SOL    HW230660   5.187   1.621   1.938
 9921SOL     OW30661   4.071   0.040   5.957
 9921SOL    HW130662   4.064   0.039   5.858
 9921SOL    HW230663   4.120   6.980   5.988
 9922SOL     OW30664   1.940   4.292   0.761
 9922SOL    HW130665   1.878   4.255   0.830
 9922SOL    HW230666   2.026   4.319   0.804
 9923SOL     OW30667   4.701   4.689   6.931
 9923SOL    HW130668   4.701   4.725   0.003
 9923SOL    HW230669   4.787   4.641   6.913
 9924SOL     OW30670   6.350   2.288   4.652
 9924SOL    HW130671   6.325   2.192   4.636
 9924SOL    HW230672   6.326   2.313   4.745
 9925SOL     OW30673   6.628   3.463   3.912
 9925SOL    HW130674   6.651   3.496   4.004
 9925SOL    HW230675   6.695   3.396   3.883
 9926SOL     OW30676   3.868   3.052   0.677
 9926SOL    HW130677   3.890   3.135   0.727
 9926SOL    HW230678   3.807   3.074   0.601
 9927SOL     OW30679   6.642   6.827   1.021
 9927SOL    HW130680   6.635   6.890   1.099
 9927SOL    HW230681   6.604   6.738   1.046
 9928SOL     OW30682   5.161   6.163   1.909
 9928SOL    HW130683   5.193   6.253   1.938
 9928SOL    HW230684   5.126   6.169   1.815
 9929SOL     OW30685   2.975   5.271   4.942
 9929SOL    HW130686   2.882   5.290   4.912
 9929SOL    HW230687   2.973   5.200   5.013
 9930SOL     OW30688   6.655   6.959   4.524
 9930SOL    HW130689   6.564   6.997   4.512
 9930SOL    HW230690   6.659   6.908   4.609
 9931SOL     OW30691   1.130   4.644   4.483
 9931SOL    HW130692   1.094   4.672   4.572
 9931SOL    HW230693   1.229   4.635   4.488
 9932SOL     OW30694   2.292   5.266   6.676
 9932SOL    HW130695   2.230   5.195   6.643
 9932SOL    HW230696   2.275   5.351   6.626
 9933SOL     OW30697   1.240   5.241   3.769
 9933SOL    HW130698   1.272   5.297   3.845
 9933SOL    HW230699   1.140   5.235   3.773
 9934SOL     OW30700   5.331   1.455   5.493
 9934SOL    HW130701   5.317   1.545   5.535
 9934SOL    HW230702   5.380   1.466   5.407
 9935SOL     OW30703   2.979   6.803   0.049
 9935SOL    HW130704   2.883   6.793   0.078
 9935SOL    HW230705   3.028   6.717   0.068
 9936SOL     OW30706   6.754   5.053   6.351
 9936SOL    HW130707   6.727   5.043   6.255
 9936SOL    HW230708   6.822   5.125   6.359
 9937SOL     OW30709   6.779   1.676   0.057
 9937SOL    HW130710   6.847   1.616   0.015
 9937SOL    HW230711   6.700   1.621   0.085
 9938SOL     OW30712   6.900   5.491   2.548
 9938SOL    HW130713   6.958   5.411   2.533
 9938SOL    HW230714   6.835   5.472   2.622
 9939SOL     OW30715   4.448   2.125   0.715
 9939SOL    HW130716   4.518   2.143   0.784
 9939SOL    HW230717   4.397   2.209   0.696
 9940SOL     OW30718   0.783   0.896   1.231
 9940SOL    HW130719   0.716   0.917   1.301
 9940SOL    HW230720   0.833   0.980   1.207
 9941SOL     OW30721   3.084   3.945   5.325
 9941SOL    HW130722   3.147   3.959   5.402
 9941SOL    HW230723   3.082   4.027   5.268
 9942SOL     OW30724   2.501   5.389   2.495
 9942SOL    HW130725   2.476   5.352   2.405
 9942SOL    HW230726   2.445   5.470   2.514
 9943SOL     OW30727   6.935   5.327   5.514
 9943SOL    HW130728   6.908   5.421   5.535
 9943SOL    HW230729   6.896   5.265   5.581
 9944SOL     OW30730   1.989   4.539   6.251
 9944SOL    HW130731   2.025   4.629   6.277
 9944SOL    HW230732   1.951   4.494   6.332
 9945SOL     OW30733   6.427   5.486   6.428
 9945SOL    HW130734   6.328   5.498   6.422
 9945SOL    HW230735   6.455   5.412   6.367
 9946SOL     OW30736   4.568   0.931   4.411
 9946SOL    HW130737   4.516   1.016   4.408
 9946SOL    HW230738   4.516   0.862   4.462
 9947SOL     OW30739   1.523   3.264   5.145
 9947SOL    HW130740   1.480   3.248   5.056
 9947SOL    HW230741   1.621   3.276   5.132
 9948SOL     OW30742   5.678   4.835   4.474
 9948SOL    HW130743   5.753   4.801   4.417
 9948SOL    HW230744   5.621   4.759   4.502
 9949SOL     OW30745   6.180   4.976   3.844
 9949SOL    HW130746   6.178   4.924   3.759
 9949SOL    HW230747   6.096   5.031   3.852
 9950SOL     OW30748   5.738   6.324   5.222
 9950SOL    HW130749   5.761   6.421   5.214
 9950SOL    HW230750   5.699   6.307   5.313
 9951SOL     OW30751   6.187   1.216   4.808
 9951SOL    HW130752   6.197   1.173   4.898
 9951SOL    HW230753   6.205   1.314   4.816
 9952SOL     OW30754   0.808   3.208   1.258
 9952SOL    HW130755   0.856   3.147   1.194
 9952SOL    HW230756   0.770   3.154   1.333
 9953SOL     OW30757   6.367   2.387   4.180
 9953SOL    HW130758   6.409   2.379   4.271
 9953SOL    HW230759   6.350   2.484   4.160
 9954SOL     OW30760   6.091   0.312   6.027
 9954SOL    HW130761   6.150   0.357   5.960
 9954SOL    HW230762   6.133   0.320   6.118
 9955SOL     OW30763   6.186   3.777   5.747
 9955SOL    HW130764   6.185   3.801   5.650
 9955SOL    HW230765   6.130   3.841   5.799
 9956SOL     OW30766   1.718   6.983   1.638
 9956SOL    HW130767   1.750   6.922   1.566
 9956SOL    HW230768   1.622   6.963   1.658
 9957SOL     OW30769   5.853   5.489   3.222
 9957SOL    HW130770   5.941   5.460   3.260
 9957SOL    HW230771   5.833   5.583   3.251
 9958SOL     OW30772   3.033   4.906   0.848
 9958SOL    HW130773   2.963   4.954   0.902
 9958SOL    HW230774   3.109   4.969   0.830
 9959SOL     OW30775   4.126   3.668   5.618
 9959SOL    HW130776   4.160   3.761   5.632
 9959SOL    HW230777   4.131   3.645   5.521
 9960SOL     OW30778   6.873   6.786   2.341
 9960SOL    HW130779   6.973   6.786   2.344
 9960SOL    HW230780   6.838   6.717   2.404
 9961SOL     OW30781   1.519   5.436   3.691
 9961SOL    HW130782   1.574   5.441   3.774
 9961SOL    HW230783   1.539   5.351   3.642
 9962SOL     OW30784   6.937   6.812   2.931
 9962SOL    HW130785   6.873   6.863   2.873
 9962SOL    HW230786   6.890   6.782   3.014
 9963SOL     OW30787   3.164   2.596   0.000
 9963SOL    HW130788   3.104   2.530   6.977
 9963SOL    HW230789   3.111   2.678   0.024
 9964SOL     OW30790   4.886   5.040   5.142
 9964SOL    HW130791   4.857   4.956   5.188
 9964SOL    HW230792   4.836   5.048   5.055
 9965SOL     OW30793   3.780   6.789   6.955
 9965SOL    HW130794   3.709   6.732   6.998
 9965SOL    HW230795   3.750   6.817   6.864
 9966SOL     OW30796   1.593   5.240   1.510
 9966SOL    HW130797   1.623   5.259   1.416
 9966SOL    HW230798   1.673   5.235   1.570
 9967SOL     OW30799   0.155   6.025   2.124
 9967SOL    HW130800   0.252   6.043   2.112
 9967SOL    HW230801   0.142   5.941   2.177
 9968SOL     OW30802   3.697   3.887   1.343
 9968SOL    HW130803   3.785   3.933   1.337
 9968SOL    HW230804   3.640   3.911   1.265
 9969SOL     OW30805   1.756   3.423   2.213
 9969SOL    HW130806   1.802   3.355   2.155
 9969SOL    HW230807   1.659   3.402   2.218
 9970SOL     OW30808   5.024   4.414   3.162
 9970SOL    HW130809   5.118   4.380   3.156
 9970SOL    HW230810   4.962   4.346   3.125
 9971SOL     OW30811   1.919   5.061   1.282
 9971SOL    HW130812   1.890   4.972   1.247
 9971SOL    HW230813   2.019   5.066   1.281
 9972SOL     OW30814   5.850   5.117   1.211
 9972SOL    HW130815   5.928   5.064   1.244
 9972SOL    HW230816   5.832   5.094   1.115
 9973SOL     OW30817   6.474   1.754   3.379
 9973SOL    HW130818   6.403   1.719   3.318
 9973SOL    HW230819   6.560   1.706   3.361
 9974SOL     OW30820   1.171   2.597   2.743
 9974SOL    HW130821   1.225   2.569   2.822
 9974SOL    HW230822   1.076   2.612   2.771
 9975SOL     OW30823   5.885   3.269   0.665
 9975SOL    HW130824   5.931   3.274   0.753
 9975SOL    HW230825   5.945   3.225   0.598
 9976SOL     OW30826   1.326   6.401   5.507
 9976SOL    HW130827   1.227   6.393   5.515
 9976SOL    HW230828   1.369   6.330   5.562
 9977SOL     OW30829   6.622   5.692   5.676
 9977SOL    HW130830   6.584   5.665   5.588
 9977SOL    HW230831   6.590   5.783   5.700
 9978SOL     OW30832   1.015   2.771   4.799
 9978SOL    HW130833   1.003   2.852   4.741
 9978SOL    HW230834   0.931   2.753   4.850
 9979SOL     OW30835   6.580   4.969   5.655
 9979SOL    HW130836   6.591   4.914   5.572
 9979SOL    HW230837   6.482   4.981   5.674
 9980SOL     OW30838   2.197   0.252   6.743
 9980SOL    HW130839   2.292   0.237   6.770
 9980SOL    HW230840   2.193   0.263   6.643
 9981SOL     OW30841   2.173   1.571   2.855
 9981SOL    HW130842   2.237   1.502   2.889
 9981SOL    HW230843   2.103   1.589   2.924
 9982SOL     OW30844   6.295   5.930   4.096
 9982SOL    HW130845   6.363   5.946   4.024
 9982SOL    HW230846   6.337   5.879   4.171
 9983SOL     OW30847   0.039   2.649   2.995
 9983SOL    HW130848   0.093   2.713   2.941
 9983SOL    HW230849   0.061   2.555   2.968
 9984SOL     OW30850   2.531   1.373   6.895
 9984SOL    HW130851   2.539   1.391   6.993
 9984SOL    HW230852   2.611   1.321   6.864
 9985SOL     OW30853   1.789   0.895   0.697
 9985SOL    HW130854   1.883   0.893   0.663
 9985SOL    HW230855   1.731   0.839   0.638
 9986SOL     OW30856   6.019   4.281   5.759
 9986SOL    HW130857   5.963   4.211   5.715
 9986SOL    HW230858   5.966   4.328   5.829
 9987SOL     OW30859   6.347   2.929   4.894
 9987SOL    HW130860   6.386   3.019   4.914
 9987SOL    HW230861   6.275   2.938   4.825
 9988SOL     OW30862   0.414   5.755   4.207
 9988SOL    HW130863   0.403   5.818   4.130
 9988SOL    HW230864   0.446   5.806   4.287
 9989SOL     OW30865   6.741   3.311   3.697
 9989SOL    HW130866   6.653   3.292   3.655
 9989SOL    HW230867   6.774   3.400   3.666
 9990SOL     OW30868   1.963   4.919   3.303
 9990SOL    HW130869   1.908   4.858   3.360
 9990SOL    HW230870   2.059   4.894   3.312
 9991SOL     OW30871   2.738   2.288   4.261
 9991SOL    HW130872   2.825   2.273   4.307
 9991SOL    HW230873   2.666   2.239   4.309
 9992SOL     OW30874   5.480   4.606   7.013
 9992SOL    HW130875   5.469   4.590   0.090
 9992SOL    HW230876   5.504   4.702   6.998
 9993SOL     OW30877   2.738   1.226   0.917
 9993SOL    HW130878   2.650   1.194   0.881
 9993SOL    HW230879   2.725   1.261   1.009
 9994SOL     OW30880   6.432   4.538   3.031
 9994SOL    HW130881   6.430   4.462   2.965
 9994SOL    HW230882   6.396   4.620   2.987
 9995SOL     OW30883   4.620   1.539   3.189
 9995SOL    HW130884   4.588   1.477   3.261
 9995SOL    HW230885   4.697   1.496   3.141
 9996SOL     OW30886   3.504   3.747   0.248
 9996SOL    HW130887   3.404   3.748   0.252
 9996SOL    HW230888   3.538   3.841   0.253
 9997SOL     OW30889   2.879   1.847   5.476
 9997SOL    HW130890   2.962   1.889   5.439
 9997SOL    HW230891   2.821   1.817   5.400
 9998SOL     OW30892   6.008   4.726   5.594
 9998SOL    HW130893   6.035   4.751   5.687
 9998SOL    HW230894   5.990   4.810   5.542
 9999SOL     OW30895   6.265   2.942   5.939
 9999SOL    HW130896   6.346   2.997   5.958
 9999SOL    HW230897   6.183   2.993   5.967
10000SOL     OW30898   6.660   4.259   6.738
10000SOL    HW130899   6.669   4.197   6.660
10000SOL    HW230900   6.687   4.212   6.822
10001SOL     OW30901   4.891   6.935   2.160
10001SOL    HW130902   4.899   6.841   2.129
10001SOL    HW230903   4.899   6.998   2.083
10002SOL     OW30904   1.452   6.956   1.710
10002SOL    HW130905   1.423   6.975   1.803
10002SOL    HW230906   1.413   6.869   1.680
10003SOL     OW30907   3.521   2.110   3.918
10003SOL    HW130908   3.424   2.085   3.912
10003SOL    HW230909   3.562   2.104   3.827
10004SOL     OW30910   0.357   2.955   4.767
10004SOL    HW130911   0.398   2.864   4.770
10004SOL    HW230912   0.273   2.952   4.713
10005SOL     OW30913   5.828   0.661   3.710
10005SOL    HW130914   5.756   0.684   3.775
10005SOL    HW230915   5.803   0.578   3.660
10006SOL     OW30916   4.769   6.317   4.329
10006SOL    HW130917   4.774   6.375   4.411
10006SOL    HW230918   4.788   6.222   4.355
10007SOL     OW30919   0.249   3.956   5.273
10007SOL    HW130920   0.192   3.889   5.225
10007SOL    HW230921   0.259   4.038   5.216
10008SOL     OW30922   4.086   1.169   4.999
10008SOL    HW130923   4.085   1.248   5.060
10008SOL    HW230924   4.156   1.104   5.030
10009SOL     OW30925   1.877   3.703   2.154
10009SOL    HW130926   1.944   3.674   2.086
10009SOL    HW230927   1.868   3.633   2.225
10010SOL     OW30928   2.354   0.974   6.289
10010SOL    HW130929   2.299   1.017   6.361
10010SOL    HW230930   2.446   0.956   6.324
10011SOL     OW30931   6.500   0.559   5.738
10011SOL    HW130932   6.501   0.595   5.645
10011SOL    HW230933   6.552   0.474   5.742
10012SOL     OW30934   6.185   0.550   2.825
10012SOL    HW130935   6.149   0.621   2.764
10012SOL    HW230936   6.178   0.461   2.780
10013SOL     OW30937   0.170   1.211   3.079
10013SOL    HW130938   0.180   1.114   3.055
10013SOL    HW230939   0.257   1.246   3.114
10014SOL     OW30940   0.395   4.320   6.693
10014SOL    HW130941   0.441   4.300   6.779
10014SOL    HW230942   0.449   4.285   6.617
10015SOL     OW30943   2.223   5.060   0.550
10015SOL    HW130944   2.228   4.961   0.536
10015SOL    HW230945   2.129   5.091   0.539
10016SOL     OW30946   1.393   1.526   6.273
10016SOL    HW130947   1.472   1.470   6.248
10016SOL    HW230948   1.315   1.501   6.215
10017SOL     OW30949   3.239   2.126   3.854
10017SOL    HW130950   3.251   2.184   3.773
10017SOL    HW230951   3.143   2.126   3.881
10018SOL     OW30952   5.257   0.297   6.675
10018SOL    HW130953   5.340   0.350   6.695
10018SOL    HW230954   5.199   0.295   6.756
10019SOL     OW30955   0.954   1.522   3.243
10019SOL    HW130956   0.958   1.444   3.305
10019SOL    HW230957   0.874   1.513   3.184
10020SOL     OW30958   0.964   2.672   1.652
10020SOL    HW130959   1.047   2.669   1.595
10020SOL    HW230960   0.898   2.606   1.617
10021SOL     OW30961   6.893   3.372   1.208
10021SOL    HW130962   6.799   3.339   1.214
10021SOL    HW230963   6.902   3.434   1.130
10022SOL     OW30964   2.555   1.676   5.721
10022SOL    HW130965   2.474   1.728   5.747
10022SOL    HW230966   2.619   1.674   5.799
10023SOL     OW30967   6.635   4.676   0.400
10023SOL    HW130968   6.597   4.593   0.439
10023SOL    HW230969   6.684   4.654   0.315
10024SOL     OW30970   1.339   6.011   3.778
10024SOL    HW130971   1.434   6.038   3.796
10024SOL    HW230972   1.336   5.948   3.700
10025SOL     OW30973   1.893   0.714   1.488
10025SOL    HW130974   1.963   0.717   1.417
10025SOL    HW230975   1.878   0.619   1.516
10026SOL     OW30976   5.775   0.505   3.979
10026SOL    HW130977   5.855   0.523   3.921
10026SOL    HW230978   5.709   0.578   3.967
10027SOL     OW30979   5.502   3.053   4.358
10027SOL    HW130980   5.430   3.118   4.333
10027SOL    HW230981   5.469   2.960   4.344
10028SOL     OW30982   1.047   0.744   1.148
10028SOL    HW130983   0.991   0.668   1.116
10028SOL    HW230984   1.043   0.819   1.083
10029SOL     OW30985   5.461   2.057   3.304
10029SOL    HW130986   5.372   2.095   3.281
10029SOL    HW230987   5.498   2.105   3.384
10030SOL     OW30988   2.171   0.834   3.424
10030SOL    HW130989   2.073   0.832   3.403
10030SOL    HW230990   2.220   0.773   3.361
10031SOL     OW30991   5.459   4.957   3.719
10031SOL    HW130992   5.525   4.884   3.700
10031SOL    HW230993   5.371   4.934   3.677
10032SOL     OW30994   2.497   1.647   5.029
10032SOL    HW130995   2.441   1.725   5.058
10032SOL    HW230996   2.476   1.569   5.087
10033SOL     OW30997   6.295   3.249   4.313
10033SOL    HW130998   6.228   3.310   4.271
10033SOL    HW230999   6.385   3.291   4.309
10034SOL     OW31000   3.565   0.691   4.575
10034SOL    HW131001   3.591   0.595   4.563
10034SOL    HW231002   3.483   0.711   4.521
10035SOL     OW31003   6.849   5.166   1.812
10035SOL    HW131004   6.844   5.199   1.718
10035SOL    HW231005   6.851   5.244   1.875
10036SOL     OW31006   6.248   2.155   0.449
10036SOL    HW131007   6.158   2.196   0.433
10036SOL    HW231008   6.319   2.217   0.414
10037SOL     OW31009   6.515   1.313   6.145
10037SOL    HW131010   6.421   1.279   6.154
10037SOL    HW231011   6.512   1.409   6.115
10038SOL     OW31012   6.285   0.081   0.846
10038SOL    HW131013   6.294   0.131   0.932
10038SOL    HW231014   6.288   7.004   0.864
10039SOL     OW31015   3.268   6.914   3.579
10039SOL    HW131016   3.233   6.944   3.490
10039SOL    HW231017   3.191   6.894   3.640
10040SOL     OW31018   6.089   3.905   0.130
10040SOL    HW131019   6.142   3.820   0.120
10040SOL    HW231020   6.025   3.913   0.054
10041SOL     OW31021   3.161   6.595   0.076
10041SOL    HW131022   3.172   6.593   6.997
10041SOL    HW231023   3.246   6.565   0.119
10042SOL     OW31024   6.908   2.238   3.338
10042SOL    HW131025   6.824   2.233   3.285
10042SOL    HW231026   6.895   2.194   3.427
10043SOL     OW31027   6.658   1.802   5.749
10043SOL    HW131028   6.699   1.843   5.668
10043SOL    HW231029   6.647   1.704   5.735
10044SOL     OW31030   2.690   3.219   5.794
10044SOL    HW131031   2.642   3.209   5.881
10044SOL    HW231032   2.624   3.228   5.719
10045SOL     OW31033   4.550   0.614   1.043
10045SOL    HW131034   4.516   0.573   1.128
10045SOL    HW231035   4.498   0.697   1.022
10046SOL     OW31036   1.098   4.522   1.436
10046SOL    HW131037   1.147   4.440   1.467
10046SOL    HW231038   1.043   4.558   1.511
10047SOL     OW31039   0.790   3.381   5.836
10047SOL    HW131040   0.841   3.373   5.750
10047SOL    HW231041   0.849   3.359   5.913
10048SOL     OW31042   6.866   6.440   2.665
10048SOL    HW131043   6.944   6.379   2.675
10048SOL    HW231044   6.837   6.472   2.756
10049SOL     OW31045   0.286   2.927   6.025
10049SOL    HW131046   0.245   2.855   6.082
10049SOL    HW231047   0.230   2.941   5.944
10050SOL     OW31048   4.989   3.524   5.198
10050SOL    HW131049   4.909   3.557   5.148
10050SOL    HW231050   5.066   3.514   5.134
10051SOL     OW31051   1.013   4.287   4.619
10051SOL    HW131052   0.986   4.310   4.526
10051SOL    HW231053   1.105   4.246   4.619
10052SOL     OW31054   0.768   0.958   3.369
10052SOL    HW131055   0.857   0.928   3.406
10052SOL    HW231056   0.760   0.927   3.274
10053SOL     OW31057   5.053   5.264   4.542
10053SOL    HW131058   5.051   5.217   4.453
10053SOL    HW231059   4.984   5.336   4.543
10054SOL     OW31060   5.484   4.047   4.837
10054SOL    HW131061   5.504   4.086   4.747
10054SOL    HW231062   5.458   3.951   4.827
10055SOL     OW31063   6.603   2.287   6.510
10055SOL    HW131064   6.577   2.294   6.414
10055SOL    HW231065   6.701   2.302   6.520
10056SOL     OW31066   5.320   3.472   3.348
10056SOL    HW131067   5.374   3.398   3.387
10056SOL    HW231068   5.223   3.455   3.365
10057SOL     OW31069   5.141   4.561   6.255
10057SOL    HW131070   5.201   4.630   6.295
10057SOL    HW231071   5.052   4.603   6.235
10058SOL     OW31072   6.155   2.738   4.900
10058SOL    HW131073   6.090   2.732   4.823
10058SOL    HW231074   6.235   2.791   4.872
10059SOL     OW31075   6.944   1.481   6.959
10059SOL    HW131076   6.990   1.396   6.935
10059SOL    HW231077   7.012   1.552   6.978
10060SOL     OW31078   2.313   1.734   2.720
10060SOL    HW131079   2.258   1.790   2.658
10060SOL    HW231080   2.253   1.671   2.769
10061SOL     OW31081   3.832   0.972   3.526
10061SOL    HW131082   3.882   0.902   3.476
10061SOL    HW231083   3.896   1.024   3.583
10062SOL     OW31084   0.773   0.292   4.128
10062SOL    HW131085   0.794   0.389   4.138
10062SOL    HW231086   0.676   0.276   4.148
10063SOL     OW31087   1.591   2.879   5.074
10063SOL    HW131088   1.515   2.918   5.126
10063SOL    HW231089   1.555   2.824   4.999
10064SOL     OW31090   3.068   6.410   0.617
10064SOL    HW131091   2.983   6.365   0.589
10064SOL    HW231092   3.048   6.484   0.681
10065SOL     OW31093   0.782   1.079   1.875
10065SOL    HW131094   0.717   1.099   1.949
10065SOL    HW231095   0.816   0.985   1.885
10066SOL     OW31096   7.013   3.416   4.865
10066SOL    HW131097   0.008   3.379   4.774
10066SOL    HW231098   6.944   3.489   4.859
10067SOL     OW31099   0.161   2.448   5.473
10067SOL    HW131100   0.220   2.479   5.398
10067SOL    HW231101   0.112   2.526   5.511
10068SOL     OW31102   2.508   2.452   2.812
10068SOL    HW131103   2.466   2.520   2.872
10068SOL    HW231104   2.445   2.430   2.738
10069SOL     OW31105   3.424   5.511   1.446
10069SOL    HW131106   3.414   5.585   1.380
10069SOL    HW231107   3.462   5.431   1.400
10070SOL     OW31108   3.527   5.948   4.856
10070SOL    HW131109   3.495   6.041   4.873
10070SOL    HW231110   3.573   5.944   4.768
10071SOL     OW31111   6.709   0.002   3.308
10071SOL    HW131112   6.634   7.002   3.245
10071SOL    HW231113   6.743   6.939   3.349
10072SOL     OW31114   6.663   1.740   2.428
10072SOL    HW131115   6.665   1.802   2.349
10072SOL    HW231116   6.735   1.672   2.419
10073SOL     OW31117   6.080   3.468   4.727
10073SOL    HW131118   6.095   3.400   4.655
10073SOL    HW231119   6.158   3.470   4.789
10074SOL     OW31120   1.505   4.655   0.545
10074SOL    HW131121   1.540   4.589   0.479
10074SOL    HW231122   1.445   4.609   0.610
10075SOL     OW31123   1.676   2.979   2.096
10075SOL    HW131124   1.600   3.043   2.089
10075SOL    HW231125   1.675   2.917   2.017
10076SOL     OW31126   5.609   5.426   3.339
10076SOL    HW131127   5.707   5.447   3.335
10076SOL    HW231128   5.588   5.383   3.427
10077SOL     OW31129   6.476   3.223   6.918
10077SOL    HW131130   6.403   3.288   6.896
10077SOL    HW231131   6.441   3.130   6.907
10078SOL     OW31132   0.368   6.482   4.865
10078SOL    HW131133   0.304   6.430   4.921
10078SOL    HW231134   0.458   6.438   4.865
10079SOL     OW31135   4.572   2.556   3.111
10079SOL    HW131136   4.481   2.528   3.081
10079SOL    HW231137   4.639   2.484   3.088
10080SOL     OW31138   5.520   0.437   5.986
10080SOL    HW131139   5.580   0.506   6.028
10080SOL    HW231140   5.521   0.354   6.041
10081SOL     OW31141   1.672   2.480   0.374
10081SOL    HW131142   1.635   2.538   0.446
10081SOL    HW231143   1.719   2.402   0.414
10082SOL     OW31144   1.336   4.461   2.202
10082SOL    HW131145   1.351   4.457   2.301
10082SOL    HW231146   1.328   4.556   2.173
10083SOL     OW31147   4.185   5.205   3.677
10083SOL    HW131148   4.158   5.233   3.769
10083SOL    HW231149   4.237   5.279   3.634
10084SOL     OW31150   1.193   0.415   5.105
10084SOL    HW131151   1.124   0.445   5.039
10084SOL    HW231152   1.164   0.329   5.146
10085SOL     OW31153   4.319   7.005   0.307
10085SOL    HW131154   4.404   6.953   0.315
10085SOL    HW231155   4.243   6.944   0.286
10086SOL     OW31156   6.863   6.120   1.489
10086SOL    HW131157   6.848   6.172   1.405
10086SOL    HW231158   6.778   6.115   1.541
10087SOL     OW31159   1.618   6.616   4.778
10087SOL    HW131160   1.695   6.658   4.825
10087SOL    HW231161   1.573   6.685   4.720
10088SOL     OW31162   6.978   2.975   0.318
10088SOL    HW131163   0.005   2.989   0.231
10088SOL    HW231164   7.004   3.046   0.383
10089SOL     OW31165   3.858   1.749   2.424
10089SOL    HW131166   3.918   1.828   2.435
10089SOL    HW231167   3.781   1.756   2.487
10090SOL     OW31168   1.644   6.108   1.357
10090SOL    HW131169   1.656   6.191   1.303
10090SOL    HW231170   1.601   6.131   1.444
10091SOL     OW31171   6.315   4.446   6.064
10091SOL    HW131172   6.366   4.361   6.049
10091SOL    HW231173   6.217   4.427   6.058
10092SOL     OW31174   0.329   2.211   5.162
10092SOL    HW131175   0.290   2.200   5.253
10092SOL    HW231176   0.270   2.272   5.108
10093SOL     OW31177   5.334   4.609   6.015
10093SOL    HW131178   5.370   4.560   6.095
10093SOL    HW231179   5.234   4.607   6.018
10094SOL     OW31180   3.098   0.973   1.239
10094SOL    HW131181   3.043   0.998   1.159
10094SOL    HW231182   3.147   0.888   1.221
10095SOL     OW31183   4.905   2.661   5.086
10095SOL    HW131184   4.856   2.670   4.999
10095SOL    HW231185   4.840   2.638   5.159
10096SOL     OW31186   4.957   1.168   2.960
10096SOL    HW131187   4.917   1.224   3.033
10096SOL    HW231188   5.051   1.197   2.943
10097SOL     OW31189   1.171   1.545   6.995
10097SOL    HW131190   1.256   1.578   6.954
10097SOL    HW231191   1.102   1.617   6.989
10098SOL     OW31192   3.696   5.126   3.865
10098SOL    HW131193   3.688   5.095   3.960
10098SOL    HW231194   3.745   5.213   3.862
10099SOL     OW31195   0.105   4.699   1.490
10099SOL    HW131196   0.027   4.743   1.535
10099SOL    HW231197   0.083   4.605   1.468
10100SOL     OW31198   4.753   5.439   4.549
10100SOL    HW131199   4.750   5.458   4.647
10100SOL    HW231200   4.661   5.424   4.514
10101SOL     OW31201   1.245   2.173   1.500
10101SOL    HW131202   1.291   2.148   1.585
10101SOL    HW231203   1.297   2.245   1.454
10102SOL     OW31204   6.319   6.501   1.287
10102SOL    HW131205   6.261   6.501   1.368
10102SOL    HW231206   6.397   6.562   1.302
10103SOL     OW31207   6.962   6.353   5.869
10103SOL    HW131208   6.962   6.327   5.966
10103SOL    HW231209   6.890   6.420   5.852
10104SOL     OW31210   2.344   0.376   4.730
10104SOL    HW131211   2.391   0.292   4.755
10104SOL    HW231212   2.251   0.374   4.766
10105SOL     OW31213   2.304   0.689   6.405
10105SOL    HW131214   2.398   0.694   6.372
10105SOL    HW231215   2.297   0.737   6.493
10106SOL     OW31216   4.940   5.795   1.315
10106SOL    HW131217   4.924   5.801   1.414
10106SOL    HW231218   4.904   5.878   1.271
10107SOL     OW31219   4.651   4.411   6.742
10107SOL    HW131220   4.622   4.398   6.836
10107SOL    HW231221   4.732   4.356   6.724
10108SOL     OW31222   1.920   2.672   0.236
10108SOL    HW131223   1.868   2.669   0.321
10108SOL    HW231224   1.964   2.583   0.221
10109SOL     OW31225   1.189   2.040   1.079
10109SOL    HW131226   1.233   1.953   1.098
10109SOL    HW231227   1.108   2.026   1.022
10110SOL     OW31228   4.832   6.162   2.866
10110SOL    HW131229   4.816   6.238   2.930
10110SOL    HW231230   4.851   6.200   2.775
10111SOL     OW31231   1.199   1.168   2.097
10111SOL    HW131232   1.171   1.255   2.057
10111SOL    HW231233   1.297   1.155   2.083
10112SOL     OW31234   6.606   2.213   3.745
10112SOL    HW131235   6.598   2.289   3.810
10112SOL    HW231236   6.569   2.130   3.786
10113SOL     OW31237   5.794   1.006   6.771
10113SOL    HW131238   5.769   0.984   6.866
10113SOL    HW231239   5.754   0.937   6.711
10114SOL     OW31240   4.496   1.901   2.422
10114SOL    HW131241   4.489   1.812   2.468
10114SOL    HW231242   4.558   1.960   2.473
10115SOL     OW31243   3.386   2.589   5.678
10115SOL    HW131244   3.351   2.496   5.669
10115SOL    HW231245   3.311   2.651   5.698
10116SOL     OW31246   6.188   0.166   4.962
10116SOL    HW131247   6.252   0.118   4.903
10116SOL    HW231248   6.121   0.215   4.906
10117SOL     OW31249   6.506   4.620   3.885
10117SOL    HW131250   6.459   4.621   3.796
10117SOL    HW231251   6.604   4.612   3.870
10118SOL     OW31252   3.353   5.243   4.306
10118SOL    HW131253   3.266   5.232   4.258
10118SOL    HW231254   3.410   5.163   4.291
10119SOL     OW31255   0.414   4.882   4.991
10119SOL    HW131256   0.388   4.874   5.087
10119SOL    HW231257   0.492   4.945   4.984
10120SOL     OW31258   2.185   2.734   2.160
10120SOL    HW131259   2.270   2.745   2.109
10120SOL    HW231260   2.194   2.773   2.251
10121SOL     OW31261   6.245   4.039   0.610
10121SOL    HW131262   6.282   3.978   0.679
10121SOL    HW231263   6.202   3.986   0.537
10122SOL     OW31264   1.489   0.465   3.511
10122SOL    HW131265   1.420   0.518   3.562
10122SOL    HW231266   1.569   0.451   3.568
10123SOL     OW31267   5.619   5.894   6.961
10123SOL    HW131268   5.589   5.799   6.974
10123SOL    HW231269   5.554   5.941   6.902
10124SOL     OW31270   1.391   4.475   2.852
10124SOL    HW131271   1.448   4.555   2.833
10124SOL    HW231272   1.302   4.505   2.886
10125SOL     OW31273   1.139   1.451   6.141
10125SOL    HW131274   1.069   1.497   6.194
10125SOL    HW231275   1.128   1.352   6.148
10126SOL     OW31276   6.469   6.718   6.554
10126SOL    HW131277   6.496   6.765   6.470
10126SOL    HW231278   6.545   6.661   6.586
10127SOL     OW31279   2.170   5.534   6.080
10127SOL    HW131280   2.212   5.623   6.061
10127SOL    HW231281   2.182   5.511   6.176
10128SOL     OW31282   2.766   0.930   6.647
10128SOL    HW131283   2.742   0.913   6.551
10128SOL    HW231284   2.715   1.009   6.681
10129SOL     OW31285   6.156   1.605   3.954
10129SOL    HW131286   6.057   1.597   3.954
10129SOL    HW231287   6.197   1.516   3.975
10130SOL     OW31288   1.634   1.974   2.656
10130SOL    HW131289   1.604   1.994   2.750
10130SOL    HW231290   1.604   2.047   2.595
10131SOL     OW31291   2.009   0.522   4.614
10131SOL    HW131292   1.928   0.576   4.591
10131SOL    HW231293   2.036   0.539   4.709
10132SOL     OW31294   6.709   0.739   1.639
10132SOL    HW131295   6.667   0.722   1.728
10132SOL    HW231296   6.743   0.833   1.637
10133SOL     OW31297   5.360   0.050   0.350
10133SOL    HW131298   5.438   0.099   0.312
10133SOL    HW231299   5.353   0.070   0.448
10134SOL     OW31300   6.198   0.468   1.953
10134SOL    HW131301   6.172   0.525   1.875
10134SOL    HW231302   6.276   0.412   1.929
10135SOL     OW31303   6.314   0.040   2.775
10135SOL    HW131304   6.267   6.995   2.716
10135SOL    HW231305   6.411   0.045   2.748
10136SOL     OW31306   5.541   1.912   2.868
10136SOL    HW131307   5.565   1.838   2.930
10136SOL    HW231308   5.538   1.877   2.774
10137SOL     OW31309   6.356   5.464   5.757
10137SOL    HW131310   6.411   5.513   5.824
10137SOL    HW231311   6.389   5.370   5.749
10138SOL     OW31312   6.988   1.860   0.378
10138SOL    HW131313   6.897   1.850   0.338
10138SOL    HW231314   6.989   1.939   0.439
10139SOL     OW31315   3.483   2.993   6.323
10139SOL    HW131316   3.423   2.974   6.245
10139SOL    HW231317   3.438   2.964   6.407
10140SOL     OW31318   6.915   5.895   5.768
10140SOL    HW131319   7.014   5.911   5.778
10140SOL    HW231320   6.889   5.817   5.824
10141SOL     OW31321   2.386   2.429   4.663
10141SOL    HW131322   2.286   2.429   4.667
10141SOL    HW231323   2.421   2.521   4.677
10142SOL     OW31324   5.196   6.034   4.687
10142SOL    HW131325   5.138   5.971   4.739
10142SOL    HW231326   5.259   6.080   4.750
10143SOL     OW31327   5.179   3.828   6.742
10143SOL    HW131328   5.253   3.876   6.696
10143SOL    HW231329   5.191   3.730   6.733
10144SOL     OW31330   3.800   6.326   5.847
10144SOL    HW131331   3.782   6.375   5.762
10144SOL    HW231332   3.720   6.331   5.906
10145SOL     OW31333   5.831   5.825   6.769
10145SOL    HW131334   5.885   5.785   6.843
10145SOL    HW231335   5.757   5.880   6.807
10146SOL     OW31336   0.427   2.420   4.429
10146SOL    HW131337   0.348   2.359   4.438
10146SOL    HW231338   0.456   2.451   4.519
10147SOL     OW31339   5.092   5.160   5.780
10147SOL    HW131340   5.064   5.104   5.703
10147SOL    HW231341   5.172   5.118   5.824
10148SOL     OW31342   1.262   4.678   0.380
10148SOL    HW131343   1.257   4.737   0.299
10148SOL    HW231344   1.321   4.600   0.360
10149SOL     OW31345   3.756   4.542   6.795
10149SOL    HW131346   3.758   4.578   6.889
10149SOL    HW231347   3.796   4.608   6.733
10150SOL     OW31348   4.205   4.744   6.887
10150SOL    HW131349   4.122   4.799   6.877
10150SOL    HW231350   4.258   4.776   6.965
10151SOL     OW31351   5.558   7.005   5.439
10151SOL    HW131352   5.528   6.938   5.506
10151SOL    HW231353   5.480   0.009   5.381
10152SOL     OW31354   5.135   6.391   2.730
10152SOL    HW131355   5.145   6.310   2.788
10152SOL    HW231356   5.128   6.472   2.788
10153SOL     OW31357   4.597   4.320   3.449
10153SOL    HW131358   4.568   4.325   3.545
10153SOL    HW231359   4.526   4.358   3.391
10154SOL     OW31360   5.409   5.414   5.612
10154SOL    HW131361   5.422   5.446   5.518
10154SOL    HW231362   5.409   5.314   5.614
10155SOL     OW31363   4.159   1.336   4.784
10155SOL    HW131364   4.124   1.266   4.847
10155SOL    HW231365   4.185   1.418   4.837
10156SOL     OW31366   5.231   2.294   6.480
10156SOL    HW131367   5.262   2.344   6.399
10156SOL    HW231368   5.266   2.340   6.562
10157SOL     OW31369   0.506   2.589   0.617
10157SOL    HW131370   0.427   2.530   0.627
10157SOL    HW231371   0.499   2.639   0.530
10158SOL     OW31372   5.619   5.327   0.939
10158SOL    HW131373   5.606   5.254   1.005
10158SOL    HW231374   5.534   5.342   0.888
10159SOL     OW31375   3.693   3.464   2.959
10159SOL    HW131376   3.787   3.498   2.951
10159SOL    HW231377   3.631   3.526   2.910
10160SOL     OW31378   1.046   5.223   3.118
10160SOL    HW131379   0.974   5.275   3.165
10160SOL    HW231380   1.131   5.229   3.170
10161SOL     OW31381   5.105   3.325   5.561
10161SOL    HW131382   5.034   3.346   5.627
10161SOL    HW231383   5.195   3.346   5.600
10162SOL     OW31384   1.446   2.881   2.909
10162SOL    HW131385   1.496   2.962   2.878
10162SOL    HW231386   1.348   2.898   2.903
10163SOL     OW31387   1.501   5.725   5.161
10163SOL    HW131388   1.593   5.719   5.200
10163SOL    HW231389   1.436   5.683   5.223
10164SOL     OW31390   1.238   2.359   3.408
10164SOL    HW131391   1.222   2.395   3.317
10164SOL    HW231392   1.329   2.317   3.412
10165SOL     OW31393   0.272   3.631   4.726
10165SOL    HW131394   0.332   3.570   4.674
10165SOL    HW231395   0.268   3.601   4.821
10166SOL     OW31396   1.982   0.832   1.196
10166SOL    HW131397   2.009   0.920   1.233
10166SOL    HW231398   2.060   0.791   1.148
10167SOL     OW31399   2.134   0.008   6.683
10167SOL    HW131400   2.082   0.035   6.602
10167SOL    HW231401   2.150   0.088   6.740
10168SOL     OW31402   6.828   1.233   0.674
10168SOL    HW131403   6.911   1.227   0.729
10168SOL    HW231404   6.799   1.141   0.648
10169SOL     OW31405   6.248   2.639   3.661
10169SOL    HW131406   6.274   2.543   3.669
10169SOL    HW231407   6.242   2.680   3.752
10170SOL     OW31408   5.804   5.887   6.245
10170SOL    HW131409   5.759   5.855   6.329
10170SOL    HW231410   5.888   5.835   6.231
10171SOL     OW31411   2.483   3.823   6.070
10171SOL    HW131412   2.569   3.794   6.029
10171SOL    HW231413   2.422   3.858   5.998
10172SOL     OW31414   6.165   6.853   2.666
10172SOL    HW131415   6.148   6.822   2.759
10172SOL    HW231416   6.210   6.781   2.614
10173SOL     OW31417   3.151   4.434   5.305
10173SOL    HW131418   3.216   4.501   5.340
10173SOL    HW231419   3.077   4.482   5.257
10174SOL     OW31420   4.453   5.770   2.945
10174SOL    HW131421   4.551   5.753   2.931
10174SOL    HW231422   4.423   5.843   2.883
10175SOL     OW31423   0.091   1.316   3.708
10175SOL    HW131424   0.127   1.258   3.781
10175SOL    HW231425   0.099   1.267   3.621
10176SOL     OW31426   5.884   1.914   6.030
10176SOL    HW131427   5.894   1.999   6.083
10176SOL    HW231428   5.870   1.937   5.933
10177SOL     OW31429   2.339   0.475   2.852
10177SOL    HW131430   2.248   0.438   2.871
10177SOL    HW231431   2.348   0.495   2.754
10178SOL     OW31432   1.793   2.030   0.709
10178SOL    HW131433   1.876   2.085   0.709
10178SOL    HW231434   1.794   1.968   0.630
10179SOL     OW31435   0.891   4.418   1.129
10179SOL    HW131436   0.815   4.357   1.105
10179SOL    HW231437   0.884   4.444   1.226
10180SOL     OW31438   3.981   0.196   6.196
10180SOL    HW131439   4.063   0.233   6.241
10180SOL    HW231440   4.009   0.134   6.123
10181SOL     OW31441   0.077   3.448   1.662
10181SOL    HW131442   0.170   3.432   1.627
10181SOL    HW231443   0.025   3.501   1.595
10182SOL     OW31444   5.736   2.328   0.088
10182SOL    HW131445   5.834   2.312   0.101
10182SOL    HW231446   5.718   2.347   7.013
10183SOL     OW31447   5.989   2.434   6.739
10183SOL    HW131448   6.039   2.471   6.817
10183SOL    HW231449   6.005   2.335   6.733
10184SOL     OW31450   5.747   3.535   6.147
10184SOL    HW131451   5.671   3.597   6.168
10184SOL    HW231452   5.718   3.468   6.079
10185SOL     OW31453   3.751   5.558   2.144
10185SOL    HW131454   3.742   5.658   2.143
10185SOL    HW231455   3.767   5.525   2.051
10186SOL     OW31456   3.821   3.310   5.871
10186SOL    HW131457   3.827   3.264   5.960
10186SOL    HW231458   3.743   3.372   5.871
10187SOL     OW31459   1.687   5.689   6.189
10187SOL    HW131460   1.616   5.717   6.253
10187SOL    HW231461   1.730   5.771   6.149
10188SOL     OW31462   2.937   0.450   6.522
10188SOL    HW131463   3.029   0.415   6.504
10188SOL    HW231464   2.922   0.458   6.620
10189SOL     OW31465   0.993   1.994   6.550
10189SOL    HW131466   0.946   1.991   6.462
10189SOL    HW231467   1.075   2.050   6.542
10190SOL     OW31468   2.904   5.442   2.056
10190SOL    HW131469   2.851   5.489   1.986
10190SOL    HW231470   2.846   5.419   2.134
10191SOL     OW31471   5.794   5.378   6.983
10191SOL    HW131472   5.862   5.381   0.035
10191SOL    HW231473   5.704   5.398   0.001
10192SOL     OW31474   1.969   1.672   4.653
10192SOL    HW131475   1.988   1.769   4.637
10192SOL    HW231476   1.908   1.637   4.582
10193SOL     OW31477   3.447   3.876   3.676
10193SOL    HW131478   3.542   3.901   3.694
10193SOL    HW231479   3.387   3.929   3.737
10194SOL     OW31480   3.506   0.198   3.201
10194SOL    HW131481   3.463   0.202   3.111
10194SOL    HW231482   3.597   0.238   3.197
10195SOL     OW31483   3.816   6.341   1.637
10195SOL    HW131484   3.780   6.346   1.544
10195SOL    HW231485   3.752   6.383   1.700
10196SOL     OW31486   6.303   2.003   3.447
10196SOL    HW131487   6.351   1.916   3.457
10196SOL    HW231488   6.349   2.059   3.378
10197SOL     OW31489   5.711   0.339   1.993
10197SOL    HW131490   5.780   0.290   2.046
10197SOL    HW231491   5.715   0.309   1.898
10198SOL     OW31492   2.814   6.957   1.014
10198SOL    HW131493   2.827   6.874   0.960
10198SOL    HW231494   2.735   6.946   1.074
10199SOL     OW31495   0.929   1.012   0.286
10199SOL    HW131496   1.018   1.054   0.272
10199SOL    HW231497   0.856   1.076   0.260
10200SOL     OW31498   5.054   4.617   4.827
10200SOL    HW131499   5.137   4.648   4.780
10200SOL    HW231500   5.008   4.549   4.771
10201SOL     OW31501   1.463   4.780   2.192
10201SOL    HW131502   1.462   4.727   2.277
10201SOL    HW231503   1.439   4.720   2.115
10202SOL     OW31504   1.261   3.379   2.479
10202SOL    HW131505   1.183   3.411   2.425
10202SOL    HW231506   1.239   3.292   2.521
10203SOL     OW31507   2.215   2.849   2.393
10203SOL    HW131508   2.271   2.801   2.462
10203SOL    HW231509   2.178   2.932   2.433
10204SOL     OW31510   3.131   4.747   5.259
10204SOL    HW131511   3.087   4.828   5.297
10204SOL    HW231512   3.061   4.683   5.226
10205SOL     OW31513   5.018   2.314   3.155
10205SOL    HW131514   4.950   2.363   3.210
10205SOL    HW231515   5.007   2.340   3.059
10206SOL     OW31516   5.431   6.730   6.007
10206SOL    HW131517   5.504   6.746   5.941
10206SOL    HW231518   5.471   6.695   6.093
10207SOL     OW31519   3.792   0.864   2.626
10207SOL    HW131520   3.812   0.962   2.634
10207SOL    HW231521   3.872   0.811   2.654
10208SOL     OW31522   6.407   4.228   5.509
10208SOL    HW131523   6.459   4.166   5.451
10208SOL    HW231524   6.355   4.292   5.452
10209SOL     OW31525   6.237   6.783   6.263
10209SOL    HW131526   6.301   6.859   6.258
10209SOL    HW231527   6.288   6.697   6.270
10210SOL     OW31528   4.926   6.034   2.256
10210SOL    HW131529   5.017   6.066   2.282
10210SOL    HW231530   4.857   6.084   2.308
10211SOL     OW31531   3.973   5.871   4.663
10211SOL    HW131532   3.932   5.953   4.625
10211SOL    HW231533   4.059   5.894   4.708
10212SOL     OW31534   0.229   1.034   4.758
10212SOL    HW131535   0.266   0.948   4.723
10212SOL    HW231536   0.210   1.024   4.856
10213SOL     OW31537   6.577   1.495   3.011
10213SOL    HW131538   6.562   1.592   3.026
10213SOL    HW231539   6.499   1.456   2.962
10214SOL     OW31540   6.773   1.013   1.675
10214SOL    HW131541   6.827   1.010   1.760
10214SOL    HW231542   6.683   1.051   1.695
10215SOL     OW31543   3.751   4.135   6.532
10215SOL    HW131544   3.742   4.036   6.539
10215SOL    HW231545   3.820   4.168   6.597
10216SOL     OW31546   5.132   0.752   1.547
10216SOL    HW131547   5.099   0.725   1.638
10216SOL    HW231548   5.056   0.750   1.482
10217SOL     OW31549   2.177   1.899   4.875
10217SOL    HW131550   2.236   1.877   4.953
10217SOL    HW231551   2.226   1.962   4.814
10218SOL     OW31552   2.119   1.224   0.936
10218SOL    HW131553   2.071   1.268   1.012
10218SOL    HW231554   2.053   1.189   0.870
10219SOL     OW31555   0.982   3.135   1.612
10219SOL    HW131556   1.043   3.170   1.683
10219SOL    HW231557   1.035   3.086   1.544
10220SOL     OW31558   4.632   2.109   1.026
10220SOL    HW131559   4.596   2.197   1.059
10220SOL    HW231560   4.642   2.113   0.927
10221SOL     OW31561   3.120   0.263   5.116
10221SOL    HW131562   3.033   0.296   5.079
10221SOL    HW231563   3.153   0.326   5.187
10222SOL     OW31564   1.913   5.000   5.647
10222SOL    HW131565   1.903   4.924   5.712
10222SOL    HW231566   1.864   5.080   5.681
10223SOL     OW31567   1.356   4.444   0.297
10223SOL    HW131568   1.408   4.362   0.319
10223SOL    HW231569   1.315   4.435   0.206
10224SOL     OW31570   1.258   0.279   4.218
10224SOL    HW131571   1.189   0.303   4.287
10224SOL    HW231572   1.325   0.353   4.211
10225SOL     OW31573   6.641   5.462   4.765
10225SOL    HW131574   6.592   5.375   4.756
10225SOL    HW231575   6.737   5.443   4.786
10226SOL     OW31576   1.922   1.181   0.031
10226SOL    HW131577   1.895   1.088   0.005
10226SOL    HW231578   2.021   1.191   0.020
10227SOL     OW31579   4.917   5.168   6.858
10227SOL    HW131580   4.957   5.207   6.941
10227SOL    HW231581   4.848   5.101   6.882
10228SOL     OW31582   1.138   5.617   3.227
10228SOL    HW131583   1.076   5.672   3.170
10228SOL    HW231584   1.086   5.546   3.274
10229SOL     OW31585   1.016   0.226   2.980
10229SOL    HW131586   1.012   0.172   2.896
10229SOL    HW231587   1.051   0.317   2.959
10230SOL     OW31588   6.625   0.631   3.546
10230SOL    HW131589   6.574   0.712   3.574
10230SOL    HW231590   6.611   0.558   3.614
10231SOL     OW31591   5.603   0.085   5.124
10231SOL    HW131592   5.682   0.082   5.063
10231SOL    HW231593   5.635   0.091   5.219
10232SOL     OW31594   3.397   2.123   4.952
10232SOL    HW131595   3.477   2.119   5.013
10232SOL    HW231596   3.331   2.188   4.990
10233SOL     OW31597   4.657   1.632   5.555
10233SOL    HW131598   4.738   1.575   5.574
10233SOL    HW231599   4.653   1.706   5.622
10234SOL     OW31600   5.523   0.001   1.821
10234SOL    HW131601   5.512   7.012   1.722
10234SOL    HW231602   5.464   6.956   1.868
10235SOL     OW31603   5.427   1.440   6.882
10235SOL    HW131604   5.524   1.442   6.906
10235SOL    HW231605   5.410   1.363   6.819
10236SOL     OW31606   2.060   5.735   1.799
10236SOL    HW131607   2.048   5.692   1.709
10236SOL    HW231608   2.023   5.675   1.869
10237SOL     OW31609   6.180   3.460   2.401
10237SOL    HW131610   6.118   3.514   2.459
10237SOL    HW231611   6.133   3.377   2.371
10238SOL     OW31612   4.567   4.821   4.714
10238SOL    HW131613   4.506   4.876   4.772
10238SOL    HW231614   4.531   4.728   4.708
10239SOL     OW31615   0.123   3.992   4.021
10239SOL    HW131616   0.082   4.010   4.111
10239SOL    HW231617   0.185   4.066   3.998
10240SOL     OW31618   0.976   3.580   3.637
10240SOL    HW131619   0.947   3.489   3.607
10240SOL    HW231620   1.047   3.572   3.706
10241SOL     OW31621   1.115   1.790   2.160
10241SOL    HW131622   1.172   1.715   2.128
10241SOL    HW231623   1.068   1.832   2.082
10242SOL     OW31624   0.111   0.918   6.265
10242SOL    HW131625   0.145   0.941   6.356
10242SOL    HW231626   0.117   0.820   6.250
10243SOL     OW31627   0.851   5.526   1.897
10243SOL    HW131628   0.940   5.564   1.921
10243SOL    HW231629   0.822   5.560   1.807
10244SOL     OW31630   1.925   5.783   6.454
10244SOL    HW131631   1.901   5.880   6.450
10244SOL    HW231632   2.018   5.770   6.422
10245SOL     OW31633   2.227   2.652   6.094
10245SOL    HW131634   2.285   2.580   6.055
10245SOL    HW231635   2.217   2.726   6.028
10246SOL     OW31636   3.116   4.157   5.164
10246SOL    HW131637   3.199   4.120   5.123
10246SOL    HW231638   3.122   4.257   5.169
10247SOL     OW31639   6.931   5.170   5.899
10247SOL    HW131640   6.998   5.237   5.931
10247SOL    HW231641   6.979   5.095   5.853
10248SOL     OW31642   2.661   7.012   1.969
10248SOL    HW131643   2.678   6.916   1.947
10248SOL    HW231644   2.571   7.021   2.011
10249SOL     OW31645   4.895   1.555   5.622
10249SOL    HW131646   4.953   1.631   5.651
10249SOL    HW231647   4.951   1.474   5.604
10250SOL     OW31648   6.187   1.282   0.596
10250SOL    HW131649   6.253   1.316   0.664
10250SOL    HW231650   6.187   1.343   0.517
10251SOL     OW31651   2.489   3.401   6.876
10251SOL    HW131652   2.398   3.364   6.893
10251SOL    HW231653   2.530   3.430   6.963
10252SOL     OW31654   5.942   6.126   1.024
10252SOL    HW131655   6.017   6.111   0.959
10252SOL    HW231656   5.980   6.147   1.114
10253SOL     OW31657   4.749   4.959   6.877
10253SOL    HW131658   4.650   4.958   6.862
10253SOL    HW231659   4.786   4.868   6.857
10254SOL     OW31660   2.279   1.811   5.128
10254SOL    HW131661   2.249   1.726   5.171
10254SOL    HW231662   2.246   1.889   5.182
10255SOL     OW31663   2.440   5.727   2.578
10255SOL    HW131664   2.493   5.784   2.516
10255SOL    HW231665   2.343   5.739   2.561
10256SOL     OW31666   5.216   0.847   0.043
10256SOL    HW131667   5.231   0.753   0.011
10256SOL    HW231668   5.141   0.847   0.110
10257SOL     OW31669   1.203   5.545   5.991
10257SOL    HW131670   1.131   5.476   5.989
10257SOL    HW231671   1.288   5.504   6.021
10258SOL     OW31672   4.132   6.712   3.195
10258SOL    HW131673   4.154   6.627   3.243
10258SOL    HW231674   4.087   6.776   3.259
10259SOL     OW31675   0.139   3.673   3.954
10259SOL    HW131676   0.207   3.701   3.885
10259SOL    HW231677   0.054   3.723   3.939
10260SOL     OW31678   0.866   6.820   2.038
10260SOL    HW131679   0.917   6.789   1.958
10260SOL    HW231680   0.768   6.803   2.024
10261SOL     OW31681   0.935   5.907   1.958
10261SOL    HW131682   0.999   5.959   2.016
10261SOL    HW231683   0.956   5.809   1.964
10262SOL     OW31684   2.697   4.842   4.590
10262SOL    HW131685   2.737   4.799   4.510
10262SOL    HW231686   2.728   4.937   4.596
10263SOL     OW31687   5.670   1.734   5.732
10263SOL    HW131688   5.594   1.763   5.791
10263SOL    HW231689   5.645   1.749   5.636
10264SOL     OW31690   6.308   0.764   6.326
10264SOL    HW131691   6.303   0.713   6.240
10264SOL    HW231692   6.217   0.771   6.366
10265SOL     OW31693   3.662   1.485   2.823
10265SOL    HW131694   3.583   1.546   2.828
10265SOL    HW231695   3.633   1.394   2.797
10266SOL     OW31696   3.252   4.013   6.595
10266SOL    HW131697   3.274   4.040   6.689
10266SOL    HW231698   3.180   4.072   6.560
10267SOL     OW31699   0.223   2.306   6.529
10267SOL    HW131700   0.212   2.281   6.626
10267SOL    HW231701   0.167   2.386   6.509
10268SOL     OW31702   5.129   5.409   1.775
10268SOL    HW131703   5.218   5.367   1.759
10268SOL    HW231704   5.060   5.363   1.719
10269SOL     OW31705   2.262   2.545   6.674
10269SOL    HW131706   2.357   2.519   6.692
10269SOL    HW231707   2.216   2.472   6.623
10270SOL     OW31708   1.976   6.006   0.719
10270SOL    HW131709   1.963   6.058   0.804
10270SOL    HW231710   2.027   5.923   0.739
10271SOL     OW31711   4.112   4.134   1.515
10271SOL    HW131712   4.144   4.057   1.460
10271SOL    HW231713   4.184   4.161   1.579
10272SOL     OW31714   0.623   0.639   4.751
10272SOL    HW131715   0.562   0.576   4.798
10272SOL    HW231716   0.718   0.611   4.765
10273SOL     OW31717   3.923   5.501   4.506
10273SOL    HW131718   3.826   5.525   4.504
10273SOL    HW231719   3.940   5.424   4.444
10274SOL     OW31720   1.009   4.845   5.716
10274SOL    HW131721   1.053   4.826   5.629
10274SOL    HW231722   0.973   4.761   5.755
10275SOL     OW31723   0.557   6.699   3.207
10275SOL    HW131724   0.570   6.719   3.110
10275SOL    HW231725   0.532   6.603   3.218
10276SOL     OW31726   0.039   5.202   5.322
10276SOL    HW131727   6.993   5.142   5.278
10276SOL    HW231728   7.016   5.257   5.392
10277SOL     OW31729   2.954   6.668   4.492
10277SOL    HW131730   3.051   6.694   4.487
10277SOL    HW231731   2.938   6.586   4.438
10278SOL     OW31732   5.832   0.302   6.093
10278SOL    HW131733   5.930   0.292   6.075
10278SOL    HW231734   5.817   0.314   6.191
10279SOL     OW31735   3.052   0.530   4.304
10279SOL    HW131736   3.118   0.463   4.270
10279SOL    HW231737   3.052   0.610   4.244
10280SOL     OW31738   1.700   4.016   0.562
10280SOL    HW131739   1.695   3.949   0.636
10280SOL    HW231740   1.663   4.103   0.593
10281SOL     OW31741   5.005   0.932   3.119
10281SOL    HW131742   5.081   0.980   3.163
10281SOL    HW231743   4.964   0.990   3.049
10282SOL     OW31744   0.962   1.898   3.928
10282SOL    HW131745   0.989   1.804   3.949
10282SOL    HW231746   1.039   1.945   3.883
10283SOL     OW31747   0.951   3.549   0.532
10283SOL    HW131748   0.949   3.471   0.594
10283SOL    HW231749   1.005   3.526   0.451
10284SOL     OW31750   5.439   3.316   5.558
10284SOL    HW131751   5.384   3.249   5.608
10284SOL    HW231752   5.529   3.276   5.537
10285SOL     OW31753   5.107   0.884   0.712
10285SOL    HW131754   5.175   0.849   0.648
10285SOL    HW231755   5.153   0.916   0.795
10286SOL     OW31756   4.186   0.522   3.201
10286SOL    HW131757   4.267   0.572   3.170
10286SOL    HW231758   4.190   0.508   3.300
10287SOL     OW31759   2.058   6.932   1.864
10287SOL    HW131760   1.971   6.887   1.881
10287SOL    HW231761   2.094   6.968   1.950
10288SOL     OW31762   6.073   6.055   3.487
10288SOL    HW131763   6.085   6.141   3.437
10288SOL    HW231764   6.163   6.016   3.507
10289SOL     OW31765   3.179   1.550   1.514
10289SOL    HW131766   3.232   1.592   1.588
10289SOL    HW231767   3.087   1.590   1.512
10290SOL     OW31768   3.735   3.257   3.139
10290SOL    HW131769   3.706   3.335   3.084
10290SOL    HW231770   3.835   3.254   3.141
10291SOL     OW31771   3.476   0.684   4.880
10291SOL    HW131772   3.574   0.670   4.896
10291SOL    HW231773   3.456   0.782   4.881
10292SOL     OW31774   0.692   1.049   4.515
10292SOL    HW131775   0.792   1.043   4.516
10292SOL    HW231776   0.655   0.968   4.470
10293SOL     OW31777   2.282   6.293   3.179
10293SOL    HW131778   2.238   6.259   3.262
10293SOL    HW231779   2.366   6.241   3.163
10294SOL     OW31780   5.300   1.577   3.144
10294SOL    HW131781   5.271   1.668   3.112
10294SOL    HW231782   5.391   1.557   3.109
10295SOL     OW31783   0.464   5.317   6.240
10295SOL    HW131784   0.508   5.310   6.151
10295SOL    HW231785   0.488   5.405   6.282
10296SOL     OW31786   6.561   3.686   0.090
10296SOL    HW131787   6.465   3.661   0.077
10296SOL    HW231788   6.567   3.757   0.160
10297SOL     OW31789   1.077   5.374   4.386
10297SOL    HW131790   1.073   5.317   4.304
10297SOL    HW231791   1.001   5.438   4.386
10298SOL     OW31792   5.314   4.223   3.835
10298SOL    HW131793   5.373   4.175   3.770
10298SOL    HW231794   5.264   4.296   3.788
10299SOL     OW31795   4.310   4.622   3.531
10299SOL    HW131796   4.341   4.536   3.491
10299SOL    HW231797   4.213   4.635   3.514
10300SOL     OW31798   0.895   3.816   2.635
10300SOL    HW131799   0.963   3.808   2.707
10300SOL    HW231800   0.848   3.728   2.622
10301SOL     OW31801   6.050   1.023   2.449
10301SOL    HW131802   6.004   1.097   2.400
10301SOL    HW231803   6.136   1.056   2.486
10302SOL     OW31804   1.517   5.838   2.916
10302SOL    HW131805   1.529   5.756   2.860
10302SOL    HW231806   1.420   5.859   2.925
10303SOL     OW31807   4.148   3.845   1.113
10303SOL    HW131808   4.213   3.786   1.065
10303SOL    HW231809   4.055   3.819   1.087
10304SOL     OW31810   0.056   6.674   2.732
10304SOL    HW131811   0.003   6.707   2.811
10304SOL    HW231812   0.023   6.720   2.649
10305SOL     OW31813   1.338   5.679   6.782
10305SOL    HW131814   1.405   5.738   6.827
10305SOL    HW231815   1.381   5.634   6.704
10306SOL     OW31816   4.056   5.485   0.367
10306SOL    HW131817   4.062   5.452   0.272
10306SOL    HW231818   4.149   5.494   0.404
10307SOL     OW31819   1.728   1.352   6.582
10307SOL    HW131820   1.720   1.260   6.619
10307SOL    HW231821   1.792   1.405   6.638
10308SOL     OW31822   3.121   6.192   3.452
10308SOL    HW131823   3.127   6.124   3.380
10308SOL    HW231824   3.207   6.243   3.457
10309SOL     OW31825   0.223   6.506   2.610
10309SOL    HW131826   0.316   6.513   2.646
10309SOL    HW231827   0.162   6.563   2.666
10310SOL     OW31828   3.531   3.515   2.720
10310SOL    HW131829   3.485   3.428   2.737
10310SOL    HW231830   3.469   3.590   2.743
10311SOL     OW31831   0.517   5.457   0.213
10311SOL    HW131832   0.499   5.526   0.282
10311SOL    HW231833   0.616   5.452   0.196
10312SOL     OW31834   2.445   4.638   0.529
10312SOL    HW131835   2.509   4.595   0.593
10312SOL    HW231836   2.496   4.696   0.466
10313SOL     OW31837   4.897   0.604   2.682
10313SOL    HW131838   4.989   0.589   2.644
10313SOL    HW231839   4.883   0.544   2.760
10314SOL     OW31840   5.981   6.707   0.612
10314SOL    HW131841   5.968   6.636   0.543
10314SOL    HW231842   5.916   6.781   0.596
10315SOL     OW31843   6.030   5.999   4.773
10315SOL    HW131844   6.024   6.077   4.710
10315SOL    HW231845   6.115   6.004   4.824
10316SOL     OW31846   0.522   3.589   4.040
10316SOL    HW131847   0.467   3.511   4.068
10316SOL    HW231848   0.491   3.622   3.951
10317SOL     OW31849   4.362   5.421   6.743
10317SOL    HW131850   4.447   5.372   6.767
10317SOL    HW231851   4.360   5.439   6.645
10318SOL     OW31852   5.744   5.079   1.936
10318SOL    HW131853   5.743   5.159   1.996
10318SOL    HW231854   5.766   4.998   1.990
10319SOL     OW31855   6.591   5.671   3.694
10319SOL    HW131856   6.527   5.747   3.705
10319SOL    HW231857   6.570   5.620   3.610
10320SOL     OW31858   6.561   6.633   1.260
10320SOL    HW131859   6.660   6.652   1.261
10320SOL    HW231860   6.534   6.604   1.168
10321SOL     OW31861   4.690   5.501   4.219
10321SOL    HW131862   4.753   5.576   4.241
10321SOL    HW231863   4.740   5.430   4.170
10322SOL     OW31864   6.164   3.900   0.395
10322SOL    HW131865   6.236   3.833   0.410
10322SOL    HW231866   6.123   3.885   0.305
10323SOL     OW31867   5.127   3.037   6.071
10323SOL    HW131868   5.137   3.027   5.972
10323SOL    HW231869   5.030   3.051   6.093
10324SOL     OW31870   3.538   2.959   3.436
10324SOL    HW131871   3.517   3.051   3.471
10324SOL    HW231872   3.453   2.912   3.414
10325SOL     OW31873   0.414   2.704   2.908
10325SOL    HW131874   0.404   2.623   2.850
10325SOL    HW231875   0.339   2.767   2.890
10326SOL     OW31876   5.451   2.544   0.349
10326SOL    HW131877   5.358   2.550   0.312
10326SOL    HW231878   5.446   2.537   0.449
10327SOL     OW31879   0.183   0.687   3.305
10327SOL    HW131880   0.269   0.735   3.286
10327SOL    HW231881   0.175   0.608   3.245
10328SOL     OW31882   5.708   3.316   2.600
10328SOL    HW131883   5.641   3.316   2.526
10328SOL    HW231884   5.663   3.291   2.686
10329SOL     OW31885   3.067   6.946   2.986
10329SOL    HW131886   3.112   7.012   3.046
10329SOL    HW231887   2.993   6.900   3.035
10330SOL     OW31888   4.028   5.107   1.814
10330SOL    HW131889   3.962   5.129   1.885
10330SOL    HW231890   4.112   5.074   1.856
10331SOL     OW31891   5.261   0.742   3.325
10331SOL    HW131892   5.285   0.798   3.245
10331SOL    HW231893   5.192   0.674   3.298
10332SOL     OW31894   6.959   2.264   6.224
10332SOL    HW131895   0.016   2.216   6.184
10332SOL    HW231896   6.881   2.202   6.231
10333SOL     OW31897   5.795   5.447   4.152
10333SOL    HW131898   5.834   5.428   4.062
10333SOL    HW231899   5.718   5.385   4.168
10334SOL     OW31900   2.019   4.722   4.229
10334SOL    HW131901   1.968   4.756   4.308
10334SOL    HW231902   2.107   4.686   4.260
10335SOL     OW31903   1.603   5.341   1.227
10335SOL    HW131904   1.549   5.411   1.180
10335SOL    HW231905   1.607   5.258   1.171
10336SOL     OW31906   4.027   6.348   2.317
10336SOL    HW131907   3.948   6.325   2.374
10336SOL    HW231908   4.002   6.421   2.254
10337SOL     OW31909   0.890   4.879   4.850
10337SOL    HW131910   0.939   4.797   4.820
10337SOL    HW231911   0.801   4.852   4.888
10338SOL     OW31912   2.919   6.189   2.917
10338SOL    HW131913   2.936   6.106   2.970
10338SOL    HW231914   2.837   6.235   2.953
10339SOL     OW31915   2.590   6.456   1.423
10339SOL    HW131916   2.680   6.481   1.389
10339SOL    HW231917   2.558   6.373   1.377
10340SOL     OW31918   1.797   6.977   0.287
10340SOL    HW131919   1.706   7.014   0.266
10340SOL    HW231920   1.821   6.907   0.220
10341SOL     OW31921   1.931   1.765   2.349
10341SOL    HW131922   1.950   1.862   2.365
10341SOL    HW231923   1.994   1.709   2.403
10342SOL     OW31924   2.775   0.108   4.765
10342SOL    HW131925   2.776   0.206   4.742
10342SOL    HW231926   2.851   0.088   4.827
10343SOL     OW31927   2.711   3.758   6.320
10343SOL    HW131928   2.695   3.752   6.419
10343SOL    HW231929   2.650   3.695   6.273
10344SOL     OW31930   4.244   3.523   5.033
10344SOL    HW131931   4.248   3.423   5.043
10344SOL    HW231932   4.314   3.565   5.090
10345SOL     OW31933   2.144   1.524   6.603
10345SOL    HW131934   2.107   1.609   6.567
10345SOL    HW231935   2.169   1.463   6.528
10346SOL     OW31936   4.979   6.620   0.282
10346SOL    HW131937   4.936   6.707   0.255
10346SOL    HW231938   4.971   6.555   0.207
10347SOL     OW31939   5.749   1.910   1.540
10347SOL    HW131940   5.843   1.944   1.543
10347SOL    HW231941   5.742   1.835   1.474
10348SOL     OW31942   0.164   0.431   5.711
10348SOL    HW131943   0.254   0.452   5.671
10348SOL    HW231944   0.172   0.352   5.771
10349SOL     OW31945   6.592   1.615   1.442
10349SOL    HW131946   6.531   1.548   1.485
10349SOL    HW231947   6.685   1.578   1.437
10350SOL     OW31948   2.635   5.046   4.288
10350SOL    HW131949   2.658   4.974   4.353
10350SOL    HW231950   2.590   5.005   4.208
10351SOL     OW31951   5.733   4.848   5.232
10351SOL    HW131952   5.650   4.902   5.216
10351SOL    HW231953   5.729   4.807   5.323
10352SOL     OW31954   6.116   2.462   0.247
10352SOL    HW131955   6.201   2.512   0.232
10352SOL    HW231956   6.120   2.373   0.203
10353SOL     OW31957   6.611   2.724   3.574
10353SOL    HW131958   6.708   2.739   3.551
10353SOL    HW231959   6.597   2.628   3.599
10354SOL     OW31960   0.546   3.290   0.303
10354SOL    HW131961   0.471   3.315   0.363
10354SOL    HW231962   0.624   3.258   0.358
10355SOL     OW31963   1.252   0.470   1.001
10355SOL    HW131964   1.207   0.510   0.922
10355SOL    HW231965   1.348   0.450   0.979
10356SOL     OW31966   6.718   4.032   6.600
10356SOL    HW131967   6.757   4.083   6.524
10356SOL    HW231968   6.779   3.957   6.625
10357SOL     OW31969   0.954   3.202   5.974
10357SOL    HW131970   1.048   3.233   5.965
10357SOL    HW231971   0.921   3.223   6.066
10358SOL     OW31972   1.165   2.465   2.277
10358SOL    HW131973   1.181   2.527   2.354
10358SOL    HW231974   1.111   2.512   2.207
10359SOL     OW31975   5.949   2.006   2.270
10359SOL    HW131976   6.010   1.961   2.336
10359SOL    HW231977   5.991   2.091   2.238
10360SOL     OW31978   5.791   4.538   2.326
10360SOL    HW131979   5.838   4.526   2.413
10360SOL    HW231980   5.724   4.612   2.334
10361SOL     OW31981   0.637   1.663   1.573
10361SOL    HW131982   0.613   1.696   1.665
10361SOL    HW231983   0.617   1.566   1.567
10362SOL     OW31984   1.234   4.764   2.744
10362SOL    HW131985   1.239   4.803   2.836
10362SOL    HW231986   1.188   4.675   2.748
10363SOL     OW31987   4.977   4.215   0.749
10363SOL    HW131988   5.027   4.225   0.835
10363SOL    HW231989   4.963   4.118   0.730
10364SOL     OW31990   6.144   4.260   2.206
10364SOL    HW131991   6.068   4.244   2.143
10364SOL    HW231992   6.188   4.347   2.185
10365SOL     OW31993   6.234   5.985   0.003
10365SOL    HW131994   6.242   5.977   0.102
10365SOL    HW231995   6.193   5.901   6.987
10366SOL     OW31996   3.007   6.365   3.207
10366SOL    HW131997   3.064   6.283   3.211
10366SOL    HW231998   2.914   6.339   3.180
10367SOL     OW31999   6.234   2.054   0.729
10367SOL    HW132000   6.296   2.116   0.776
10367SOL    HW232001   6.193   2.101   0.651
10368SOL     OW32002   2.193   5.960   1.873
10368SOL    HW132003   2.154   5.870   1.853
10368SOL    HW232004   2.196   5.973   1.972
10369SOL     OW32005   3.686   6.942   5.756
10369SOL    HW132006   3.647   0.012   5.741
10369SOL    HW232007   3.732   6.940   5.845
10370SOL     OW32008   0.565   1.102   4.737
10370SOL    HW132009   0.596   1.091   4.642
10370SOL    HW232010   0.545   1.198   4.755
10371SOL     OW32011   3.142   5.774   3.395
10371SOL    HW132012   3.064   5.817   3.350
10371SOL    HW232013   3.226   5.824   3.373
10372SOL     OW32014   2.694   6.886   1.655
10372SOL    HW132015   2.601   6.859   1.630
10372SOL    HW232016   2.719   6.845   1.742
10373SOL     OW32017   6.872   1.575   5.443
10373SOL    HW132018   6.872   1.662   5.393
10373SOL    HW232019   6.895   1.501   5.380
10374SOL     OW32020   3.403   6.896   4.663
10374SOL    HW132021   3.306   6.894   4.690
10374SOL    HW232022   3.413   6.949   4.580
10375SOL     OW32023   3.409   3.316   0.333
10375SOL    HW132024   3.484   3.380   0.322
10375SOL    HW232025   3.345   3.351   0.401
10376SOL     OW32026   2.352   5.189   2.770
10376SOL    HW132027   2.386   5.243   2.848
10376SOL    HW232028   2.311   5.250   2.703
10377SOL     OW32029   1.129   1.333   2.668
10377SOL    HW132030   1.072   1.379   2.600
10377SOL    HW232031   1.142   1.393   2.747
10378SOL     OW32032   6.789   4.721   5.626
10378SOL    HW132033   6.789   4.626   5.594
10378SOL    HW232034   6.833   4.779   5.557
10379SOL     OW32035   2.004   6.708   4.626
10379SOL    HW132036   2.066   6.786   4.642
10379SOL    HW232037   1.925   6.739   4.573
10380SOL     OW32038   1.449   2.553   4.662
10380SOL    HW132039   1.380   2.493   4.704
10380SOL    HW232040   1.526   2.497   4.629
10381SOL     OW32041   4.421   4.610   1.324
10381SOL    HW132042   4.504   4.664   1.320
10381SOL    HW232043   4.343   4.667   1.299
10382SOL     OW32044   2.883   4.368   1.388
10382SOL    HW132045   2.963   4.361   1.329
10382SOL    HW232046   2.904   4.333   1.479
10383SOL     OW32047   1.774   4.462   0.601
10383SOL    HW132048   1.799   4.399   0.675
10383SOL    HW232049   1.853   4.516   0.575
10384SOL     OW32050   5.565   6.779   1.546
10384SOL    HW132051   5.493   6.845   1.528
10384SOL    HW232052   5.638   6.822   1.599
10385SOL     OW32053   3.589   4.591   6.244
10385SOL    HW132054   3.526   4.654   6.290
10385SOL    HW232055   3.639   4.539   6.313
10386SOL     OW32056   7.007   0.709   6.655
10386SOL    HW132057   7.013   0.709   6.555
10386SOL    HW232058   0.066   0.754   6.694
10387SOL     OW32059   4.821   2.900   2.793
10387SOL    HW132060   4.918   2.905   2.815
10387SOL    HW232061   4.810   2.860   2.701
10388SOL     OW32062   2.948   0.571   5.682
10388SOL    HW132063   3.007   0.501   5.640
10388SOL    HW232064   2.894   0.529   5.754
10389SOL     OW32065   0.557   3.470   0.100
10389SOL    HW132066   0.643   3.521   0.111
10389SOL    HW232067   0.547   3.404   0.174
10390SOL     OW32068   2.772   2.419   0.880
10390SOL    HW132069   2.798   2.448   0.788
10390SOL    HW232070   2.690   2.362   0.876
10391SOL     OW32071   0.036   6.767   4.176
10391SOL    HW132072   6.985   6.805   4.233
10391SOL    HW232073   0.016   6.788   4.080
10392SOL     OW32074   6.600   4.981   4.585
10392SOL    HW132075   6.623   5.056   4.523
10392SOL    HW232076   6.683   4.930   4.608
10393SOL     OW32077   1.840   3.951   3.812
10393SOL    HW132078   1.881   4.029   3.859
10393SOL    HW232079   1.757   3.923   3.861
10394SOL     OW32080   3.384   6.000   3.987
10394SOL    HW132081   3.351   5.982   4.080
10394SOL    HW232082   3.320   6.062   3.941
10395SOL     OW32083   6.372   6.560   0.626
10395SOL    HW132084   6.296   6.518   0.575
10395SOL    HW232085   6.334   6.621   0.697
10396SOL     OW32086   2.932   1.988   4.257
10396SOL    HW132087   3.015   2.006   4.205
10396SOL    HW232088   2.852   2.002   4.199
10397SOL     OW32089   3.027   2.197   2.251
10397SOL    HW132090   3.094   2.268   2.270
10397SOL    HW232091   2.981   2.216   2.164
10398SOL     OW32092   0.314   3.410   1.517
10398SOL    HW132093   0.232   3.399   1.461
10398SOL    HW232094   0.384   3.345   1.487
10399SOL     OW32095   5.879   2.416   2.330
10399SOL    HW132096   5.864   2.515   2.329
10399SOL    HW232097   5.792   2.369   2.348
10400SOL     OW32098   4.251   0.215   0.155
10400SOL    HW132099   4.274   0.137   0.213
10400SOL    HW232100   4.157   0.206   0.123
10401SOL     OW32101   6.776   0.851   4.057
10401SOL    HW132102   6.761   0.893   3.967
10401SOL    HW232103   6.780   0.922   4.127
10402SOL     OW32104   5.940   2.809   4.703
10402SOL    HW132105   5.886   2.783   4.624
10402SOL    HW232106   5.890   2.788   4.787
10403SOL     OW32107   3.366   0.569   3.190
10403SOL    HW132108   3.419   0.612   3.116
10403SOL    HW232109   3.276   0.543   3.156
10404SOL     OW32110   5.920   0.211   5.547
10404SOL    HW132111   5.932   0.158   5.464
10404SOL    HW232112   5.914   0.309   5.525
10405SOL     OW32113   0.920   1.840   5.844
10405SOL    HW132114   0.900   1.844   5.746
10405SOL    HW232115   1.014   1.809   5.857
10406SOL     OW32116   3.181   4.845   2.018
10406SOL    HW132117   3.229   4.851   1.930
10406SOL    HW232118   3.082   4.845   2.002
10407SOL     OW32119   3.489   5.918   5.323
10407SOL    HW132120   3.473   5.858   5.245
10407SOL    HW232121   3.521   5.864   5.401
10408SOL     OW32122   4.931   1.484   0.423
10408SOL    HW132123   4.954   1.563   0.481
10408SOL    HW232124   4.898   1.516   0.335
10409SOL     OW32125   0.036   4.705   0.546
10409SOL    HW132126   0.114   4.708   0.484
10409SOL    HW232127   0.014   4.798   0.576
10410SOL     OW32128   5.580   1.737   0.003
10410SOL    HW132129   5.618   1.645   7.009
10410SOL    HW232130   5.609   1.770   0.092
10411SOL     OW32131   3.172   6.263   2.844
10411SOL    HW132132   3.203   6.290   2.935
10411SOL    HW232133   3.086   6.213   2.851
10412SOL     OW32134   6.172   0.823   0.574
10412SOL    HW132135   6.198   0.813   0.670
10412SOL    HW232136   6.137   0.736   0.539
10413SOL     OW32137   0.246   1.854   1.177
10413SOL    HW132138   0.323   1.913   1.202
10413SOL    HW232139   0.176   1.858   1.248
10414SOL     OW32140   4.447   4.156   5.623
10414SOL    HW132141   4.470   4.247   5.659
10414SOL    HW232142   4.459   4.088   5.695
10415SOL     OW32143   0.204   4.760   5.775
10415SOL    HW132144   0.129   4.825   5.769
10415SOL    HW232145   0.168   4.668   5.787
10416SOL     OW32146   6.861   1.507   3.058
10416SOL    HW132147   6.773   1.461   3.043
10416SOL    HW232148   6.892   1.548   2.972
10417SOL     OW32149   4.091   5.187   4.396
10417SOL    HW132150   4.038   5.122   4.341
10417SOL    HW232151   4.120   5.143   4.481
10418SOL     OW32152   0.123   4.637   5.503
10418SOL    HW132153   0.091   4.731   5.492
10418SOL    HW232154   0.218   4.631   5.474
10419SOL     OW32155   1.284   0.399   6.984
10419SOL    HW132156   1.255   0.396   0.058
10419SOL    HW232157   1.221   0.345   6.928
10420SOL     OW32158   6.825   3.302   2.320
10420SOL    HW132159   6.809   3.399   2.302
10420SOL    HW232160   6.743   3.261   2.360
10421SOL     OW32161   0.871   1.828   3.398
10421SOL    HW132162   0.880   1.779   3.311
10421SOL    HW232163   0.905   1.922   3.387
10422SOL     OW32164   6.342   2.208   5.691
10422SOL    HW132165   6.378   2.241   5.778
10422SOL    HW232166   6.361   2.110   5.683
10423SOL     OW32167   5.092   5.010   4.688
10423SOL    HW132168   5.018   4.945   4.668
10423SOL    HW232169   5.072   5.097   4.642
10424SOL     OW32170   5.483   2.822   0.619
10424SOL    HW132171   5.575   2.856   0.601
10424SOL    HW232172   5.421   2.899   0.631
10425SOL     OW32173   2.272   6.621   2.207
10425SOL    HW132174   2.217   6.637   2.125
10425SOL    HW232175   2.212   6.606   2.286
10426SOL     OW32176   6.510   3.788   0.656
10426SOL    HW132177   6.412   3.784   0.677
10426SOL    HW232178   6.539   3.701   0.618
10427SOL     OW32179   4.386   1.484   0.771
10427SOL    HW132180   4.330   1.424   0.713
10427SOL    HW232181   4.347   1.486   0.863
10428SOL     OW32182   3.324   1.883   4.810
10428SOL    HW132183   3.300   1.969   4.854
10428SOL    HW232184   3.251   1.816   4.826
10429SOL     OW32185   0.153   5.702   1.422
10429SOL    HW132186   0.134   5.661   1.333
10429SOL    HW232187   0.082   5.769   1.444
10430SOL     OW32188   4.215   0.104   3.906
10430SOL    HW132189   4.250   0.010   3.902
10430SOL    HW232190   4.232   0.142   3.996
10431SOL     OW32191   3.151   6.765   5.103
10431SOL    HW132192   3.240   6.724   5.124
10431SOL    HW232193   3.143   6.854   5.147
10432SOL     OW32194   6.775   1.029   4.286
10432SOL    HW132195   6.843   1.063   4.351
10432SOL    HW232196   6.696   1.091   4.286
10433SOL     OW32197   1.442   6.009   1.623
10433SOL    HW132198   1.469   5.913   1.608
10433SOL    HW232199   1.364   6.031   1.565
10434SOL     OW32200   3.415   6.524   2.950
10434SOL    HW132201   3.412   6.574   2.863
10434SOL    HW232202   3.329   6.537   2.999
10435SOL     OW32203   6.356   0.765   4.671
10435SOL    HW132204   6.317   0.677   4.700
10435SOL    HW232205   6.395   0.811   4.750
10436SOL     OW32206   1.066   5.078   4.996
10436SOL    HW132207   0.980   5.031   4.975
10436SOL    HW232208   1.136   5.010   5.017
10437SOL     OW32209   6.463   5.037   5.329
10437SOL    HW132210   6.407   5.041   5.412
10437SOL    HW232211   6.471   5.128   5.289
10438SOL     OW32212   5.257   6.643   0.279
10438SOL    HW132213   5.329   6.622   0.345
10438SOL    HW232214   5.168   6.636   0.323
10439SOL     OW32215   3.538   1.436   5.959
10439SOL    HW132216   3.450   1.432   6.007
10439SOL    HW232217   3.524   1.419   5.862
10440SOL     OW32218   0.430   5.976   0.629
10440SOL    HW132219   0.366   6.049   0.609
10440SOL    HW232220   0.395   5.920   0.704
10441SOL     OW32221   4.874   1.711   6.505
10441SOL    HW132222   4.868   1.669   6.596
10441SOL    HW232223   4.845   1.807   6.511
10442SOL     OW32224   3.081   5.341   5.332
10442SOL    HW132225   3.148   5.362   5.403
10442SOL    HW232226   3.102   5.392   5.249
10443SOL     OW32227   4.939   3.465   4.544
10443SOL    HW132228   4.922   3.392   4.478
10443SOL    HW232229   5.035   3.463   4.572
10444SOL     OW32230   4.254   5.398   4.832
10444SOL    HW132231   4.265   5.431   4.926
10444SOL    HW232232   4.212   5.470   4.777
10445SOL     OW32233   0.721   4.609   4.234
10445SOL    HW132234   0.717   4.700   4.276
10445SOL    HW232235   0.788   4.609   4.160
10446SOL     OW32236   1.109   3.824   6.278
10446SOL    HW132237   1.038   3.804   6.345
10446SOL    HW232238   1.078   3.795   6.187
10447SOL     OW32239   0.390   1.512   1.905
10447SOL    HW132240   0.345   1.586   1.854
10447SOL    HW232241   0.351   1.507   1.997
10448SOL     OW32242   4.145   3.348   1.042
10448SOL    HW132243   4.114   3.438   1.074
10448SOL    HW232244   4.196   3.303   1.114
10449SOL     OW32245   2.797   5.264   4.261
10449SOL    HW132246   2.879   5.264   4.317
10449SOL    HW232247   2.745   5.179   4.278
10450SOL     OW32248   0.814   2.757   6.891
10450SOL    HW132249   0.715   2.745   6.902
10450SOL    HW232250   0.860   2.677   6.930
10451SOL     OW32251   2.808   5.000   2.715
10451SOL    HW132252   2.722   5.052   2.719
10451SOL    HW232253   2.788   4.902   2.728
10452SOL     OW32254   6.844   3.553   3.588
10452SOL    HW132255   6.754   3.592   3.572
10452SOL    HW232256   6.910   3.595   3.525
10453SOL     OW32257   5.764   6.120   1.912
10453SOL    HW132258   5.744   6.154   1.820
10453SOL    HW232259   5.727   6.182   1.980
10454SOL     OW32260   5.433   2.751   2.138
10454SOL    HW132261   5.479   2.690   2.203
10454SOL    HW232262   5.479   2.745   2.049
10455SOL     OW32263   0.580   5.419   3.325
10455SOL    HW132264   0.546   5.485   3.258
10455SOL    HW232265   0.508   5.354   3.347
10456SOL     OW32266   3.014   6.041   1.145
10456SOL    HW132267   3.005   5.972   1.217
10456SOL    HW232268   3.056   6.124   1.184
10457SOL     OW32269   3.476   3.314   4.089
10457SOL    HW132270   3.438   3.296   4.179
10457SOL    HW232271   3.427   3.390   4.047
10458SOL     OW32272   6.724   6.669   0.027
10458SOL    HW132273   6.807   6.684   6.995
10458SOL    HW232274   6.648   6.649   6.986
10459SOL     OW32275   6.068   5.530   2.816
10459SOL    HW132276   6.040   5.558   2.908
10459SOL    HW232277   5.995   5.548   2.751
10460SOL     OW32278   1.995   5.939   1.412
10460SOL    HW132279   1.896   5.929   1.420
10460SOL    HW232280   2.020   5.950   1.316
10461SOL     OW32281   1.419   6.268   6.108
10461SOL    HW132282   1.455   6.361   6.118
10461SOL    HW232283   1.331   6.272   6.060
10462SOL     OW32284   6.119   1.013   1.719
10462SOL    HW132285   6.071   0.943   1.665
10462SOL    HW232286   6.060   1.041   1.795
10463SOL     OW32287   3.298   3.857   5.949
10463SOL    HW132288   3.321   3.901   5.863
10463SOL    HW232289   3.264   3.925   6.014
10464SOL     OW32290   4.587   0.075   0.955
10464SOL    HW132291   4.577   0.166   0.997
10464SOL    HW232292   4.511   0.017   0.983
10465SOL     OW32293   0.018   0.191   6.424
10465SOL    HW132294   0.084   0.196   6.349
10465SOL    HW232295   6.949   0.216   6.390
10466SOL     OW32296   4.942   5.650   5.234
10466SOL    HW132297   4.870   5.719   5.240
10466SOL    HW232298   5.028   5.694   5.205
10467SOL     OW32299   1.624   1.842   5.542
10467SOL    HW132300   1.661   1.926   5.581
10467SOL    HW232301   1.591   1.783   5.615
10468SOL     OW32302   3.803   6.441   4.080
10468SOL    HW132303   3.848   6.529   4.063
10468SOL    HW232304   3.835   6.374   4.013
10469SOL     OW32305   2.364   3.745   1.032
10469SOL    HW132306   2.459   3.770   1.048
10469SOL    HW232307   2.310   3.763   1.115
10470SOL     OW32308   2.390   1.824   3.925
10470SOL    HW132309   2.369   1.854   3.832
10470SOL    HW232310   2.323   1.756   3.954
10471SOL     OW32311   2.435   3.871   1.699
10471SOL    HW132312   2.373   3.862   1.621
10471SOL    HW232313   2.511   3.807   1.689
10472SOL     OW32314   3.907   0.101   1.880
10472SOL    HW132315   3.922   0.042   1.800
10472SOL    HW232316   3.988   0.097   1.939
10473SOL     OW32317   5.815   6.685   0.877
10473SOL    HW132318   5.880   6.624   0.922
10473SOL    HW232319   5.860   6.773   0.858
10474SOL     OW32320   4.498   0.625   4.215
10474SOL    HW132321   4.559   0.552   4.244
10474SOL    HW232322   4.448   0.661   4.295
10475SOL     OW32323   4.060   5.760   1.102
10475SOL    HW132324   4.095   5.738   1.011
10475SOL    HW232325   4.127   5.814   1.152
10476SOL     OW32326   6.579   5.563   0.081
10476SOL    HW132327   6.577   5.463   0.086
10476SOL    HW232328   6.664   5.593   0.036
10477SOL     OW32329   5.374   3.327   4.839
10477SOL    HW132330   5.375   3.230   4.815
10477SOL    HW232331   5.468   3.359   4.853
10478SOL     OW32332   1.135   6.749   6.769
10478SOL    HW132333   1.137   6.846   6.745
10478SOL    HW232334   1.083   6.738   6.854
10479SOL     OW32335   1.420   2.757   2.319
10479SOL    HW132336   1.463   2.671   2.292
10479SOL    HW232337   1.367   2.793   2.242
10480SOL     OW32338   5.466   6.602   1.925
10480SOL    HW132339   5.546   6.621   1.982
10480SOL    HW232340   5.493   6.547   1.847
10481SOL     OW32341   2.413   1.029   4.867
10481SOL    HW132342   2.429   1.106   4.928
10481SOL    HW232343   2.489   1.020   4.803
10482SOL     OW32344   1.128   6.423   4.810
10482SOL    HW132345   1.150   6.344   4.867
10482SOL    HW232346   1.040   6.461   4.836
10483SOL     OW32347   6.126   5.656   0.589
10483SOL    HW132348   6.065   5.577   0.585
10483SOL    HW232349   6.198   5.646   0.521
10484SOL     OW32350   6.938   0.941   1.232
10484SOL    HW132351   0.009   0.962   1.264
10484SOL    HW232352   6.935   0.945   1.132
10485SOL     OW32353   3.147   4.031   2.735
10485SOL    HW132354   3.131   3.934   2.719
10485SOL    HW232355   3.228   4.060   2.685
10486SOL     OW32356   0.227   0.163   5.821
10486SOL    HW132357   0.184   0.168   5.911
10486SOL    HW232358   0.233   0.067   5.793
10487SOL     OW32359   4.734   1.534   1.744
10487SOL    HW132360   4.699   1.620   1.707
10487SOL    HW232361   4.662   1.465   1.743
10488SOL     OW32362   0.500   2.602   5.530
10488SOL    HW132363   0.549   2.658   5.596
10488SOL    HW232364   0.554   2.519   5.510
10489SOL     OW32365   6.409   5.135   3.901
10489SOL    HW132366   6.460   5.061   3.945
10489SOL    HW232367   6.322   5.100   3.868
10490SOL     OW32368   5.704   0.328   0.553
10490SOL    HW132369   5.735   0.302   0.644
10490SOL    HW232370   5.707   0.249   0.492
10491SOL     OW32371   1.522   3.260   6.785
10491SOL    HW132372   1.458   3.336   6.790
10491SOL    HW232373   1.605   3.289   6.737
10492SOL     OW32374   4.975   0.142   0.603
10492SOL    HW132375   5.034   0.128   0.683
10492SOL    HW232376   5.024   0.198   0.536
10493SOL     OW32377   4.273   5.493   1.170
10493SOL    HW132378   4.197   5.440   1.133
10493SOL    HW232379   4.325   5.535   1.096
10494SOL     OW32380   0.804   4.827   6.441
10494SOL    HW132381   0.810   4.807   6.343
10494SOL    HW232382   0.710   4.848   6.465
10495SOL     OW32383   0.149   6.435   5.726
10495SOL    HW132384   0.080   6.396   5.788
10495SOL    HW232385   0.119   6.525   5.696
10496SOL     OW32386   6.858   3.685   5.278
10496SOL    HW132387   6.884   3.755   5.345
10496SOL    HW232388   6.768   3.708   5.240
10497SOL     OW32389   2.574   6.883   2.245
10497SOL    HW132390   2.657   6.917   2.288
10497SOL    HW232391   2.567   6.784   2.259
10498SOL     OW32392   5.065   5.488   0.515
10498SOL    HW132393   5.108   5.570   0.477
10498SOL    HW232394   5.106   5.467   0.604
10499SOL     OW32395   6.104   5.805   1.858
10499SOL    HW132396   6.164   5.872   1.815
10499SOL    HW232397   6.144   5.714   1.850
10500SOL     OW32398   5.286   4.674   5.049
10500SOL    HW132399   5.252   4.593   5.001
10500SOL    HW232400   5.264   4.756   4.996
10501SOL     OW32401   2.313   5.762   2.167
10501SOL    HW132402   2.292   5.710   2.084
10501SOL    HW232403   2.250   5.839   2.175
10502SOL     OW32404   3.116   3.463   2.491
10502SOL    HW132405   3.051   3.538   2.498
10502SOL    HW232406   3.128   3.439   2.395
10503SOL     OW32407   6.986   3.891   6.126
10503SOL    HW132408   0.013   3.887   6.039
10503SOL    HW232409   0.023   3.856   6.199
10504SOL     OW32410   2.168   3.325   6.268
10504SOL    HW132411   2.262   3.299   6.289
10504SOL    HW232412   2.110   3.309   6.348
10505SOL     OW32413   5.932   6.598   2.036
10505SOL    HW132414   6.023   6.578   2.000
10505SOL    HW232415   5.940   6.638   2.127
10506SOL     OW32416   0.463   3.150   6.662
10506SOL    HW132417   0.376   3.113   6.696
10506SOL    HW232418   0.516   3.187   6.739
10507SOL     OW32419   2.371   4.978   0.003
10507SOL    HW132420   2.414   4.889   0.018
10507SOL    HW232421   2.283   4.981   0.049
10508SOL     OW32422   1.279   5.190   5.529
10508SOL    HW132423   1.246   5.190   5.435
10508SOL    HW232424   1.379   5.188   5.529
10509SOL     OW32425   4.907   3.393   4.037
10509SOL    HW132426   4.955   3.476   4.067
10509SOL    HW232427   4.856   3.355   4.114
10510SOL     OW32428   4.920   6.007   5.071
10510SOL    HW132429   4.869   5.983   4.988
10510SOL    HW232430   4.881   5.960   5.149
10511SOL     OW32431   2.866   1.571   2.015
10511SOL    HW132432   2.890   1.613   2.103
10511SOL    HW232433   2.940   1.512   1.985
10512SOL     OW32434   4.314   0.393   5.753
10512SOL    HW132435   4.380   0.361   5.685
10512SOL    HW232436   4.339   0.485   5.782
10513SOL     OW32437   5.297   3.080   2.352
10513SOL    HW132438   5.241   3.160   2.376
10513SOL    HW232439   5.250   3.028   2.280
10514SOL     OW32440   1.200   2.634   1.516
10514SOL    HW132441   1.169   2.540   1.504
10514SOL    HW232442   1.296   2.635   1.542
10515SOL     OW32443   2.008   3.100   4.836
10515SOL    HW132444   1.993   3.197   4.817
10515SOL    HW232445   1.930   3.063   4.885
10516SOL     OW32446   3.440   2.608   6.986
10516SOL    HW132447   3.347   2.615   0.001
10516SOL    HW232448   3.500   2.669   0.016
10517SOL     OW32449   1.333   2.860   3.595
10517SOL    HW132450   1.297   2.914   3.520
10517SOL    HW232451   1.433   2.864   3.595
10518SOL     OW32452   0.946   5.197   2.240
10518SOL    HW132453   1.038   5.210   2.201
10518SOL    HW232454   0.954   5.169   2.335
10519SOL     OW32455   2.203   6.232   1.291
10519SOL    HW132456   2.152   6.214   1.206
10519SOL    HW232457   2.139   6.264   1.361
10520SOL     OW32458   6.245   1.191   6.262
10520SOL    HW132459   6.319   1.157   6.320
10520SOL    HW232460   6.182   1.117   6.241
10521SOL     OW32461   6.060   3.248   1.791
10521SOL    HW132462   6.006   3.248   1.707
10521SOL    HW232463   6.063   3.341   1.829
10522SOL     OW32464   5.900   2.221   3.044
10522SOL    HW132465   5.860   2.289   3.106
10522SOL    HW232466   5.872   2.129   3.073
10523SOL     OW32467   0.693   3.973   3.942
10523SOL    HW132468   0.724   4.009   3.854
10523SOL    HW232469   0.768   3.924   3.987
10524SOL     OW32470   6.958   5.598   4.030
10524SOL    HW132471   7.001   5.530   4.090
10524SOL    HW232472   0.008   5.655   3.989
10525SOL     OW32473   4.247   0.901   4.237
10525SOL    HW132474   4.201   0.986   4.264
10525SOL    HW232475   4.319   0.922   4.170
10526SOL     OW32476   0.361   5.602   0.488
10526SOL    HW132477   0.437   5.666   0.496
10526SOL    HW232478   0.388   5.513   0.526
10527SOL     OW32479   0.775   1.379   5.009
10527SOL    HW132480   0.720   1.458   4.981
10527SOL    HW232481   0.819   1.339   4.928
10528SOL     OW32482   0.519   4.993   6.929
10528SOL    HW132483   0.570   5.075   6.901
10528SOL    HW232484   0.421   5.014   6.932
10529SOL     OW32485   1.946   6.491   6.049
10529SOL    HW132486   1.862   6.526   6.089
10529SOL    HW232487   2.002   6.449   6.121
10530SOL     OW32488   0.844   0.197   6.669
10530SOL    HW132489   0.790   0.213   6.586
10530SOL    HW232490   0.924   0.141   6.646
10531SOL     OW32491   3.032   2.584   5.380
10531SOL    HW132492   3.081   2.516   5.326
10531SOL    HW232493   3.084   2.669   5.382
10532SOL     OW32494   5.830   6.399   6.497
10532SOL    HW132495   5.767   6.442   6.431
10532SOL    HW232496   5.902   6.351   6.447
10533SOL     OW32497   3.479   5.405   4.132
10533SOL    HW132498   3.419   5.370   4.204
10533SOL    HW232499   3.538   5.476   4.170
10534SOL     OW32500   0.715   6.163   2.747
10534SOL    HW132501   0.620   6.194   2.743
10534SOL    HW232502   0.753   6.186   2.837
10535SOL     OW32503   2.570   1.291   2.466
10535SOL    HW132504   2.534   1.367   2.521
10535SOL    HW232505   2.639   1.242   2.518
10536SOL     OW32506   4.848   1.353   4.386
10536SOL    HW132507   4.868   1.379   4.291
10536SOL    HW232508   4.827   1.255   4.390
10537SOL     OW32509   4.993   0.031   3.298
10537SOL    HW132510   4.914   0.033   3.359
10537SOL    HW232511   5.073   0.066   3.347
10538SOL     OW32512   6.486   2.938   2.293
10538SOL    HW132513   6.476   3.015   2.229
10538SOL    HW232514   6.427   2.954   2.372
10539SOL     OW32515   5.875   6.173   2.735
10539SOL    HW132516   5.946   6.172   2.665
10539SOL    HW232517   5.883   6.091   2.793
10540SOL     OW32518   2.780   3.971   6.645
10540SOL    HW132519   2.812   4.024   6.566
10540SOL    HW232520   2.680   3.964   6.642
10541SOL     OW32521   3.105   2.988   5.149
10541SOL    HW132522   3.063   3.073   5.181
10541SOL    HW232523   3.134   2.999   5.054
10542SOL     OW32524   6.409   0.027   4.464
10542SOL    HW132525   6.392   6.950   4.457
10542SOL    HW232526   6.371   0.073   4.384
10543SOL     OW32527   6.894   2.862   5.735
10543SOL    HW132528   6.799   2.836   5.715
10543SOL    HW232529   6.931   2.914   5.658
10544SOL     OW32530   0.892   1.546   3.822
10544SOL    HW132531   0.820   1.477   3.808
10544SOL    HW232532   0.914   1.588   3.734
10545SOL     OW32533   2.339   2.185   2.949
10545SOL    HW132534   2.400   2.208   3.025
10545SOL    HW232535   2.248   2.162   2.984
10546SOL     OW32536   3.163   6.228   1.245
10546SOL    HW132537   3.238   6.223   1.179
10546SOL    HW232538   3.187   6.293   1.317
10547SOL     OW32539   4.358   0.079   5.095
10547SOL    HW132540   4.401   0.092   5.185
10547SOL    HW232541   4.429   0.075   5.025
10548SOL     OW32542   0.876   4.799   4.418
10548SOL    HW132543   0.947   4.732   4.438
10548SOL    HW232544   0.812   4.804   4.495
10549SOL     OW32545   0.287   1.263   0.825
10549SOL    HW132546   0.238   1.342   0.789
10549SOL    HW232547   0.249   1.179   0.786
10550SOL     OW32548   3.914   5.917   3.113
10550SOL    HW132549   3.827   5.947   3.075
10550SOL    HW232550   3.989   5.948   3.054
10551SOL     OW32551   2.815   2.035   5.672
10551SOL    HW132552   2.815   1.954   5.613
10551SOL    HW232553   2.907   2.073   5.677
10552SOL     OW32554   3.538   0.969   4.910
10552SOL    HW132555   3.491   0.972   4.998
10552SOL    HW232556   3.631   1.004   4.921
10553SOL     OW32557   0.402   5.284   0.827
10553SOL    HW132558   0.380   5.191   0.798
10553SOL    HW232559   0.485   5.282   0.883
10554SOL     OW32560   6.401   5.064   2.693
10554SOL    HW132561   6.479   5.013   2.728
10554SOL    HW232562   6.399   5.155   2.733
10555SOL     OW32563   3.618   2.322   0.630
10555SOL    HW132564   3.638   2.224   0.624
10555SOL    HW232565   3.541   2.336   0.692
10556SOL     OW32566   1.708   1.564   3.164
10556SOL    HW132567   1.645   1.579   3.088
10556SOL    HW232568   1.789   1.515   3.131
10557SOL     OW32569   2.037   3.613   3.882
10557SOL    HW132570   2.075   3.695   3.841
10557SOL    HW232571   2.009   3.549   3.809
10558SOL     OW32572   3.077   5.525   5.012
10558SOL    HW132573   3.018   5.582   5.069
10558SOL    HW232574   3.035   5.435   4.999
10559SOL     OW32575   3.325   0.190   6.958
10559SOL    HW132576   3.308   0.135   0.019
10559SOL    HW232577   3.423   0.208   6.950
10560SOL     OW32578   4.659   6.551   1.277
10560SOL    HW132579   4.755   6.529   1.296
10560SOL    HW232580   4.631   6.628   1.335
10561SOL     OW32581   5.544   4.173   1.217
10561SOL    HW132582   5.527   4.233   1.139
10561SOL    HW232583   5.638   4.184   1.248
10562SOL     OW32584   2.898   6.786   1.501
10562SOL    HW132585   2.827   6.792   1.570
10562SOL    HW232586   2.913   6.876   1.460
10563SOL     OW32587   0.592   0.018   0.632
10563SOL    HW132588   0.555   6.958   0.587
10563SOL    HW232589   0.528   0.048   0.704
10564SOL     OW32590   6.442   5.763   4.263
10564SOL    HW132591   6.489   5.698   4.204
10564SOL    HW232592   6.433   5.724   4.355
10565SOL     OW32593   6.432   6.716   5.460
10565SOL    HW132594   6.417   6.644   5.393
10565SOL    HW232595   6.344   6.753   5.489
10566SOL     OW32596   2.916   2.472   0.362
10566SOL    HW132597   2.982   2.535   0.320
10566SOL    HW232598   2.829   2.478   0.314
10567SOL     OW32599   1.866   2.725   6.155
10567SOL    HW132600   1.843   2.667   6.077
10567SOL    HW232601   1.965   2.729   6.165
10568SOL     OW32602   5.302   2.819   6.143
10568SOL    HW132603   5.245   2.778   6.214
10568SOL    HW232604   5.275   2.914   6.129
10569SOL     OW32605   4.898   0.104   1.942
10569SOL    HW132606   4.860   0.192   1.970
10569SOL    HW232607   4.988   0.091   1.984
10570SOL     OW32608   0.520   5.199   4.581
10570SOL    HW132609   0.619   5.195   4.595
10570SOL    HW232610   0.493   5.134   4.511
10571SOL     OW32611   6.918   4.751   5.926
10571SOL    HW132612   6.819   4.763   5.920
10571SOL    HW232613   6.944   4.668   5.877
10572SOL     OW32614   6.419   4.310   1.325
10572SOL    HW132615   6.340   4.372   1.323
10572SOL    HW232616   6.461   4.307   1.235
10573SOL     OW32617   6.101   0.606   3.702
10573SOL    HW132618   6.154   0.626   3.785
10573SOL    HW232619   6.007   0.635   3.715
10574SOL     OW32620   0.006   1.130   3.276
10574SOL    HW132621   0.067   1.152   3.200
10574SOL    HW232622   6.945   1.085   3.242
10575SOL     OW32623   6.200   1.361   2.324
10575SOL    HW132624   6.154   1.443   2.355
10575SOL    HW232625   6.297   1.380   2.310
10576SOL     OW32626   2.430   4.822   3.178
10576SOL    HW132627   2.403   4.876   3.098
10576SOL    HW232628   2.348   4.787   3.223
10577SOL     OW32629   4.035   6.131   0.765
10577SOL    HW132630   3.985   6.132   0.679
10577SOL    HW232631   3.986   6.075   0.831
10578SOL     OW32632   6.516   2.026   3.943
10578SOL    HW132633   6.569   1.962   3.887
10578SOL    HW232634   6.570   2.052   4.023
10579SOL     OW32635   2.726   2.884   1.036
10579SOL    HW132636   2.677   2.831   1.106
10579SOL    HW232637   2.747   2.825   0.958
10580SOL     OW32638   6.363   6.544   6.241
10580SOL    HW132639   6.371   6.447   6.260
10580SOL    HW232640   6.442   6.574   6.187
10581SOL     OW32641   5.401   6.978   3.775
10581SOL    HW132642   5.384   6.940   3.866
10581SOL    HW232643   5.462   0.035   3.783
10582SOL     OW32644   5.447   4.941   6.714
10582SOL    HW132645   5.489   5.025   6.680
10582SOL    HW232646   5.351   4.938   6.687
10583SOL     OW32647   2.850   0.123   3.758
10583SOL    HW132648   2.910   0.174   3.696
10583SOL    HW232649   2.820   0.184   3.832
10584SOL     OW32650   6.758   0.405   5.545
10584SOL    HW132651   6.791   0.334   5.482
10584SOL    HW232652   6.816   0.407   5.626
10585SOL     OW32653   0.575   1.711   5.945
10585SOL    HW132654   0.649   1.657   5.906
10585SOL    HW232655   0.497   1.651   5.965
10586SOL     OW32656   5.130   4.462   5.768
10586SOL    HW132657   5.076   4.543   5.748
10586SOL    HW232658   5.214   4.462   5.713
10587SOL     OW32659   0.828   5.527   5.695
10587SOL    HW132660   0.886   5.601   5.729
10587SOL    HW232661   0.878   5.473   5.628
10588SOL     OW32662   1.172   3.497   4.145
10588SOL    HW132663   1.264   3.458   4.136
10588SOL    HW232664   1.104   3.429   4.118
10589SOL     OW32665   4.863   6.464   4.109
10589SOL    HW132666   4.924   6.530   4.154
10589SOL    HW232667   4.822   6.404   4.177
10590SOL     OW32668   0.744   5.584   1.663
10590SOL    HW132669   0.673   5.632   1.714
10590SOL    HW232670   0.759   5.630   1.575
10591SOL     OW32671   1.040   1.565   1.049
10591SOL    HW132672   0.963   1.629   1.044
10591SOL    HW232673   1.097   1.586   1.128
10592SOL     OW32674   5.692   2.114   5.247
10592SOL    HW132675   5.769   2.100   5.184
10592SOL    HW232676   5.612   2.144   5.195
10593SOL     OW32677   2.622   6.911   1.176
10593SOL    HW132678   2.633   6.812   1.190
10593SOL    HW232679   2.550   6.945   1.236
10594SOL     OW32680   3.900   0.460   3.351
10594SOL    HW132681   3.912   0.368   3.314
10594SOL    HW232682   3.876   0.523   3.277
10595SOL     OW32683   5.893   0.682   0.721
10595SOL    HW132684   5.871   0.620   0.645
10595SOL    HW232685   5.815   0.741   0.740
10596SOL     OW32686   4.594   1.662   6.674
10596SOL    HW132687   4.508   1.638   6.718
10596SOL    HW232688   4.670   1.630   6.731
10597SOL     OW32689   2.217   0.312   6.165
10597SOL    HW132690   2.208   0.220   6.127
10597SOL    HW232691   2.257   0.306   6.257
10598SOL     OW32692   2.778   1.648   5.881
10598SOL    HW132693   2.799   1.625   5.976
10598SOL    HW232694   2.863   1.657   5.830
10599SOL     OW32695   6.643   4.105   6.210
10599SOL    HW132696   6.563   4.128   6.154
10599SOL    HW232697   6.649   4.005   6.219
10600SOL     OW32698   2.589   1.913   1.850
10600SOL    HW132699   2.590   1.904   1.950
10600SOL    HW232700   2.634   1.999   1.825
10601SOL     OW32701   0.148   6.527   6.866
10601SOL    HW132702   0.069   6.469   6.848
10601SOL    HW232703   0.181   6.567   6.781
10602SOL     OW32704   0.119   6.968   0.022
10602SOL    HW132705   0.074   0.022   0.068
10602SOL    HW232706   0.184   6.925   0.085
10603SOL     OW32707   4.359   6.801   1.907
10603SOL    HW132708   4.292   6.727   1.911
10603SOL    HW232709   4.435   6.774   1.847
10604SOL     OW32710   0.475   6.730   5.287
10604SOL    HW132711   0.504   6.823   5.307
10604SOL    HW232712   0.386   6.732   5.242
10605SOL     OW32713   2.534   1.062   0.870
10605SOL    HW132714   2.462   1.082   0.936
10605SOL    HW232715   2.505   0.988   0.810
10606SOL     OW32716   6.202   1.138   1.502
10606SOL    HW132717   6.266   1.072   1.463
10606SOL    HW232718   6.176   1.110   1.594
10607SOL     OW32719   4.271   4.450   6.060
10607SOL    HW132720   4.186   4.412   6.022
10607SOL    HW232721   4.310   4.387   6.126
10608SOL     OW32722   6.292   2.959   3.047
10608SOL    HW132723   6.254   2.896   2.979
10608SOL    HW232724   6.337   3.035   3.000
10609SOL     OW32725   3.581   0.436   0.062
10609SOL    HW132726   3.548   0.367   7.019
10609SOL    HW232727   3.638   0.502   0.013
10610SOL     OW32728   0.307   1.465   4.620
10610SOL    HW132729   0.254   1.548   4.604
10610SOL    HW232730   0.259   1.407   4.686
10611SOL     OW32731   2.622   5.612   4.921
10611SOL    HW132732   2.570   5.666   4.855
10611SOL    HW232733   2.564   5.539   4.957
10612SOL     OW32734   5.350   1.298   3.831
10612SOL    HW132735   5.445   1.318   3.804
10612SOL    HW232736   5.293   1.293   3.749
10613SOL     OW32737   6.475   6.345   3.907
10613SOL    HW132738   6.514   6.337   3.815
10613SOL    HW232739   6.377   6.327   3.903
10614SOL     OW32740   5.096   0.634   6.658
10614SOL    HW132741   5.171   0.682   6.704
10614SOL    HW232742   5.069   0.684   6.576
10615SOL     OW32743   2.632   2.188   6.269
10615SOL    HW132744   2.686   2.177   6.352
10615SOL    HW232745   2.665   2.124   6.199
10616SOL     OW32746   3.163   6.223   6.646
10616SOL    HW132747   3.150   6.131   6.608
10616SOL    HW232748   3.117   6.290   6.589
10617SOL     OW32749   2.838   3.074   1.675
10617SOL    HW132750   2.787   3.004   1.724
10617SOL    HW232751   2.936   3.057   1.685
10618SOL     OW32752   0.843   5.659   5.081
10618SOL    HW132753   0.778   5.662   5.156
10618SOL    HW232754   0.819   5.729   5.013
10619SOL     OW32755   1.010   1.975   3.151
10619SOL    HW132756   0.968   1.986   3.061
10619SOL    HW232757   0.979   2.047   3.212
10620SOL     OW32758   2.464   6.991   5.927
10620SOL    HW132759   2.560   7.008   5.902
10620SOL    HW232760   2.440   0.026   6.006
10621SOL     OW32761   1.332   3.954   3.119
10621SOL    HW132762   1.417   3.904   3.134
10621SOL    HW232763   1.347   4.027   3.052
10622SOL     OW32764   4.732   3.333   0.900
10622SOL    HW132765   4.671   3.256   0.919
10622SOL    HW232766   4.815   3.300   0.855
10623SOL     OW32767   6.038   5.885   5.952
10623SOL    HW132768   6.052   5.808   6.014
10623SOL    HW232769   5.940   5.903   5.943
10624SOL     OW32770   0.877   2.563   5.234
10624SOL    HW132771   0.922   2.492   5.289
10624SOL    HW232772   0.879   2.649   5.284
10625SOL     OW32773   6.782   3.810   6.888
10625SOL    HW132774   6.764   3.740   6.819
10625SOL    HW232775   6.863   3.786   6.941
10626SOL     OW32776   3.972   3.162   1.792
10626SOL    HW132777   3.981   3.063   1.805
10626SOL    HW232778   4.043   3.209   1.844
10627SOL     OW32779   5.812   6.530   5.743
10627SOL    HW132780   5.736   6.468   5.759
10627SOL    HW232781   5.884   6.512   5.810
10628SOL     OW32782   4.289   0.471   0.235
10628SOL    HW132783   4.266   0.376   0.217
10628SOL    HW232784   4.239   0.503   0.315
10629SOL     OW32785   3.840   5.401   5.038
10629SOL    HW132786   3.819   5.357   5.125
10629SOL    HW232787   3.805   5.344   4.963
10630SOL     OW32788   4.412   0.447   2.876
10630SOL    HW132789   4.334   0.391   2.903
10630SOL    HW232790   4.473   0.460   2.955
10631SOL     OW32791   4.675   5.626   6.931
10631SOL    HW132792   4.774   5.629   6.927
10631SOL    HW232793   4.637   5.673   6.851
10632SOL     OW32794   5.047   5.802   3.064
10632SOL    HW132795   4.975   5.764   3.122
10632SOL    HW232796   5.118   5.842   3.121
10633SOL     OW32797   2.099   3.010   2.099
10633SOL    HW132798   2.111   3.071   2.021
10633SOL    HW232799   2.127   2.918   2.073
10634SOL     OW32800   1.233   4.824   0.084
10634SOL    HW132801   1.138   4.852   0.100
10634SOL    HW232802   1.235   4.742   0.027
10635SOL     OW32803   2.505   3.471   0.463
10635SOL    HW132804   2.532   3.568   0.469
10635SOL    HW232805   2.528   3.436   0.372
10636SOL     OW32806   6.784   2.658   6.694
10636SOL    HW132807   6.784   2.652   6.594
10636SOL    HW232808   6.875   2.685   6.725
10637SOL     OW32809   2.702   6.593   6.554
10637SOL    HW132810   2.620   6.582   6.498
10637SOL    HW232811   2.783   6.588   6.496
10638SOL     OW32812   6.725   5.612   1.882
10638SOL    HW132813   6.764   5.700   1.909
10638SOL    HW232814   6.631   5.604   1.915
10639SOL     OW32815   2.383   3.581   1.630
10639SOL    HW132816   2.364   3.539   1.718
10639SOL    HW232817   2.479   3.612   1.628
10640SOL     OW32818   3.993   0.163   3.765
10640SOL    HW132819   3.912   0.107   3.782
10640SOL    HW232820   4.062   0.144   3.835
10641SOL     OW32821   1.163   0.375   3.386
10641SOL    HW132822   1.150   0.304   3.455
10641SOL    HW232823   1.150   0.465   3.428
10642SOL     OW32824   6.352   2.755   7.007
10642SOL    HW132825   6.328   2.852   7.017
10642SOL    HW232826   6.431   2.746   6.946
10643SOL     OW32827   1.633   4.956   5.360
10643SOL    HW132828   1.649   5.052   5.338
10643SOL    HW232829   1.720   4.909   5.372
10644SOL     OW32830   6.377   2.546   1.921
10644SOL    HW132831   6.356   2.513   2.013
10644SOL    HW232832   6.308   2.513   1.857
10645SOL     OW32833   2.190   3.005   3.163
10645SOL    HW132834   2.126   2.932   3.186
10645SOL    HW232835   2.234   3.038   3.247
10646SOL     OW32836   5.309   1.162   4.455
10646SOL    HW132837   5.257   1.164   4.540
10646SOL    HW232838   5.260   1.108   4.386
10647SOL     OW32839   4.226   4.894   5.332
10647SOL    HW132840   4.165   4.955   5.280
10647SOL    HW232841   4.204   4.900   5.429
10648SOL     OW32842   6.305   4.975   5.651
10648SOL    HW132843   6.283   5.039   5.577
10648SOL    HW232844   6.223   4.958   5.705
10649SOL     OW32845   0.263   3.332   3.886
10649SOL    HW132846   0.243   3.344   3.983
10649SOL    HW232847   0.343   3.386   3.861
10650SOL     OW32848   6.781   0.257   3.734
10650SOL    HW132849   6.852   0.211   3.681
10650SOL    HW232850   6.822   0.332   3.786
10651SOL     OW32851   5.332   6.454   5.939
10651SOL    HW132852   5.346   6.538   5.992
10651SOL    HW232853   5.351   6.375   5.997
10652SOL     OW32854   1.482   6.540   6.277
10652SOL    HW132855   1.396   6.590   6.273
10652SOL    HW232856   1.478   6.473   6.352
10653SOL     OW32857   3.866   6.166   4.873
10653SOL    HW132858   3.862   6.068   4.851
10653SOL    HW232859   3.810   6.184   4.954
10654SOL     OW32860   5.592   1.513   4.099
10654SOL    HW132861   5.685   1.499   4.132
10654SOL    HW232862   5.529   1.456   4.153
10655SOL     OW32863   1.390   4.795   1.362
10655SOL    HW132864   1.348   4.724   1.305
10655SOL    HW232865   1.335   4.806   1.446
10656SOL     OW32866   6.345   1.035   1.876
10656SOL    HW132867   6.324   1.007   1.970
10656SOL    HW232868   6.262   1.028   1.820
10657SOL     OW32869   6.115   0.815   4.188
10657SOL    HW132870   6.032   0.859   4.222
10657SOL    HW232871   6.162   0.768   4.263
10658SOL     OW32872   5.417   3.766   4.869
10658SOL    HW132873   5.323   3.799   4.881
10658SOL    HW232874   5.433   3.689   4.931
10659SOL     OW32875   0.842   4.662   0.949
10659SOL    HW132876   0.777   4.672   1.024
10659SOL    HW232877   0.935   4.657   0.985
10660SOL     OW32878   6.070   3.530   5.817
10660SOL    HW132879   5.974   3.540   5.791
10660SOL    HW232880   6.116   3.618   5.811
10661SOL     OW32881   1.149   4.142   0.424
10661SOL    HW132882   1.153   4.101   0.515
10661SOL    HW232883   1.094   4.225   0.427
10662SOL     OW32884   2.965   1.223   2.347
10662SOL    HW132885   3.007   1.133   2.350
10662SOL    HW232886   2.876   1.217   2.301
10663SOL     OW32887   1.384   1.076   3.424
10663SOL    HW132888   1.316   1.112   3.488
10663SOL    HW232889   1.346   1.076   3.331
10664SOL     OW32890   1.042   5.264   4.631
10664SOL    HW132891   0.985   5.340   4.662
10664SOL    HW232892   1.082   5.286   4.542
10665SOL     OW32893   2.238   3.312   6.884
10665SOL    HW132894   2.221   3.239   6.950
10665SOL    HW232895   2.241   3.274   6.792
10666SOL     OW32896   3.901   3.391   2.599
10666SOL    HW132897   3.815   3.347   2.625
10666SOL    HW232898   3.955   3.328   2.544
10667SOL     OW32899   4.937   1.814   3.135
10667SOL    HW132900   4.960   1.768   3.221
10667SOL    HW232901   4.894   1.902   3.154
10668SOL     OW32902   3.490   1.883   5.263
10668SOL    HW132903   3.425   1.957   5.276
10668SOL    HW232904   3.495   1.861   5.165
10669SOL     OW32905   5.676   0.735   0.503
10669SOL    HW132906   5.736   0.668   0.461
10669SOL    HW232907   5.680   0.821   0.452
10670SOL     OW32908   5.093   4.036   4.436
10670SOL    HW132909   5.129   3.970   4.502
10670SOL    HW232910   5.039   4.105   4.484
10671SOL     OW32911   0.942   1.431   4.390
10671SOL    HW132912   1.012   1.410   4.323
10671SOL    HW232913   0.895   1.515   4.363
10672SOL     OW32914   6.428   4.205   1.645
10672SOL    HW132915   6.440   4.215   1.743
10672SOL    HW232916   6.336   4.172   1.625
10673SOL     OW32917   1.999   0.288   0.899
10673SOL    HW132918   1.979   0.191   0.907
10673SOL    HW232919   2.093   0.306   0.927
10674SOL     OW32920   4.183   3.464   4.750
10674SOL    HW132921   4.174   3.449   4.849
10674SOL    HW232922   4.275   3.498   4.730
10675SOL     OW32923   3.413   1.211   6.610
10675SOL    HW132924   3.448   1.242   6.522
10675SOL    HW232925   3.413   1.287   6.675
10676SOL     OW32926   0.623   5.724   4.659
10676SOL    HW132927   0.604   5.737   4.756
10676SOL    HW232928   0.544   5.756   4.605
10677SOL     OW32929   1.897   1.219   1.140
10677SOL    HW132930   1.837   1.140   1.137
10677SOL    HW232931   1.922   1.239   1.235
10678SOL     OW32932   4.003   4.841   3.791
10678SOL    HW132933   4.047   4.927   3.764
10678SOL    HW232934   3.926   4.823   3.730
10679SOL     OW32935   3.833   4.959   7.009
10679SOL    HW132936   3.880   4.936   0.073
10679SOL    HW232937   3.900   4.970   6.936
10680SOL     OW32938   3.513   1.619   4.248
10680SOL    HW132939   3.557   1.538   4.285
10680SOL    HW232940   3.414   1.611   4.259
10681SOL     OW32941   0.349   3.621   0.403
10681SOL    HW132942   0.401   3.642   0.320
10681SOL    HW232943   0.281   3.551   0.382
10682SOL     OW32944   6.611   3.129   4.880
10682SOL    HW132945   6.708   3.145   4.898
10682SOL    HW232946   6.600   3.039   4.837
10683SOL     OW32947   4.252   0.472   3.476
10683SOL    HW132948   4.259   0.426   3.564
10683SOL    HW232949   4.268   0.570   3.488
10684SOL     OW32950   4.468   5.303   1.276
10684SOL    HW132951   4.508   5.379   1.327
10684SOL    HW232952   4.399   5.339   1.213
10685SOL     OW32953   6.677   5.718   1.110
10685SOL    HW132954   6.609   5.776   1.065
10685SOL    HW232955   6.755   5.704   1.048
10686SOL     OW32956   2.569   4.474   6.127
10686SOL    HW132957   2.579   4.375   6.115
10686SOL    HW232958   2.605   4.500   6.217
10687SOL     OW32959   6.171   4.872   3.330
10687SOL    HW132960   6.178   4.773   3.343
10687SOL    HW232961   6.260   4.908   3.300
10688SOL     OW32962   5.800   1.517   2.481
10688SOL    HW132963   5.786   1.453   2.405
10688SOL    HW232964   5.726   1.507   2.547
10689SOL     OW32965   0.032   0.072   1.370
10689SOL    HW132966   0.022   6.998   1.340
10689SOL    HW232967   0.126   0.103   1.353
10690SOL     OW32968   0.337   5.221   3.431
10690SOL    HW132969   0.365   5.141   3.378
10690SOL    HW232970   0.307   5.191   3.522
10691SOL     OW32971   1.973   1.599   1.836
10691SOL    HW132972   1.880   1.624   1.865
10691SOL    HW232973   2.029   1.682   1.831
10692SOL     OW32974   2.975   0.756   4.723
10692SOL    HW132975   3.042   0.829   4.713
10692SOL    HW232976   2.891   0.793   4.764
10693SOL     OW32977   0.653   6.262   1.543
10693SOL    HW132978   0.661   6.256   1.643
10693SOL    HW232979   0.650   6.170   1.504
10694SOL     OW32980   5.042   6.796   6.338
10694SOL    HW132981   4.991   6.723   6.291
10694SOL    HW232982   5.005   6.808   6.430
10695SOL     OW32983   1.395   2.678   1.188
10695SOL    HW132984   1.405   2.651   1.092
10695SOL    HW232985   1.437   2.768   1.201
10696SOL     OW32986   6.392   3.589   5.391
10696SOL    HW132987   6.377   3.525   5.466
10696SOL    HW232988   6.317   3.655   5.388
10697SOL     OW32989   0.011   6.646   5.624
10697SOL    HW132990   6.971   6.710   5.669
10697SOL    HW232991   6.980   6.568   5.590
10698SOL     OW32992   4.628   4.300   0.137
10698SOL    HW132993   4.607   4.291   0.234
10698SOL    HW232994   4.721   4.268   0.120
10699SOL     OW32995   3.620   4.761   0.869
10699SOL    HW132996   3.633   4.671   0.912
10699SOL    HW232997   3.527   4.767   0.833
10700SOL     OW32998   5.490   6.915   0.666
10700SOL    HW132999   5.539   6.953   0.744
10700SOL    HW233000   5.402   6.962   0.656
10701SOL     OW33001   3.002   0.379   6.085
10701SOL    HW133002   2.996   0.317   6.163
10701SOL    HW233003   3.091   0.424   6.084
10702SOL     OW33004   4.857   3.757   2.915
10702SOL    HW133005   4.845   3.659   2.932
10702SOL    HW233006   4.902   3.770   2.826
10703SOL     OW33007   2.035   3.087   5.501
10703SOL    HW133008   2.029   3.153   5.426
10703SOL    HW233009   2.129   3.080   5.533
10704SOL     OW33010   6.931   4.949   2.991
10704SOL    HW133011   6.998   4.988   3.054
10704SOL    HW233012   6.865   4.894   3.042
10705SOL     OW33013   5.790   5.423   1.350
10705SOL    HW133014   5.817   5.427   1.254
10705SOL    HW233015   5.692   5.408   1.357
10706SOL     OW33016   4.293   6.829   1.254
10706SOL    HW133017   4.282   6.747   1.310
10706SOL    HW233018   4.349   6.896   1.304
10707SOL     OW33019   0.564   6.922   4.112
10707SOL    HW133020   0.554   7.018   4.085
10707SOL    HW233021   0.482   6.892   4.162
10708SOL     OW33022   4.676   1.093   1.376
10708SOL    HW133023   4.642   1.186   1.362
10708SOL    HW233024   4.615   1.028   1.331
10709SOL     OW33025   5.516   4.675   4.897
10709SOL    HW133026   5.442   4.651   4.960
10709SOL    HW233027   5.604   4.655   4.940
10710SOL     OW33028   6.176   1.267   3.733
10710SOL    HW133029   6.095   1.244   3.679
10710SOL    HW233030   6.150   1.279   3.828
10711SOL     OW33031   2.463   6.591   4.044
10711SOL    HW133032   2.412   6.626   4.122
10711SOL    HW233033   2.468   6.491   4.049
10712SOL     OW33034   3.693   0.209   2.651
10712SOL    HW133035   3.678   0.186   2.747
10712SOL    HW233036   3.617   0.174   2.596
10713SOL     OW33037   1.019   2.733   0.192
10713SOL    HW133038   1.077   2.654   0.210
10713SOL    HW233039   1.050   2.780   0.110
10714SOL     OW33040   4.271   3.442   5.344
10714SOL    HW133041   4.242   3.358   5.297
10714SOL    HW233042   4.371   3.447   5.344
10715SOL     OW33043   4.608   0.277   2.295
10715SOL    HW133044   4.540   0.206   2.279
10715SOL    HW233045   4.584   0.358   2.241
10716SOL     OW33046   5.774   2.739   3.081
10716SOL    HW133047   5.801   2.835   3.082
10716SOL    HW233048   5.819   2.691   3.157
10717SOL     OW33049   1.694   2.813   0.885
10717SOL    HW133050   1.671   2.770   0.972
10717SOL    HW233051   1.762   2.758   0.837
10718SOL     OW33052   1.310   3.837   6.882
10718SOL    HW133053   1.296   3.808   6.788
10718SOL    HW233054   1.392   3.793   6.920
10719SOL     OW33055   6.800   5.798   3.554
10719SOL    HW133056   6.762   5.887   3.582
10719SOL    HW233057   6.740   5.725   3.585
10720SOL     OW33058   6.237   5.298   4.845
10720SOL    HW133059   6.204   5.204   4.848
10720SOL    HW233060   6.181   5.355   4.905
10721SOL     OW33061   5.186   3.857   5.209
10721SOL    HW133062   5.232   3.797   5.275
10721SOL    HW233063   5.199   3.821   5.116
10722SOL     OW33064   0.367   5.033   1.083
10722SOL    HW133065   0.459   5.056   1.053
10722SOL    HW233066   0.303   5.048   1.007
10723SOL     OW33067   0.260   2.134   6.233
10723SOL    HW133068   0.311   2.167   6.153
10723SOL    HW233069   0.197   2.062   6.205
10724SOL     OW33070   5.961   6.877   6.038
10724SOL    HW133071   5.920   6.963   6.008
10724SOL    HW233072   6.050   6.865   5.994
10725SOL     OW33073   2.158   5.875   5.090
10725SOL    HW133074   2.230   5.883   5.158
10725SOL    HW233075   2.123   5.967   5.068
10726SOL     OW33076   5.829   0.872   4.030
10726SOL    HW133077   5.824   0.969   4.053
10726SOL    HW233078   5.881   0.823   4.100
10727SOL     OW33079   0.882   5.125   5.711
10727SOL    HW133080   0.820   5.151   5.637
10727SOL    HW233081   0.931   5.041   5.687
10728SOL     OW33082   1.217   4.928   6.568
10728SOL    HW133083   1.176   5.000   6.623
10728SOL    HW233084   1.152   4.853   6.555
10729SOL     OW33085   5.870   1.249   2.650
10729SOL    HW133086   5.857   1.179   2.580
10729SOL    HW233087   5.898   1.335   2.607
10730SOL     OW33088   2.427   0.349   1.435
10730SOL    HW133089   2.454   0.253   1.442
10730SOL    HW233090   2.331   0.359   1.459
10731SOL     OW33091   3.376   1.480   0.673
10731SOL    HW133092   3.294   1.532   0.652
10731SOL    HW233093   3.457   1.530   0.643
10732SOL     OW33094   0.205   4.617   5.111
10732SOL    HW133095   0.184   4.528   5.152
10732SOL    HW233096   0.262   4.669   5.174
10733SOL     OW33097   6.797   2.023   6.428
10733SOL    HW133098   6.886   2.060   6.453
10733SOL    HW233099   6.730   2.047   6.499
10734SOL     OW33100   1.045   0.830   0.631
10734SOL    HW133101   1.069   0.734   0.616
10734SOL    HW233102   1.113   0.889   0.586
10735SOL     OW33103   0.192   3.176   2.166
10735SOL    HW133104   0.256   3.228   2.109
10735SOL    HW233105   0.215   3.190   2.262
10736SOL     OW33106   1.256   0.563   3.596
10736SOL    HW133107   1.323   0.632   3.623
10736SOL    HW233108   1.171   0.576   3.647
10737SOL     OW33109   1.543   1.689   0.228
10737SOL    HW133110   1.479   1.699   0.304
10737SOL    HW233111   1.600   1.770   0.221
10738SOL     OW33112   2.559   6.732   2.991
10738SOL    HW133113   2.492   6.792   2.948
10738SOL    HW233114   2.616   6.689   2.921
10739SOL     OW33115   2.042   0.887   1.649
10739SOL    HW133116   1.978   0.919   1.719
10739SOL    HW233117   1.992   0.843   1.575
10740SOL     OW33118   0.520   5.104   5.349
10740SOL    HW133119   0.423   5.107   5.372
10740SOL    HW233120   0.536   5.152   5.263
10741SOL     OW33121   4.363   0.889   1.353
10741SOL    HW133122   4.358   0.973   1.407
10741SOL    HW233123   4.279   0.836   1.365
10742SOL     OW33124   5.476   6.905   1.145
10742SOL    HW133125   5.563   6.874   1.184
10742SOL    HW233126   5.459   7.000   1.173
10743SOL     OW33127   1.375   2.826   5.542
10743SOL    HW133128   1.299   2.881   5.577
10743SOL    HW233129   1.458   2.847   5.594
10744SOL     OW33130   3.080   1.626   0.909
10744SOL    HW133131   3.105   1.628   1.006
10744SOL    HW233132   3.095   1.717   0.869
10745SOL     OW33133   6.514   5.618   5.915
10745SOL    HW133134   6.544   5.636   5.821
10745SOL    HW233135   6.486   5.704   5.958
10746SOL     OW33136   2.100   4.790   1.153
10746SOL    HW133137   2.154   4.714   1.189
10746SOL    HW233138   2.005   4.780   1.183
10747SOL     OW33139   3.809   1.105   4.922
10747SOL    HW133140   3.899   1.139   4.950
10747SOL    HW233141   3.748   1.182   4.905
10748SOL     OW33142   5.453   1.473   0.567
10748SOL    HW133143   5.401   1.522   0.638
10748SOL    HW233144   5.500   1.395   0.609
10749SOL     OW33145   0.252   5.359   3.817
10749SOL    HW133146   0.168   5.385   3.769
10749SOL    HW233147   0.251   5.398   3.909
10750SOL     OW33148   4.521   6.258   4.748
10750SOL    HW133149   4.615   6.226   4.759
10750SOL    HW233150   4.480   6.213   4.668
10751SOL     OW33151   1.875   4.764   4.452
10751SOL    HW133152   1.861   4.669   4.480
10751SOL    HW233153   1.786   4.809   4.443
10752SOL     OW33154   5.901   4.968   5.410
10752SOL    HW133155   5.992   4.952   5.371
10752SOL    HW233156   5.832   4.959   5.339
10753SOL     OW33157   5.957   4.638   4.463
10753SOL    HW133158   6.049   4.621   4.430
10753SOL    HW233159   5.961   4.680   4.554
10754SOL     OW33160   0.566   6.849   3.727
10754SOL    HW133161   0.550   6.945   3.750
10754SOL    HW233162   0.658   6.839   3.687
10755SOL     OW33163   0.115   0.329   0.780
10755SOL    HW133164   0.171   0.387   0.721
10755SOL    HW233165   0.063   0.387   0.843
10756SOL     OW33166   6.460   4.951   6.317
10756SOL    HW133167   6.442   4.855   6.295
10756SOL    HW233168   6.384   5.007   6.283
10757SOL     OW33169   1.644   2.739   0.043
10757SOL    HW133170   1.707   2.776   6.996
10757SOL    HW233171   1.555   2.783   0.033
10758SOL     OW33172   0.958   5.673   4.192
10758SOL    HW133173   0.920   5.627   4.112
10758SOL    HW233174   0.906   5.647   4.273
10759SOL     OW33175   1.603   3.919   1.745
10759SOL    HW133176   1.598   4.005   1.795
10759SOL    HW233177   1.548   3.849   1.791
10760SOL     OW33178   5.220   0.384   2.818
10760SOL    HW133179   5.192   0.474   2.853
10760SOL    HW233180   5.188   0.313   2.880
10761SOL     OW33181   0.418   5.999   5.871
10761SOL    HW133182   0.488   5.928   5.862
10761SOL    HW233183   0.354   5.993   5.794
10762SOL     OW33184   2.903   1.731   4.339
10762SOL    HW133185   2.874   1.826   4.323
10762SOL    HW233186   2.987   1.713   4.287
10763SOL     OW33187   4.103   6.780   2.302
10763SOL    HW133188   4.188   6.796   2.353
10763SOL    HW233189   4.121   6.785   2.204
10764SOL     OW33190   5.197   2.143   5.805
10764SOL    HW133191   5.172   2.096   5.721
10764SOL    HW233192   5.196   2.242   5.789
10765SOL     OW33193   4.903   2.879   0.653
10765SOL    HW133194   4.931   2.851   0.745
10765SOL    HW233195   4.806   2.904   0.654
10766SOL     OW33196   4.153   5.156   0.522
10766SOL    HW133197   4.070   5.191   0.479
10766SOL    HW233198   4.226   5.152   0.455
10767SOL     OW33199   2.148   0.324   1.500
10767SOL    HW133200   2.060   0.328   1.452
10767SOL    HW233201   2.133   0.309   1.597
10768SOL     OW33202   5.043   5.131   1.354
10768SOL    HW133203   5.025   5.055   1.417
10768SOL    HW233204   4.958   5.154   1.305
10769SOL     OW33205   2.288   4.067   5.386
10769SOL    HW133206   2.363   4.071   5.320
10769SOL    HW233207   2.324   4.076   5.479
10770SOL     OW33208   5.054   6.620   4.256
10770SOL    HW133209   4.987   6.687   4.287
10770SOL    HW233210   5.066   6.550   4.326
10771SOL     OW33211   4.799   6.745   4.060
10771SOL    HW133212   4.830   6.671   4.001
10771SOL    HW233213   4.750   6.813   4.004
10772SOL     OW33214   6.450   0.287   4.589
10772SOL    HW133215   6.528   0.292   4.651
10772SOL    HW233216   6.437   0.192   4.560
10773SOL     OW33217   5.847   5.579   6.443
10773SOL    HW133218   5.792   5.538   6.370
10773SOL    HW233219   5.854   5.514   6.519
10774SOL     OW33220   2.138   1.595   6.117
10774SOL    HW133221   2.199   1.668   6.148
10774SOL    HW233222   2.175   1.553   6.034
10775SOL     OW33223   0.443   4.515   2.787
10775SOL    HW133224   0.374   4.585   2.809
10775SOL    HW233225   0.502   4.549   2.715
10776SOL     OW33226   0.626   0.761   6.099
10776SOL    HW133227   0.580   0.820   6.166
10776SOL    HW233228   0.570   0.753   6.017
10777SOL     OW33229   3.873   5.418   1.916
10777SOL    HW133230   3.850   5.343   1.978
10777SOL    HW233231   3.820   5.409   1.832
10778SOL     OW33232   4.769   0.084   3.485
10778SOL    HW133233   4.745   7.008   3.475
10778SOL    HW233234   4.837   0.094   3.557
10779SOL     OW33235   5.788   2.971   3.531
10779SOL    HW133236   5.791   2.875   3.501
10779SOL    HW233237   5.758   3.029   3.455
10780SOL     OW33238   1.770   0.631   4.512
10780SOL    HW133239   1.709   0.563   4.470
10780SOL    HW233240   1.720   0.685   4.579
10781SOL     OW33241   4.627   1.202   4.069
10781SOL    HW133242   4.680   1.140   4.011
10781SOL    HW233243   4.576   1.149   4.137
10782SOL     OW33244   0.080   0.492   3.114
10782SOL    HW133245   0.069   0.404   3.160
10782SOL    HW233246   0.002   0.507   3.053
10783SOL     OW33247   0.773   2.195   2.286
10783SOL    HW133248   0.732   2.104   2.273
10783SOL    HW233249   0.852   2.204   2.225
10784SOL     OW33250   4.104   0.571   4.477
10784SOL    HW133251   4.089   0.512   4.398
10784SOL    HW233252   4.021   0.577   4.531
10785SOL     OW33253   0.580   4.182   0.337
10785SOL    HW133254   0.537   4.163   0.426
10785SOL    HW233255   0.654   4.248   0.350
10786SOL     OW33256   6.579   5.249   3.336
10786SOL    HW133257   6.674   5.218   3.347
10786SOL    HW233258   6.547   5.289   3.422
10787SOL     OW33259   1.545   1.243   6.071
10787SOL    HW133260   1.587   1.322   6.116
10787SOL    HW233261   1.528   1.263   5.975
10788SOL     OW33262   1.182   4.065   6.976
10788SOL    HW133263   1.226   4.009   6.906
10788SOL    HW233264   1.219   4.041   0.045
10789SOL     OW33265   6.605   3.465   6.854
10789SOL    HW133266   6.682   3.501   6.906
10789SOL    HW233267   6.592   3.368   6.876
10790SOL     OW33268   0.785   6.833   1.718
10790SOL    HW133269   0.766   6.892   1.640
10790SOL    HW233270   0.882   6.806   1.716
10791SOL     OW33271   0.510   5.683   1.767
10791SOL    HW133272   0.498   5.677   1.866
10791SOL    HW233273   0.434   5.637   1.722
10792SOL     OW33274   3.213   2.988   4.858
10792SOL    HW133275   3.218   2.958   4.763
10792SOL    HW233276   3.305   2.993   4.897
10793SOL     OW33277   6.343   3.961   6.163
10793SOL    HW133278   6.329   3.862   6.160
10793SOL    HW233279   6.374   3.987   6.255
10794SOL     OW33280   3.927   3.648   4.328
10794SOL    HW133281   3.986   3.706   4.273
10794SOL    HW233282   3.931   3.554   4.295
10795SOL     OW33283   0.152   4.938   2.651
10795SOL    HW133284   0.184   4.977   2.564
10795SOL    HW233285   0.216   4.965   2.723
10796SOL     OW33286   6.409   0.057   5.582
10796SOL    HW133287   6.380   0.149   5.608
10796SOL    HW233288   6.461   0.016   5.657
10797SOL     OW33289   2.835   2.445   1.155
10797SOL    HW133290   2.832   2.449   1.055
10797SOL    HW233291   2.900   2.513   1.189
10798SOL     OW33292   2.539   0.914   0.628
10798SOL    HW133293   2.598   0.878   0.555
10798SOL    HW233294   2.476   0.842   0.657
10799SOL     OW33295   4.349   0.814   2.429
10799SOL    HW133296   4.400   0.776   2.507
10799SOL    HW233297   4.275   0.872   2.463
10800SOL     OW33298   0.912   5.929   5.757
10800SOL    HW133299   0.961   5.842   5.765
10800SOL    HW233300   0.922   5.965   5.664
10801SOL     OW33301   0.932   0.058   0.028
10801SOL    HW133302   0.964   6.999   0.078
10801SOL    HW233303   0.849   0.035   6.999
10802SOL     OW33304   0.607   0.346   2.170
10802SOL    HW133305   0.582   0.308   2.259
10802SOL    HW233306   0.614   0.272   2.103
10803SOL     OW33307   1.416   5.591   5.373
10803SOL    HW133308   1.501   5.584   5.425
10803SOL    HW233309   1.400   5.504   5.324
10804SOL     OW33310   6.220   3.296   2.643
10804SOL    HW133311   6.122   3.279   2.635
10804SOL    HW233312   6.243   3.378   2.591
10805SOL     OW33313   4.971   0.624   5.058
10805SOL    HW133314   4.898   0.686   5.029
10805SOL    HW233315   5.038   0.674   5.113
10806SOL     OW33316   3.549   4.116   6.005
10806SOL    HW133317   3.512   4.175   6.076
10806SOL    HW233318   3.555   4.022   6.040
10807SOL     OW33319   1.480   6.479   3.519
10807SOL    HW133320   1.537   6.561   3.510
10807SOL    HW233321   1.426   6.484   3.602
10808SOL     OW33322   6.972   2.524   5.747
10808SOL    HW133323   6.956   2.609   5.796
10808SOL    HW233324   0.039   2.486   5.774
10809SOL     OW33325   2.473   4.481   3.516
10809SOL    HW133326   2.483   4.551   3.587
10809SOL    HW233327   2.408   4.411   3.547
10810SOL     OW33328   0.176   0.081   3.975
10810SOL    HW133329   0.173   7.003   3.961
10810SOL    HW233330   0.111   0.107   4.046
10811SOL     OW33331   4.569   4.785   5.552
10811SOL    HW133332   4.547   4.881   5.538
10811SOL    HW233333   4.663   4.767   5.523
10812SOL     OW33334   6.981   3.731   0.040
10812SOL    HW133335   6.974   3.803   0.109
10812SOL    HW233336   0.050   3.736   7.018
10813SOL     OW33337   0.922   3.520   6.232
10813SOL    HW133338   1.012   3.484   6.209
10813SOL    HW233339   0.855   3.445   6.228
10814SOL     OW33340   2.115   6.757   6.687
10814SOL    HW133341   2.098   6.705   6.771
10814SOL    HW233342   2.105   6.855   6.706
10815SOL     OW33343   5.077   3.208   3.164
10815SOL    HW133344   5.068   3.227   3.262
10815SOL    HW233345   5.134   3.127   3.151
10816SOL     OW33346   3.140   3.307   2.717
10816SOL    HW133347   3.236   3.279   2.722
10816SOL    HW233348   3.121   3.347   2.627
10817SOL     OW33349   3.867   0.487   4.059
10817SOL    HW133350   3.823   0.409   4.103
10817SOL    HW233351   3.799   0.539   4.007
10818SOL     OW33352   4.688   4.517   5.746
10818SOL    HW133353   4.595   4.553   5.739
10818SOL    HW233354   4.685   4.421   5.772
10819SOL     OW33355   6.140   5.400   6.378
10819SOL    HW133356   6.059   5.341   6.369
10819SOL    HW233357   6.128   5.462   6.455
10820SOL     OW33358   6.954   5.317   4.435
10820SOL    HW133359   6.994   5.291   4.347
10820SOL    HW233360   6.931   5.235   4.487
10821SOL     OW33361   4.465   0.052   2.522
10821SOL    HW133362   4.560   0.076   2.539
10821SOL    HW233363   4.446   0.058   2.424
10822SOL     OW33364   6.597   1.724   2.150
10822SOL    HW133365   6.610   1.793   2.079
10822SOL    HW233366   6.500   1.719   2.175
10823SOL     OW33367   0.300   0.253   2.945
10823SOL    HW133368   0.369   0.297   3.003
10823SOL    HW233369   0.257   0.322   2.886
10824SOL     OW33370   0.238   1.134   2.188
10824SOL    HW133371   0.208   1.040   2.178
10824SOL    HW233372   0.252   1.175   2.097
10825SOL     OW33373   1.571   2.127   0.513
10825SOL    HW133374   1.630   2.115   0.593
10825SOL    HW233375   1.627   2.143   0.432
10826SOL     OW33376   0.690   1.558   2.387
10826SOL    HW133377   0.631   1.487   2.347
10826SOL    HW233378   0.731   1.611   2.313
10827SOL     OW33379   0.034   3.308   4.615
10827SOL    HW133380   0.026   3.387   4.553
10827SOL    HW233381   0.109   3.250   4.584
10828SOL     OW33382   1.006   4.178   0.704
10828SOL    HW133383   1.003   4.078   0.714
10828SOL    HW233384   1.004   4.220   0.794
10829SOL     OW33385   4.886   3.344   0.323
10829SOL    HW133386   4.925   3.253   0.309
10829SOL    HW233387   4.791   3.336   0.351
10830SOL     OW33388   4.562   1.799   3.261
10830SOL    HW133389   4.589   1.705   3.242
10830SOL    HW233390   4.510   1.802   3.347
10831SOL     OW33391   2.878   6.271   2.249
10831SOL    HW133392   2.840   6.325   2.174
10831SOL    HW233393   2.864   6.319   2.336
10832SOL     OW33394   6.497   3.872   6.899
10832SOL    HW133395   6.547   3.817   6.966
10832SOL    HW233396   6.562   3.924   6.844
10833SOL     OW33397   0.646   1.806   0.369
10833SOL    HW133398   0.744   1.787   0.372
10833SOL    HW233399   0.612   1.796   0.276
10834SOL     OW33400   6.693   1.965   0.061
10834SOL    HW133401   6.731   1.873   0.069
10834SOL    HW233402   6.598   1.964   0.091
10835SOL     OW33403   5.518   3.616   0.559
10835SOL    HW133404   5.421   3.599   0.580
10835SOL    HW233405   5.575   3.548   0.606
10836SOL     OW33406   0.280   1.046   2.785
10836SOL    HW133407   0.373   1.082   2.794
10836SOL    HW233408   0.273   0.994   2.701
10837SOL     OW33409   6.570   4.800   1.940
10837SOL    HW133410   6.553   4.816   1.843
10837SOL    HW233411   6.635   4.867   1.974
10838SOL     OW33412   5.831   6.562   3.901
10838SOL    HW133413   5.846   6.465   3.922
10838SOL    HW233414   5.910   6.616   3.929
10839SOL     OW33415   4.731   3.562   0.751
10839SOL    HW133416   4.810   3.599   0.798
10839SOL    HW233417   4.695   3.483   0.802
10840SOL     OW33418   3.583   6.650   2.224
10840SOL    HW133419   3.672   6.620   2.260
10840SOL    HW233420   3.577   6.750   2.229
10841SOL     OW33421   6.394   4.949   5.063
10841SOL    HW133422   6.463   4.936   4.992
10841SOL    HW233423   6.438   4.952   5.153
10842SOL     OW33424   4.985   1.996   1.599
10842SOL    HW133425   4.898   2.031   1.635
10842SOL    HW233426   4.975   1.973   1.502
10843SOL     OW33427   1.678   1.430   1.506
10843SOL    HW133428   1.679   1.382   1.418
10843SOL    HW233429   1.772   1.443   1.538
10844SOL     OW33430   6.632   4.854   3.059
10844SOL    HW133431   6.650   4.862   3.157
10844SOL    HW233432   6.583   4.769   3.040
10845SOL     OW33433   4.617   6.008   5.424
10845SOL    HW133434   4.584   5.943   5.492
10845SOL    HW233435   4.573   6.096   5.438
10846SOL     OW33436   5.248   0.573   6.990
10846SOL    HW133437   5.190   0.495   6.970
10846SOL    HW233438   5.267   0.623   6.905
10847SOL     OW33439   2.942   2.198   0.208
10847SOL    HW133440   2.907   2.288   0.235
10847SOL    HW233441   3.038   2.207   0.180
10848SOL     OW33442   0.659   3.983   0.622
10848SOL    HW133443   0.695   3.896   0.590
10848SOL    HW233444   0.633   4.039   0.543
10849SOL     OW33445   2.444   4.418   4.109
10849SOL    HW133446   2.430   4.326   4.073
10849SOL    HW233447   2.363   4.474   4.090
10850SOL     OW33448   3.415   6.331   6.601
10850SOL    HW133449   3.327   6.289   6.621
10850SOL    HW233450   3.477   6.317   6.679
10851SOL     OW33451   3.125   3.765   1.147
10851SOL    HW133452   3.163   3.684   1.103
10851SOL    HW233453   3.160   3.771   1.241
10852SOL     OW33454   1.776   1.116   6.729
10852SOL    HW133455   1.846   1.123   6.799
10852SOL    HW233456   1.730   1.027   6.737
10853SOL     OW33457   2.602   3.175   6.073
10853SOL    HW133458   2.594   3.232   6.155
10853SOL    HW233459   2.548   3.092   6.085
10854SOL     OW33460   4.426   5.139   5.479
10854SOL    HW133461   4.495   5.189   5.425
10854SOL    HW233462   4.355   5.104   5.418
10855SOL     OW33463   4.061   0.949   0.616
10855SOL    HW133464   4.071   0.897   0.531
10855SOL    HW233465   3.967   0.984   0.622
10856SOL     OW33466   6.583   1.416   6.900
10856SOL    HW133467   6.655   1.450   6.839
10856SOL    HW233468   6.591   1.460   6.989
10857SOL     OW33469   0.269   2.517   2.731
10857SOL    HW133470   0.291   2.433   2.682
10857SOL    HW233471   0.171   2.534   2.727
10858SOL     OW33472   1.096   0.115   0.514
10858SOL    HW133473   1.116   0.138   0.610
10858SOL    HW233474   0.997   0.109   0.501
10859SOL     OW33475   0.181   4.398   4.539
10859SOL    HW133476   0.242   4.402   4.461
10859SOL    HW233477   0.125   4.481   4.542
10860SOL     OW33478   0.425   3.038   4.357
10860SOL    HW133479   0.376   3.110   4.405
10860SOL    HW233480   0.364   2.960   4.343
10861SOL     OW33481   3.335   2.919   3.265
10861SOL    HW133482   3.267   2.878   3.204
10861SOL    HW233483   3.325   3.018   3.265
10862SOL     OW33484   1.578   0.858   5.524
10862SOL    HW133485   1.666   0.903   5.511
10862SOL    HW233486   1.586   0.761   5.499
10863SOL     OW33487   2.250   0.506   4.496
10863SOL    HW133488   2.269   0.428   4.557
10863SOL    HW233489   2.168   0.553   4.528
10864SOL     OW33490   3.300   6.406   0.414
10864SOL    HW133491   3.273   6.319   0.375
10864SOL    HW233492   3.237   6.430   0.488
10865SOL     OW33493   6.496   1.505   0.570
10865SOL    HW133494   6.586   1.473   0.539
10865SOL    HW233495   6.464   1.447   0.645
10866SOL     OW33496   5.457   4.970   0.764
10866SOL    HW133497   5.531   5.018   0.717
10866SOL    HW233498   5.494   4.896   0.819
10867SOL     OW33499   2.835   4.344   0.543
10867SOL    HW133500   2.932   4.347   0.570
10867SOL    HW233501   2.780   4.317   0.621
10868SOL     OW33502   5.172   1.820   3.742
10868SOL    HW133503   5.125   1.736   3.768
10868SOL    HW233504   5.113   1.874   3.682
10869NA      NA33505   6.614   3.038   5.524
10870NA      NA33506   4.564   4.550   5.143
10871NA      NA33507   1.446   3.023   1.559
10872NA      NA33508   4.964   3.910   5.339
10873NA      NA33509   4.112   2.289   5.217
10874NA      NA33510   3.554   4.770   1.697
10875NA      NA33511   6.619   4.941   6.512
10876NA      NA33512   3.108   3.575   4.914
10877NA      NA33513   4.333   6.188   6.847
10878NA      NA33514   4.103   6.404   5.319
10879NA      NA33515   6.659   5.218   2.421
10880NA      NA33516   2.385   0.188   3.533
10881NA      NA33517   4.228   5.726   1.880
10882NA      NA33518   3.924   3.617   2.487
   7.02126   7.02126   7.02126
